Generated by trjconv : CNT in water t= 208.00000
33518
    1C        C    1   2.844   2.767   4.746
    1C        C    2   2.899   2.719   4.867
    1C        C    3   2.844   2.774   4.984
    1C        C    4   2.850   2.768   4.258
    1C        C    5   2.901   2.726   4.383
    1C        C    6   2.849   2.773   4.505
    1C        C    7   3.016   2.638   4.624
    1C        C    8   2.899   2.717   4.625
    1C        C    9   3.077   2.602   4.746
    1C        C   10   3.010   2.632   4.866
    1C        C   11   3.179   2.485   4.972
    1C        C   12   3.058   2.556   4.973
    1C        C   13   2.849   2.767   3.772
    1C        C   14   2.901   2.718   3.894
    1C        C   15   2.848   2.770   4.015
    1C        C   16   3.017   2.638   4.138
    1C        C   17   2.902   2.719   4.135
    1C        C   18   3.079   2.607   4.261
    1C        C   19   3.018   2.647   4.382
    1C        C   20   3.209   2.550   4.503
    1C        C   21   3.079   2.605   4.502
    1C        C   22   3.278   2.522   4.623
    1C        C   23   3.209   2.548   4.744
    1C        C   24   3.411   2.477   4.865
    1C        C   25   3.271   2.507   4.865
    1C        C   26   3.489   2.473   4.982
    1C        C   27   2.849   2.767   3.281
    1C        C   28   2.906   2.726   3.404
    1C        C   29   2.857   2.775   3.527
    1C        C   30   3.018   2.639   3.649
    1C        C   31   2.903   2.722   3.650
    1C        C   32   3.072   2.594   3.771
    1C        C   33   3.010   2.629   3.893
    1C        C   34   3.206   2.549   4.014
    1C        C   35   3.073   2.597   4.015
    1C        C   36   3.274   2.529   4.137
    1C        C   37   3.209   2.551   4.260
    1C        C   38   3.417   2.505   4.379
    1C        C   39   3.278   2.531   4.381
    1C        C   40   3.488   2.500   4.501
    1C        C   41   3.417   2.500   4.624
    1C        C   42   3.628   2.481   4.745
    1C        C   43   3.486   2.478   4.745
    1C        C   44   3.705   2.480   4.864
    1C        C   45   3.628   2.462   4.979
    1C        C   46   2.839   2.754   2.791
    1C        C   47   2.897   2.715   2.914
    1C        C   48   2.846   2.761   3.038
    1C        C   49   3.017   2.635   3.162
    1C        C   50   2.904   2.720   3.160
    1C        C   51   3.082   2.602   3.283
    1C        C   52   3.016   2.639   3.403
    1C        C   53   3.207   2.546   3.527
    1C        C   54   3.078   2.605   3.525
    1C        C   55   3.275   2.523   3.649
    1C        C   56   3.204   2.542   3.769
    1C        C   57   3.412   2.504   3.892
    1C        C   58   3.273   2.526   3.892
    1C        C   59   3.483   2.499   4.013
    1C        C   60   3.412   2.497   4.135
    1C        C   61   3.626   2.495   4.257
    1C        C   62   3.485   2.491   4.256
    1C        C   63   3.698   2.504   4.378
    1C        C   64   3.629   2.497   4.501
    1C        C   65   3.834   2.538   4.623
    1C        C   66   3.699   2.497   4.624
    1C        C   67   3.901   2.566   4.744
    1C        C   68   3.837   2.531   4.865
    1C        C   69   4.052   2.581   4.975
    1C        C   70   3.920   2.536   4.978
    1C        C   71   2.823   2.734   2.307
    1C        C   72   2.880   2.688   2.427
    1C        C   73   2.832   2.744   2.548
    1C        C   74   3.005   2.621   2.672
    1C        C   75   2.890   2.703   2.669
    1C        C   76   3.070   2.591   2.794
    1C        C   77   3.011   2.633   2.915
    1C        C   78   3.202   2.541   3.036
    1C        C   79   3.073   2.597   3.038
    1C        C   80   3.273   2.526   3.157
    1C        C   81   3.211   2.544   3.283
    1C        C   82   3.414   2.495   3.402
    1C        C   83   3.274   2.519   3.406
    1C        C   84   3.484   2.489   3.525
    1C        C   85   3.414   2.496   3.648
    1C        C   86   3.625   2.499   3.769
    1C        C   87   3.484   2.492   3.770
    1C        C   88   3.694   2.513   3.892
    1C        C   89   3.625   2.506   4.015
    1C        C   90   3.834   2.545   4.135
    1C        C   91   3.696   2.514   4.136
    1C        C   92   3.899   2.572   4.257
    1C        C   93   3.833   2.545   4.379
    1C        C   94   4.023   2.639   4.498
    1C        C   95   3.900   2.570   4.501
    1C        C   96   4.083   2.678   4.620
    1C        C   97   4.024   2.637   4.742
    1C        C   98   4.186   2.770   4.861
    1C        C   99   4.094   2.661   4.864
    1C        C  100   4.217   2.845   4.976
    1C        C  101   2.817   2.729   2.072
    1C        C  102   2.985   2.586   2.192
    1C        C  103   2.871   2.673   2.188
    1C        C  104   3.062   2.573   2.310
    1C        C  105   3.001   2.615   2.430
    1C        C  106   3.196   2.524   2.550
    1C        C  107   3.070   2.587   2.551
    1C        C  108   3.266   2.505   2.672
    1C        C  109   3.201   2.537   2.793
    1C        C  110   3.409   2.493   2.913
    1C        C  111   3.270   2.517   2.914
    1C        C  112   3.480   2.488   3.035
    1C        C  113   3.412   2.499   3.158
    1C        C  114   3.624   2.492   3.279
    1C        C  115   3.483   2.488   3.279
    1C        C  116   3.695   2.504   3.401
    1C        C  117   3.625   2.499   3.523
    1C        C  118   3.829   2.548   3.645
    1C        C  119   3.693   2.513   3.646
    1C        C  120   3.895   2.574   3.768
    1C        C  121   3.829   2.553   3.891
    1C        C  122   4.020   2.644   4.014
    1C        C  123   3.899   2.571   4.012
    1C        C  124   4.084   2.679   4.135
    1C        C  125   4.023   2.640   4.256
    1C        C  126   4.192   2.770   4.377
    1C        C  127   4.085   2.678   4.378
    1C        C  128   4.240   2.823   4.498
    1C        C  129   4.189   2.771   4.619
    1C        C  130   4.325   2.935   4.737
    1C        C  131   4.242   2.820   4.741
    1C        C  132   4.360   3.001   4.857
    1C        C  133   4.288   2.964   4.972
    1C        C  134   3.171   2.464   2.082
    1C        C  135   3.037   2.507   2.084
    1C        C  136   3.258   2.476   2.191
    1C        C  137   3.192   2.514   2.310
    1C        C  138   3.405   2.477   2.427
    1C        C  139   3.265   2.498   2.430
    1C        C  140   3.478   2.474   2.548
    1C        C  141   3.405   2.483   2.669
    1C        C  142   3.619   2.497   2.788
    1C        C  143   3.479   2.484   2.790
    1C        C  144   3.690   2.503   2.911
    1C        C  145   3.621   2.491   3.034
    1C        C  146   3.829   2.540   3.154
    1C        C  147   3.693   2.502   3.155
    1C        C  148   3.896   2.567   3.276
    1C        C  149   3.831   2.542   3.398
    1C        C  150   4.022   2.628   3.520
    1C        C  151   3.895   2.567   3.522
    1C        C  152   4.077   2.674   3.642
    1C        C  153   4.020   2.640   3.767
    1C        C  154   4.185   2.771   3.888
    1C        C  155   4.077   2.680   3.890
    1C        C  156   4.239   2.820   4.009
    1C        C  157   4.194   2.768   4.133
    1C        C  158   4.342   2.920   4.252
    1C        C  159   4.246   2.816   4.255
    1C        C  160   4.379   2.984   4.372
    1C        C  161   4.331   2.932   4.494
    1C        C  162   4.444   3.112   4.615
    1C        C  163   4.368   2.993   4.616
    1C        C  164   4.468   3.184   4.734
    1C        C  165   4.431   3.123   4.856
    1C        C  166   4.513   3.322   4.973
    1C        C  167   4.479   3.187   4.971
    1C        C  168   3.475   2.424   2.077
    1C        C  169   3.397   2.454   2.189
    1C        C  170   3.618   2.463   2.305
    1C        C  171   3.476   2.462   2.306
    1C        C  172   3.691   2.483   2.425
    1C        C  173   3.619   2.481   2.546
    1C        C  174   3.826   2.542   2.663
    1C        C  175   3.690   2.505   2.666
    1C        C  176   3.889   2.563   2.788
    1C        C  177   3.827   2.536   2.912
    1C        C  178   4.019   2.632   3.031
    1C        C  179   3.896   2.563   3.032
    1C        C  180   4.078   2.673   3.153
    1C        C  181   4.019   2.638   3.276
    1C        C  182   4.194   2.754   3.397
    1C        C  183   4.082   2.667   3.399
    1C        C  184   4.245   2.802   3.520
    1C        C  185   4.190   2.760   3.643
    1C        C  186   4.333   2.918   3.763
    1C        C  187   4.240   2.811   3.764
    1C        C  188   4.375   2.978   3.884
    1C        C  189   4.335   2.923   4.008
    1C        C  190   4.444   3.104   4.128
    1C        C  191   4.382   2.977   4.129
    1C        C  192   4.469   3.173   4.249
    1C        C  193   4.438   3.112   4.373
    1C        C  194   4.512   3.313   4.493
    1C        C  195   4.474   3.177   4.493
    1C        C  196   4.518   3.388   4.612
    1C        C  197   4.509   3.320   4.736
    1C        C  198   4.555   3.535   4.852
    1C        C  199   4.533   3.394   4.855
    1C        C  200   4.587   3.622   4.961
    1C        C  201   3.615   2.413   2.068
    1C        C  202   3.824   2.507   2.181
    1C        C  203   3.688   2.460   2.181
    1C        C  204   3.896   2.537   2.300
    1C        C  205   3.828   2.514   2.422
    1C        C  206   4.019   2.620   2.542
    1C        C  207   3.896   2.550   2.541
    1C        C  208   4.081   2.652   2.665
    1C        C  209   4.018   2.620   2.787
    1C        C  210   4.190   2.751   2.906
    1C        C  211   4.081   2.661   2.907
    1C        C  212   4.244   2.798   3.028
    1C        C  213   4.194   2.754   3.152
    1C        C  214   4.336   2.909   3.272
    1C        C  215   4.246   2.801   3.275
    1C        C  216   4.371   2.969   3.395
    1C        C  217   4.335   2.912   3.519
    1C        C  218   4.437   3.099   3.637
    1C        C  219   4.376   2.972   3.640
    1C        C  220   4.464   3.167   3.758
    1C        C  221   4.438   3.105   3.881
    1C        C  222   4.505   3.305   4.004
    1C        C  223   4.468   3.168   4.004
    1C        C  224   4.516   3.378   4.124
    1C        C  225   4.507   3.309   4.247
    1C        C  226   4.520   3.521   4.364
    1C        C  227   4.520   3.380   4.368
    1C        C  228   4.520   3.595   4.485
    1C        C  229   4.530   3.528   4.609
    1C        C  230   4.499   3.740   4.728
    1C        C  231   4.538   3.603   4.728
    1C        C  232   4.497   3.818   4.846
    1C        C  233   4.548   3.757   4.961
    1C        C  234   4.020   2.605   2.062
    1C        C  235   3.898   2.539   2.067
    1C        C  236   4.085   2.643   2.180
    1C        C  237   4.023   2.602   2.300
    1C        C  238   4.195   2.736   2.421
    1C        C  239   4.080   2.653   2.419
    1C        C  240   4.249   2.783   2.542
    1C        C  241   4.188   2.744   2.664
    1C        C  242   4.331   2.907   2.783
    1C        C  243   4.241   2.798   2.783
    1C        C  244   4.376   2.962   2.905
    1C        C  245   4.336   2.905   3.028
    1C        C  246   4.440   3.092   3.148
    1C        C  247   4.378   2.966   3.149
    1C        C  248   4.456   3.160   3.271
    1C        C  249   4.432   3.097   3.395
    1C        C  250   4.501   3.302   3.515
    1C        C  251   4.462   3.166   3.515
    1C        C  252   4.513   3.373   3.636
    1C        C  253   4.500   3.304   3.758
    1C        C  254   4.524   3.514   3.878
    1C        C  255   4.512   3.373   3.881
    1C        C  256   4.522   3.589   3.997
    1C        C  257   4.523   3.519   4.120
    1C        C  258   4.490   3.730   4.240
    1C        C  259   4.516   3.591   4.241
    1C        C  260   4.471   3.799   4.361
    1C        C  261   4.484   3.732   4.485
    1C        C  262   4.428   3.938   4.604
    1C        C  263   4.477   3.806   4.605
    1C        C  264   4.399   4.007   4.724
    1C        C  265   4.434   3.945   4.846
    1C        C  266   4.328   4.133   4.957
    1C        C  267   4.396   4.012   4.963
    1C        C  268   4.255   2.780   2.063
    1C        C  269   4.197   2.729   2.180
    1C        C  270   4.342   2.891   2.299
    1C        C  271   4.252   2.781   2.299
    1C        C  272   4.375   2.957   2.419
    1C        C  273   4.338   2.893   2.540
    1C        C  274   4.445   3.081   2.660
    1C        C  275   4.377   2.958   2.659
    1C        C  276   4.473   3.149   2.781
    1C        C  277   4.442   3.086   2.904
    1C        C  278   4.504   3.290   3.025
    1C        C  279   4.471   3.153   3.025
    1C        C  280   4.511   3.363   3.146
    1C        C  281   4.495   3.296   3.269
    1C        C  282   4.517   3.509   3.391
    1C        C  283   4.510   3.367   3.390
    1C        C  284   4.522   3.582   3.511
    1C        C  285   4.527   3.514   3.635
    1C        C  286   4.495   3.725   3.751
    1C        C  287   4.522   3.586   3.756
    1C        C  288   4.472   3.793   3.873
    1C        C  289   4.490   3.727   3.996
    1C        C  290   4.424   3.930   4.117
    1C        C  291   4.473   3.798   4.117
    1C        C  292   4.397   3.998   4.238
    1C        C  293   4.420   3.931   4.359
    1C        C  294   4.325   4.121   4.481
    1C        C  295   4.394   3.998   4.481
    1C        C  296   4.281   4.185   4.599
    1C        C  297   4.327   4.129   4.721
    1C        C  298   4.201   4.311   4.840
    1C        C  299   4.287   4.197   4.839
    1C        C  300   4.171   4.401   4.947
    1C        C  301   4.349   2.882   2.061
    1C        C  302   4.469   3.067   2.179
    1C        C  303   4.395   2.944   2.178
    1C        C  304   4.487   3.140   2.299
    1C        C  305   4.445   3.080   2.419
    1C        C  306   4.513   3.283   2.535
    1C        C  307   4.477   3.147   2.539
    1C        C  308   4.517   3.354   2.657
    1C        C  309   4.506   3.287   2.781
    1C        C  310   4.525   3.499   2.898
    1C        C  311   4.519   3.358   2.902
    1C        C  312   4.512   3.571   3.019
    1C        C  313   4.515   3.504   3.144
    1C        C  314   4.485   3.714   3.264
    1C        C  315   4.511   3.575   3.266
    1C        C  316   4.474   3.786   3.385
    1C        C  317   4.496   3.721   3.508
    1C        C  318   4.423   3.923   3.627
    1C        C  319   4.475   3.792   3.628
    1C        C  320   4.391   3.987   3.748
    1C        C  321   4.423   3.926   3.871
    1C        C  322   4.317   4.110   3.991
    1C        C  323   4.392   3.991   3.993
    1C        C  324   4.273   4.167   4.113
    1C        C  325   4.321   4.118   4.237
    1C        C  326   4.187   4.282   4.355
    1C        C  327   4.281   4.177   4.358
    1C        C  328   4.134   4.336   4.475
    1C        C  329   4.190   4.292   4.597
    1C        C  330   4.027   4.435   4.714
    1C        C  331   4.140   4.348   4.717
    1C        C  332   3.973   4.498   4.828
    1C        C  333   4.053   4.477   4.942
    1C        C  334   4.554   3.265   2.062
    1C        C  335   4.526   3.128   2.063
    1C        C  336   4.538   3.348   2.173
    1C        C  337   4.519   3.279   2.295
    1C        C  338   4.522   3.496   2.410
    1C        C  339   4.526   3.355   2.414
    1C        C  340   4.524   3.564   2.534
    1C        C  341   4.527   3.495   2.657
    1C        C  342   4.497   3.710   2.772
    1C        C  343   4.517   3.570   2.776
    1C        C  344   4.480   3.777   2.895
    1C        C  345   4.493   3.711   3.019
    1C        C  346   4.424   3.913   3.135
    1C        C  347   4.473   3.781   3.140
    1C        C  348   4.395   3.979   3.257
    1C        C  349   4.428   3.919   3.381
    1C        C  350   4.317   4.102   3.501
    1C        C  351   4.396   3.985   3.502
    1C        C  352   4.273   4.160   3.622
    1C        C  353   4.317   4.107   3.745
    1C        C  354   4.180   4.268   3.866
    1C        C  355   4.277   4.166   3.867
    1C        C  356   4.126   4.318   3.987
    1C        C  357   4.177   4.270   4.110
    1C        C  358   4.013   4.401   4.231
    1C        C  359   4.132   4.324   4.232
    1C        C  360   3.953   4.445   4.351
    1C        C  361   4.021   4.420   4.473
    1C        C  362   3.831   4.519   4.593
    1C        C  363   3.962   4.465   4.593
    1C        C  364   3.766   4.552   4.714
    1C        C  365   3.841   4.545   4.833
    1C        C  366   3.628   4.590   4.946
    1C        C  367   3.766   4.572   4.949
    1C        C  368   4.509   3.560   2.048
    1C        C  369   4.527   3.489   2.168
    1C        C  370   4.505   3.704   2.286
    1C        C  371   4.526   3.564   2.287
    1C        C  372   4.485   3.774   2.407
    1C        C  373   4.498   3.703   2.528
    1C        C  374   4.419   3.903   2.648
    1C        C  375   4.477   3.774   2.648
    1C        C  376   4.396   3.971   2.769
    1C        C  377   4.428   3.909   2.891
    1C        C  378   4.316   4.092   3.011
    1C        C  379   4.393   3.974   3.011
    1C        C  380   4.268   4.145   3.132
    1C        C  381   4.314   4.095   3.256
    1C        C  382   4.176   4.256   3.376
    1C        C  383   4.274   4.155   3.378
    1C        C  384   4.119   4.302   3.497
    1C        C  385   4.173   4.261   3.621
    1C        C  386   4.006   4.388   3.744
    1C        C  387   4.123   4.310   3.744
    1C        C  388   3.945   4.429   3.865
    1C        C  389   4.007   4.395   3.987
    1C        C  390   3.820   4.491   4.108
    1C        C  391   3.949   4.433   4.110
    1C        C  392   3.753   4.514   4.230
    1C        C  393   3.824   4.501   4.351
    1C        C  394   3.620   4.556   4.472
    1C        C  395   3.759   4.533   4.473
    1C        C  396   3.548   4.567   4.593
    1C        C  397   3.625   4.566   4.712
    1C        C  398   3.411   4.549   4.838
    1C        C  399   3.551   4.566   4.832
    1C        C  400   3.341   4.509   4.952
    1C        C  401   4.502   3.699   2.050
    1C        C  402   4.456   3.914   2.165
    1C        C  403   4.495   3.778   2.166
    1C        C  404   4.409   3.972   2.285
    1C        C  405   4.438   3.907   2.407
    1C        C  406   4.324   4.093   2.526
    1C        C  407   4.397   3.972   2.526
    1C        C  408   4.273   4.147   2.646
    1C        C  409   4.317   4.089   2.767
    1C        C  410   4.174   4.247   2.887
    1C        C  411   4.274   4.148   2.888
    1C        C  412   4.119   4.292   3.009
    1C        C  413   4.169   4.247   3.134
    1C        C  414   4.001   4.377   3.254
    1C        C  415   4.121   4.302   3.254
    1C        C  416   3.940   4.412   3.376
    1C        C  417   4.002   4.381   3.500
    1C        C  418   3.812   4.474   3.620
    1C        C  419   3.941   4.418   3.622
    1C        C  420   3.747   4.501   3.743
    1C        C  421   3.817   4.488   3.864
    1C        C  422   3.611   4.536   3.985
    1C        C  423   3.751   4.513   3.987
    1C        C  424   3.541   4.539   4.107
    1C        C  425   3.614   4.539   4.228
    1C        C  426   3.405   4.541   4.357
    1C        C  427   3.546   4.546   4.352
    1C        C  428   3.333   4.541   4.479
    1C        C  429   3.407   4.558   4.598
    1C        C  430   3.195   4.519   4.721
    1C        C  431   3.335   4.547   4.719
    1C        C  432   3.125   4.493   4.842
    1C        C  433   3.204   4.487   4.958
    1C        C  434   4.381   4.116   2.051
    1C        C  435   4.445   3.991   2.049
    1C        C  436   4.300   4.159   2.161
    1C        C  437   4.333   4.092   2.281
    1C        C  438   4.178   4.241   2.401
    1C        C  439   4.280   4.144   2.402
    1C        C  440   4.124   4.296   2.520
    1C        C  441   4.172   4.245   2.643
    1C        C  442   4.004   4.374   2.768
    1C        C  443   4.120   4.293   2.765
    1C        C  444   3.943   4.412   2.889
    1C        C  445   4.006   4.377   3.011
    1C        C  446   3.811   4.468   3.131
    1C        C  447   3.941   4.413   3.131
    1C        C  448   3.746   4.492   3.254
    1C        C  449   3.811   4.470   3.377
    1C        C  450   3.606   4.528   3.493
    1C        C  451   3.743   4.496   3.499
    1C        C  452   3.542   4.539   3.619
    1C        C  453   3.608   4.530   3.743
    1C        C  454   3.398   4.531   3.862
    1C        C  455   3.538   4.545   3.865
    1C        C  456   3.333   4.520   3.988
    1C        C  457   3.400   4.530   4.112
    1C        C  458   3.195   4.499   4.235
    1C        C  459   3.333   4.529   4.236
    1C        C  460   3.129   4.480   4.359
    1C        C  461   3.195   4.510   4.479
    1C        C  462   2.999   4.430   4.602
    1C        C  463   3.126   4.491   4.601
    1C        C  464   2.931   4.397   4.722
    1C        C  465   2.992   4.441   4.843
    1C        C  466   2.801   4.333   4.957
    1C        C  467   2.905   4.427   4.956
    1C        C  468   4.117   4.280   2.043
    1C        C  469   4.184   4.243   2.160
    1C        C  470   4.005   4.369   2.279
    1C        C  471   4.124   4.290   2.280
    1C        C  472   3.940   4.397   2.401
    1C        C  473   4.003   4.368   2.524
    1C        C  474   3.814   4.465   2.645
    1C        C  475   3.944   4.411   2.645
    1C        C  476   3.744   4.489   2.765
    1C        C  477   3.812   4.465   2.886
    1C        C  478   3.606   4.518   3.010
    1C        C  479   3.743   4.484   3.008
    1C        C  480   3.534   4.527   3.132
    1C        C  481   3.607   4.520   3.252
    1C        C  482   3.392   4.528   3.375
    1C        C  483   3.533   4.531   3.372
    1C        C  484   3.325   4.526   3.499
    1C        C  485   3.400   4.535   3.618
    1C        C  486   3.191   4.494   3.745
    1C        C  487   3.328   4.526   3.739
    1C        C  488   3.126   4.470   3.869
    1C        C  489   3.195   4.490   3.990
    1C        C  490   3.001   4.412   4.116
    1C        C  491   3.128   4.474   4.113
    1C        C  492   2.938   4.382   4.239
    1C        C  493   3.000   4.420   4.360
    1C        C  494   2.828   4.298   4.483
    1C        C  495   2.938   4.387   4.482
    1C        C  496   2.769   4.255   4.604
    1C        C  497   2.817   4.312   4.724
    1C        C  498   2.659   4.165   4.846
    1C        C  499   2.750   4.273   4.841
    1C        C  500   2.590   4.116   4.957
    1C        C  501   4.000   4.355   2.040
    1C        C  502   3.813   4.462   2.154
    1C        C  503   3.940   4.400   2.158
    1C        C  504   3.745   4.485   2.276
    1C        C  505   3.812   4.457   2.397
    1C        C  506   3.608   4.502   2.520
    1C        C  507   3.747   4.480   2.521
    1C        C  508   3.536   4.516   2.641
    1C        C  509   3.605   4.516   2.764
    1C        C  510   3.396   4.521   2.884
    1C        C  511   3.537   4.527   2.887
    1C        C  512   3.323   4.520   3.005
    1C        C  513   3.393   4.527   3.127
    1C        C  514   3.187   4.487   3.253
    1C        C  515   3.324   4.521   3.251
    1C        C  516   3.121   4.467   3.377
    1C        C  517   3.188   4.492   3.499
    1C        C  518   2.999   4.404   3.623
    1C        C  519   3.124   4.470   3.623
    1C        C  520   2.942   4.368   3.748
    1C        C  521   3.000   4.406   3.871
    1C        C  522   2.835   4.280   3.993
    1C        C  523   2.940   4.374   3.994
    1C        C  524   2.787   4.233   4.117
    1C        C  525   2.831   4.290   4.239
    1C        C  526   2.689   4.135   4.363
    1C        C  527   2.778   4.245   4.362
    1C        C  528   2.647   4.079   4.486
    1C        C  529   2.679   4.147   4.606
    1C        C  530   2.582   3.959   4.730
    1C        C  531   2.634   4.092   4.728
    1C        C  532   2.541   3.899   4.852
    1C        C  533   2.525   3.991   4.960
    1C        C  534   3.617   4.551   2.039
    1C        C  535   3.753   4.518   2.041
    1C        C  536   3.535   4.534   2.156
    1C        C  537   3.606   4.512   2.277
    1C        C  538   3.394   4.507   2.398
    1C        C  539   3.535   4.511   2.399
    1C        C  540   3.322   4.500   2.519
    1C        C  541   3.394   4.513   2.640
    1C        C  542   3.188   4.475   2.764
    1C        C  543   3.325   4.509   2.762
    1C        C  544   3.120   4.453   2.886
    1C        C  545   3.186   4.483   3.007
    1C        C  546   2.998   4.392   3.134
    1C        C  547   3.122   4.460   3.131
    1C        C  548   2.939   4.356   3.257
    1C        C  549   2.997   4.400   3.378
    1C        C  550   2.828   4.278   3.504
    1C        C  551   2.939   4.366   3.502
    1C        C  552   2.775   4.232   3.626
    1C        C  553   2.830   4.282   3.747
    1C        C  554   2.692   4.124   3.874
    1C        C  555   2.784   4.231   3.870
    1C        C  556   2.652   4.068   3.997
    1C        C  557   2.692   4.129   4.119
    1C        C  558   2.593   3.944   4.243
    1C        C  559   2.653   4.072   4.242
    1C        C  560   2.563   3.882   4.367
    1C        C  561   2.593   3.949   4.487
    1C        C  562   2.527   3.750   4.615
    1C        C  563   2.565   3.886   4.610
    1C        C  564   2.513   3.683   4.739
    1C        C  565   2.523   3.757   4.860
    1C        C  566   2.523   3.543   4.979
    1C        C  567   2.536   3.681   4.976
    1C        C  568   3.327   4.465   2.043
    1C        C  569   3.396   4.509   2.157
    1C        C  570   3.182   4.472   2.280
    1C        C  571   3.320   4.504   2.277
    1C        C  572   3.113   4.456   2.402
    1C        C  573   3.183   4.478   2.523
    1C        C  574   2.985   4.401   2.647
    1C        C  575   3.114   4.458   2.644
    1C        C  576   2.925   4.361   2.769
    1C        C  577   2.994   4.390   2.889
    1C        C  578   2.821   4.272   3.014
    1C        C  579   2.937   4.353   3.013
    1C        C  580   2.769   4.225   3.137
    1C        C  581   2.826   4.271   3.258
    1C        C  582   2.689   4.115   3.383
    1C        C  583   2.781   4.222   3.383
    1C        C  584   2.654   4.056   3.507
    1C        C  585   2.694   4.117   3.629
    1C        C  586   2.585   3.939   3.755
    1C        C  587   2.654   4.062   3.753
    1C        C  588   2.565   3.873   3.878
    1C        C  589   2.596   3.939   4.000
    1C        C  590   2.537   3.737   4.125
    1C        C  591   2.568   3.875   4.123
    1C        C  592   2.520   3.673   4.250
    1C        C  593   2.530   3.745   4.372
    1C        C  594   2.516   3.534   4.496
    1C        C  595   2.519   3.676   4.495
    1C        C  596   2.518   3.466   4.619
    1C        C  597   2.518   3.541   4.739
    1C        C  598   2.533   3.328   4.863
    1C        C  599   2.527   3.469   4.860
    1C        C  600   2.526   3.247   4.978
    1C        C  601   3.193   4.433   2.045
    1C        C  602   2.977   4.394   2.158
    1C        C  603   3.113   4.440   2.160
    1C        C  604   2.920   4.360   2.284
    1C        C  605   2.986   4.394   2.404
    1C        C  606   2.811   4.275   2.527
    1C        C  607   2.923   4.362   2.526
    1C        C  608   2.764   4.219   2.648
    1C        C  609   2.818   4.270   2.768
    1C        C  610   2.677   4.116   2.894
    1C        C  611   2.772   4.220   2.892
    1C        C  612   2.640   4.056   3.017
    1C        C  613   2.684   4.112   3.139
    1C        C  614   2.581   3.930   3.265
    1C        C  615   2.646   4.056   3.263
    1C        C  616   2.557   3.866   3.389
    1C        C  617   2.589   3.931   3.510
    1C        C  618   2.527   3.732   3.636
    1C        C  619   2.561   3.869   3.634
    1C        C  620   2.513   3.666   3.760
    1C        C  621   2.523   3.739   3.881
    1C        C  622   2.508   3.528   4.008
    1C        C  623   2.514   3.669   4.003
    1C        C  624   2.513   3.460   4.132
    1C        C  625   2.515   3.532   4.254
    1C        C  626   2.541   3.322   4.380
    1C        C  627   2.517   3.461   4.376
    1C        C  628   2.558   3.253   4.502
    1C        C  629   2.539   3.326   4.622
    1C        C  630   2.598   3.121   4.743
    1C        C  631   2.554   3.256   4.744
    1C        C  632   2.615   3.047   4.863
    1C        C  633   2.556   3.110   4.977
    1C        C  634   2.777   4.306   2.056
    1C        C  635   2.888   4.392   2.047
    1C        C  636   2.742   4.229   2.168
    1C        C  637   2.807   4.274   2.285
    1C        C  638   2.673   4.110   2.407
    1C        C  639   2.759   4.222   2.407
    1C        C  640   2.637   4.049   2.529
    1C        C  641   2.676   4.108   2.651
    1C        C  642   2.576   3.924   2.777
    1C        C  643   2.636   4.052   2.775
    1C        C  644   2.553   3.859   2.900
    1C        C  645   2.581   3.928   3.020
    1C        C  646   2.519   3.727   3.147
    1C        C  647   2.555   3.864   3.143
    1C        C  648   2.513   3.659   3.271
    1C        C  649   2.526   3.729   3.393
    1C        C  650   2.513   3.518   3.519
    1C        C  651   2.512   3.660   3.515
    1C        C  652   2.514   3.451   3.643
    1C        C  653   2.509   3.525   3.763
    1C        C  654   2.543   3.318   3.891
    1C        C  655   2.516   3.457   3.887
    1C        C  656   2.564   3.254   4.015
    1C        C  657   2.543   3.322   4.137
    1C        C  658   2.610   3.120   4.256
    1C        C  659   2.562   3.253   4.259
    1C        C  660   2.639   3.055   4.379
    1C        C  661   2.608   3.121   4.500
    1C        C  662   2.715   2.939   4.624
    1C        C  663   2.639   3.058   4.623
    1C        C  664   2.751   2.874   4.744
    1C        C  665   2.697   2.930   4.863
    1C        C  666   2.746   2.873   4.982
    1C        C  667   2.671   4.024   2.050
    1C        C  668   2.679   4.103   2.166
    1C        C  669   2.580   3.913   2.290
    1C        C  670   2.639   4.042   2.287
    1C        C  671   2.550   3.850   2.413
    1C        C  672   2.579   3.920   2.532
    1C        C  673   2.515   3.721   2.659
    1C        C  674   2.551   3.857   2.655
    1C        C  675   2.510   3.650   2.782
    1C        C  676   2.523   3.721   2.904
    1C        C  677   2.504   3.513   3.030
    1C        C  678   2.505   3.654   3.027
    1C        C  679   2.511   3.445   3.154
    1C        C  680   2.508   3.518   3.274
    1C        C  681   2.537   3.308   3.400
    1C        C  682   2.517   3.448   3.397
    1C        C  683   2.555   3.241   3.523
    1C        C  684   2.540   3.312   3.645
    1C        C  685   2.607   3.115   3.772
    1C        C  686   2.558   3.247   3.769
    1C        C  687   2.643   3.053   3.894
    1C        C  688   2.614   3.122   4.013
    1C        C  689   2.717   2.936   4.139
    1C        C  690   2.642   3.055   4.135
    1C        C  691   2.758   2.875   4.260
    1C        C  692   2.717   2.937   4.380
    1C        C  693   2.758   2.881   4.503
    1C        C  694   2.629   3.890   2.056
    1C        C  695   2.522   3.705   2.174
    1C        C  696   2.574   3.836   2.173
    1C        C  697   2.509   3.638   2.298
    1C        C  698   2.518   3.713   2.418
    1C        C  699   2.494   3.504   2.543
    1C        C  700   2.503   3.645   2.541
    1C        C  701   2.502   3.435   2.666
    1C        C  702   2.502   3.509   2.786
    1C        C  703   2.530   3.300   2.910
    1C        C  704   2.507   3.440   2.909
    1C        C  705   2.553   3.234   3.033
    1C        C  706   2.536   3.306   3.154
    1C        C  707   2.602   3.107   3.279
    1C        C  708   2.553   3.240   3.277
    1C        C  709   2.633   3.046   3.402
    1C        C  710   2.607   3.110   3.526
    1C        C  711   2.710   2.929   3.648
    1C        C  712   2.636   3.049   3.650
    1C        C  713   2.759   2.876   3.770
    1C        C  714   2.722   2.936   3.892
    1C        C  715   2.758   2.879   4.016
    1C        C  716   2.453   3.499   2.062
    1C        C  717   2.487   3.635   2.058
    1C        C  718   2.461   3.423   2.183
    1C        C  719   2.482   3.498   2.301
    1C        C  720   2.508   3.289   2.423
    1C        C  721   2.486   3.428   2.424
    1C        C  722   2.535   3.223   2.545
    1C        C  723   2.523   3.296   2.666
    1C        C  724   2.601   3.100   2.788
    1C        C  725   2.544   3.229   2.789
    1C        C  726   2.626   3.037   2.912
    1C        C  727   2.603   3.102   3.035
    1C        C  728   2.710   2.922   3.157
    1C        C  729   2.635   3.042   3.158
    1C        C  730   2.754   2.872   3.281
    1C        C  731   2.712   2.928   3.404
    1C        C  732   2.754   2.872   3.527
    1C        C  733   2.491   3.199   2.073
    1C        C  734   2.484   3.282   2.186
    1C        C  735   2.573   3.081   2.305
    1C        C  736   2.514   3.211   2.305
    1C        C  737   2.599   3.016   2.428
    1C        C  738   2.582   3.090   2.547
    1C        C  739   2.706   2.914   2.667
    1C        C  740   2.627   3.032   2.667
    1C        C  741   2.743   2.858   2.791
    1C        C  742   2.700   2.917   2.913
    1C        C  743   2.751   2.865   3.034
    1C        C  744   2.545   3.071   2.072
    1C        C  745   2.685   2.897   2.187
    1C        C  746   2.607   3.015   2.185
    1C        C  747   2.727   2.840   2.309
    1C        C  748   2.680   2.900   2.427
    1C        C  749   2.739   2.851   2.546
    1C        C  750   2.739   2.845   2.069
    1C        C  751   3.664   2.308   1.976
    1C        O  752   3.659   2.187   2.010
    1C        O  753   3.653   2.324   1.837
    1C        C  754   4.622   3.053   1.978
    1C        O  755   4.602   3.017   1.859
    1C        O  756   4.744   3.011   2.031
    1C        C  757   4.437   4.216   1.957
    1C        O  758   4.498   4.317   2.001
    1C        O  759   4.435   4.203   1.817
    1C        C  760   3.574   4.626   1.919
    1C        O  761   3.575   4.752   1.920
    1C        O  762   3.620   4.583   1.794
    1C        C  763   2.863   4.501   1.950
    1C        O  764   2.897   4.488   1.830
    1C        O  765   2.810   4.628   1.977
    1C        C  766   2.349   3.464   1.962
    1C        O  767   2.381   3.465   1.840
    1C        O  768   2.212   3.478   1.986
    1C        C  769   4.682   3.595   5.072
    1C        O  770   4.633   3.592   5.188
    1C        O  771   4.806   3.659   5.080
    1C        C  772   4.282   4.460   5.026
    1C        O  773   4.274   4.452   5.152
    1C        O  774   4.349   4.572   4.977
    1C        C  775   4.153   2.511   5.059
    1C        O  776   4.225   2.417   5.015
    1C        O  777   4.125   2.484   5.193
    1C        C  778   2.888   4.539   5.051
    1C        O  779   2.837   4.647   5.013
    1C        O  780   2.855   4.513   5.185
    1C        C  781   2.442   3.044   5.044
    1C        O  782   2.329   3.025   4.991
    1C        O  783   2.467   3.005   5.174
    1C        C  784   2.438   3.972   5.079
    1C        O  785   2.313   3.973   5.074
    1C        O  786   2.481   3.997   5.210
    1C        C  787   2.955   2.446   1.977
    1C        O  788   2.968   2.481   1.857
    1C        O  789   2.874   2.335   1.999
    1C        C  790   3.165   2.353   5.038
    1C        O  791   3.111   2.255   4.980
    1C        O  792   3.212   2.330   5.167
    1C        H  793   4.285   3.025   5.059
    1C        H  794   4.188   2.807   5.072
    1C        H  795   4.512   3.125   5.051
    1C        H  796   4.558   3.363   5.061
    1C        H  797   4.568   3.811   5.050
    1C        H  798   4.447   3.989   5.055
    1C        H  799   4.315   4.191   5.046
    1C        H  800   4.008   4.488   5.038
    1C        H  801   3.803   4.538   5.043
    1C        H  802   3.592   4.671   5.006
    1C        H  803   3.396   4.507   5.044
    1C        H  804   3.154   4.520   5.047
    1C        H  805   3.882   2.517   5.076
    1C        H  806   3.675   2.437   5.072
    1C        H  807   2.985   2.542   5.051
    1C        H  808   3.442   2.497   5.075
    1C        H  809   2.876   2.733   5.077
    1C        H  810   2.680   2.878   5.065
    1C        H  811   2.484   3.287   5.068
    1C        H  812   2.537   3.496   5.074
    1C        H  813   2.580   3.725   5.064
    1C        H  814   2.584   4.181   5.042
    1C        H  815   2.787   4.282   5.050
    1C        H  816   2.768   2.919   1.998
    1C        H  817   2.869   2.712   1.980
    1C        H  818   3.197   2.380   2.021
    1C        H  819   3.427   2.432   1.981
    1C        H  820   3.855   2.525   1.970
    1C        H  821   4.041   2.646   1.966
    1C        H  822   4.230   2.742   1.966
    1C        H  823   4.413   2.883   1.975
    1C        H  824   4.588   3.312   1.972
    1C        H  825   4.468   3.510   1.964
    1C        H  826   4.512   3.745   1.954
    1C        H  827   3.812   4.534   1.953
    1C        H  828   3.975   4.400   1.945
    1C        H  829   4.149   4.233   1.952
    1C        H  830   4.501   3.966   1.962
    1C        H  831   2.669   3.826   1.980
    1C        H  832   2.672   4.077   1.958
    1C        H  833   2.711   4.307   1.972
    1C        H  834   3.385   4.421   1.964
    1C        H  835   3.149   4.420   1.948
    1C        H  836   2.566   3.032   1.975
    1C        H  837   2.476   3.243   1.977
    1C        H  838   2.432   3.694   1.987
    2V3OU   H29  839   2.801   3.545   1.953
    2V3OU   C27  840   2.786   3.493   2.051
    2V3OU   H27  841   2.732   3.565   2.117
    2V3OU   H28  842   2.724   3.400   2.042
    2V3OU   O11  843   2.907   3.470   2.122
    2V3OU   C15  844   2.925   3.394   2.236
    2V3OU   C13  845   3.054   3.368   2.286
    2V3OU   C14  846   3.082   3.263   2.374
    2V3OU   C16  847   2.976   3.182   2.416
    2V3OU    H6  848   2.995   3.092   2.476
    2V3OU   C12  849   3.211   3.227   2.438
    2V3OU    O2  850   3.232   3.127   2.509
    2V3OU   C10  851   3.325   3.309   2.394
    2V3OU    C8  852   3.455   3.271   2.424
    2V3OU   O10  853   3.485   3.153   2.484
    2V3OU   H26  854   3.398   3.117   2.508
    2V3OU    C6  855   3.565   3.348   2.374
    2V3OU    C5  856   3.536   3.466   2.305
    2V3OU    C4  857   3.704   3.295   2.383
    2V3OU    H4  858   3.729   3.229   2.471
    2V3OU    H5  859   3.707   3.227   2.292
    2V3OU    C2  860   3.818   3.396   2.372
    2V3OU    O6  861   3.804   3.472   2.493
    2V3OU   H21  862   3.762   3.555   2.467
    2V3OU    C3  863   3.784   3.496   2.261
    2V3OU    H2  864   3.871   3.566   2.259
    2V3OU    H3  865   3.781   3.435   2.168
    2V3OU   C25  866   3.952   3.323   2.372
    2V3OU    O7  867   4.007   3.293   2.266
    2V3OU   C26  868   4.030   3.289   2.498
    2V3OU   H22  869   4.058   3.387   2.545
    2V3OU   H23  870   4.121   3.229   2.472
    2V3OU    O8  871   3.959   3.206   2.588
    2V3OU   H24  872   3.926   3.270   2.653
    2V3OU    C1  873   3.647   3.562   2.275
    2V3OU    H1  874   3.624   3.618   2.180
    2V3OU    O3  875   3.666   3.649   2.387
    2V3OU   C19  876   3.626   3.786   2.373
    2V3OU    H9  877   3.524   3.794   2.325
    2V3OU    O4  878   3.718   3.847   2.286
    2V3OU   C20  879   3.850   3.878   2.333
    2V3OU   H10  880   3.899   3.776   2.340
    2V3OU   C24  881   3.611   3.851   2.511
    2V3OU   H16  882   3.532   3.792   2.565
    2V3OU   H17  883   3.565   3.950   2.486
    2V3OU   C23  884   3.750   3.874   2.570
    2V3OU   H15  885   3.789   3.774   2.607
    2V3OU    N1  886   3.728   3.956   2.688
    2V3OU   H19  887   3.806   3.931   2.745
    2V3OU   H20  888   3.636   3.929   2.717
    2V3OU   C21  889   3.847   3.945   2.470
    2V3OU   H11  890   3.950   3.935   2.517
    2V3OU    O5  891   3.828   4.085   2.461
    2V3OU   H18  892   3.781   4.107   2.543
    2V3OU   C22  893   3.911   3.955   2.217
    2V3OU   H12  894   3.858   4.051   2.196
    2V3OU   H13  895   3.905   3.891   2.125
    2V3OU   H14  896   4.021   3.965   2.233
    2V3OU   C11  897   3.162   3.466   2.267
    2V3OU    O1  898   3.144   3.585   2.234
    2V3OU    C9  899   3.295   3.425   2.318
    2V3OU    C7  900   3.402   3.504   2.276
    2V3OU    O9  901   3.389   3.629   2.219
    2V3OU   H25  902   3.293   3.631   2.204
    2V3OU   C17  903   2.822   3.317   2.293
    2V3OU    H7  904   2.720   3.344   2.264
    2V3OU   C18  905   2.846   3.209   2.378
    2V3OU    H8  906   2.771   3.167   2.447
    3SOL     OW  907   3.010   4.905   0.854
    3SOL    HW1  908   3.010   4.827   0.791
    3SOL    HW2  909   2.931   4.898   0.915
    4SOL     OW  910   6.437   5.701   1.697
    4SOL    HW1  911   6.484   5.788   1.712
    4SOL    HW2  912   6.365   5.690   1.766
    5SOL     OW  913   4.905   1.426   2.792
    5SOL    HW1  914   4.841   1.356   2.761
    5SOL    HW2  915   4.989   1.420   2.739
    6SOL     OW  916   3.995   1.021   1.429
    6SOL    HW1  917   3.967   0.985   1.340
    6SOL    HW2  918   4.072   0.968   1.464
    7SOL     OW  919   6.881   4.022   2.159
    7SOL    HW1  920   6.962   4.052   2.209
    7SOL    HW2  921   6.799   4.053   2.207
    8SOL     OW  922   2.662   0.603   6.789
    8SOL    HW1  923   2.761   0.596   6.793
    8SOL    HW2  924   2.625   0.612   6.882
    9SOL     OW  925   6.990   6.737   6.619
    9SOL    HW1  926   6.914   6.673   6.634
    9SOL    HW2  927   7.016   6.735   6.522
   10SOL     OW  928   1.316   5.195   6.397
   10SOL    HW1  929   1.394   5.196   6.460
   10SOL    HW2  930   1.284   5.101   6.384
   11SOL     OW  931   2.598   0.342   6.376
   11SOL    HW1  932   2.688   0.360   6.417
   11SOL    HW2  933   2.542   0.425   6.383
   12SOL     OW  934   3.896   7.002   3.949
   12SOL    HW1  935   3.889   6.951   3.864
   12SOL    HW2  936   3.992   7.006   3.978
   13SOL     OW  937   4.180   5.768   3.590
   13SOL    HW1  938   4.114   5.704   3.630
   13SOL    HW2  939   4.174   5.763   3.490
   14SOL     OW  940   4.187   5.368   5.727
   14SOL    HW1  941   4.125   5.336   5.798
   14SOL    HW2  942   4.135   5.412   5.654
   15SOL     OW  943   1.314   6.254   1.272
   15SOL    HW1  944   1.277   6.347   1.265
   15SOL    HW2  945   1.329   6.232   1.368
   16SOL     OW  946   5.279   2.967   5.433
   16SOL    HW1  947   5.306   3.025   5.510
   16SOL    HW2  948   5.285   2.871   5.460
   17SOL     OW  949   4.778   5.938   5.548
   17SOL    HW1  950   4.701   5.998   5.529
   17SOL    HW2  951   4.789   5.873   5.472
   18SOL     OW  952   3.430   0.953   5.943
   18SOL    HW1  953   3.456   0.876   5.884
   18SOL    HW2  954   3.510   0.985   5.994
   19SOL     OW  955   0.027   0.263   3.132
   19SOL    HW1  956   6.966   0.313   3.157
   19SOL    HW2  957   0.086   0.254   3.212
   20SOL     OW  958   5.916   2.468   4.337
   20SOL    HW1  959   5.888   2.492   4.244
   20SOL    HW2  960   6.006   2.509   4.356
   21SOL     OW  961   3.377   2.110   2.384
   21SOL    HW1  962   3.400   2.095   2.288
   21SOL    HW2  963   3.461   2.112   2.439
   22SOL     OW  964   2.285   6.574   0.477
   22SOL    HW1  965   2.276   6.672   0.494
   22SOL    HW2  966   2.194   6.531   0.479
   23SOL     OW  967   5.027   6.464   2.881
   23SOL    HW1  968   5.006   6.465   2.979
   23SOL    HW2  969   5.084   6.385   2.860
   24SOL     OW  970   4.925   1.499   3.274
   24SOL    HW1  971   4.888   1.451   3.354
   24SOL    HW2  972   4.899   1.596   3.279
   25SOL     OW  973   3.167   0.231   5.283
   25SOL    HW1  974   3.249   0.282   5.258
   25SOL    HW2  975   3.184   0.133   5.273
   26SOL     OW  976   6.631   0.981   0.615
   26SOL    HW1  977   6.644   1.016   0.708
   26SOL    HW2  978   6.691   0.901   0.602
   27SOL     OW  979   1.020   1.614   2.239
   27SOL    HW1  980   1.094   1.613   2.172
   27SOL    HW2  981   1.051   1.569   2.323
   28SOL     OW  982   3.584   1.912   6.438
   28SOL    HW1  983   3.522   1.901   6.360
   28SOL    HW2  984   3.530   1.920   6.522
   29SOL     OW  985   4.658   2.710   2.055
   29SOL    HW1  986   4.713   2.786   2.089
   29SOL    HW2  987   4.635   2.726   1.959
   30SOL     OW  988   3.258   1.352   3.943
   30SOL    HW1  989   3.161   1.328   3.938
   30SOL    HW2  990   3.293   1.327   4.033
   31SOL     OW  991   1.011   2.623   6.301
   31SOL    HW1  992   1.084   2.555   6.312
   31SOL    HW2  993   0.926   2.576   6.278
   32SOL     OW  994   0.345   1.407   3.017
   32SOL    HW1  995   0.269   1.470   3.035
   32SOL    HW2  996   0.315   1.313   3.034
   33SOL     OW  997   2.115   4.327   6.713
   33SOL    HW1  998   2.128   4.366   6.804
   33SOL    HW2  999   2.185   4.364   6.651
   34SOL     OW 1000   2.320   1.537   3.864
   34SOL    HW1 1001   2.398   1.598   3.880
   34SOL    HW2 1002   2.287   1.502   3.952
   35SOL     OW 1003   3.308   3.493   6.482
   35SOL    HW1 1004   3.363   3.418   6.519
   35SOL    HW2 1005   3.368   3.561   6.440
   36SOL     OW 1006   6.282   0.946   5.616
   36SOL    HW1 1007   6.228   0.906   5.542
   36SOL    HW2 1008   6.301   1.042   5.595
   37SOL     OW 1009   1.021   0.847   0.366
   37SOL    HW1 1010   0.959   0.860   0.288
   37SOL    HW2 1011   1.017   0.752   0.395
   38SOL     OW 1012   6.787   4.823   3.031
   38SOL    HW1 1013   6.740   4.792   2.949
   38SOL    HW2 1014   6.871   4.871   3.005
   39SOL     OW 1015   0.055   5.154   6.841
   39SOL    HW1 1016   0.071   5.157   6.940
   39SOL    HW2 1017   7.000   5.093   6.822
   40SOL     OW 1018   5.063   2.258   1.453
   40SOL    HW1 1019   5.029   2.349   1.429
   40SOL    HW2 1020   5.102   2.215   1.372
   41SOL     OW 1021   0.019   5.989   4.162
   41SOL    HW1 1022   0.072   6.022   4.084
   41SOL    HW2 1023   0.076   5.926   4.216
   42SOL     OW 1024   2.640   5.299   5.150
   42SOL    HW1 1025   2.598   5.308   5.241
   42SOL    HW2 1026   2.704   5.223   5.150
   43SOL     OW 1027   5.728   6.334   5.649
   43SOL    HW1 1028   5.757   6.248   5.607
   43SOL    HW2 1029   5.633   6.326   5.680
   44SOL     OW 1030   5.245   1.895   0.053
   44SOL    HW1 1031   5.232   1.916   6.978
   44SOL    HW2 1032   5.222   1.800   0.071
   45SOL     OW 1033   3.781   6.951   2.915
   45SOL    HW1 1034   3.808   0.020   2.948
   45SOL    HW2 1035   3.773   6.888   2.992
   46SOL     OW 1036   0.431   2.970   3.139
   46SOL    HW1 1037   0.514   2.934   3.182
   46SOL    HW2 1038   0.456   3.034   3.066
   47SOL     OW 1039   5.293   4.383   1.462
   47SOL    HW1 1040   5.199   4.401   1.490
   47SOL    HW2 1041   5.298   4.295   1.415
   48SOL     OW 1042   6.637   2.519   6.079
   48SOL    HW1 1043   6.628   2.498   5.982
   48SOL    HW2 1044   6.734   2.523   6.103
   49SOL     OW 1045   5.197   3.541   1.728
   49SOL    HW1 1046   5.291   3.526   1.758
   49SOL    HW2 1047   5.145   3.587   1.800
   50SOL     OW 1048   6.014   1.339   5.121
   50SOL    HW1 1049   6.096   1.358   5.175
   50SOL    HW2 1050   6.028   1.370   5.027
   51SOL     OW 1051   3.118   6.377   3.121
   51SOL    HW1 1052   3.209   6.362   3.160
   51SOL    HW2 1053   3.058   6.414   3.192
   52SOL     OW 1054   5.093   2.503   3.006
   52SOL    HW1 1055   5.055   2.469   3.092
   52SOL    HW2 1056   5.154   2.434   2.967
   53SOL     OW 1057   3.550   6.777   4.597
   53SOL    HW1 1058   3.517   6.824   4.515
   53SOL    HW2 1059   3.550   6.678   4.581
   54SOL     OW 1060   3.855   4.886   0.776
   54SOL    HW1 1061   3.904   4.967   0.810
   54SOL    HW2 1062   3.757   4.904   0.778
   55SOL     OW 1063   2.844   2.019   6.343
   55SOL    HW1 1064   2.841   2.107   6.391
   55SOL    HW2 1065   2.785   1.953   6.391
   56SOL     OW 1066   0.091   0.429   1.363
   56SOL    HW1 1067   0.003   0.475   1.351
   56SOL    HW2 1068   0.142   0.430   1.277
   57SOL     OW 1069   5.554   0.823   1.169
   57SOL    HW1 1070   5.534   0.851   1.263
   57SOL    HW2 1071   5.601   0.898   1.122
   58SOL     OW 1072   6.212   6.586   5.759
   58SOL    HW1 1073   6.125   6.631   5.778
   58SOL    HW2 1074   6.260   6.636   5.687
   59SOL     OW 1075   0.774   1.728   5.364
   59SOL    HW1 1076   0.809   1.642   5.401
   59SOL    HW2 1077   0.851   1.789   5.344
   60SOL     OW 1078   5.493   1.642   5.401
   60SOL    HW1 1079   5.423   1.644   5.472
   60SOL    HW2 1080   5.449   1.629   5.312
   61SOL     OW 1081   5.108   2.594   4.813
   61SOL    HW1 1082   5.034   2.540   4.855
   61SOL    HW2 1083   5.069   2.665   4.755
   62SOL     OW 1084   0.532   1.070   2.320
   62SOL    HW1 1085   0.581   1.098   2.237
   62SOL    HW2 1086   0.450   1.020   2.294
   63SOL     OW 1087   5.135   1.316   3.876
   63SOL    HW1 1088   5.057   1.356   3.826
   63SOL    HW2 1089   5.132   1.347   3.971
   64SOL     OW 1090   6.973   3.513   6.061
   64SOL    HW1 1091   6.995   3.516   5.963
   64SOL    HW2 1092   6.926   3.428   6.082
   65SOL     OW 1093   0.332   5.202   6.610
   65SOL    HW1 1094   0.269   5.137   6.568
   65SOL    HW2 1095   0.288   5.245   6.688
   66SOL     OW 1096   3.736   0.933   5.566
   66SOL    HW1 1097   3.794   0.973   5.495
   66SOL    HW2 1098   3.781   0.852   5.604
   67SOL     OW 1099   5.539   4.507   6.014
   67SOL    HW1 1100   5.445   4.493   5.982
   67SOL    HW2 1101   5.558   4.446   6.091
   68SOL     OW 1102   5.705   1.030   6.665
   68SOL    HW1 1103   5.723   1.124   6.692
   68SOL    HW2 1104   5.775   0.999   6.601
   69SOL     OW 1105   0.363   3.419   5.694
   69SOL    HW1 1106   0.360   3.468   5.781
   69SOL    HW2 1107   0.349   3.321   5.710
   70SOL     OW 1108   5.298   4.019   4.395
   70SOL    HW1 1109   5.346   4.044   4.479
   70SOL    HW2 1110   5.315   3.923   4.373
   71SOL     OW 1111   3.996   1.927   2.859
   71SOL    HW1 1112   3.929   1.999   2.878
   71SOL    HW2 1113   4.067   1.963   2.799
   72SOL     OW 1114   1.909   6.388   4.603
   72SOL    HW1 1115   1.859   6.321   4.657
   72SOL    HW2 1116   1.873   6.480   4.622
   73SOL     OW 1117   3.080   1.304   0.623
   73SOL    HW1 1118   3.091   1.271   0.529
   73SOL    HW2 1119   3.072   1.403   0.623
   74SOL     OW 1120   5.033   6.869   0.199
   74SOL    HW1 1121   5.017   6.809   0.121
   74SOL    HW2 1122   4.953   6.867   0.260
   75SOL     OW 1123   4.085   0.165   0.631
   75SOL    HW1 1124   3.999   0.151   0.680
   75SOL    HW2 1125   4.118   0.077   0.596
   76SOL     OW 1126   2.929   3.549   0.779
   76SOL    HW1 1127   2.936   3.473   0.715
   76SOL    HW2 1128   2.960   3.633   0.733
   77SOL     OW 1129   6.588   6.555   3.540
   77SOL    HW1 1130   6.663   6.549   3.606
   77SOL    HW2 1131   6.624   6.563   3.448
   78SOL     OW 1132   5.605   0.882   0.126
   78SOL    HW1 1133   5.516   0.922   0.109
   78SOL    HW2 1134   5.675   0.932   0.075
   79SOL     OW 1135   3.079   6.164   0.559
   79SOL    HW1 1136   3.054   6.069   0.578
   79SOL    HW2 1137   3.176   6.178   0.579
   80SOL     OW 1138   5.490   1.967   3.947
   80SOL    HW1 1139   5.549   2.047   3.933
   80SOL    HW2 1140   5.405   1.995   3.991
   81SOL     OW 1141   1.989   6.815   2.722
   81SOL    HW1 1142   1.928   6.828   2.801
   81SOL    HW2 1143   2.035   6.727   2.730
   82SOL     OW 1144   6.590   4.740   1.044
   82SOL    HW1 1145   6.622   4.800   1.117
   82SOL    HW2 1146   6.662   4.676   1.019
   83SOL     OW 1147   0.296   1.014   6.864
   83SOL    HW1 1148   0.306   1.053   6.956
   83SOL    HW2 1149   0.280   0.916   6.872
   84SOL     OW 1150   5.802   2.642   3.378
   84SOL    HW1 1151   5.900   2.637   3.401
   84SOL    HW2 1152   5.748   2.615   3.458
   85SOL     OW 1153   1.560   1.795   4.377
   85SOL    HW1 1154   1.547   1.822   4.473
   85SOL    HW2 1155   1.573   1.877   4.321
   86SOL     OW 1156   6.642   0.425   4.936
   86SOL    HW1 1157   6.624   0.498   5.001
   86SOL    HW2 1158   6.565   0.416   4.873
   87SOL     OW 1159   4.730   3.239   0.537
   87SOL    HW1 1160   4.755   3.290   0.455
   87SOL    HW2 1161   4.685   3.153   0.511
   88SOL     OW 1162   3.455   1.819   5.622
   88SOL    HW1 1163   3.491   1.818   5.528
   88SOL    HW2 1164   3.494   1.897   5.671
   89SOL     OW 1165   1.042   2.519   5.872
   89SOL    HW1 1166   1.100   2.455   5.923
   89SOL    HW2 1167   1.012   2.475   5.787
   90SOL     OW 1168   3.378   5.692   2.256
   90SOL    HW1 1169   3.382   5.703   2.157
   90SOL    HW2 1170   3.463   5.651   2.289
   91SOL     OW 1171   4.991   4.414   5.047
   91SOL    HW1 1172   5.042   4.346   5.100
   91SOL    HW2 1173   4.906   4.374   5.013
   92SOL     OW 1174   4.172   4.630   0.350
   92SOL    HW1 1175   4.157   4.728   0.335
   92SOL    HW2 1176   4.262   4.603   0.315
   93SOL     OW 1177   2.991   4.153   6.537
   93SOL    HW1 1178   2.893   4.134   6.544
   93SOL    HW2 1179   3.043   4.072   6.562
   94SOL     OW 1180   2.005   5.684   6.695
   94SOL    HW1 1181   2.010   5.699   6.596
   94SOL    HW2 1182   1.954   5.759   6.737
   95SOL     OW 1183   1.249   0.547   3.385
   95SOL    HW1 1184   1.251   0.623   3.320
   95SOL    HW2 1185   1.317   0.479   3.359
   96SOL     OW 1186   3.433   0.058   5.332
   96SOL    HW1 1187   3.466   0.062   5.238
   96SOL    HW2 1188   3.448   0.146   5.377
   97SOL     OW 1189   2.292   2.986   5.876
   97SOL    HW1 1190   2.343   3.069   5.858
   97SOL    HW2 1191   2.323   2.945   5.962
   98SOL     OW 1192   6.957   3.755   0.989
   98SOL    HW1 1193   6.899   3.787   1.064
   98SOL    HW2 1194   0.026   3.730   1.025
   99SOL     OW 1195   3.749   3.480   1.085
   99SOL    HW1 1196   3.737   3.493   0.987
   99SOL    HW2 1197   3.750   3.569   1.131
  100SOL     OW 1198   6.742   6.967   4.925
  100SOL    HW1 1199   6.704   6.999   5.012
  100SOL    HW2 1200   6.814   6.900   4.943
  101SOL     OW 1201   1.338   5.014   2.485
  101SOL    HW1 1202   1.409   4.946   2.465
  101SOL    HW2 1203   1.336   5.082   2.411
  102SOL     OW 1204   4.217   6.108   2.624
  102SOL    HW1 1205   4.191   6.073   2.714
  102SOL    HW2 1206   4.228   6.032   2.560
  103SOL     OW 1207   2.527   1.262   1.741
  103SOL    HW1 1208   2.552   1.280   1.837
  103SOL    HW2 1209   2.504   1.166   1.730
  104SOL     OW 1210   0.846   5.651   2.611
  104SOL    HW1 1211   0.789   5.719   2.566
  104SOL    HW2 1212   0.927   5.695   2.650
  105SOL     OW 1213   6.409   2.513   6.744
  105SOL    HW1 1214   6.440   2.559   6.661
  105SOL    HW2 1215   6.371   2.424   6.721
  106SOL     OW 1216   3.139   6.243   4.740
  106SOL    HW1 1217   3.157   6.337   4.770
  106SOL    HW2 1218   3.204   6.182   4.785
  107SOL     OW 1219   2.069   1.336   1.300
  107SOL    HW1 1220   2.151   1.348   1.243
  107SOL    HW2 1221   2.013   1.419   1.296
  108SOL     OW 1222   2.889   5.209   5.562
  108SOL    HW1 1223   2.921   5.243   5.474
  108SOL    HW2 1224   2.896   5.109   5.563
  109SOL     OW 1225   0.056   0.258   1.563
  109SOL    HW1 1226   0.078   0.316   1.485
  109SOL    HW2 1227   6.983   0.227   1.555
  110SOL     OW 1228   3.435   5.690   5.158
  110SOL    HW1 1229   3.362   5.623   5.149
  110SOL    HW2 1230   3.523   5.643   5.160
  111SOL     OW 1231   2.362   1.314   4.463
  111SOL    HW1 1232   2.382   1.410   4.477
  111SOL    HW2 1233   2.392   1.261   4.542
  112SOL     OW 1234   3.724   6.745   6.565
  112SOL    HW1 1235   3.791   6.763   6.493
  112SOL    HW2 1236   3.645   6.697   6.525
  113SOL     OW 1237   6.503   5.981   3.114
  113SOL    HW1 1238   6.518   5.961   3.017
  113SOL    HW2 1239   6.469   6.074   3.125
  114SOL     OW 1240   0.527   7.006   1.663
  114SOL    HW1 1241   0.489   6.991   1.571
  114SOL    HW2 1242   0.545   0.082   1.675
  115SOL     OW 1243   4.686   1.602   3.581
  115SOL    HW1 1244   4.725   1.669   3.518
  115SOL    HW2 1245   4.718   1.511   3.557
  116SOL     OW 1246   5.884   4.950   1.297
  116SOL    HW1 1247   5.975   4.913   1.315
  116SOL    HW2 1248   5.847   4.990   1.381
  117SOL     OW 1249   1.664   2.131   0.488
  117SOL    HW1 1250   1.704   2.148   0.578
  117SOL    HW2 1251   1.592   2.063   0.495
  118SOL     OW 1252   1.414   0.877   3.274
  118SOL    HW1 1253   1.444   0.800   3.330
  118SOL    HW2 1254   1.488   0.944   3.266
  119SOL     OW 1255   0.595   0.884   6.710
  119SOL    HW1 1256   0.510   0.850   6.671
  119SOL    HW2 1257   0.575   0.960   6.771
  120SOL     OW 1258   6.208   0.070   7.003
  120SOL    HW1 1259   6.218   0.154   0.036
  120SOL    HW2 1260   6.118   0.030   7.020
  121SOL     OW 1261   1.419   4.010   6.237
  121SOL    HW1 1262   1.324   3.995   6.263
  121SOL    HW2 1263   1.464   3.922   6.222
  122SOL     OW 1264   1.824   3.496   5.920
  122SOL    HW1 1265   1.878   3.559   5.863
  122SOL    HW2 1266   1.885   3.429   5.962
  123SOL     OW 1267   0.763   1.006   2.726
  123SOL    HW1 1268   0.729   0.913   2.741
  123SOL    HW2 1269   0.722   1.043   2.643
  124SOL     OW 1270   4.485   2.662   0.630
  124SOL    HW1 1271   4.405   2.623   0.586
  124SOL    HW2 1272   4.509   2.749   0.586
  125SOL     OW 1273   2.564   1.852   1.342
  125SOL    HW1 1274   2.619   1.930   1.311
  125SOL    HW2 1275   2.467   1.875   1.335
  126SOL     OW 1276   2.211   4.310   0.999
  126SOL    HW1 1277   2.112   4.311   0.986
  126SOL    HW2 1278   2.234   4.358   1.084
  127SOL     OW 1279   1.040   5.530   0.180
  127SOL    HW1 1280   1.008   5.526   0.085
  127SOL    HW2 1281   1.112   5.599   0.188
  128SOL     OW 1282   5.413   2.653   1.279
  128SOL    HW1 1283   5.343   2.591   1.243
  128SOL    HW2 1284   5.372   2.718   1.342
  129SOL     OW 1285   1.887   3.486   6.412
  129SOL    HW1 1286   1.975   3.488   6.364
  129SOL    HW2 1287   1.852   3.579   6.421
  130SOL     OW 1288   1.367   2.347   3.876
  130SOL    HW1 1289   1.333   2.264   3.831
  130SOL    HW2 1290   1.340   2.346   3.972
  131SOL     OW 1291   5.646   2.027   3.689
  131SOL    HW1 1292   5.628   2.114   3.734
  131SOL    HW2 1293   5.609   2.030   3.596
  132SOL     OW 1294   2.729   2.973   1.101
  132SOL    HW1 1295   2.817   3.017   1.084
  132SOL    HW2 1296   2.665   3.039   1.140
  133SOL     OW 1297   4.728   6.873   3.992
  133SOL    HW1 1298   4.822   6.849   4.018
  133SOL    HW2 1299   4.729   6.958   3.939
  134SOL     OW 1300   6.229   0.826   2.958
  134SOL    HW1 1301   6.228   0.749   2.894
  134SOL    HW2 1302   6.293   0.807   3.033
  135SOL     OW 1303   5.626   3.817   3.317
  135SOL    HW1 1304   5.703   3.876   3.339
  135SOL    HW2 1305   5.590   3.775   3.400
  136SOL     OW 1306   2.956   4.389   5.663
  136SOL    HW1 1307   2.919   4.473   5.704
  136SOL    HW2 1308   2.957   4.399   5.563
  137SOL     OW 1309   6.232   2.329   4.466
  137SOL    HW1 1310   6.303   2.264   4.437
  137SOL    HW2 1311   6.243   2.415   4.416
  138SOL     OW 1312   1.248   4.237   2.379
  138SOL    HW1 1313   1.268   4.324   2.424
  138SOL    HW2 1314   1.160   4.243   2.332
  139SOL     OW 1315   1.592   7.007   4.956
  139SOL    HW1 1316   1.624   6.914   4.940
  139SOL    HW2 1317   1.552   0.022   4.872
  140SOL     OW 1318   0.982   5.984   2.588
  140SOL    HW1 1319   0.926   5.976   2.671
  140SOL    HW2 1320   0.926   6.022   2.515
  141SOL     OW 1321   6.988   2.408   5.261
  141SOL    HW1 1322   0.002   2.415   5.169
  141SOL    HW2 1323   0.010   2.476   5.320
  142SOL     OW 1324   0.725   3.922   1.014
  142SOL    HW1 1325   0.760   3.916   1.108
  142SOL    HW2 1326   0.639   3.973   1.014
  143SOL     OW 1327   5.906   4.345   0.977
  143SOL    HW1 1328   5.912   4.354   1.077
  143SOL    HW2 1329   5.862   4.426   0.939
  144SOL     OW 1330   1.178   5.484   5.537
  144SOL    HW1 1331   1.235   5.563   5.515
  144SOL    HW2 1332   1.083   5.513   5.550
  145SOL     OW 1333   6.953   5.366   0.459
  145SOL    HW1 1334   6.996   5.311   0.531
  145SOL    HW2 1335   7.018   5.435   0.427
  146SOL     OW 1336   4.672   0.183   6.405
  146SOL    HW1 1337   4.584   0.145   6.374
  146SOL    HW2 1338   4.723   0.218   6.326
  147SOL     OW 1339   6.183   3.821   6.236
  147SOL    HW1 1340   6.270   3.816   6.284
  147SOL    HW2 1341   6.167   3.737   6.185
  148SOL     OW 1342   6.618   5.356   0.027
  148SOL    HW1 1343   6.669   5.323   6.969
  148SOL    HW2 1344   6.682   5.392   0.095
  149SOL     OW 1345   3.504   2.115   3.731
  149SOL    HW1 1346   3.410   2.136   3.703
  149SOL    HW2 1347   3.527   2.022   3.702
  150SOL     OW 1348   5.910   6.024   6.980
  150SOL    HW1 1349   5.925   5.927   6.963
  150SOL    HW2 1350   5.992   6.065   7.019
  151SOL     OW 1351   2.818   2.709   1.036
  151SOL    HW1 1352   2.832   2.717   0.937
  151SOL    HW2 1353   2.764   2.786   1.069
  152SOL     OW 1354   1.080   0.910   2.175
  152SOL    HW1 1355   1.033   0.860   2.103
  152SOL    HW2 1356   1.144   0.850   2.222
  153SOL     OW 1357   2.896   0.837   1.843
  153SOL    HW1 1358   2.982   0.794   1.870
  153SOL    HW2 1359   2.913   0.907   1.774
  154SOL     OW 1360   0.595   2.013   2.282
  154SOL    HW1 1361   0.555   1.993   2.192
  154SOL    HW2 1362   0.671   2.076   2.271
  155SOL     OW 1363   0.210   1.312   3.598
  155SOL    HW1 1364   0.277   1.348   3.533
  155SOL    HW2 1365   0.118   1.327   3.562
  156SOL     OW 1366   0.061   2.326   0.630
  156SOL    HW1 1367   0.148   2.330   0.581
  156SOL    HW2 1368   0.077   2.302   0.726
  157SOL     OW 1369   5.247   3.216   1.682
  157SOL    HW1 1370   5.166   3.159   1.676
  157SOL    HW2 1371   5.320   3.177   1.627
  158SOL     OW 1372   2.443   4.862   2.192
  158SOL    HW1 1373   2.527   4.818   2.221
  158SOL    HW2 1374   2.457   4.961   2.183
  159SOL     OW 1375   4.660   4.646   2.291
  159SOL    HW1 1376   4.738   4.594   2.258
  159SOL    HW2 1377   4.581   4.628   2.233
  160SOL     OW 1378   5.110   5.224   0.655
  160SOL    HW1 1379   5.175   5.162   0.612
  160SOL    HW2 1380   5.090   5.193   0.748
  161SOL     OW 1381   2.110   5.793   4.360
  161SOL    HW1 1382   2.166   5.853   4.302
  161SOL    HW2 1383   2.123   5.698   4.331
  162SOL     OW 1384   3.935   5.760   0.325
  162SOL    HW1 1385   3.880   5.754   0.408
  162SOL    HW2 1386   3.878   5.789   0.249
  163SOL     OW 1387   6.058   5.240   1.167
  163SOL    HW1 1388   5.987   5.310   1.153
  163SOL    HW2 1389   6.043   5.165   1.103
  164SOL     OW 1390   6.996   4.816   0.846
  164SOL    HW1 1391   0.024   4.890   0.891
  164SOL    HW2 1392   0.036   4.768   0.783
  165SOL     OW 1393   5.057   3.208   1.098
  165SOL    HW1 1394   5.093   3.271   1.029
  165SOL    HW2 1395   5.102   3.224   1.186
  166SOL     OW 1396   6.925   3.753   2.937
  166SOL    HW1 1397   6.942   3.666   2.984
  166SOL    HW2 1398   6.879   3.816   2.999
  167SOL     OW 1399   4.755   2.557   0.498
  167SOL    HW1 1400   4.724   2.651   0.483
  167SOL    HW2 1401   4.699   2.495   0.444
  168SOL     OW 1402   2.689   3.399   1.302
  168SOL    HW1 1403   2.601   3.423   1.262
  168SOL    HW2 1404   2.699   3.443   1.391
  169SOL     OW 1405   4.962   1.763   1.969
  169SOL    HW1 1406   5.035   1.811   2.018
  169SOL    HW2 1407   4.893   1.829   1.938
  170SOL     OW 1408   1.073   1.075   3.540
  170SOL    HW1 1409   1.172   1.083   3.528
  170SOL    HW2 1410   1.040   0.994   3.493
  171SOL     OW 1411   3.444   4.384   6.170
  171SOL    HW1 1412   3.381   4.334   6.111
  171SOL    HW2 1413   3.428   4.359   6.265
  172SOL     OW 1414   6.034   1.820   3.067
  172SOL    HW1 1415   5.996   1.863   2.986
  172SOL    HW2 1416   6.002   1.868   3.149
  173SOL     OW 1417   6.167   1.927   4.250
  173SOL    HW1 1418   6.214   1.844   4.281
  173SOL    HW2 1419   6.092   1.948   4.312
  174SOL     OW 1420   3.948   5.211   3.155
  174SOL    HW1 1421   3.976   5.219   3.059
  174SOL    HW2 1422   4.019   5.163   3.206
  175SOL     OW 1423   2.778   0.180   1.403
  175SOL    HW1 1424   2.810   0.108   1.464
  175SOL    HW2 1425   2.856   0.229   1.365
  176SOL     OW 1426   0.956   4.901   0.419
  176SOL    HW1 1427   0.997   4.815   0.389
  176SOL    HW2 1428   0.856   4.894   0.415
  177SOL     OW 1429   5.831   3.260   2.862
  177SOL    HW1 1430   5.915   3.313   2.844
  177SOL    HW2 1431   5.782   3.301   2.939
  178SOL     OW 1432   2.457   3.161   6.665
  178SOL    HW1 1433   2.362   3.158   6.632
  178SOL    HW2 1434   2.498   3.070   6.657
  179SOL     OW 1435   3.718   1.010   5.135
  179SOL    HW1 1436   3.690   0.949   5.209
  179SOL    HW2 1437   3.798   0.972   5.089
  180SOL     OW 1438   1.897   6.441   0.339
  180SOL    HW1 1439   1.958   6.445   0.418
  180SOL    HW2 1440   1.803   6.430   0.369
  181SOL     OW 1441   3.382   2.941   6.099
  181SOL    HW1 1442   3.445   2.880   6.051
  181SOL    HW2 1443   3.291   2.899   6.103
  182SOL     OW 1444   3.993   1.832   5.208
  182SOL    HW1 1445   3.977   1.840   5.110
  182SOL    HW2 1446   4.087   1.857   5.230
  183SOL     OW 1447   4.049   2.209   3.352
  183SOL    HW1 1448   4.128   2.193   3.411
  183SOL    HW2 1449   3.966   2.186   3.401
  184SOL     OW 1450   1.024   6.441   4.297
  184SOL    HW1 1451   0.968   6.426   4.216
  184SOL    HW2 1452   0.966   6.447   4.378
  185SOL     OW 1453   0.516   1.450   6.038
  185SOL    HW1 1454   0.591   1.516   6.026
  185SOL    HW2 1455   0.513   1.420   6.133
  186SOL     OW 1456   5.763   0.662   4.698
  186SOL    HW1 1457   5.724   0.624   4.782
  186SOL    HW2 1458   5.716   0.747   4.675
  187SOL     OW 1459   4.268   0.130   2.912
  187SOL    HW1 1460   4.279   0.065   2.988
  187SOL    HW2 1461   4.326   0.210   2.929
  188SOL     OW 1462   0.875   1.538   3.296
  188SOL    HW1 1463   0.951   1.549   3.360
  188SOL    HW2 1464   0.874   1.615   3.232
  189SOL     OW 1465   2.270   5.502   1.308
  189SOL    HW1 1466   2.244   5.594   1.337
  189SOL    HW2 1467   2.224   5.434   1.365
  190SOL     OW 1468   5.347   2.439   4.799
  190SOL    HW1 1469   5.392   2.438   4.709
  190SOL    HW2 1470   5.271   2.504   4.798
  191SOL     OW 1471   6.073   6.871   6.722
  191SOL    HW1 1472   5.986   6.840   6.683
  191SOL    HW2 1473   6.065   6.966   6.750
  192SOL     OW 1474   0.978   5.912   2.093
  192SOL    HW1 1475   1.043   5.890   2.020
  192SOL    HW2 1476   0.941   5.828   2.132
  193SOL     OW 1477   4.423   2.860   5.564
  193SOL    HW1 1478   4.406   2.924   5.488
  193SOL    HW2 1479   4.337   2.845   5.613
  194SOL     OW 1480   3.827   0.652   2.888
  194SOL    HW1 1481   3.925   0.672   2.890
  194SOL    HW2 1482   3.797   0.643   2.794
  195SOL     OW 1483   2.202   0.169   5.081
  195SOL    HW1 1484   2.241   0.127   4.999
  195SOL    HW2 1485   2.252   0.252   5.103
  196SOL     OW 1486   2.838   0.094   0.757
  196SOL    HW1 1487   2.742   0.078   0.778
  196SOL    HW2 1488   2.856   0.193   0.755
  197SOL     OW 1489   2.497   0.191   1.376
  197SOL    HW1 1490   2.453   0.126   1.438
  197SOL    HW2 1491   2.596   0.179   1.379
  198SOL     OW 1492   4.816   0.771   2.066
  198SOL    HW1 1493   4.853   0.678   2.072
  198SOL    HW2 1494   4.716   0.766   2.054
  199SOL     OW 1495   6.602   1.410   3.779
  199SOL    HW1 1496   6.674   1.382   3.842
  199SOL    HW2 1497   6.622   1.375   3.688
  200SOL     OW 1498   1.176   4.518   1.207
  200SOL    HW1 1499   1.273   4.508   1.189
  200SOL    HW2 1500   1.162   4.548   1.301
  201SOL     OW 1501   6.921   0.080   5.504
  201SOL    HW1 1502   6.828   0.089   5.470
  201SOL    HW2 1503   6.986   0.097   5.430
  202SOL     OW 1504   4.545   1.074   0.159
  202SOL    HW1 1505   4.571   1.147   0.095
  202SOL    HW2 1506   4.488   1.113   0.232
  203SOL     OW 1507   5.821   2.496   5.147
  203SOL    HW1 1508   5.877   2.565   5.100
  203SOL    HW2 1509   5.823   2.410   5.095
  204SOL     OW 1510   1.080   0.347   5.457
  204SOL    HW1 1511   0.997   0.403   5.450
  204SOL    HW2 1512   1.102   0.310   5.367
  205SOL     OW 1513   0.049   1.823   2.906
  205SOL    HW1 1514   0.020   1.758   2.835
  205SOL    HW2 1515   7.002   1.895   2.915
  206SOL     OW 1516   0.810   4.593   0.574
  206SOL    HW1 1517   0.886   4.527   0.577
  206SOL    HW2 1518   0.821   4.661   0.647
  207SOL     OW 1519   6.272   1.386   3.762
  207SOL    HW1 1520   6.339   1.357   3.831
  207SOL    HW2 1521   6.229   1.471   3.791
  208SOL     OW 1522   6.502   3.700   5.001
  208SOL    HW1 1523   6.433   3.757   5.045
  208SOL    HW2 1524   6.580   3.757   4.975
  209SOL     OW 1525   0.468   5.396   4.441
  209SOL    HW1 1526   0.387   5.370   4.388
  209SOL    HW2 1527   0.511   5.315   4.479
  210SOL     OW 1528   4.025   1.889   0.499
  210SOL    HW1 1529   4.057   1.896   0.593
  210SOL    HW2 1530   4.068   1.810   0.455
  211SOL     OW 1531   1.891   6.239   2.466
  211SOL    HW1 1532   1.814   6.295   2.433
  211SOL    HW2 1533   1.857   6.150   2.494
  212SOL     OW 1534   1.118   3.907   2.131
  212SOL    HW1 1535   1.208   3.863   2.139
  212SOL    HW2 1536   1.069   3.896   2.217
  213SOL     OW 1537   3.122   0.479   0.671
  213SOL    HW1 1538   3.104   0.550   0.603
  213SOL    HW2 1539   3.153   0.395   0.626
  214SOL     OW 1540   4.392   4.881   1.961
  214SOL    HW1 1541   4.464   4.849   1.899
  214SOL    HW2 1542   4.335   4.804   1.989
  215SOL     OW 1543   2.312   4.069   0.625
  215SOL    HW1 1544   2.399   4.021   0.636
  215SOL    HW2 1545   2.321   4.162   0.661
  216SOL     OW 1546   2.144   6.228   4.072
  216SOL    HW1 1547   2.129   6.313   4.022
  216SOL    HW2 1548   2.056   6.188   4.097
  217SOL     OW 1549   1.655   2.192   4.051
  217SOL    HW1 1550   1.638   2.289   4.065
  217SOL    HW2 1551   1.696   2.178   3.960
  218SOL     OW 1552   0.156   3.358   4.698
  218SOL    HW1 1553   0.159   3.403   4.787
  218SOL    HW2 1554   0.064   3.361   4.661
  219SOL     OW 1555   4.397   0.449   6.858
  219SOL    HW1 1556   4.348   0.515   6.914
  219SOL    HW2 1557   4.350   0.437   6.771
  220SOL     OW 1558   2.958   6.743   1.688
  220SOL    HW1 1559   2.860   6.756   1.672
  220SOL    HW2 1560   2.993   6.674   1.625
  221SOL     OW 1561   6.432   3.870   0.931
  221SOL    HW1 1562   6.519   3.905   0.896
  221SOL    HW2 1563   6.368   3.860   0.855
  222SOL     OW 1564   1.613   4.748   5.845
  222SOL    HW1 1565   1.592   4.826   5.903
  222SOL    HW2 1566   1.554   4.748   5.765
  223SOL     OW 1567   6.206   3.569   6.458
  223SOL    HW1 1568   6.172   3.482   6.421
  223SOL    HW2 1569   6.228   3.631   6.383
  224SOL     OW 1570   2.285   1.930   4.808
  224SOL    HW1 1571   2.371   1.953   4.854
  224SOL    HW2 1572   2.291   1.838   4.769
  225SOL     OW 1573   4.347   3.955   6.261
  225SOL    HW1 1574   4.432   3.943   6.210
  225SOL    HW2 1575   4.354   4.035   6.320
  226SOL     OW 1576   1.467   1.572   5.520
  226SOL    HW1 1577   1.515   1.592   5.434
  226SOL    HW2 1578   1.469   1.653   5.578
  227SOL     OW 1579   1.655   3.715   2.208
  227SOL    HW1 1580   1.690   3.633   2.162
  227SOL    HW2 1581   1.581   3.689   2.269
  228SOL     OW 1582   3.073   6.713   3.679
  228SOL    HW1 1583   3.025   6.661   3.749
  228SOL    HW2 1584   3.099   6.802   3.716
  229SOL     OW 1585   5.931   6.285   6.733
  229SOL    HW1 1586   5.960   6.236   6.816
  229SOL    HW2 1587   5.931   6.383   6.751
  230SOL     OW 1588   3.221   4.953   3.604
  230SOL    HW1 1589   3.297   4.921   3.661
  230SOL    HW2 1590   3.156   5.004   3.661
  231SOL     OW 1591   6.536   2.004   6.759
  231SOL    HW1 1592   6.594   2.071   6.805
  231SOL    HW2 1593   6.451   1.992   6.810
  232SOL     OW 1594   0.683   3.228   6.737
  232SOL    HW1 1595   0.695   3.177   6.651
  232SOL    HW2 1596   0.586   3.226   6.763
  233SOL     OW 1597   3.230   1.340   2.748
  233SOL    HW1 1598   3.284   1.270   2.795
  233SOL    HW2 1599   3.199   1.408   2.815
  234SOL     OW 1600   5.531   0.505   5.590
  234SOL    HW1 1601   5.590   0.425   5.580
  234SOL    HW2 1602   5.472   0.492   5.671
  235SOL     OW 1603   3.866   2.387   1.540
  235SOL    HW1 1604   3.934   2.338   1.595
  235SOL    HW2 1605   3.797   2.426   1.600
  236SOL     OW 1606   5.461   2.628   6.550
  236SOL    HW1 1607   5.402   2.597   6.475
  236SOL    HW2 1608   5.526   2.556   6.572
  237SOL     OW 1609   6.292   4.670   1.660
  237SOL    HW1 1610   6.338   4.739   1.604
  237SOL    HW2 1611   6.302   4.580   1.617
  238SOL     OW 1612   5.427   1.735   0.433
  238SOL    HW1 1613   5.389   1.815   0.387
  238SOL    HW2 1614   5.409   1.740   0.531
  239SOL     OW 1615   0.982   4.981   0.114
  239SOL    HW1 1616   0.962   5.073   0.148
  239SOL    HW2 1617   0.910   4.952   0.052
  240SOL     OW 1618   7.017   2.908   3.389
  240SOL    HW1 1619   0.082   2.858   3.383
  240SOL    HW2 1620   6.994   2.924   3.485
  241SOL     OW 1621   2.553   1.979   4.917
  241SOL    HW1 1622   2.652   1.980   4.899
  241SOL    HW2 1623   2.538   1.954   5.013
  242SOL     OW 1624   3.244   3.793   4.055
  242SOL    HW1 1625   3.238   3.698   4.025
  242SOL    HW2 1626   3.304   3.843   3.992
  243SOL     OW 1627   4.274   0.535   6.109
  243SOL    HW1 1628   4.241   0.496   6.023
  243SOL    HW2 1629   4.311   0.462   6.167
  244SOL     OW 1630   5.857   2.604   5.403
  244SOL    HW1 1631   5.818   2.556   5.325
  244SOL    HW2 1632   5.805   2.581   5.486
  245SOL     OW 1633   5.440   3.578   4.128
  245SOL    HW1 1634   5.512   3.528   4.177
  245SOL    HW2 1635   5.373   3.613   4.194
  246SOL     OW 1636   4.244   2.303   3.851
  246SOL    HW1 1637   4.320   2.366   3.866
  246SOL    HW2 1638   4.267   2.240   3.776
  247SOL     OW 1639   2.782   2.034   1.211
  247SOL    HW1 1640   2.842   1.984   1.148
  247SOL    HW2 1641   2.837   2.097   1.266
  248SOL     OW 1642   3.768   1.247   2.304
  248SOL    HW1 1643   3.840   1.285   2.363
  248SOL    HW2 1644   3.754   1.308   2.226
  249SOL     OW 1645   4.107   6.928   4.475
  249SOL    HW1 1646   4.059   6.842   4.460
  249SOL    HW2 1647   4.046   6.992   4.523
  250SOL     OW 1648   5.083   2.739   0.461
  250SOL    HW1 1649   5.086   2.822   0.405
  250SOL    HW2 1650   5.039   2.665   0.410
  251SOL     OW 1651   4.661   4.132   5.711
  251SOL    HW1 1652   4.737   4.103   5.654
  251SOL    HW2 1653   4.614   4.051   5.747
  252SOL     OW 1654   6.445   5.846   0.013
  252SOL    HW1 1655   6.514   5.834   6.963
  252SOL    HW2 1656   6.417   5.756   0.047
  253SOL     OW 1657   2.467   5.464   5.926
  253SOL    HW1 1658   2.433   5.485   6.018
  253SOL    HW2 1659   2.566   5.455   5.928
  254SOL     OW 1660   5.563   2.592   3.545
  254SOL    HW1 1661   5.602   2.511   3.587
  254SOL    HW2 1662   5.546   2.662   3.615
  255SOL     OW 1663   1.660   4.456   5.396
  255SOL    HW1 1664   1.732   4.387   5.394
  255SOL    HW2 1665   1.575   4.418   5.359
  256SOL     OW 1666   6.167   3.562   6.023
  256SOL    HW1 1667   6.116   3.537   5.940
  256SOL    HW2 1668   6.197   3.479   6.070
  257SOL     OW 1669   4.786   0.347   3.892
  257SOL    HW1 1670   4.706   0.398   3.922
  257SOL    HW2 1671   4.800   0.361   3.794
  258SOL     OW 1672   2.064   5.107   4.690
  258SOL    HW1 1673   2.116   5.184   4.728
  258SOL    HW2 1674   1.979   5.097   4.742
  259SOL     OW 1675   0.251   1.667   2.574
  259SOL    HW1 1676   0.280   1.581   2.617
  259SOL    HW2 1677   0.331   1.724   2.557
  260SOL     OW 1678   4.724   0.604   1.410
  260SOL    HW1 1679   4.750   0.599   1.507
  260SOL    HW2 1680   4.679   0.519   1.384
  261SOL     OW 1681   6.864   3.411   0.780
  261SOL    HW1 1682   6.955   3.421   0.821
  261SOL    HW2 1683   6.872   3.416   0.680
  262SOL     OW 1684   0.435   3.896   0.407
  262SOL    HW1 1685   0.417   3.874   0.502
  262SOL    HW2 1686   0.440   3.811   0.353
  263SOL     OW 1687   2.024   0.639   3.786
  263SOL    HW1 1688   2.025   0.713   3.854
  263SOL    HW2 1689   1.930   0.607   3.773
  264SOL     OW 1690   6.254   3.103   6.586
  264SOL    HW1 1691   6.336   3.085   6.532
  264SOL    HW2 1692   6.263   3.192   6.631
  265SOL     OW 1693   5.192   6.376   2.246
  265SOL    HW1 1694   5.275   6.364   2.300
  265SOL    HW2 1695   5.173   6.474   2.236
  266SOL     OW 1696   3.403   2.813   5.616
  266SOL    HW1 1697   3.490   2.837   5.574
  266SOL    HW2 1698   3.347   2.895   5.627
  267SOL     OW 1699   0.538   1.360   6.694
  267SOL    HW1 1700   0.546   1.423   6.616
  267SOL    HW2 1701   0.620   1.303   6.700
  268SOL     OW 1702   3.506   0.758   5.748
  268SOL    HW1 1703   3.465   0.778   5.660
  268SOL    HW2 1704   3.590   0.705   5.735
  269SOL     OW 1705   0.516   3.405   2.120
  269SOL    HW1 1706   0.493   3.397   2.023
  269SOL    HW2 1707   0.575   3.485   2.133
  270SOL     OW 1708   1.074   0.127   0.406
  270SOL    HW1 1709   1.011   0.132   0.484
  270SOL    HW2 1710   1.022   0.128   0.321
  271SOL     OW 1711   0.096   1.666   6.421
  271SOL    HW1 1712   0.113   1.579   6.466
  271SOL    HW2 1713   7.019   1.681   6.414
  272SOL     OW 1714   3.512   5.473   4.645
  272SOL    HW1 1715   3.418   5.474   4.612
  272SOL    HW2 1716   3.574   5.495   4.569
  273SOL     OW 1717   1.768   4.414   4.900
  273SOL    HW1 1718   1.864   4.428   4.927
  273SOL    HW2 1719   1.763   4.405   4.800
  274SOL     OW 1720   4.367   2.069   3.051
  274SOL    HW1 1721   4.294   2.101   2.991
  274SOL    HW2 1722   4.348   1.975   3.079
  275SOL     OW 1723   6.005   4.273   5.374
  275SOL    HW1 1724   5.970   4.358   5.335
  275SOL    HW2 1725   5.987   4.271   5.473
  276SOL     OW 1726   6.987   6.643   2.899
  276SOL    HW1 1727   6.963   6.670   2.992
  276SOL    HW2 1728   6.947   6.554   2.878
  277SOL     OW 1729   1.449   3.811   0.473
  277SOL    HW1 1730   1.463   3.807   0.572
  277SOL    HW2 1731   1.362   3.766   0.450
  278SOL     OW 1732   6.362   5.082   2.178
  278SOL    HW1 1733   6.360   5.035   2.089
  278SOL    HW2 1734   6.456   5.105   2.201
  279SOL     OW 1735   6.532   3.053   4.213
  279SOL    HW1 1736   6.631   3.039   4.221
  279SOL    HW2 1737   6.496   2.998   4.138
  280SOL     OW 1738   3.028   0.013   2.976
  280SOL    HW1 1739   2.999   6.958   2.920
  280SOL    HW2 1740   3.110   7.010   3.028
  281SOL     OW 1741   2.581   4.623   1.834
  281SOL    HW1 1742   2.519   4.611   1.912
  281SOL    HW2 1743   2.674   4.636   1.867
  282SOL     OW 1744   3.163   1.423   5.653
  282SOL    HW1 1745   3.173   1.519   5.626
  282SOL    HW2 1746   3.223   1.405   5.731
  283SOL     OW 1747   5.986   1.384   6.877
  283SOL    HW1 1748   6.044   1.445   6.824
  283SOL    HW2 1749   6.042   1.320   6.929
  284SOL     OW 1750   1.379   4.228   3.347
  284SOL    HW1 1751   1.403   4.165   3.272
  284SOL    HW2 1752   1.349   4.176   3.426
  285SOL     OW 1753   6.156   4.802   5.284
  285SOL    HW1 1754   6.202   4.873   5.338
  285SOL    HW2 1755   6.114   4.735   5.345
  286SOL     OW 1756   3.281   5.666   5.696
  286SOL    HW1 1757   3.291   5.763   5.718
  286SOL    HW2 1758   3.304   5.650   5.600
  287SOL     OW 1759   0.297   4.191   0.550
  287SOL    HW1 1760   0.384   4.189   0.599
  287SOL    HW2 1761   0.222   4.194   0.615
  288SOL     OW 1762   4.011   0.923   5.893
  288SOL    HW1 1763   4.017   0.911   5.794
  288SOL    HW2 1764   4.099   0.898   5.934
  289SOL     OW 1765   0.061   4.402   5.255
  289SOL    HW1 1766   0.070   4.434   5.160
  289SOL    HW2 1767   0.145   4.358   5.283
  290SOL     OW 1768   6.108   2.049   4.671
  290SOL    HW1 1769   6.081   2.038   4.575
  290SOL    HW2 1770   6.163   1.970   4.700
  291SOL     OW 1771   1.547   2.480   4.630
  291SOL    HW1 1772   1.485   2.438   4.564
  291SOL    HW2 1773   1.635   2.433   4.628
  292SOL     OW 1774   1.747   2.293   3.285
  292SOL    HW1 1775   1.738   2.197   3.314
  292SOL    HW2 1776   1.832   2.330   3.322
  293SOL     OW 1777   4.583   5.280   1.722
  293SOL    HW1 1778   4.520   5.345   1.763
  293SOL    HW2 1779   4.673   5.288   1.766
  294SOL     OW 1780   0.261   5.506   6.351
  294SOL    HW1 1781   0.348   5.507   6.303
  294SOL    HW2 1782   0.223   5.414   6.350
  295SOL     OW 1783   3.479   2.026   4.201
  295SOL    HW1 1784   3.556   1.963   4.214
  295SOL    HW2 1785   3.502   2.091   4.128
  296SOL     OW 1786   4.387   1.930   2.777
  296SOL    HW1 1787   4.401   2.011   2.834
  296SOL    HW2 1788   4.328   1.954   2.700
  297SOL     OW 1789   2.193   4.660   2.890
  297SOL    HW1 1790   2.182   4.629   2.985
  297SOL    HW2 1791   2.281   4.628   2.855
  298SOL     OW 1792   3.958   6.500   1.151
  298SOL    HW1 1793   3.964   6.400   1.151
  298SOL    HW2 1794   4.041   6.538   1.110
  299SOL     OW 1795   5.239   3.456   6.006
  299SOL    HW1 1796   5.278   3.450   6.098
  299SOL    HW2 1797   5.159   3.515   6.007
  300SOL     OW 1798   6.539   1.065   1.799
  300SOL    HW1 1799   6.563   1.004   1.874
  300SOL    HW2 1800   6.595   1.148   1.803
  301SOL     OW 1801   4.882   3.560   1.370
  301SOL    HW1 1802   4.919   3.586   1.460
  301SOL    HW2 1803   4.858   3.463   1.371
  302SOL     OW 1804   0.975   0.834   3.385
  302SOL    HW1 1805   0.878   0.828   3.361
  302SOL    HW2 1806   1.003   0.749   3.430
  303SOL     OW 1807   5.694   0.905   1.994
  303SOL    HW1 1808   5.760   0.832   1.977
  303SOL    HW2 1809   5.733   0.970   2.059
  304SOL     OW 1810   2.843   6.894   4.119
  304SOL    HW1 1811   2.826   6.796   4.125
  304SOL    HW2 1812   2.794   6.942   4.192
  305SOL     OW 1813   0.535   3.627   0.306
  305SOL    HW1 1814   0.615   3.663   0.258
  305SOL    HW2 1815   0.480   3.573   0.242
  306SOL     OW 1816   2.453   1.420   3.563
  306SOL    HW1 1817   2.414   1.505   3.528
  306SOL    HW2 1818   2.382   1.365   3.605
  307SOL     OW 1819   5.104   0.252   0.845
  307SOL    HW1 1820   5.149   0.207   0.922
  307SOL    HW2 1821   5.040   0.188   0.802
  308SOL     OW 1822   6.055   3.240   4.721
  308SOL    HW1 1823   6.009   3.328   4.729
  308SOL    HW2 1824   6.005   3.170   4.772
  309SOL     OW 1825   2.947   5.287   6.751
  309SOL    HW1 1826   2.886   5.280   6.830
  309SOL    HW2 1827   3.023   5.224   6.761
  310SOL     OW 1828   5.908   6.973   5.336
  310SOL    HW1 1829   5.856   0.035   5.351
  310SOL    HW2 1830   5.859   6.915   5.270
  311SOL     OW 1831   5.812   4.866   1.754
  311SOL    HW1 1832   5.802   4.951   1.701
  311SOL    HW2 1833   5.837   4.791   1.693
  312SOL     OW 1834   4.008   1.466   5.496
  312SOL    HW1 1835   4.084   1.461   5.432
  312SOL    HW2 1836   3.957   1.551   5.481
  313SOL     OW 1837   3.296   4.350   1.581
  313SOL    HW1 1838   3.334   4.433   1.621
  313SOL    HW2 1839   3.218   4.319   1.636
  314SOL     OW 1840   3.365   4.765   6.694
  314SOL    HW1 1841   3.380   4.847   6.749
  314SOL    HW2 1842   3.267   4.748   6.686
  315SOL     OW 1843   0.968   3.121   3.686
  315SOL    HW1 1844   0.930   3.085   3.771
  315SOL    HW2 1845   0.973   3.220   3.691
  316SOL     OW 1846   2.781   1.874   4.155
  316SOL    HW1 1847   2.842   1.836   4.086
  316SOL    HW2 1848   2.768   1.808   4.229
  317SOL     OW 1849   1.032   0.369   0.838
  317SOL    HW1 1850   0.958   0.403   0.896
  317SOL    HW2 1851   1.119   0.408   0.869
  318SOL     OW 1852   1.179   6.402   6.802
  318SOL    HW1 1853   1.261   6.456   6.821
  318SOL    HW2 1854   1.203   6.326   6.740
  319SOL     OW 1855   6.741   0.515   3.563
  319SOL    HW1 1856   6.806   0.454   3.518
  319SOL    HW2 1857   6.726   0.596   3.506
  320SOL     OW 1858   6.161   2.021   0.257
  320SOL    HW1 1859   6.088   2.071   0.209
  320SOL    HW2 1860   6.125   1.978   0.339
  321SOL     OW 1861   3.752   1.636   1.095
  321SOL    HW1 1862   3.744   1.704   1.168
  321SOL    HW2 1863   3.835   1.582   1.109
  322SOL     OW 1864   3.754   4.112   4.701
  322SOL    HW1 1865   3.662   4.073   4.698
  322SOL    HW2 1866   3.748   4.209   4.724
  323SOL     OW 1867   0.895   3.716   6.282
  323SOL    HW1 1868   0.943   3.635   6.313
  323SOL    HW2 1869   0.870   3.773   6.361
  324SOL     OW 1870   2.265   2.464   3.697
  324SOL    HW1 1871   2.189   2.512   3.742
  324SOL    HW2 1872   2.344   2.525   3.692
  325SOL     OW 1873   1.226   2.984   1.688
  325SOL    HW1 1874   1.255   3.028   1.773
  325SOL    HW2 1875   1.268   2.894   1.681
  326SOL     OW 1876   1.322   4.834   6.671
  326SOL    HW1 1877   1.395   4.876   6.725
  326SOL    HW2 1878   1.359   4.801   6.584
  327SOL     OW 1879   1.629   5.030   3.798
  327SOL    HW1 1880   1.591   5.121   3.813
  327SOL    HW2 1881   1.674   5.027   3.709
  328SOL     OW 1882   1.748   6.242   1.910
  328SOL    HW1 1883   1.773   6.289   1.825
  328SOL    HW2 1884   1.687   6.166   1.889
  329SOL     OW 1885   3.559   4.176   4.402
  329SOL    HW1 1886   3.583   4.266   4.364
  329SOL    HW2 1887   3.573   4.107   4.331
  330SOL     OW 1888   3.052   0.052   1.044
  330SOL    HW1 1889   3.001   0.137   1.058
  330SOL    HW2 1890   3.118   0.040   1.118
  331SOL     OW 1891   3.814   5.464   0.252
  331SOL    HW1 1892   3.912   5.443   0.251
  331SOL    HW2 1893   3.787   5.492   0.344
  332SOL     OW 1894   3.183   1.613   4.717
  332SOL    HW1 1895   3.204   1.694   4.663
  332SOL    HW2 1896   3.240   1.537   4.687
  333SOL     OW 1897   3.508   6.647   6.442
  333SOL    HW1 1898   3.440   6.590   6.489
  333SOL    HW2 1899   3.463   6.701   6.371
  334SOL     OW 1900   2.525   0.494   1.437
  334SOL    HW1 1901   2.512   0.399   1.409
  334SOL    HW2 1902   2.477   0.510   1.523
  335SOL     OW 1903   3.475   6.718   4.090
  335SOL    HW1 1904   3.535   6.771   4.030
  335SOL    HW2 1905   3.507   6.724   4.184
  336SOL     OW 1906   2.633   1.356   3.827
  336SOL    HW1 1907   2.553   1.404   3.791
  336SOL    HW2 1908   2.716   1.401   3.794
  337SOL     OW 1909   0.052   3.255   0.387
  337SOL    HW1 1910   0.049   3.158   0.409
  337SOL    HW2 1911   7.003   3.277   0.320
  338SOL     OW 1912   3.350   3.025   1.450
  338SOL    HW1 1913   3.283   3.081   1.499
  338SOL    HW2 1914   3.304   2.944   1.413
  339SOL     OW 1915   3.450   6.084   4.451
  339SOL    HW1 1916   3.516   6.113   4.382
  339SOL    HW2 1917   3.364   6.135   4.437
  340SOL     OW 1918   4.926   4.378   5.644
  340SOL    HW1 1919   4.950   4.322   5.723
  340SOL    HW2 1920   4.910   4.472   5.674
  341SOL     OW 1921   6.669   0.529   4.461
  341SOL    HW1 1922   6.715   0.440   4.460
  341SOL    HW2 1923   6.696   0.579   4.543
  342SOL     OW 1924   5.856   3.723   6.336
  342SOL    HW1 1925   5.866   3.624   6.334
  342SOL    HW2 1926   5.759   3.747   6.342
  343SOL     OW 1927   1.962   5.570   0.732
  343SOL    HW1 1928   2.020   5.627   0.789
  343SOL    HW2 1929   2.002   5.561   0.641
  344SOL     OW 1930   1.738   4.644   2.047
  344SOL    HW1 1931   1.657   4.684   2.003
  344SOL    HW2 1932   1.710   4.566   2.102
  345SOL     OW 1933   6.471   1.441   5.013
  345SOL    HW1 1934   6.491   1.368   4.948
  345SOL    HW2 1935   6.374   1.438   5.038
  346SOL     OW 1936   1.247   0.427   2.445
  346SOL    HW1 1937   1.154   0.390   2.436
  346SOL    HW2 1938   1.262   0.497   2.375
  347SOL     OW 1939   2.996   5.923   6.078
  347SOL    HW1 1940   3.025   5.828   6.079
  347SOL    HW2 1941   3.048   5.975   6.146
  348SOL     OW 1942   5.478   4.984   1.339
  348SOL    HW1 1943   5.548   4.912   1.337
  348SOL    HW2 1944   5.523   5.073   1.347
  349SOL     OW 1945   6.670   4.402   1.290
  349SOL    HW1 1946   6.736   4.419   1.363
  349SOL    HW2 1947   6.614   4.322   1.314
  350SOL     OW 1948   3.564   3.224   1.040
  350SOL    HW1 1949   3.564   3.195   1.136
  350SOL    HW2 1950   3.604   3.315   1.033
  351SOL     OW 1951   2.403   2.990   0.464
  351SOL    HW1 1952   2.473   3.016   0.398
  351SOL    HW2 1953   2.354   3.072   0.495
  352SOL     OW 1954   3.472   0.279   4.799
  352SOL    HW1 1955   3.438   0.200   4.749
  352SOL    HW2 1956   3.491   0.254   4.894
  353SOL     OW 1957   2.450   6.925   1.023
  353SOL    HW1 1958   2.509   6.846   1.036
  353SOL    HW2 1959   2.486   6.982   0.948
  354SOL     OW 1960   3.493   2.306   0.132
  354SOL    HW1 1961   3.513   2.267   0.222
  354SOL    HW2 1962   3.470   2.232   0.068
  355SOL     OW 1963   6.992   2.957   2.581
  355SOL    HW1 1964   6.924   2.931   2.649
  355SOL    HW2 1965   6.959   3.034   2.526
  356SOL     OW 1966   3.961   5.487   5.355
  356SOL    HW1 1967   3.937   5.457   5.263
  356SOL    HW2 1968   4.061   5.493   5.363
  357SOL     OW 1969   6.353   6.678   5.488
  357SOL    HW1 1970   6.439   6.658   5.441
  357SOL    HW2 1971   6.278   6.627   5.446
  358SOL     OW 1972   5.596   0.137   1.831
  358SOL    HW1 1973   5.646   0.207   1.780
  358SOL    HW2 1974   5.546   0.180   1.906
  359SOL     OW 1975   1.624   2.019   2.439
  359SOL    HW1 1976   1.708   2.021   2.385
  359SOL    HW2 1977   1.644   1.979   2.529
  360SOL     OW 1978   1.303   5.487   6.829
  360SOL    HW1 1979   1.280   5.422   6.756
  360SOL    HW2 1980   1.255   5.574   6.813
  361SOL     OW 1981   5.255   5.843   3.068
  361SOL    HW1 1982   5.320   5.774   3.034
  361SOL    HW2 1983   5.163   5.818   3.039
  362SOL     OW 1984   3.815   4.078   1.111
  362SOL    HW1 1985   3.886   4.141   1.079
  362SOL    HW2 1986   3.841   3.984   1.090
  363SOL     OW 1987   4.594   4.495   3.337
  363SOL    HW1 1988   4.649   4.429   3.288
  363SOL    HW2 1989   4.597   4.475   3.435
  364SOL     OW 1990   6.876   5.524   6.167
  364SOL    HW1 1991   6.791   5.522   6.115
  364SOL    HW2 1992   6.949   5.563   6.110
  365SOL     OW 1993   5.095   5.171   2.079
  365SOL    HW1 1994   5.049   5.180   2.167
  365SOL    HW2 1995   5.085   5.077   2.046
  366SOL     OW 1996   6.437   0.592   0.267
  366SOL    HW1 1997   6.467   0.687   0.261
  366SOL    HW2 1998   6.509   0.537   0.309
  367SOL     OW 1999   4.915   2.994   1.121
  367SOL    HW1 2000   4.817   3.004   1.103
  367SOL    HW2 2001   4.960   3.082   1.113
  368SOL     OW 2002   0.613   3.611   4.821
  368SOL    HW1 2003   0.651   3.519   4.819
  368SOL    HW2 2004   0.592   3.636   4.916
  369SOL     OW 2005   6.909   5.054   1.528
  369SOL    HW1 2006   6.881   5.015   1.615
  369SOL    HW2 2007   6.878   5.149   1.521
  370SOL     OW 2008   3.124   1.454   5.078
  370SOL    HW1 2009   3.138   1.507   5.162
  370SOL    HW2 2010   3.212   1.419   5.046
  371SOL     OW 2011   2.654   3.568   6.519
  371SOL    HW1 2012   2.708   3.636   6.469
  371SOL    HW2 2013   2.644   3.486   6.463
  372SOL     OW 2014   0.011   0.556   5.302
  372SOL    HW1 2015   6.983   0.470   5.308
  372SOL    HW2 2016   0.041   0.570   5.208
  373SOL     OW 2017   6.202   6.029   5.599
  373SOL    HW1 2018   6.181   6.095   5.671
  373SOL    HW2 2019   6.291   5.987   5.616
  374SOL     OW 2020   3.534   0.294   2.189
  374SOL    HW1 2021   3.514   0.202   2.155
  374SOL    HW2 2022   3.456   0.354   2.171
  375SOL     OW 2023   0.918   4.689   3.596
  375SOL    HW1 2024   0.853   4.734   3.536
  375SOL    HW2 2025   0.931   4.745   3.678
  376SOL     OW 2026   1.616   3.041   4.147
  376SOL    HW1 2027   1.521   3.044   4.115
  376SOL    HW2 2028   1.644   3.132   4.176
  377SOL     OW 2029   6.854   2.803   2.153
  377SOL    HW1 2030   6.829   2.763   2.241
  377SOL    HW2 2031   6.915   2.881   2.168
  378SOL     OW 2032   3.486   3.104   5.684
  378SOL    HW1 2033   3.508   3.119   5.587
  378SOL    HW2 2034   3.546   3.032   5.720
  379SOL     OW 2035   6.354   4.229   1.593
  379SOL    HW1 2036   6.431   4.237   1.656
  379SOL    HW2 2037   6.279   4.180   1.638
  380SOL     OW 2038   2.511   1.246   2.020
  380SOL    HW1 2039   2.594   1.190   2.017
  380SOL    HW2 2040   2.473   1.244   2.113
  381SOL     OW 2041   1.985   4.558   2.081
  381SOL    HW1 2042   1.897   4.600   2.059
  381SOL    HW2 2043   2.014   4.501   2.005
  382SOL     OW 2044   5.393   6.586   6.425
  382SOL    HW1 2045   5.389   6.509   6.488
  382SOL    HW2 2046   5.367   6.670   6.473
  383SOL     OW 2047   5.851   2.856   5.902
  383SOL    HW1 2048   5.873   2.797   5.980
  383SOL    HW2 2049   5.756   2.884   5.906
  384SOL     OW 2050   6.961   4.319   4.435
  384SOL    HW1 2051   6.972   4.325   4.336
  384SOL    HW2 2052   7.007   4.397   4.478
  385SOL     OW 2053   4.183   6.286   6.493
  385SOL    HW1 2054   4.147   6.252   6.406
  385SOL    HW2 2055   4.153   6.380   6.506
  386SOL     OW 2056   3.193   6.852   5.068
  386SOL    HW1 2057   3.236   6.927   5.018
  386SOL    HW2 2058   3.133   6.889   5.139
  387SOL     OW 2059   6.704   6.513   3.292
  387SOL    HW1 2060   6.726   6.581   3.222
  387SOL    HW2 2061   6.680   6.427   3.248
  388SOL     OW 2062   0.609   2.511   3.574
  388SOL    HW1 2063   0.704   2.478   3.574
  388SOL    HW2 2064   0.601   2.589   3.637
  389SOL     OW 2065   4.458   4.397   1.666
  389SOL    HW1 2066   4.381   4.461   1.670
  389SOL    HW2 2067   4.450   4.330   1.739
  390SOL     OW 2068   3.407   1.744   0.357
  390SOL    HW1 2069   3.350   1.693   0.293
  390SOL    HW2 2070   3.494   1.767   0.313
  391SOL     OW 2071   2.421   3.858   5.453
  391SOL    HW1 2072   2.363   3.923   5.501
  391SOL    HW2 2073   2.467   3.904   5.377
  392SOL     OW 2074   1.818   3.317   2.190
  392SOL    HW1 2075   1.804   3.227   2.149
  392SOL    HW2 2076   1.890   3.311   2.259
  393SOL     OW 2077   1.319   5.407   0.325
  393SOL    HW1 2078   1.284   5.458   0.246
  393SOL    HW2 2079   1.352   5.471   0.394
  394SOL     OW 2080   1.168   2.774   6.806
  394SOL    HW1 2081   1.121   2.722   6.735
  394SOL    HW2 2082   1.112   2.776   6.889
  395SOL     OW 2083   5.477   4.277   2.276
  395SOL    HW1 2084   5.446   4.182   2.277
  395SOL    HW2 2085   5.475   4.314   2.369
  396SOL     OW 2086   2.556   2.442   2.388
  396SOL    HW1 2087   2.632   2.427   2.326
  396SOL    HW2 2088   2.471   2.450   2.336
  397SOL     OW 2089   5.559   1.960   6.594
  397SOL    HW1 2090   5.460   1.949   6.582
  397SOL    HW2 2091   5.597   1.876   6.633
  398SOL     OW 2092   1.550   6.237   3.853
  398SOL    HW1 2093   1.489   6.162   3.876
  398SOL    HW2 2094   1.500   6.307   3.802
  399SOL     OW 2095   5.995   5.843   4.601
  399SOL    HW1 2096   5.930   5.843   4.525
  399SOL    HW2 2097   5.963   5.904   4.673
  400SOL     OW 2098   6.059   6.310   5.557
  400SOL    HW1 2099   6.151   6.301   5.518
  400SOL    HW2 2100   6.007   6.226   5.539
  401SOL     OW 2101   5.923   0.102   6.112
  401SOL    HW1 2102   5.902   0.200   6.109
  401SOL    HW2 2103   5.866   0.054   6.046
  402SOL     OW 2104   6.209   6.817   2.959
  402SOL    HW1 2105   6.302   6.849   2.976
  402SOL    HW2 2106   6.145   6.894   2.968
  403SOL     OW 2107   3.327   0.236   6.004
  403SOL    HW1 2108   3.403   0.225   5.939
  403SOL    HW2 2109   3.314   0.151   6.054
  404SOL     OW 2110   2.204   5.199   5.618
  404SOL    HW1 2111   2.207   5.227   5.714
  404SOL    HW2 2112   2.258   5.263   5.563
  405SOL     OW 2113   1.851   4.141   3.270
  405SOL    HW1 2114   1.871   4.138   3.172
  405SOL    HW2 2115   1.804   4.057   3.297
  406SOL     OW 2116   0.698   4.763   5.167
  406SOL    HW1 2117   0.786   4.776   5.122
  406SOL    HW2 2118   0.626   4.752   5.098
  407SOL     OW 2119   1.987   2.681   4.052
  407SOL    HW1 2120   1.916   2.748   4.072
  407SOL    HW2 2121   2.075   2.714   4.086
  408SOL     OW 2122   3.479   2.080   2.815
  408SOL    HW1 2123   3.530   2.128   2.887
  408SOL    HW2 2124   3.518   2.104   2.726
  409SOL     OW 2125   6.834   3.572   1.912
  409SOL    HW1 2126   6.888   3.490   1.929
  409SOL    HW2 2127   6.850   3.639   1.984
  410SOL     OW 2128   1.512   1.803   1.119
  410SOL    HW1 2129   1.494   1.843   1.209
  410SOL    HW2 2130   1.430   1.759   1.085
  411SOL     OW 2131   6.216   1.445   1.882
  411SOL    HW1 2132   6.123   1.432   1.846
  411SOL    HW2 2133   6.214   1.515   1.953
  412SOL     OW 2134   3.513   4.966   2.660
  412SOL    HW1 2135   3.428   4.947   2.709
  412SOL    HW2 2136   3.526   4.899   2.587
  413SOL     OW 2137   4.629   4.953   1.540
  413SOL    HW1 2138   4.629   4.887   1.465
  413SOL    HW2 2139   4.625   5.046   1.503
  414SOL     OW 2140   3.608   0.502   4.223
  414SOL    HW1 2141   3.512   0.530   4.215
  414SOL    HW2 2142   3.613   0.402   4.223
  415SOL     OW 2143   0.286   1.638   6.748
  415SOL    HW1 2144   0.284   1.568   6.677
  415SOL    HW2 2145   0.200   1.637   6.799
  416SOL     OW 2146   4.998   4.599   4.324
  416SOL    HW1 2147   5.082   4.640   4.288
  416SOL    HW2 2148   4.919   4.645   4.283
  417SOL     OW 2149   2.000   1.243   6.404
  417SOL    HW1 2150   1.918   1.207   6.358
  417SOL    HW2 2151   2.045   1.310   6.345
  418SOL     OW 2152   2.892   0.097   5.376
  418SOL    HW1 2153   2.902   0.171   5.310
  418SOL    HW2 2154   2.950   0.020   5.349
  419SOL     OW 2155   0.114   6.844   3.290
  419SOL    HW1 2156   0.136   6.890   3.376
  419SOL    HW2 2157   0.193   6.847   3.229
  420SOL     OW 2158   5.641   1.525   6.420
  420SOL    HW1 2159   5.741   1.535   6.424
  420SOL    HW2 2160   5.608   1.562   6.333
  421SOL     OW 2161   5.699   3.854   5.020
  421SOL    HW1 2162   5.768   3.905   4.968
  421SOL    HW2 2163   5.730   3.842   5.114
  422SOL     OW 2164   5.659   2.319   0.627
  422SOL    HW1 2165   5.747   2.364   0.641
  422SOL    HW2 2166   5.591   2.357   0.690
  423SOL     OW 2167   2.508   1.373   6.799
  423SOL    HW1 2168   2.573   1.306   6.764
  423SOL    HW2 2169   2.558   1.449   6.841
  424SOL     OW 2170   2.143   5.153   2.692
  424SOL    HW1 2171   2.207   5.230   2.697
  424SOL    HW2 2172   2.159   5.102   2.607
  425SOL     OW 2173   4.977   0.731   4.817
  425SOL    HW1 2174   5.031   0.699   4.894
  425SOL    HW2 2175   4.981   0.831   4.812
  426SOL     OW 2176   2.178   2.866   5.149
  426SOL    HW1 2177   2.246   2.920   5.100
  426SOL    HW2 2178   2.169   2.776   5.105
  427SOL     OW 2179   5.292   0.885   4.287
  427SOL    HW1 2180   5.271   0.983   4.286
  427SOL    HW2 2181   5.210   0.834   4.313
  428SOL     OW 2182   2.629   0.320   3.819
  428SOL    HW1 2183   2.540   0.276   3.805
  428SOL    HW2 2184   2.618   0.394   3.886
  429SOL     OW 2185   0.697   5.360   4.245
  429SOL    HW1 2186   0.600   5.338   4.260
  429SOL    HW2 2187   0.753   5.286   4.282
  430SOL     OW 2188   1.375   7.005   3.695
  430SOL    HW1 2189   1.369   6.972   3.601
  430SOL    HW2 2190   1.411   0.077   3.695
  431SOL     OW 2191   2.276   2.118   0.784
  431SOL    HW1 2192   2.200   2.161   0.834
  431SOL    HW2 2193   2.264   2.133   0.686
  432SOL     OW 2194   5.893   1.826   1.000
  432SOL    HW1 2195   5.932   1.812   1.091
  432SOL    HW2 2196   5.803   1.869   1.008
  433SOL     OW 2197   3.182   6.236   5.954
  433SOL    HW1 2198   3.183   6.252   6.053
  433SOL    HW2 2199   3.179   6.138   5.936
  434SOL     OW 2200   4.044   5.275   4.462
  434SOL    HW1 2201   4.113   5.269   4.390
  434SOL    HW2 2202   4.034   5.186   4.505
  435SOL     OW 2203   3.922   1.209   5.612
  435SOL    HW1 2204   3.822   1.202   5.621
  435SOL    HW2 2205   3.946   1.301   5.581
  436SOL     OW 2206   3.420   5.960   2.615
  436SOL    HW1 2207   3.517   5.953   2.637
  436SOL    HW2 2208   3.407   6.018   2.535
  437SOL     OW 2209   0.205   1.195   5.174
  437SOL    HW1 2210   0.212   1.294   5.179
  437SOL    HW2 2211   0.291   1.157   5.140
  438SOL     OW 2212   1.463   4.589   3.189
  438SOL    HW1 2213   1.379   4.552   3.229
  438SOL    HW2 2214   1.460   4.689   3.190
  439SOL     OW 2215   6.035   0.426   2.637
  439SOL    HW1 2216   5.984   0.340   2.642
  439SOL    HW2 2217   6.079   0.444   2.725
  440SOL     OW 2218   3.630   1.219   6.501
  440SOL    HW1 2219   3.680   1.221   6.414
  440SOL    HW2 2220   3.582   1.305   6.513
  441SOL     OW 2221   5.882   4.351   3.068
  441SOL    HW1 2222   5.847   4.443   3.085
  441SOL    HW2 2223   5.826   4.306   2.997
  442SOL     OW 2224   4.931   4.299   5.907
  442SOL    HW1 2225   4.959   4.372   5.969
  442SOL    HW2 2226   4.836   4.274   5.926
  443SOL     OW 2227   5.276   4.618   3.940
  443SOL    HW1 2228   5.319   4.534   3.907
  443SOL    HW2 2229   5.327   4.697   3.904
  444SOL     OW 2230   4.315   1.274   6.337
  444SOL    HW1 2231   4.269   1.212   6.401
  444SOL    HW2 2232   4.247   1.330   6.290
  445SOL     OW 2233   2.723   6.389   2.896
  445SOL    HW1 2234   2.704   6.486   2.882
  445SOL    HW2 2235   2.742   6.372   2.993
  446SOL     OW 2236   4.327   5.749   3.057
  446SOL    HW1 2237   4.355   5.669   3.110
  446SOL    HW2 2238   4.380   5.829   3.086
  447SOL     OW 2239   6.312   3.411   5.521
  447SOL    HW1 2240   6.372   3.427   5.443
  447SOL    HW2 2241   6.217   3.418   5.492
  448SOL     OW 2242   2.189   1.368   3.040
  448SOL    HW1 2243   2.265   1.315   3.004
  448SOL    HW2 2244   2.151   1.426   2.968
  449SOL     OW 2245   2.451   2.637   3.206
  449SOL    HW1 2246   2.496   2.549   3.224
  449SOL    HW2 2247   2.517   2.701   3.166
  450SOL     OW 2248   1.302   4.615   3.455
  450SOL    HW1 2249   1.401   4.609   3.463
  450SOL    HW2 2250   1.268   4.689   3.513
  451SOL     OW 2251   0.349   2.895   3.682
  451SOL    HW1 2252   0.420   2.964   3.696
  451SOL    HW2 2253   0.356   2.858   3.589
  452SOL     OW 2254   3.365   0.045   1.856
  452SOL    HW1 2255   3.436   0.050   1.927
  452SOL    HW2 2256   3.283   0.004   1.893
  453SOL     OW 2257   3.982   0.512   6.571
  453SOL    HW1 2258   3.971   0.592   6.630
  453SOL    HW2 2259   4.036   0.536   6.491
  454SOL     OW 2260   0.035   4.066   6.603
  454SOL    HW1 2261   6.957   4.080   6.602
  454SOL    HW2 2262   0.078   4.133   6.542
  455SOL     OW 2263   6.349   3.058   5.456
  455SOL    HW1 2264   6.446   3.080   5.449
  455SOL    HW2 2265   6.298   3.112   5.388
  456SOL     OW 2266   1.406   0.872   3.898
  456SOL    HW1 2267   1.429   0.881   3.801
  456SOL    HW2 2268   1.311   0.901   3.912
  457SOL     OW 2269   0.898   5.514   5.579
  457SOL    HW1 2270   0.856   5.549   5.495
  457SOL    HW2 2271   0.862   5.423   5.599
  458SOL     OW 2272   2.949   1.099   2.541
  458SOL    HW1 2273   3.030   1.067   2.590
  458SOL    HW2 2274   2.903   1.021   2.499
  459SOL     OW 2275   2.095   0.626   5.619
  459SOL    HW1 2276   2.051   0.628   5.529
  459SOL    HW2 2277   2.186   0.584   5.610
  460SOL     OW 2278   1.317   1.597   5.174
  460SOL    HW1 2279   1.400   1.624   5.222
  460SOL    HW2 2280   1.312   1.643   5.086
  461SOL     OW 2281   6.649   4.853   5.593
  461SOL    HW1 2282   6.674   4.938   5.639
  461SOL    HW2 2283   6.685   4.776   5.645
  462SOL     OW 2284   4.089   3.806   4.738
  462SOL    HW1 2285   4.134   3.885   4.696
  462SOL    HW2 2286   4.027   3.765   4.672
  463SOL     OW 2287   6.487   6.892   2.941
  463SOL    HW1 2288   6.485   6.937   2.852
  463SOL    HW2 2289   6.574   6.910   2.986
  464SOL     OW 2290   3.205   6.883   6.208
  464SOL    HW1 2291   3.182   6.929   6.123
  464SOL    HW2 2292   3.239   6.950   6.274
  465SOL     OW 2293   1.371   2.306   0.175
  465SOL    HW1 2294   1.322   2.377   0.125
  465SOL    HW2 2295   1.355   2.217   0.130
  466SOL     OW 2296   3.069   6.177   4.266
  466SOL    HW1 2297   3.153   6.163   4.213
  466SOL    HW2 2298   2.995   6.203   4.204
  467SOL     OW 2299   0.776   1.849   2.523
  467SOL    HW1 2300   0.859   1.872   2.575
  467SOL    HW2 2301   0.770   1.907   2.442
  468SOL     OW 2302   4.808   6.959   6.107
  468SOL    HW1 2303   4.810   6.920   6.200
  468SOL    HW2 2304   4.897   7.000   6.087
  469SOL     OW 2305   2.954   4.263   5.935
  469SOL    HW1 2306   2.893   4.306   5.869
  469SOL    HW2 2307   3.043   4.309   5.934
  470SOL     OW 2308   3.404   6.076   3.025
  470SOL    HW1 2309   3.363   6.124   2.947
  470SOL    HW2 2310   3.344   6.001   3.053
  471SOL     OW 2311   2.566   2.365   3.945
  471SOL    HW1 2312   2.560   2.444   3.884
  471SOL    HW2 2313   2.523   2.286   3.900
  472SOL     OW 2314   6.136   4.843   0.007
  472SOL    HW1 2315   6.227   4.871   6.999
  472SOL    HW2 2316   6.068   4.878   6.964
  473SOL     OW 2317   7.021   2.544   2.471
  473SOL    HW1 2318   6.963   2.463   2.461
  473SOL    HW2 2319   0.028   2.553   2.566
  474SOL     OW 2320   6.106   5.000   5.546
  474SOL    HW1 2321   6.194   4.954   5.538
  474SOL    HW2 2322   6.118   5.087   5.594
  475SOL     OW 2323   5.882   3.285   6.931
  475SOL    HW1 2324   5.897   3.246   6.840
  475SOL    HW2 2325   5.877   3.211   6.999
  476SOL     OW 2326   0.244   3.966   2.103
  476SOL    HW1 2327   0.237   3.899   2.029
  476SOL    HW2 2328   0.169   4.032   2.096
  477SOL     OW 2329   2.410   6.068   3.530
  477SOL    HW1 2330   2.508   6.059   3.542
  477SOL    HW2 2331   2.391   6.143   3.468
  478SOL     OW 2332   4.439   5.741   2.800
  478SOL    HW1 2333   4.478   5.828   2.770
  478SOL    HW2 2334   4.395   5.753   2.889
  479SOL     OW 2335   3.901   3.047   4.183
  479SOL    HW1 2336   3.824   3.099   4.221
  479SOL    HW2 2337   3.985   3.101   4.192
  480SOL     OW 2338   1.627   0.219   2.233
  480SOL    HW1 2339   1.563   0.164   2.180
  480SOL    HW2 2340   1.686   0.158   2.286
  481SOL     OW 2341   0.858   6.391   1.440
  481SOL    HW1 2342   0.871   6.310   1.382
  481SOL    HW2 2343   0.891   6.371   1.532
  482SOL     OW 2344   5.039   5.041   2.807
  482SOL    HW1 2345   5.090   5.108   2.861
  482SOL    HW2 2346   5.047   4.951   2.849
  483SOL     OW 2347   6.487   2.715   2.789
  483SOL    HW1 2348   6.585   2.694   2.800
  483SOL    HW2 2349   6.451   2.749   2.876
  484SOL     OW 2350   1.513   4.307   4.531
  484SOL    HW1 2351   1.589   4.332   4.590
  484SOL    HW2 2352   1.529   4.343   4.439
  485SOL     OW 2353   5.296   3.647   2.074
  485SOL    HW1 2354   5.378   3.645   2.016
  485SOL    HW2 2355   5.299   3.571   2.139
  486SOL     OW 2356   5.558   0.252   6.624
  486SOL    HW1 2357   5.587   0.187   6.553
  486SOL    HW2 2358   5.623   0.250   6.700
  487SOL     OW 2359   0.021   0.702   3.350
  487SOL    HW1 2360   0.083   0.728   3.275
  487SOL    HW2 2361   6.976   0.775   3.364
  488SOL     OW 2362   1.887   6.954   2.944
  488SOL    HW1 2363   1.903   6.922   3.038
  488SOL    HW2 2364   1.789   6.968   2.930
  489SOL     OW 2365   6.261   5.678   4.788
  489SOL    HW1 2366   6.355   5.708   4.776
  489SOL    HW2 2367   6.232   5.696   4.882
  490SOL     OW 2368   1.248   5.898   5.148
  490SOL    HW1 2369   1.324   5.934   5.201
  490SOL    HW2 2370   1.259   5.800   5.135
  491SOL     OW 2371   0.370   3.627   0.727
  491SOL    HW1 2372   0.399   3.722   0.735
  491SOL    HW2 2373   0.446   3.570   0.697
  492SOL     OW 2374   1.343   1.146   5.756
  492SOL    HW1 2375   1.441   1.164   5.763
  492SOL    HW2 2376   1.326   1.048   5.767
  493SOL     OW 2377   2.627   0.101   5.467
  493SOL    HW1 2378   2.716   0.077   5.428
  493SOL    HW2 2379   2.588   0.021   5.513
  494SOL     OW 2380   2.400   1.312   5.815
  494SOL    HW1 2381   2.472   1.293   5.748
  494SOL    HW2 2382   2.386   1.232   5.873
  495SOL     OW 2383   4.556   6.085   5.481
  495SOL    HW1 2384   4.575   6.182   5.461
  495SOL    HW2 2385   4.458   6.072   5.495
  496SOL     OW 2386   6.461   1.602   2.686
  496SOL    HW1 2387   6.557   1.625   2.701
  496SOL    HW2 2388   6.454   1.536   2.611
  497SOL     OW 2389   3.665   1.279   5.626
  497SOL    HW1 2390   3.621   1.366   5.647
  497SOL    HW2 2391   3.612   1.204   5.666
  498SOL     OW 2392   0.148   5.085   1.711
  498SOL    HW1 2393   0.232   5.042   1.681
  498SOL    HW2 2394   0.091   5.106   1.631
  499SOL     OW 2395   2.734   5.348   5.721
  499SOL    HW1 2396   2.787   5.308   5.645
  499SOL    HW2 2397   2.770   5.314   5.808
  500SOL     OW 2398   5.195   2.859   6.063
  500SOL    HW1 2399   5.270   2.793   6.065
  500SOL    HW2 2400   5.212   2.931   6.132
  501SOL     OW 2401   1.874   6.999   2.487
  501SOL    HW1 2402   1.930   6.967   2.564
  501SOL    HW2 2403   1.904   0.069   2.460
  502SOL     OW 2404   1.483   4.733   6.172
  502SOL    HW1 2405   1.495   4.634   6.158
  502SOL    HW2 2406   1.392   4.760   6.140
  503SOL     OW 2407   2.887   5.071   6.310
  503SOL    HW1 2408   2.888   5.148   6.374
  503SOL    HW2 2409   2.792   5.043   6.293
  504SOL     OW 2410   6.797   5.578   2.798
  504SOL    HW1 2411   6.703   5.563   2.828
  504SOL    HW2 2412   6.817   5.676   2.798
  505SOL     OW 2413   4.044   6.911   5.278
  505SOL    HW1 2414   4.080   6.856   5.202
  505SOL    HW2 2415   3.945   6.916   5.271
  506SOL     OW 2416   2.898   5.203   2.674
  506SOL    HW1 2417   2.890   5.139   2.597
  506SOL    HW2 2418   2.978   5.261   2.660
  507SOL     OW 2419   4.316   1.459   1.889
  507SOL    HW1 2420   4.222   1.425   1.886
  507SOL    HW2 2421   4.356   1.455   1.798
  508SOL     OW 2422   6.637   2.608   3.709
  508SOL    HW1 2423   6.562   2.644   3.764
  508SOL    HW2 2424   6.638   2.656   3.620
  509SOL     OW 2425   4.814   0.639   0.148
  509SOL    HW1 2426   4.836   0.696   0.228
  509SOL    HW2 2427   4.883   0.653   0.077
  510SOL     OW 2428   0.052   4.822   5.732
  510SOL    HW1 2429   0.132   4.773   5.767
  510SOL    HW2 2430   0.042   4.909   5.781
  511SOL     OW 2431   1.376   2.045   6.324
  511SOL    HW1 2432   1.336   1.968   6.274
  511SOL    HW2 2433   1.353   2.037   6.421
  512SOL     OW 2434   5.758   2.090   6.971
  512SOL    HW1 2435   5.689   2.023   7.001
  512SOL    HW2 2436   5.717   2.153   6.905
  513SOL     OW 2437   6.009   6.437   2.597
  513SOL    HW1 2438   6.103   6.452   2.565
  513SOL    HW2 2439   5.945   6.466   2.525
  514SOL     OW 2440   0.295   6.578   3.600
  514SOL    HW1 2441   0.210   6.544   3.641
  514SOL    HW2 2442   0.294   6.678   3.598
  515SOL     OW 2443   2.798   0.614   6.047
  515SOL    HW1 2444   2.808   0.674   5.968
  515SOL    HW2 2445   2.802   0.668   6.131
  516SOL     OW 2446   2.495   4.334   1.796
  516SOL    HW1 2447   2.505   4.431   1.818
  516SOL    HW2 2448   2.564   4.308   1.729
  517SOL     OW 2449   3.963   4.973   2.386
  517SOL    HW1 2450   3.967   5.070   2.410
  517SOL    HW2 2451   3.870   4.940   2.398
  518SOL     OW 2452   2.193   2.907   3.849
  518SOL    HW1 2453   2.105   2.862   3.837
  518SOL    HW2 2454   2.260   2.841   3.882
  519SOL     OW 2455   6.775   6.759   3.945
  519SOL    HW1 2456   6.813   6.667   3.941
  519SOL    HW2 2457   6.797   6.808   3.861
  520SOL     OW 2458   1.028   3.636   0.161
  520SOL    HW1 2459   1.034   3.668   0.066
  520SOL    HW2 2460   0.935   3.648   0.195
  521SOL     OW 2461   4.758   5.889   4.388
  521SOL    HW1 2462   4.677   5.919   4.438
  521SOL    HW2 2463   4.767   5.789   4.395
  522SOL     OW 2464   4.227   3.853   1.525
  522SOL    HW1 2465   4.245   3.761   1.560
  522SOL    HW2 2466   4.234   3.919   1.599
  523SOL     OW 2467   6.992   6.472   1.948
  523SOL    HW1 2468   6.935   6.456   2.028
  523SOL    HW2 2469   6.964   6.556   1.902
  524SOL     OW 2470   0.955   2.978   2.227
  524SOL    HW1 2471   0.953   2.991   2.326
  524SOL    HW2 2472   1.013   2.900   2.205
  525SOL     OW 2473   1.437   3.209   6.752
  525SOL    HW1 2474   1.418   3.111   6.747
  525SOL    HW2 2475   1.535   3.225   6.740
  526SOL     OW 2476   2.784   6.632   4.202
  526SOL    HW1 2477   2.723   6.624   4.281
  526SOL    HW2 2478   2.839   6.549   4.194
  527SOL     OW 2479   0.972   2.458   0.016
  527SOL    HW1 2480   1.023   2.433   6.956
  527SOL    HW2 2481   0.982   2.386   0.085
  528SOL     OW 2482   0.803   3.454   3.948
  528SOL    HW1 2483   0.736   3.429   3.878
  528SOL    HW2 2484   0.849   3.539   3.920
  529SOL     OW 2485   2.360   0.514   5.657
  529SOL    HW1 2486   2.417   0.529   5.738
  529SOL    HW2 2487   2.382   0.425   5.617
  530SOL     OW 2488   3.703   2.924   2.515
  530SOL    HW1 2489   3.712   2.936   2.417
  530SOL    HW2 2490   3.606   2.910   2.538
  531SOL     OW 2491   2.160   0.734   2.677
  531SOL    HW1 2492   2.224   0.786   2.734
  531SOL    HW2 2493   2.074   0.723   2.726
  532SOL     OW 2494   1.319   3.768   0.724
  532SOL    HW1 2495   1.345   3.705   0.798
  532SOL    HW2 2496   1.227   3.745   0.693
  533SOL     OW 2497   5.623   6.926   3.564
  533SOL    HW1 2498   5.561   6.998   3.594
  533SOL    HW2 2499   5.715   6.964   3.553
  534SOL     OW 2500   0.338   5.987   1.912
  534SOL    HW1 2501   0.403   5.912   1.903
  534SOL    HW2 2502   0.290   6.000   1.826
  535SOL     OW 2503   6.662   4.413   3.271
  535SOL    HW1 2504   6.574   4.419   3.319
  535SOL    HW2 2505   6.724   4.483   3.306
  536SOL     OW 2506   6.348   5.702   2.730
  536SOL    HW1 2507   6.410   5.777   2.707
  536SOL    HW2 2508   6.254   5.730   2.712
  537SOL     OW 2509   3.553   6.564   4.347
  537SOL    HW1 2510   3.475   6.568   4.409
  537SOL    HW2 2511   3.587   6.470   4.342
  538SOL     OW 2512   1.168   5.347   5.263
  538SOL    HW1 2513   1.220   5.345   5.349
  538SOL    HW2 2514   1.214   5.291   5.195
  539SOL     OW 2515   1.548   5.817   2.010
  539SOL    HW1 2516   1.600   5.752   1.956
  539SOL    HW2 2517   1.600   5.843   2.091
  540SOL     OW 2518   1.983   1.243   4.330
  540SOL    HW1 2519   2.006   1.325   4.383
  540SOL    HW2 2520   1.955   1.271   4.238
  541SOL     OW 2521   4.616   5.985   3.597
  541SOL    HW1 2522   4.643   6.018   3.687
  541SOL    HW2 2523   4.517   5.987   3.589
  542SOL     OW 2524   3.338   6.461   6.525
  542SOL    HW1 2525   3.401   6.384   6.534
  542SOL    HW2 2526   3.246   6.432   6.553
  543SOL     OW 2527   5.577   3.530   3.573
  543SOL    HW1 2528   5.538   3.473   3.502
  543SOL    HW2 2529   5.624   3.472   3.640
  544SOL     OW 2530   0.752   5.044   0.271
  544SOL    HW1 2531   0.849   5.027   0.253
  544SOL    HW2 2532   0.706   4.957   0.290
  545SOL     OW 2533   4.462   1.171   1.176
  545SOL    HW1 2534   4.415   1.238   1.119
  545SOL    HW2 2535   4.498   1.216   1.258
  546SOL     OW 2536   0.810   3.964   1.607
  546SOL    HW1 2537   0.858   4.021   1.541
  546SOL    HW2 2538   0.855   3.971   1.696
  547SOL     OW 2539   3.184   2.759   0.810
  547SOL    HW1 2540   3.218   2.751   0.903
  547SOL    HW2 2541   3.097   2.809   0.810
  548SOL     OW 2542   3.615   3.718   0.713
  548SOL    HW1 2543   3.558   3.777   0.656
  548SOL    HW2 2544   3.674   3.775   0.770
  549SOL     OW 2545   5.716   2.533   1.566
  549SOL    HW1 2546   5.621   2.509   1.589
  549SOL    HW2 2547   5.739   2.620   1.610
  550SOL     OW 2548   0.517   5.218   3.455
  550SOL    HW1 2549   0.483   5.127   3.477
  550SOL    HW2 2550   0.441   5.283   3.452
  551SOL     OW 2551   0.235   0.387   1.132
  551SOL    HW1 2552   0.290   0.313   1.171
  551SOL    HW2 2553   0.288   0.433   1.061
  552SOL     OW 2554   4.930   5.103   5.170
  552SOL    HW1 2555   4.883   5.138   5.251
  552SOL    HW2 2556   4.907   5.006   5.158
  553SOL     OW 2557   3.314   0.046   3.699
  553SOL    HW1 2558   3.295   0.058   3.602
  553SOL    HW2 2559   3.383   6.995   3.711
  554SOL     OW 2560   5.638   5.928   0.103
  554SOL    HW1 2561   5.738   5.923   0.105
  554SOL    HW2 2562   5.609   6.022   0.087
  555SOL     OW 2563   3.376   5.041   5.325
  555SOL    HW1 2564   3.345   5.057   5.231
  555SOL    HW2 2565   3.446   4.970   5.325
  556SOL     OW 2566   5.536   1.520   4.235
  556SOL    HW1 2567   5.577   1.430   4.241
  556SOL    HW2 2568   5.508   1.538   4.141
  557SOL     OW 2569   0.264   5.137   6.302
  557SOL    HW1 2570   0.203   5.133   6.222
  557SOL    HW2 2571   0.225   5.083   6.376
  558SOL     OW 2572   3.783   2.926   3.983
  558SOL    HW1 2573   3.866   2.924   4.038
  558SOL    HW2 2574   3.705   2.950   4.041
  559SOL     OW 2575   6.645   6.025   5.834
  559SOL    HW1 2576   6.713   5.991   5.899
  559SOL    HW2 2577   6.554   6.012   5.872
  560SOL     OW 2578   6.403   3.760   3.398
  560SOL    HW1 2579   6.341   3.764   3.320
  560SOL    HW2 2580   6.481   3.702   3.375
  561SOL     OW 2581   6.901   2.586   6.766
  561SOL    HW1 2582   6.808   2.586   6.803
  561SOL    HW2 2583   6.964   2.552   6.835
  562SOL     OW 2584   4.598   0.657   5.980
  562SOL    HW1 2585   4.649   0.581   6.021
  562SOL    HW2 2586   4.550   0.624   5.898
  563SOL     OW 2587   2.605   1.270   3.367
  563SOL    HW1 2588   2.552   1.270   3.452
  563SOL    HW2 2589   2.572   1.343   3.308
  564SOL     OW 2590   0.225   2.329   6.613
  564SOL    HW1 2591   0.235   2.230   6.606
  564SOL    HW2 2592   0.295   2.374   6.558
  565SOL     OW 2593   2.987   3.823   3.155
  565SOL    HW1 2594   2.903   3.768   3.159
  565SOL    HW2 2595   3.039   3.811   3.239
  566SOL     OW 2596   1.893   3.684   3.282
  566SOL    HW1 2597   1.944   3.599   3.295
  566SOL    HW2 2598   1.956   3.762   3.285
  567SOL     OW 2599   3.270   3.110   0.595
  567SOL    HW1 2600   3.317   3.030   0.632
  567SOL    HW2 2601   3.174   3.107   0.621
  568SOL     OW 2602   5.716   6.791   0.131
  568SOL    HW1 2603   5.671   6.714   0.086
  568SOL    HW2 2604   5.803   6.811   0.086
  569SOL     OW 2605   1.109   2.530   0.973
  569SOL    HW1 2606   1.090   2.625   0.949
  569SOL    HW2 2607   1.062   2.470   0.908
  570SOL     OW 2608   3.441   0.420   6.728
  570SOL    HW1 2609   3.481   0.362   6.658
  570SOL    HW2 2610   3.474   0.514   6.718
  571SOL     OW 2611   2.749   4.862   3.877
  571SOL    HW1 2612   2.661   4.841   3.834
  571SOL    HW2 2613   2.769   4.793   3.946
  572SOL     OW 2614   2.098   5.068   5.356
  572SOL    HW1 2615   2.131   5.133   5.425
  572SOL    HW2 2616   2.174   5.014   5.322
  573SOL     OW 2617   6.267   1.326   5.823
  573SOL    HW1 2618   6.254   1.233   5.855
  573SOL    HW2 2619   6.183   1.379   5.834
  574SOL     OW 2620   3.579   0.349   5.091
  574SOL    HW1 2621   3.499   0.407   5.072
  574SOL    HW2 2622   3.656   0.407   5.117
  575SOL     OW 2623   4.190   2.546   1.243
  575SOL    HW1 2624   4.152   2.553   1.150
  575SOL    HW2 2625   4.119   2.570   1.309
  576SOL     OW 2626   1.068   3.344   2.717
  576SOL    HW1 2627   1.065   3.245   2.727
  576SOL    HW2 2628   1.092   3.386   2.805
  577SOL     OW 2629   1.569   0.693   1.993
  577SOL    HW1 2630   1.640   0.736   2.048
  577SOL    HW2 2631   1.544   0.605   2.033
  578SOL     OW 2632   1.321   5.147   5.373
  578SOL    HW1 2633   1.314   5.081   5.298
  578SOL    HW2 2634   1.329   5.097   5.460
  579SOL     OW 2635   1.552   4.859   3.213
  579SOL    HW1 2636   1.596   4.940   3.176
  579SOL    HW2 2637   1.543   4.868   3.313
  580SOL     OW 2638   3.981   4.747   5.737
  580SOL    HW1 2639   3.899   4.754   5.794
  580SOL    HW2 2640   4.033   4.665   5.763
  581SOL     OW 2641   1.376   3.108   3.394
  581SOL    HW1 2642   1.362   3.176   3.466
  581SOL    HW2 2643   1.465   3.064   3.407
  582SOL     OW 2644   4.704   5.945   3.135
  582SOL    HW1 2645   4.612   5.974   3.109
  582SOL    HW2 2646   4.706   5.846   3.147
  583SOL     OW 2647   2.611   5.951   5.351
  583SOL    HW1 2648   2.698   6.000   5.359
  583SOL    HW2 2649   2.628   5.858   5.319
  584SOL     OW 2650   3.433   0.168   0.086
  584SOL    HW1 2651   3.532   0.167   0.070
  584SOL    HW2 2652   3.386   0.170   7.019
  585SOL     OW 2653   4.643   1.066   0.523
  585SOL    HW1 2654   4.577   0.999   0.488
  585SOL    HW2 2655   4.721   1.018   0.563
  586SOL     OW 2656   3.640   0.278   0.912
  586SOL    HW1 2657   3.688   0.272   1.000
  586SOL    HW2 2658   3.541   0.276   0.928
  587SOL     OW 2659   4.998   2.563   2.604
  587SOL    HW1 2660   5.010   2.484   2.663
  587SOL    HW2 2661   5.081   2.578   2.551
  588SOL     OW 2662   2.082   5.167   0.929
  588SOL    HW1 2663   2.040   5.077   0.919
  588SOL    HW2 2664   2.066   5.201   1.022
  589SOL     OW 2665   3.940   5.552   1.346
  589SOL    HW1 2666   3.996   5.630   1.375
  589SOL    HW2 2667   3.876   5.528   1.419
  590SOL     OW 2668   5.590   1.353   0.883
  590SOL    HW1 2669   5.506   1.334   0.933
  590SOL    HW2 2670   5.600   1.287   0.808
  591SOL     OW 2671   4.138   6.554   4.201
  591SOL    HW1 2672   4.107   6.497   4.277
  591SOL    HW2 2673   4.232   6.583   4.217
  592SOL     OW 2674   4.585   0.481   2.676
  592SOL    HW1 2675   4.674   0.442   2.651
  592SOL    HW2 2676   4.555   0.543   2.604
  593SOL     OW 2677   4.747   1.858   4.450
  593SOL    HW1 2678   4.836   1.887   4.486
  593SOL    HW2 2679   4.684   1.935   4.449
  594SOL     OW 2680   6.498   0.969   0.964
  594SOL    HW1 2681   6.584   1.015   0.943
  594SOL    HW2 2682   6.513   0.901   1.036
  595SOL     OW 2683   6.027   6.808   3.708
  595SOL    HW1 2684   6.098   6.760   3.657
  595SOL    HW2 2685   6.068   6.882   3.761
  596SOL     OW 2686   0.448   5.182   3.120
  596SOL    HW1 2687   0.512   5.110   3.144
  596SOL    HW2 2688   0.356   5.156   3.150
  597SOL     OW 2689   2.629   6.338   6.328
  597SOL    HW1 2690   2.671   6.259   6.373
  597SOL    HW2 2691   2.573   6.388   6.394
  598SOL     OW 2692   3.332   4.170   4.578
  598SOL    HW1 2693   3.409   4.160   4.515
  598SOL    HW2 2694   3.360   4.224   4.657
  599SOL     OW 2695   2.182   6.006   2.910
  599SOL    HW1 2696   2.275   6.035   2.933
  599SOL    HW2 2697   2.183   5.962   2.820
  600SOL     OW 2698   6.292   2.920   6.112
  600SOL    HW1 2699   6.259   2.947   6.203
  600SOL    HW2 2700   6.380   2.872   6.122
  601SOL     OW 2701   1.347   1.758   4.600
  601SOL    HW1 2702   1.380   1.664   4.589
  601SOL    HW2 2703   1.247   1.758   4.597
  602SOL     OW 2704   2.536   0.874   5.955
  602SOL    HW1 2705   2.515   0.829   6.042
  602SOL    HW2 2706   2.617   0.931   5.966
  603SOL     OW 2707   2.360   2.278   5.254
  603SOL    HW1 2708   2.350   2.302   5.157
  603SOL    HW2 2709   2.456   2.289   5.281
  604SOL     OW 2710   1.345   2.198   1.448
  604SOL    HW1 2711   1.287   2.123   1.480
  604SOL    HW2 2712   1.315   2.284   1.490
  605SOL     OW 2713   6.825   4.927   1.769
  605SOL    HW1 2714   6.763   4.857   1.803
  605SOL    HW2 2715   6.895   4.946   1.837
  606SOL     OW 2716   4.498   6.338   5.361
  606SOL    HW1 2717   4.523   6.390   5.280
  606SOL    HW2 2718   4.544   6.376   5.441
  607SOL     OW 2719   6.739   4.972   5.354
  607SOL    HW1 2720   6.692   4.937   5.435
  607SOL    HW2 2721   6.836   4.947   5.359
  608SOL     OW 2722   3.822   6.492   6.689
  608SOL    HW1 2723   3.799   6.586   6.666
  608SOL    HW2 2724   3.755   6.455   6.753
  609SOL     OW 2725   4.045   3.191   1.765
  609SOL    HW1 2726   4.061   3.215   1.861
  609SOL    HW2 2727   4.098   3.110   1.742
  610SOL     OW 2728   5.525   2.627   6.934
  610SOL    HW1 2729   5.429   2.621   6.907
  610SOL    HW2 2730   5.549   2.549   6.991
  611SOL     OW 2731   4.106   6.965   2.041
  611SOL    HW1 2732   4.039   6.918   1.984
  611SOL    HW2 2733   4.096   6.934   2.136
  612SOL     OW 2734   2.963   5.844   4.837
  612SOL    HW1 2735   2.935   5.830   4.933
  612SOL    HW2 2736   2.886   5.821   4.777
  613SOL     OW 2737   5.120   4.087   5.083
  613SOL    HW1 2738   5.146   4.099   5.179
  613SOL    HW2 2739   5.193   4.122   5.024
  614SOL     OW 2740   5.260   5.376   5.445
  614SOL    HW1 2741   5.280   5.281   5.421
  614SOL    HW2 2742   5.210   5.378   5.531
  615SOL     OW 2743   0.190   2.667   1.159
  615SOL    HW1 2744   0.204   2.688   1.255
  615SOL    HW2 2745   0.278   2.640   1.117
  616SOL     OW 2746   6.339   2.410   2.546
  616SOL    HW1 2747   6.263   2.363   2.501
  616SOL    HW2 2748   6.314   2.505   2.563
  617SOL     OW 2749   1.019   4.705   5.632
  617SOL    HW1 2750   0.945   4.727   5.695
  617SOL    HW2 2751   1.072   4.629   5.668
  618SOL     OW 2752   1.728   2.355   0.980
  618SOL    HW1 2753   1.633   2.360   0.949
  618SOL    HW2 2754   1.738   2.280   1.044
  619SOL     OW 2755   2.566   2.152   0.822
  619SOL    HW1 2756   2.573   2.094   0.903
  619SOL    HW2 2757   2.470   2.162   0.797
  620SOL     OW 2758   4.576   2.147   0.083
  620SOL    HW1 2759   4.618   2.215   0.023
  620SOL    HW2 2760   4.509   2.193   0.142
  621SOL     OW 2761   3.668   4.949   6.746
  621SOL    HW1 2762   3.691   5.038   6.706
  621SOL    HW2 2763   3.570   4.944   6.760
  622SOL     OW 2764   0.840   1.311   6.270
  622SOL    HW1 2765   0.806   1.320   6.176
  622SOL    HW2 2766   0.774   1.258   6.324
  623SOL     OW 2767   0.607   6.362   6.112
  623SOL    HW1 2768   0.648   6.378   6.022
  623SOL    HW2 2769   0.638   6.274   6.148
  624SOL     OW 2770   0.955   2.636   1.446
  624SOL    HW1 2771   0.906   2.551   1.467
  624SOL    HW2 2772   0.900   2.691   1.383
  625SOL     OW 2773   2.417   2.356   1.252
  625SOL    HW1 2774   2.385   2.410   1.175
  625SOL    HW2 2775   2.516   2.345   1.247
  626SOL     OW 2776   2.602   5.713   3.636
  626SOL    HW1 2777   2.657   5.654   3.695
  626SOL    HW2 2778   2.536   5.763   3.692
  627SOL     OW 2779   5.445   0.262   0.932
  627SOL    HW1 2780   5.449   0.182   0.872
  627SOL    HW2 2781   5.400   0.237   1.017
  628SOL     OW 2782   5.361   4.697   5.195
  628SOL    HW1 2783   5.270   4.722   5.226
  628SOL    HW2 2784   5.385   4.606   5.230
  629SOL     OW 2785   6.971   6.650   1.148
  629SOL    HW1 2786   6.938   6.711   1.076
  629SOL    HW2 2787   7.018   6.704   1.218
  630SOL     OW 2788   5.636   2.047   2.738
  630SOL    HW1 2789   5.569   2.079   2.670
  630SOL    HW2 2790   5.711   2.113   2.742
  631SOL     OW 2791   3.559   6.669   5.372
  631SOL    HW1 2792   3.549   6.660   5.273
  631SOL    HW2 2793   3.577   6.580   5.412
  632SOL     OW 2794   2.865   2.019   0.182
  632SOL    HW1 2795   2.958   2.039   0.214
  632SOL    HW2 2796   2.870   1.959   0.102
  633SOL     OW 2797   3.803   5.221   7.018
  633SOL    HW1 2798   3.796   5.302   0.055
  633SOL    HW2 2799   3.891   5.222   6.970
  634SOL     OW 2800   4.678   4.525   1.850
  634SOL    HW1 2801   4.605   4.458   1.837
  634SOL    HW2 2802   4.767   4.481   1.838
  635SOL     OW 2803   4.740   6.312   2.565
  635SOL    HW1 2804   4.806   6.243   2.595
  635SOL    HW2 2805   4.774   6.403   2.588
  636SOL     OW 2806   5.144   6.177   6.321
  636SOL    HW1 2807   5.120   6.249   6.257
  636SOL    HW2 2808   5.061   6.135   6.358
  637SOL     OW 2809   5.397   4.130   1.613
  637SOL    HW1 2810   5.423   4.226   1.603
  637SOL    HW2 2811   5.373   4.092   1.524
  638SOL     OW 2812   5.337   1.112   2.353
  638SOL    HW1 2813   5.388   1.187   2.311
  638SOL    HW2 2814   5.320   1.134   2.450
  639SOL     OW 2815   5.063   4.123   2.332
  639SOL    HW1 2816   5.119   4.043   2.307
  639SOL    HW2 2817   5.105   4.169   2.411
  640SOL     OW 2818   2.026   4.645   4.993
  640SOL    HW1 2819   2.109   4.630   5.046
  640SOL    HW2 2820   1.955   4.682   5.053
  641SOL     OW 2821   0.251   5.434   5.004
  641SOL    HW1 2822   0.343   5.398   4.991
  641SOL    HW2 2823   0.222   5.482   4.921
  642SOL     OW 2824   0.067   4.010   3.959
  642SOL    HW1 2825   0.139   3.948   3.928
  642SOL    HW2 2826   7.004   3.990   3.910
  643SOL     OW 2827   6.011   4.583   4.932
  643SOL    HW1 2828   6.092   4.642   4.940
  643SOL    HW2 2829   6.039   4.495   4.895
  644SOL     OW 2830   1.068   5.570   2.935
  644SOL    HW1 2831   0.969   5.582   2.942
  644SOL    HW2 2832   1.095   5.484   2.978
  645SOL     OW 2833   5.186   2.354   4.319
  645SOL    HW1 2834   5.153   2.280   4.260
  645SOL    HW2 2835   5.185   2.440   4.270
  646SOL     OW 2836   2.724   2.012   3.422
  646SOL    HW1 2837   2.781   1.934   3.447
  646SOL    HW2 2838   2.720   2.021   3.322
  647SOL     OW 2839   5.835   2.860   5.640
  647SOL    HW1 2840   5.902   2.810   5.587
  647SOL    HW2 2841   5.856   2.851   5.738
  648SOL     OW 2842   6.759   3.569   2.771
  648SOL    HW1 2843   6.771   3.550   2.868
  648SOL    HW2 2844   6.703   3.497   2.730
  649SOL     OW 2845   4.535   3.986   0.174
  649SOL    HW1 2846   4.489   3.913   0.225
  649SOL    HW2 2847   4.508   4.075   0.212
  650SOL     OW 2848   5.395   3.796   0.529
  650SOL    HW1 2849   5.420   3.864   0.460
  650SOL    HW2 2850   5.440   3.709   0.509
  651SOL     OW 2851   0.396   6.773   6.931
  651SOL    HW1 2852   0.319   6.798   6.872
  651SOL    HW2 2853   0.371   6.787   0.005
  652SOL     OW 2854   5.075   5.857   3.843
  652SOL    HW1 2855   5.039   5.800   3.769
  652SOL    HW2 2856   5.164   5.894   3.816
  653SOL     OW 2857   3.474   5.301   5.584
  653SOL    HW1 2858   3.480   5.362   5.664
  653SOL    HW2 2859   3.489   5.207   5.614
  654SOL     OW 2860   0.271   4.695   5.838
  654SOL    HW1 2861   0.236   4.617   5.890
  654SOL    HW2 2862   0.262   4.778   5.894
  655SOL     OW 2863   0.342   6.755   2.445
  655SOL    HW1 2864   0.289   6.836   2.419
  655SOL    HW2 2865   0.289   6.672   2.424
  656SOL     OW 2866   2.033   5.855   1.198
  656SOL    HW1 2867   2.102   5.866   1.270
  656SOL    HW2 2868   1.981   5.771   1.214
  657SOL     OW 2869   2.322   2.058   1.579
  657SOL    HW1 2870   2.382   2.051   1.499
  657SOL    HW2 2871   2.283   1.969   1.600
  658SOL     OW 2872   2.983   3.069   5.834
  658SOL    HW1 2873   2.985   3.065   5.934
  658SOL    HW2 2874   3.077   3.070   5.799
  659SOL     OW 2875   3.068   6.399   6.411
  659SOL    HW1 2876   3.004   6.470   6.384
  659SOL    HW2 2877   3.106   6.355   6.329
  660SOL     OW 2878   4.885   4.352   1.756
  660SOL    HW1 2879   4.956   4.372   1.823
  660SOL    HW2 2880   4.833   4.271   1.784
  661SOL     OW 2881   4.935   6.304   3.765
  661SOL    HW1 2882   4.916   6.374   3.833
  661SOL    HW2 2883   4.941   6.346   3.675
  662SOL     OW 2884   3.939   0.585   5.256
  662SOL    HW1 2885   3.841   0.583   5.275
  662SOL    HW2 2886   3.979   0.498   5.286
  663SOL     OW 2887   2.409   3.710   5.940
  663SOL    HW1 2888   2.356   3.625   5.933
  663SOL    HW2 2889   2.435   3.741   5.848
  664SOL     OW 2890   0.182   6.397   6.639
  664SOL    HW1 2891   0.092   6.354   6.625
  664SOL    HW2 2892   0.215   6.434   6.553
  665SOL     OW 2893   4.196   5.432   1.876
  665SOL    HW1 2894   4.171   5.433   1.973
  665SOL    HW2 2895   4.216   5.338   1.848
  666SOL     OW 2896   5.207   0.947   2.137
  666SOL    HW1 2897   5.285   0.898   2.098
  666SOL    HW2 2898   5.234   0.994   2.221
  667SOL     OW 2899   1.138   4.912   2.895
  667SOL    HW1 2900   1.129   4.831   2.953
  667SOL    HW2 2901   1.048   4.955   2.886
  668SOL     OW 2902   4.976   6.564   6.132
  668SOL    HW1 2903   4.955   6.472   6.100
  668SOL    HW2 2904   4.930   6.631   6.073
  669SOL     OW 2905   5.336   0.469   3.418
  669SOL    HW1 2906   5.418   0.449   3.472
  669SOL    HW2 2907   5.282   0.539   3.464
  670SOL     OW 2908   3.049   2.126   1.967
  670SOL    HW1 2909   3.022   2.221   1.982
  670SOL    HW2 2910   2.981   2.080   1.910
  671SOL     OW 2911   3.080   6.219   1.042
  671SOL    HW1 2912   3.039   6.256   0.959
  671SOL    HW2 2913   3.179   6.214   1.030
  672SOL     OW 2914   6.289   5.507   2.344
  672SOL    HW1 2915   6.254   5.482   2.435
  672SOL    HW2 2916   6.276   5.430   2.282
  673SOL     OW 2917   6.268   6.742   1.014
  673SOL    HW1 2918   6.201   6.751   0.940
  673SOL    HW2 2919   6.243   6.802   1.090
  674SOL     OW 2920   0.431   1.399   4.496
  674SOL    HW1 2921   0.518   1.362   4.528
  674SOL    HW2 2922   0.381   1.436   4.574
  675SOL     OW 2923   5.693   2.365   2.656
  675SOL    HW1 2924   5.599   2.366   2.621
  675SOL    HW2 2925   5.755   2.404   2.588
  676SOL     OW 2926   3.100   5.520   4.048
  676SOL    HW1 2927   3.061   5.435   4.011
  676SOL    HW2 2928   3.184   5.542   3.999
  677SOL     OW 2929   4.869   0.989   0.644
  677SOL    HW1 2930   4.952   1.018   0.596
  677SOL    HW2 2931   4.893   0.963   0.738
  678SOL     OW 2932   2.716   5.951   4.942
  678SOL    HW1 2933   2.688   5.915   4.853
  678SOL    HW2 2934   2.799   6.005   4.932
  679SOL     OW 2935   5.100   1.751   3.910
  679SOL    HW1 2936   5.198   1.750   3.887
  679SOL    HW2 2937   5.089   1.776   4.006
  680SOL     OW 2938   4.677   5.760   4.829
  680SOL    HW1 2939   4.622   5.843   4.825
  680SOL    HW2 2940   4.771   5.782   4.854
  681SOL     OW 2941   4.701   5.833   1.767
  681SOL    HW1 2942   4.771   5.894   1.730
  681SOL    HW2 2943   4.734   5.792   1.851
  682SOL     OW 2944   5.953   1.261   1.686
  682SOL    HW1 2945   6.005   1.208   1.619
  682SOL    HW2 2946   5.859   1.273   1.654
  683SOL     OW 2947   4.541   2.390   0.289
  683SOL    HW1 2948   4.504   2.375   0.380
  683SOL    HW2 2949   4.471   2.432   0.231
  684SOL     OW 2950   6.436   1.049   0.431
  684SOL    HW1 2951   6.490   1.033   0.514
  684SOL    HW2 2952   6.407   1.144   0.428
  685SOL     OW 2953   3.246   1.986   3.967
  685SOL    HW1 2954   3.312   2.056   3.993
  685SOL    HW2 2955   3.295   1.908   3.928
  686SOL     OW 2956   4.873   2.140   4.493
  686SOL    HW1 2957   4.795   2.201   4.506
  686SOL    HW2 2958   4.916   2.121   4.582
  687SOL     OW 2959   0.871   1.958   3.937
  687SOL    HW1 2960   0.880   1.949   3.837
  687SOL    HW2 2961   0.884   2.054   3.963
  688SOL     OW 2962   0.310   1.472   6.478
  688SOL    HW1 2963   0.244   1.399   6.495
  688SOL    HW2 2964   0.366   1.448   6.398
  689SOL     OW 2965   1.229   4.620   5.886
  689SOL    HW1 2966   1.181   4.600   5.971
  689SOL    HW2 2967   1.216   4.717   5.863
  690SOL     OW 2968   6.849   3.679   3.233
  690SOL    HW1 2969   6.856   3.761   3.289
  690SOL    HW2 2970   6.938   3.634   3.228
  691SOL     OW 2971   3.531   1.479   6.778
  691SOL    HW1 2972   3.560   1.416   6.849
  691SOL    HW2 2973   3.551   1.573   6.805
  692SOL     OW 2974   4.190   2.294   4.456
  692SOL    HW1 2975   4.178   2.254   4.547
  692SOL    HW2 2976   4.253   2.372   4.462
  693SOL     OW 2977   4.796   6.540   3.886
  693SOL    HW1 2978   4.783   6.580   3.977
  693SOL    HW2 2979   4.715   6.488   3.861
  694SOL     OW 2980   4.223   6.803   5.083
  694SOL    HW1 2981   4.158   6.762   5.019
  694SOL    HW2 2982   4.316   6.781   5.056
  695SOL     OW 2983   3.935   6.654   4.050
  695SOL    HW1 2984   3.856   6.703   4.087
  695SOL    HW2 2985   4.003   6.640   4.122
  696SOL     OW 2986   4.997   4.560   3.650
  696SOL    HW1 2987   4.989   4.627   3.724
  696SOL    HW2 2988   5.026   4.606   3.566
  697SOL     OW 2989   1.711   3.851   2.623
  697SOL    HW1 2990   1.751   3.917   2.559
  697SOL    HW2 2991   1.625   3.888   2.658
  698SOL     OW 2992   5.718   6.128   0.976
  698SOL    HW1 2993   5.765   6.050   1.016
  698SOL    HW2 2994   5.662   6.173   1.046
  699SOL     OW 2995   1.718   3.533   6.735
  699SOL    HW1 2996   1.763   3.614   6.699
  699SOL    HW2 2997   1.642   3.562   6.794
  700SOL     OW 2998   3.379   6.698   2.301
  700SOL    HW1 2999   3.429   6.633   2.359
  700SOL    HW2 3000   3.375   6.662   2.208
  701SOL     OW 3001   0.071   3.911   0.082
  701SOL    HW1 3002   0.141   3.981   0.066
  701SOL    HW2 3003   0.087   3.869   0.171
  702SOL     OW 3004   1.785   6.348   4.957
  702SOL    HW1 3005   1.759   6.255   4.928
  702SOL    HW2 3006   1.778   6.410   4.878
  703SOL     OW 3007   3.655   3.539   5.447
  703SOL    HW1 3008   3.720   3.511   5.518
  703SOL    HW2 3009   3.681   3.499   5.359
  704SOL     OW 3010   1.775   2.681   6.277
  704SOL    HW1 3011   1.783   2.758   6.212
  704SOL    HW2 3012   1.681   2.675   6.310
  705SOL     OW 3013   5.823   5.455   2.844
  705SOL    HW1 3014   5.896   5.448   2.912
  705SOL    HW2 3015   5.752   5.517   2.879
  706SOL     OW 3016   4.351   1.733   5.267
  706SOL    HW1 3017   4.332   1.673   5.345
  706SOL    HW2 3018   4.439   1.708   5.226
  707SOL     OW 3019   3.999   4.833   3.134
  707SOL    HW1 3020   4.077   4.770   3.143
  707SOL    HW2 3021   3.953   4.815   3.047
  708SOL     OW 3022   2.590   1.185   2.391
  708SOL    HW1 3023   2.661   1.205   2.323
  708SOL    HW2 3024   2.614   1.228   2.478
  709SOL     OW 3025   1.263   6.045   0.693
  709SOL    HW1 3026   1.282   6.108   0.618
  709SOL    HW2 3027   1.288   6.088   0.780
  710SOL     OW 3028   4.080   1.894   1.483
  710SOL    HW1 3029   3.987   1.877   1.451
  710SOL    HW2 3030   4.079   1.967   1.551
  711SOL     OW 3031   0.044   3.031   5.741
  711SOL    HW1 3032   0.113   2.967   5.708
  711SOL    HW2 3033   0.065   3.123   5.707
  712SOL     OW 3034   4.511   2.307   0.553
  712SOL    HW1 3035   4.462   2.382   0.598
  712SOL    HW2 3036   4.573   2.264   0.618
  713SOL     OW 3037   4.248   3.291   5.766
  713SOL    HW1 3038   4.156   3.277   5.729
  713SOL    HW2 3039   4.288   3.374   5.725
  714SOL     OW 3040   0.136   5.244   3.663
  714SOL    HW1 3041   0.072   5.170   3.680
  714SOL    HW2 3042   0.142   5.261   3.565
  715SOL     OW 3043   5.499   5.952   6.705
  715SOL    HW1 3044   5.470   5.943   6.609
  715SOL    HW2 3045   5.597   5.938   6.712
  716SOL     OW 3046   1.077   1.001   2.611
  716SOL    HW1 3047   1.163   0.950   2.607
  716SOL    HW2 3048   1.031   0.983   2.698
  717SOL     OW 3049   6.644   5.020   4.141
  717SOL    HW1 3050   6.691   5.108   4.147
  717SOL    HW2 3051   6.678   4.960   4.214
  718SOL     OW 3052   4.743   2.979   5.674
  718SOL    HW1 3053   4.823   2.966   5.616
  718SOL    HW2 3054   4.662   2.991   5.616
  719SOL     OW 3055   5.781   6.835   2.431
  719SOL    HW1 3056   5.799   6.764   2.363
  719SOL    HW2 3057   5.723   6.799   2.503
  720SOL     OW 3058   2.191   0.553   6.097
  720SOL    HW1 3059   2.287   0.531   6.080
  720SOL    HW2 3060   2.152   0.597   6.016
  721SOL     OW 3061   2.237   1.285   1.885
  721SOL    HW1 3062   2.243   1.335   1.799
  721SOL    HW2 3063   2.327   1.251   1.911
  722SOL     OW 3064   3.368   1.088   5.362
  722SOL    HW1 3065   3.449   1.134   5.399
  722SOL    HW2 3066   3.317   1.044   5.435
  723SOL     OW 3067   2.277   5.311   3.687
  723SOL    HW1 3068   2.179   5.314   3.664
  723SOL    HW2 3069   2.299   5.222   3.727
  724SOL     OW 3070   0.778   1.321   3.443
  724SOL    HW1 3071   0.743   1.253   3.379
  724SOL    HW2 3072   0.817   1.398   3.393
  725SOL     OW 3073   1.556   4.547   2.443
  725SOL    HW1 3074   1.504   4.587   2.518
  725SOL    HW2 3075   1.619   4.479   2.478
  726SOL     OW 3076   2.877   5.172   1.322
  726SOL    HW1 3077   2.793   5.131   1.287
  726SOL    HW2 3078   2.856   5.224   1.405
  727SOL     OW 3079   5.371   4.637   6.195
  727SOL    HW1 3080   5.357   4.591   6.282
  727SOL    HW2 3081   5.468   4.630   6.168
  728SOL     OW 3082   6.636   3.442   4.007
  728SOL    HW1 3083   6.655   3.466   3.912
  728SOL    HW2 3084   6.716   3.463   4.064
  729SOL     OW 3085   0.481   2.805   1.003
  729SOL    HW1 3086   0.575   2.832   0.985
  729SOL    HW2 3087   0.419   2.879   0.977
  730SOL     OW 3088   6.497   0.323   4.301
  730SOL    HW1 3089   6.510   0.408   4.353
  730SOL    HW2 3090   6.412   0.279   4.331
  731SOL     OW 3091   4.550   5.258   6.947
  731SOL    HW1 3092   4.560   5.240   6.849
  731SOL    HW2 3093   4.453   5.269   6.970
  732SOL     OW 3094   5.940   2.923   2.628
  732SOL    HW1 3095   5.853   2.923   2.677
  732SOL    HW2 3096   5.941   2.849   2.561
  733SOL     OW 3097   5.711   0.400   5.365
  733SOL    HW1 3098   5.643   0.434   5.300
  733SOL    HW2 3099   5.783   0.469   5.376
  734SOL     OW 3100   6.216   5.151   2.672
  734SOL    HW1 3101   6.224   5.250   2.680
  734SOL    HW2 3102   6.279   5.118   2.601
  735SOL     OW 3103   4.189   1.650   0.484
  735SOL    HW1 3104   4.244   1.568   0.466
  735SOL    HW2 3105   4.095   1.623   0.505
  736SOL     OW 3106   1.159   1.234   4.036
  736SOL    HW1 3107   1.160   1.136   4.017
  736SOL    HW2 3108   1.185   1.285   3.953
  737SOL     OW 3109   5.386   1.666   6.312
  737SOL    HW1 3110   5.456   1.666   6.240
  737SOL    HW2 3111   5.374   1.759   6.347
  738SOL     OW 3112   2.896   4.195   1.497
  738SOL    HW1 3113   2.829   4.138   1.544
  738SOL    HW2 3114   2.912   4.160   1.405
  739SOL     OW 3115   3.972   0.163   4.521
  739SOL    HW1 3116   4.037   0.142   4.593
  739SOL    HW2 3117   3.969   0.262   4.506
  740SOL     OW 3118   5.705   1.583   2.969
  740SOL    HW1 3119   5.668   1.652   2.907
  740SOL    HW2 3120   5.630   1.531   3.009
  741SOL     OW 3121   2.039   0.109   3.941
  741SOL    HW1 3122   2.048   0.205   3.918
  741SOL    HW2 3123   2.122   0.077   3.987
  742SOL     OW 3124   1.727   6.258   1.441
  742SOL    HW1 3125   1.678   6.343   1.423
  742SOL    HW2 3126   1.778   6.231   1.360
  743SOL     OW 3127   6.870   5.443   3.155
  743SOL    HW1 3128   6.802   5.374   3.127
  743SOL    HW2 3129   6.954   5.430   3.103
  744SOL     OW 3130   6.008   0.749   0.576
  744SOL    HW1 3131   6.023   0.655   0.607
  744SOL    HW2 3132   6.096   0.795   0.564
  745SOL     OW 3133   2.074   5.433   5.217
  745SOL    HW1 3134   2.085   5.337   5.194
  745SOL    HW2 3135   2.126   5.489   5.153
  746SOL     OW 3136   5.882   4.147   5.909
  746SOL    HW1 3137   5.808   4.095   5.951
  746SOL    HW2 3138   5.880   4.241   5.942
  747SOL     OW 3139   4.248   6.133   4.817
  747SOL    HW1 3140   4.263   6.128   4.916
  747SOL    HW2 3141   4.172   6.073   4.792
  748SOL     OW 3142   4.753   5.484   2.117
  748SOL    HW1 3143   4.733   5.393   2.082
  748SOL    HW2 3144   4.802   5.477   2.203
  749SOL     OW 3145   5.642   3.667   4.486
  749SOL    HW1 3146   5.691   3.620   4.413
  749SOL    HW2 3147   5.699   3.672   4.567
  750SOL     OW 3148   2.259   1.411   1.143
  750SOL    HW1 3149   2.229   1.381   1.053
  750SOL    HW2 3150   2.357   1.395   1.154
  751SOL     OW 3151   4.225   1.207   0.315
  751SOL    HW1 3152   4.264   1.287   0.269
  751SOL    HW2 3153   4.214   1.227   0.412
  752SOL     OW 3154   3.086   2.984   0.107
  752SOL    HW1 3155   3.107   2.959   0.201
  752SOL    HW2 3156   3.097   2.904   0.048
  753SOL     OW 3157   1.447   3.524   5.916
  753SOL    HW1 3158   1.465   3.433   5.878
  753SOL    HW2 3159   1.471   3.594   5.848
  754SOL     OW 3160   4.833   1.589   6.424
  754SOL    HW1 3161   4.733   1.588   6.421
  754SOL    HW2 3162   4.865   1.594   6.518
  755SOL     OW 3163   2.824   4.740   5.735
  755SOL    HW1 3164   2.771   4.824   5.720
  755SOL    HW2 3165   2.900   4.759   5.797
  756SOL     OW 3166   2.832   5.224   7.009
  756SOL    HW1 3167   2.904   5.237   0.055
  756SOL    HW2 3168   2.798   5.130   7.014
  757SOL     OW 3169   1.947   6.094   3.030
  757SOL    HW1 3170   1.969   6.185   2.997
  757SOL    HW2 3171   1.982   6.026   2.966
  758SOL     OW 3172   3.907   0.818   3.541
  758SOL    HW1 3173   3.858   0.808   3.454
  758SOL    HW2 3174   3.938   0.729   3.573
  759SOL     OW 3175   0.196   2.906   2.443
  759SOL    HW1 3176   0.221   2.932   2.349
  759SOL    HW2 3177   0.108   2.947   2.466
  760SOL     OW 3178   6.364   6.884   4.161
  760SOL    HW1 3179   6.346   6.942   4.081
  760SOL    HW2 3180   6.462   6.880   4.178
  761SOL     OW 3181   5.630   4.337   6.625
  761SOL    HW1 3182   5.685   4.321   6.707
  761SOL    HW2 3183   5.643   4.431   6.593
  762SOL     OW 3184   3.135   0.315   5.540
  762SOL    HW1 3185   3.156   0.291   5.445
  762SOL    HW2 3186   3.036   0.327   5.551
  763SOL     OW 3187   4.326   6.436   6.254
  763SOL    HW1 3188   4.256   6.462   6.320
  763SOL    HW2 3189   4.414   6.474   6.283
  764SOL     OW 3190   5.366   0.537   5.797
  764SOL    HW1 3191   5.303   0.463   5.822
  764SOL    HW2 3192   5.390   0.589   5.879
  765SOL     OW 3193   1.727   6.339   0.699
  765SOL    HW1 3194   1.725   6.330   0.599
  765SOL    HW2 3195   1.695   6.430   0.725
  766SOL     OW 3196   2.853   2.027   5.517
  766SOL    HW1 3197   2.914   1.955   5.551
  766SOL    HW2 3198   2.906   2.093   5.463
  767SOL     OW 3199   6.297   6.754   3.771
  767SOL    HW1 3200   6.357   6.694   3.824
  767SOL    HW2 3201   6.252   6.819   3.833
  768SOL     OW 3202   1.886   5.592   3.664
  768SOL    HW1 3203   1.879   5.592   3.764
  768SOL    HW2 3204   1.934   5.510   3.634
  769SOL     OW 3205   2.886   1.051   5.061
  769SOL    HW1 3206   2.813   1.051   5.130
  769SOL    HW2 3207   2.869   1.123   4.994
  770SOL     OW 3208   1.515   5.310   3.937
  770SOL    HW1 3209   1.479   5.337   3.848
  770SOL    HW2 3210   1.594   5.367   3.960
  771SOL     OW 3211   1.365   4.546   2.890
  771SOL    HW1 3212   1.429   4.560   2.965
  771SOL    HW2 3213   1.273   4.570   2.920
  772SOL     OW 3214   6.179   4.911   6.677
  772SOL    HW1 3215   6.119   4.831   6.682
  772SOL    HW2 3216   6.150   4.979   6.744
  773SOL     OW 3217   0.333   3.830   2.927
  773SOL    HW1 3218   0.351   3.742   2.884
  773SOL    HW2 3219   0.356   3.824   3.025
  774SOL     OW 3220   1.518   1.272   2.710
  774SOL    HW1 3221   1.478   1.356   2.745
  774SOL    HW2 3222   1.583   1.294   2.637
  775SOL     OW 3223   2.232   1.761   4.323
  775SOL    HW1 3224   2.286   1.842   4.346
  775SOL    HW2 3225   2.153   1.788   4.268
  776SOL     OW 3226   6.809   0.716   6.127
  776SOL    HW1 3227   6.758   0.630   6.138
  776SOL    HW2 3228   6.806   0.744   6.031
  777SOL     OW 3229   1.965   4.251   1.213
  777SOL    HW1 3230   1.937   4.279   1.121
  777SOL    HW2 3231   1.944   4.323   1.278
  778SOL     OW 3232   2.195   0.069   1.593
  778SOL    HW1 3233   2.255   0.010   1.538
  778SOL    HW2 3234   2.246   0.105   1.671
  779SOL     OW 3235   6.864   1.947   2.240
  779SOL    HW1 3236   6.806   1.984   2.167
  779SOL    HW2 3237   6.816   1.873   2.286
  780SOL     OW 3238   0.944   2.596   4.014
  780SOL    HW1 3239   0.955   2.576   4.111
  780SOL    HW2 3240   0.866   2.545   3.977
  781SOL     OW 3241   5.365   5.363   0.674
  781SOL    HW1 3242   5.292   5.314   0.722
  781SOL    HW2 3243   5.375   5.326   0.582
  782SOL     OW 3244   1.773   3.967   5.654
  782SOL    HW1 3245   1.779   3.984   5.556
  782SOL    HW2 3246   1.855   4.004   5.699
  783SOL     OW 3247   5.741   4.305   1.463
  783SOL    HW1 3248   5.706   4.222   1.421
  783SOL    HW2 3249   5.777   4.284   1.554
  784SOL     OW 3250   4.206   5.083   1.573
  784SOL    HW1 3251   4.232   5.075   1.669
  784SOL    HW2 3252   4.110   5.058   1.562
  785SOL     OW 3253   0.435   1.157   3.620
  785SOL    HW1 3254   0.355   1.213   3.600
  785SOL    HW2 3255   0.503   1.211   3.669
  786SOL     OW 3256   0.042   0.988   2.480
  786SOL    HW1 3257   0.051   1.086   2.461
  786SOL    HW2 3258   0.015   0.974   2.575
  787SOL     OW 3259   1.702   6.730   6.764
  787SOL    HW1 3260   1.614   6.734   6.717
  787SOL    HW2 3261   1.776   6.725   6.697
  788SOL     OW 3262   4.314   2.261   1.078
  788SOL    HW1 3263   4.349   2.298   1.164
  788SOL    HW2 3264   4.215   2.248   1.086
  789SOL     OW 3265   4.668   5.224   2.045
  789SOL    HW1 3266   4.569   5.223   2.059
  789SOL    HW2 3267   4.695   5.144   1.992
  790SOL     OW 3268   2.226   0.943   2.286
  790SOL    HW1 3269   2.228   1.040   2.314
  790SOL    HW2 3270   2.201   0.937   2.189
  791SOL     OW 3271   2.380   6.006   5.493
  791SOL    HW1 3272   2.434   5.975   5.415
  791SOL    HW2 3273   2.304   6.062   5.460
  792SOL     OW 3274   0.771   0.825   2.202
  792SOL    HW1 3275   0.712   0.903   2.179
  792SOL    HW2 3276   0.714   0.748   2.231
  793SOL     OW 3277   5.055   5.869   5.302
  793SOL    HW1 3278   5.093   5.789   5.348
  793SOL    HW2 3279   4.958   5.853   5.281
  794SOL     OW 3280   2.940   3.415   5.774
  794SOL    HW1 3281   3.031   3.388   5.742
  794SOL    HW2 3282   2.876   3.339   5.765
  795SOL     OW 3283   4.154   0.345   5.684
  795SOL    HW1 3284   4.221   0.275   5.661
  795SOL    HW2 3285   4.150   0.413   5.611
  796SOL     OW 3286   1.703   2.812   0.383
  796SOL    HW1 3287   1.733   2.793   0.477
  796SOL    HW2 3288   1.631   2.882   0.385
  797SOL     OW 3289   4.405   0.470   0.941
  797SOL    HW1 3290   4.480   0.515   0.893
  797SOL    HW2 3291   4.411   0.488   1.039
  798SOL     OW 3292   3.845   6.147   1.249
  798SOL    HW1 3293   3.858   6.215   1.321
  798SOL    HW2 3294   3.757   6.163   1.203
  799SOL     OW 3295   0.391   0.937   6.157
  799SOL    HW1 3296   0.454   0.904   6.228
  799SOL    HW2 3297   0.439   1.000   6.096
  800SOL     OW 3298   6.716   1.207   2.501
  800SOL    HW1 3299   6.742   1.112   2.486
  800SOL    HW2 3300   6.767   1.266   2.438
  801SOL     OW 3301   2.224   4.087   5.336
  801SOL    HW1 3302   2.218   4.186   5.322
  801SOL    HW2 3303   2.290   4.049   5.272
  802SOL     OW 3304   3.446   2.074   7.008
  802SOL    HW1 3305   3.418   1.981   6.983
  802SOL    HW2 3306   3.542   2.072   0.017
  803SOL     OW 3307   1.621   6.561   5.976
  803SOL    HW1 3308   1.676   6.640   5.948
  803SOL    HW2 3309   1.546   6.548   5.911
  804SOL     OW 3310   6.617   0.169   1.593
  804SOL    HW1 3311   6.688   0.103   1.618
  804SOL    HW2 3312   6.643   0.260   1.625
  805SOL     OW 3313   1.606   0.341   3.884
  805SOL    HW1 3314   1.622   0.243   3.892
  805SOL    HW2 3315   1.508   0.357   3.870
  806SOL     OW 3316   6.181   0.310   6.275
  806SOL    HW1 3317   6.190   0.387   6.337
  806SOL    HW2 3318   6.137   0.233   6.321
  807SOL     OW 3319   0.569   6.868   3.790
  807SOL    HW1 3320   0.489   6.927   3.780
  807SOL    HW2 3321   0.648   6.924   3.818
  808SOL     OW 3322   5.148   3.109   6.499
  808SOL    HW1 3323   5.184   3.026   6.541
  808SOL    HW2 3324   5.177   3.113   6.404
  809SOL     OW 3325   0.990   4.893   0.718
  809SOL    HW1 3326   1.000   4.899   0.619
  809SOL    HW2 3327   1.039   4.969   0.762
  810SOL     OW 3328   3.230   3.751   0.140
  810SOL    HW1 3329   3.175   3.805   0.204
  810SOL    HW2 3330   3.312   3.802   0.115
  811SOL     OW 3331   5.049   5.007   4.066
  811SOL    HW1 3332   5.108   4.960   4.000
  811SOL    HW2 3333   5.105   5.042   4.141
  812SOL     OW 3334   0.260   1.684   2.028
  812SOL    HW1 3335   0.194   1.742   1.981
  812SOL    HW2 3336   0.348   1.731   2.033
  813SOL     OW 3337   2.790   0.297   4.410
  813SOL    HW1 3338   2.737   0.371   4.370
  813SOL    HW2 3339   2.798   0.310   4.509
  814SOL     OW 3340   6.553   6.025   2.500
  814SOL    HW1 3341   6.619   5.963   2.458
  814SOL    HW2 3342   6.601   6.102   2.541
  815SOL     OW 3343   5.591   3.056   3.206
  815SOL    HW1 3344   5.673   3.032   3.154
  815SOL    HW2 3345   5.569   2.981   3.269
  816SOL     OW 3346   5.061   5.100   0.364
  816SOL    HW1 3347   5.107   5.054   0.289
  816SOL    HW2 3348   5.074   5.199   0.355
  817SOL     OW 3349   1.040   5.385   1.888
  817SOL    HW1 3350   1.132   5.364   1.921
  817SOL    HW2 3351   1.036   5.480   1.859
  818SOL     OW 3352   5.819   3.010   3.658
  818SOL    HW1 3353   5.872   2.993   3.742
  818SOL    HW2 3354   5.742   3.069   3.679
  819SOL     OW 3355   6.205   2.686   1.755
  819SOL    HW1 3356   6.192   2.784   1.737
  819SOL    HW2 3357   6.293   2.656   1.717
  820SOL     OW 3358   3.217   2.164   4.582
  820SOL    HW1 3359   3.143   2.182   4.518
  820SOL    HW2 3360   3.301   2.145   4.531
  821SOL     OW 3361   6.360   4.974   6.097
  821SOL    HW1 3362   6.322   4.927   6.177
  821SOL    HW2 3363   6.333   4.925   6.014
  822SOL     OW 3364   0.153   3.446   3.314
  822SOL    HW1 3365   0.120   3.531   3.355
  822SOL    HW2 3366   0.162   3.376   3.384
  823SOL     OW 3367   6.476   4.295   6.653
  823SOL    HW1 3368   6.491   4.394   6.653
  823SOL    HW2 3369   6.547   4.251   6.599
  824SOL     OW 3370   4.810   0.949   5.568
  824SOL    HW1 3371   4.896   0.975   5.524
  824SOL    HW2 3372   4.821   0.859   5.611
  825SOL     OW 3373   6.599   5.866   1.274
  825SOL    HW1 3374   6.679   5.910   1.235
  825SOL    HW2 3375   6.527   5.934   1.289
  826SOL     OW 3376   3.309   2.543   5.586
  826SOL    HW1 3377   3.384   2.525   5.521
  826SOL    HW2 3378   3.317   2.637   5.620
  827SOL     OW 3379   2.904   4.089   5.211
  827SOL    HW1 3380   2.957   4.172   5.227
  827SOL    HW2 3381   2.921   4.056   5.118
  828SOL     OW 3382   5.630   5.989   6.297
  828SOL    HW1 3383   5.544   5.958   6.336
  828SOL    HW2 3384   5.706   5.939   6.338
  829SOL     OW 3385   3.629   3.329   1.961
  829SOL    HW1 3386   3.698   3.258   1.976
  829SOL    HW2 3387   3.543   3.287   1.930
  830SOL     OW 3388   5.412   5.341   7.005
  830SOL    HW1 3389   5.426   5.429   6.961
  830SOL    HW2 3390   5.452   5.342   0.075
  831SOL     OW 3391   6.396   0.210   1.444
  831SOL    HW1 3392   6.471   0.196   1.508
  831SOL    HW2 3393   6.324   0.265   1.488
  832SOL     OW 3394   4.695   1.804   4.179
  832SOL    HW1 3395   4.785   1.799   4.135
  832SOL    HW2 3396   4.703   1.849   4.268
  833SOL     OW 3397   2.337   3.724   6.223
  833SOL    HW1 3398   2.329   3.706   6.125
  833SOL    HW2 3399   2.282   3.804   6.247
  834SOL     OW 3400   5.346   2.997   0.432
  834SOL    HW1 3401   5.249   2.992   0.412
  834SOL    HW2 3402   5.371   2.921   0.493
  835SOL     OW 3403   2.115   0.695   4.666
  835SOL    HW1 3404   2.090   0.659   4.577
  835SOL    HW2 3405   2.088   0.631   4.737
  836SOL     OW 3406   3.109   1.169   4.958
  836SOL    HW1 3407   3.189   1.200   5.010
  836SOL    HW2 3408   3.047   1.119   5.018
  837SOL     OW 3409   0.367   0.075   0.731
  837SOL    HW1 3410   0.427   0.115   0.663
  837SOL    HW2 3411   0.330   7.010   0.697
  838SOL     OW 3412   2.435   6.077   4.325
  838SOL    HW1 3413   2.532   6.060   4.309
  838SOL    HW2 3414   2.423   6.128   4.410
  839SOL     OW 3415   2.234   1.528   1.756
  839SOL    HW1 3416   2.201   1.601   1.815
  839SOL    HW2 3417   2.255   1.564   1.665
  840SOL     OW 3418   5.851   5.319   0.573
  840SOL    HW1 3419   5.940   5.346   0.607
  840SOL    HW2 3420   5.787   5.308   0.649
  841SOL     OW 3421   3.060   5.675   6.060
  841SOL    HW1 3422   3.027   5.631   6.143
  841SOL    HW2 3423   3.085   5.605   5.993
  842SOL     OW 3424   3.585   6.881   6.780
  842SOL    HW1 3425   3.612   6.971   6.747
  842SOL    HW2 3426   3.633   6.810   6.728
  843SOL     OW 3427   1.873   1.828   2.025
  843SOL    HW1 3428   1.889   1.898   1.956
  843SOL    HW2 3429   1.860   1.739   1.981
  844SOL     OW 3430   0.253   6.748   1.385
  844SOL    HW1 3431   0.245   6.721   1.481
  844SOL    HW2 3432   0.164   6.777   1.351
  845SOL     OW 3433   5.345   3.462   3.237
  845SOL    HW1 3434   5.281   3.470   3.313
  845SOL    HW2 3435   5.294   3.438   3.154
  846SOL     OW 3436   2.811   0.791   5.854
  846SOL    HW1 3437   2.751   0.870   5.838
  846SOL    HW2 3438   2.884   0.791   5.786
  847SOL     OW 3439   2.215   3.029   1.878
  847SOL    HW1 3440   2.308   3.058   1.854
  847SOL    HW2 3441   2.170   3.101   1.930
  848SOL     OW 3442   6.675   6.897   5.705
  848SOL    HW1 3443   6.585   6.899   5.661
  848SOL    HW2 3444   6.681   6.971   5.772
  849SOL     OW 3445   6.221   4.446   6.122
  849SOL    HW1 3446   6.310   4.470   6.083
  849SOL    HW2 3447   6.150   4.499   6.077
  850SOL     OW 3448   6.654   0.100   5.401
  850SOL    HW1 3449   6.580   0.053   5.449
  850SOL    HW2 3450   6.655   0.197   5.426
  851SOL     OW 3451   0.130   2.875   6.713
  851SOL    HW1 3452   0.095   2.836   6.798
  851SOL    HW2 3453   0.226   2.847   6.701
  852SOL     OW 3454   0.859   4.722   0.874
  852SOL    HW1 3455   0.911   4.783   0.814
  852SOL    HW2 3456   0.768   4.761   0.890
  853SOL     OW 3457   1.305   4.621   6.829
  853SOL    HW1 3458   1.297   4.708   6.780
  853SOL    HW2 3459   1.398   4.610   6.864
  854SOL     OW 3460   4.664   6.260   0.326
  854SOL    HW1 3461   4.601   6.187   0.353
  854SOL    HW2 3462   4.614   6.345   0.314
  855SOL     OW 3463   6.411   0.174   0.493
  855SOL    HW1 3464   6.434   0.153   0.588
  855SOL    HW2 3465   6.493   0.171   0.437
  856SOL     OW 3466   1.333   1.076   6.418
  856SOL    HW1 3467   1.336   0.978   6.439
  856SOL    HW2 3468   1.238   1.103   6.399
  857SOL     OW 3469   6.762   5.718   2.247
  857SOL    HW1 3470   6.713   5.648   2.298
  857SOL    HW2 3471   6.814   5.674   2.173
  858SOL     OW 3472   3.437   4.477   0.862
  858SOL    HW1 3473   3.341   4.471   0.832
  858SOL    HW2 3474   3.497   4.451   0.786
  859SOL     OW 3475   5.707   6.077   5.524
  859SOL    HW1 3476   5.622   6.040   5.560
  859SOL    HW2 3477   5.764   6.003   5.489
  860SOL     OW 3478   6.073   2.977   6.447
  860SOL    HW1 3479   5.998   2.975   6.513
  860SOL    HW2 3480   6.151   3.024   6.487
  861SOL     OW 3481   2.508   5.346   3.004
  861SOL    HW1 3482   2.567   5.297   2.940
  861SOL    HW2 3483   2.528   5.444   2.999
  862SOL     OW 3484   2.079   4.479   3.412
  862SOL    HW1 3485   1.997   4.471   3.356
  862SOL    HW2 3486   2.076   4.410   3.485
  863SOL     OW 3487   5.851   1.354   6.096
  863SOL    HW1 3488   5.785   1.283   6.121
  863SOL    HW2 3489   5.933   1.345   6.151
  864SOL     OW 3490   3.853   6.128   5.059
  864SOL    HW1 3491   3.798   6.204   5.093
  864SOL    HW2 3492   3.794   6.061   5.016
  865SOL     OW 3493   2.159   0.240   5.541
  865SOL    HW1 3494   2.183   0.251   5.637
  865SOL    HW2 3495   2.100   0.316   5.512
  866SOL     OW 3496   3.207   0.195   0.859
  866SOL    HW1 3497   3.235   0.276   0.909
  866SOL    HW2 3498   3.144   0.141   0.914
  867SOL     OW 3499   4.938   3.599   1.101
  867SOL    HW1 3500   4.924   3.560   1.192
  867SOL    HW2 3501   4.910   3.533   1.032
  868SOL     OW 3502   0.159   1.471   1.866
  868SOL    HW1 3503   0.209   1.524   1.934
  868SOL    HW2 3504   0.193   1.377   1.865
  869SOL     OW 3505   6.854   4.642   3.399
  869SOL    HW1 3506   6.847   4.740   3.420
  869SOL    HW2 3507   6.849   4.589   3.483
  870SOL     OW 3508   4.375   4.381   0.983
  870SOL    HW1 3509   4.320   4.359   0.902
  870SOL    HW2 3510   4.416   4.297   1.019
  871SOL     OW 3511   5.779   2.503   4.075
  871SOL    HW1 3512   5.776   2.448   3.992
  871SOL    HW2 3513   5.759   2.598   4.052
  872SOL     OW 3514   6.522   2.388   4.393
  872SOL    HW1 3515   6.538   2.386   4.491
  872SOL    HW2 3516   6.497   2.481   4.365
  873SOL     OW 3517   4.790   5.543   5.116
  873SOL    HW1 3518   4.749   5.458   5.150
  873SOL    HW2 3519   4.857   5.521   5.045
  874SOL     OW 3520   6.639   3.726   0.280
  874SOL    HW1 3521   6.572   3.799   0.273
  874SOL    HW2 3522   6.606   3.645   0.232
  875SOL     OW 3523   4.545   4.598   1.015
  875SOL    HW1 3524   4.501   4.684   0.990
  875SOL    HW2 3525   4.484   4.521   0.993
  876SOL     OW 3526   0.497   5.670   2.077
  876SOL    HW1 3527   0.411   5.695   2.123
  876SOL    HW2 3528   0.514   5.733   2.001
  877SOL     OW 3529   3.211   4.306   6.014
  877SOL    HW1 3530   3.223   4.214   6.049
  877SOL    HW2 3531   3.236   4.309   5.917
  878SOL     OW 3532   4.670   6.793   4.254
  878SOL    HW1 3533   4.724   6.710   4.269
  878SOL    HW2 3534   4.687   6.827   4.161
  879SOL     OW 3535   4.061   0.232   2.026
  879SOL    HW1 3536   3.989   0.231   2.095
  879SOL    HW2 3537   4.102   0.141   2.020
  880SOL     OW 3538   3.617   3.674   3.454
  880SOL    HW1 3539   3.560   3.608   3.404
  880SOL    HW2 3540   3.694   3.702   3.397
  881SOL     OW 3541   5.136   3.629   5.305
  881SOL    HW1 3542   5.040   3.647   5.327
  881SOL    HW2 3543   5.162   3.538   5.337
  882SOL     OW 3544   1.073   2.862   3.985
  882SOL    HW1 3545   1.114   2.841   3.896
  882SOL    HW2 3546   0.996   2.802   4.002
  883SOL     OW 3547   3.159   0.894   1.050
  883SOL    HW1 3548   3.079   0.910   0.992
  883SOL    HW2 3549   3.212   0.978   1.059
  884SOL     OW 3550   5.952   4.244   5.652
  884SOL    HW1 3551   5.918   4.242   5.746
  884SOL    HW2 3552   5.980   4.152   5.624
  885SOL     OW 3553   3.455   1.176   4.736
  885SOL    HW1 3554   3.536   1.230   4.760
  885SOL    HW2 3555   3.440   1.106   4.805
  886SOL     OW 3556   3.300   0.579   0.202
  886SOL    HW1 3557   3.354   0.528   0.135
  886SOL    HW2 3558   3.311   0.677   0.186
  887SOL     OW 3559   3.844   6.609   3.771
  887SOL    HW1 3560   3.895   6.639   3.852
  887SOL    HW2 3561   3.762   6.559   3.801
  888SOL     OW 3562   6.844   6.147   3.154
  888SOL    HW1 3563   6.935   6.185   3.136
  888SOL    HW2 3564   6.825   6.073   3.089
  889SOL     OW 3565   6.816   2.212   0.432
  889SOL    HW1 3566   6.835   2.223   0.335
  889SOL    HW2 3567   6.827   2.299   0.479
  890SOL     OW 3568   1.960   4.968   2.904
  890SOL    HW1 3569   1.912   4.903   2.963
  890SOL    HW2 3570   2.039   5.006   2.952
  891SOL     OW 3571   5.951   4.073   1.302
  891SOL    HW1 3572   5.974   4.111   1.392
  891SOL    HW2 3573   5.852   4.057   1.297
  892SOL     OW 3574   2.956   3.844   4.974
  892SOL    HW1 3575   3.001   3.931   4.999
  892SOL    HW2 3576   2.932   3.846   4.877
  893SOL     OW 3577   2.052   6.184   3.251
  893SOL    HW1 3578   2.028   6.139   3.166
  893SOL    HW2 3579   2.037   6.283   3.242
  894SOL     OW 3580   0.862   2.954   1.758
  894SOL    HW1 3581   0.873   2.857   1.780
  894SOL    HW2 3582   0.789   2.993   1.814
  895SOL     OW 3583   1.454   4.617   3.944
  895SOL    HW1 3584   1.394   4.615   4.024
  895SOL    HW2 3585   1.439   4.535   3.889
  896SOL     OW 3586   5.281   4.660   1.047
  896SOL    HW1 3587   5.280   4.678   0.948
  896SOL    HW2 3588   5.327   4.573   1.065
  897SOL     OW 3589   4.211   1.544   6.491
  897SOL    HW1 3590   4.189   1.537   6.588
  897SOL    HW2 3591   4.300   1.499   6.475
  898SOL     OW 3592   3.631   6.277   2.826
  898SOL    HW1 3593   3.536   6.291   2.855
  898SOL    HW2 3594   3.679   6.226   2.897
  899SOL     OW 3595   0.301   6.446   0.545
  899SOL    HW1 3596   0.233   6.375   0.560
  899SOL    HW2 3597   0.295   6.514   0.618
  900SOL     OW 3598   5.620   0.484   0.508
  900SOL    HW1 3599   5.669   0.497   0.594
  900SOL    HW2 3600   5.649   0.555   0.443
  901SOL     OW 3601   1.929   0.286   3.682
  901SOL    HW1 3602   2.026   0.270   3.694
  901SOL    HW2 3603   1.912   0.385   3.677
  902SOL     OW 3604   1.619   2.151   1.154
  902SOL    HW1 3605   1.657   2.117   1.240
  902SOL    HW2 3606   1.550   2.221   1.173
  903SOL     OW 3607   0.756   2.887   6.643
  903SOL    HW1 3608   0.702   2.878   6.726
  903SOL    HW2 3609   0.814   2.806   6.631
  904SOL     OW 3610   1.828   1.442   2.540
  904SOL    HW1 3611   1.861   1.359   2.587
  904SOL    HW2 3612   1.880   1.455   2.455
  905SOL     OW 3613   5.475   2.836   6.159
  905SOL    HW1 3614   5.516   2.746   6.178
  905SOL    HW2 3615   5.469   2.888   6.244
  906SOL     OW 3616   0.096   2.081   6.270
  906SOL    HW1 3617   0.044   2.100   6.186
  906SOL    HW2 3618   0.038   2.099   6.349
  907SOL     OW 3619   5.540   3.147   0.357
  907SOL    HW1 3620   5.468   3.078   0.355
  907SOL    HW2 3621   5.626   3.105   0.383
  908SOL     OW 3622   2.894   4.745   2.972
  908SOL    HW1 3623   2.941   4.657   2.969
  908SOL    HW2 3624   2.887   4.775   3.067
  909SOL     OW 3625   4.042   6.605   1.413
  909SOL    HW1 3626   4.123   6.659   1.386
  909SOL    HW2 3627   3.979   6.601   1.336
  910SOL     OW 3628   3.313   1.442   1.043
  910SOL    HW1 3629   3.214   1.432   1.038
  910SOL    HW2 3630   3.346   1.405   1.130
  911SOL     OW 3631   1.557   6.638   6.328
  911SOL    HW1 3632   1.546   6.545   6.291
  911SOL    HW2 3633   1.653   6.665   6.321
  912SOL     OW 3634   5.861   1.978   3.261
  912SOL    HW1 3635   5.865   2.038   3.181
  912SOL    HW2 3636   5.827   2.029   3.340
  913SOL     OW 3637   3.375   0.732   3.091
  913SOL    HW1 3638   3.422   0.663   3.035
  913SOL    HW2 3639   3.425   0.818   3.087
  914SOL     OW 3640   2.243   0.159   6.005
  914SOL    HW1 3641   2.219   0.065   5.985
  914SOL    HW2 3642   2.343   0.168   6.011
  915SOL     OW 3643   6.252   3.793   6.871
  915SOL    HW1 3644   6.220   3.784   6.777
  915SOL    HW2 3645   6.291   3.884   6.884
  916SOL     OW 3646   1.586   3.398   2.312
  916SOL    HW1 3647   1.605   3.372   2.407
  916SOL    HW2 3648   1.665   3.376   2.255
  917SOL     OW 3649   0.731   6.995   1.858
  917SOL    HW1 3650   0.787   0.051   1.890
  917SOL    HW2 3651   0.673   0.004   1.782
  918SOL     OW 3652   3.845   0.520   1.270
  918SOL    HW1 3653   3.903   0.495   1.347
  918SOL    HW2 3654   3.899   0.569   1.201
  919SOL     OW 3655   6.364   0.659   2.510
  919SOL    HW1 3656   6.452   0.702   2.533
  919SOL    HW2 3657   6.379   0.564   2.484
  920SOL     OW 3658   2.221   4.180   2.446
  920SOL    HW1 3659   2.159   4.128   2.505
  920SOL    HW2 3660   2.232   4.272   2.483
  921SOL     OW 3661   3.733   5.567   4.292
  921SOL    HW1 3662   3.750   5.472   4.317
  921SOL    HW2 3663   3.818   5.619   4.297
  922SOL     OW 3664   3.400   3.397   4.645
  922SOL    HW1 3665   3.391   3.463   4.719
  922SOL    HW2 3666   3.357   3.435   4.562
  923SOL     OW 3667   2.425   3.750   6.527
  923SOL    HW1 3668   2.501   3.694   6.560
  923SOL    HW2 3669   2.429   3.757   6.428
  924SOL     OW 3670   6.609   3.703   1.806
  924SOL    HW1 3671   6.522   3.653   1.806
  924SOL    HW2 3672   6.681   3.645   1.843
  925SOL     OW 3673   0.130   1.977   0.094
  925SOL    HW1 3674   0.050   1.922   0.113
  925SOL    HW2 3675   0.198   1.964   0.166
  926SOL     OW 3676   6.673   1.342   1.341
  926SOL    HW1 3677   6.637   1.337   1.434
  926SOL    HW2 3678   6.603   1.379   1.280
  927SOL     OW 3679   5.401   3.596   2.949
  927SOL    HW1 3680   5.409   3.661   3.025
  927SOL    HW2 3681   5.342   3.520   2.976
  928SOL     OW 3682   2.463   6.154   0.317
  928SOL    HW1 3683   2.555   6.117   0.325
  928SOL    HW2 3684   2.467   6.252   0.298
  929SOL     OW 3685   0.361   0.722   6.529
  929SOL    HW1 3686   0.351   0.672   6.443
  929SOL    HW2 3687   0.311   0.808   6.524
  930SOL     OW 3688   5.596   6.857   6.238
  930SOL    HW1 3689   5.649   6.836   6.320
  930SOL    HW2 3690   5.638   6.812   6.159
  931SOL     OW 3691   6.646   0.920   4.612
  931SOL    HW1 3692   6.722   0.925   4.677
  931SOL    HW2 3693   6.559   0.923   4.661
  932SOL     OW 3694   2.880   1.156   3.255
  932SOL    HW1 3695   2.869   1.109   3.342
  932SOL    HW2 3696   2.790   1.176   3.216
  933SOL     OW 3697   1.540   4.902   3.479
  933SOL    HW1 3698   1.523   4.832   3.549
  933SOL    HW2 3699   1.609   4.967   3.513
  934SOL     OW 3700   2.754   5.811   0.165
  934SOL    HW1 3701   2.775   5.716   0.186
  934SOL    HW2 3702   2.666   5.816   0.117
  935SOL     OW 3703   5.028   3.919   4.328
  935SOL    HW1 3704   5.101   3.956   4.386
  935SOL    HW2 3705   5.010   3.824   4.354
  936SOL     OW 3706   0.296   0.227   5.618
  936SOL    HW1 3707   0.282   0.319   5.582
  936SOL    HW2 3708   0.374   0.228   5.680
  937SOL     OW 3709   5.847   1.292   6.411
  937SOL    HW1 3710   5.915   1.357   6.377
  937SOL    HW2 3711   5.893   1.223   6.467
  938SOL     OW 3712   6.088   4.776   5.745
  938SOL    HW1 3713   6.054   4.854   5.693
  938SOL    HW2 3714   6.119   4.704   5.683
  939SOL     OW 3715   0.281   6.847   3.705
  939SOL    HW1 3716   0.207   6.804   3.756
  939SOL    HW2 3717   0.325   6.916   3.763
  940SOL     OW 3718   0.474   3.867   0.768
  940SOL    HW1 3719   0.556   3.902   0.723
  940SOL    HW2 3720   0.396   3.925   0.745
  941SOL     OW 3721   5.628   1.449   0.036
  941SOL    HW1 3722   5.675   1.420   0.120
  941SOL    HW2 3723   5.683   1.520   7.012
  942SOL     OW 3724   5.759   0.004   2.255
  942SOL    HW1 3725   5.838   7.017   2.193
  942SOL    HW2 3726   5.767   6.957   2.328
  943SOL     OW 3727   1.344   4.376   2.634
  943SOL    HW1 3728   1.418   4.413   2.690
  943SOL    HW2 3729   1.266   4.439   2.638
  944SOL     OW 3730   0.053   5.881   5.615
  944SOL    HW1 3731   6.995   5.883   5.554
  944SOL    HW2 3732   0.122   5.946   5.582
  945SOL     OW 3733   0.639   4.816   6.340
  945SOL    HW1 3734   0.582   4.763   6.277
  945SOL    HW2 3735   0.729   4.831   6.300
  946SOL     OW 3736   4.908   4.024   5.614
  946SOL    HW1 3737   4.975   4.040   5.687
  946SOL    HW2 3738   4.926   4.087   5.539
  947SOL     OW 3739   3.492   3.150   3.380
  947SOL    HW1 3740   3.393   3.167   3.385
  947SOL    HW2 3741   3.508   3.060   3.341
  948SOL     OW 3742   4.910   1.346   3.055
  948SOL    HW1 3743   4.892   1.409   3.130
  948SOL    HW2 3744   4.881   1.388   2.969
  949SOL     OW 3745   3.009   5.813   0.073
  949SOL    HW1 3746   2.914   5.832   0.097
  949SOL    HW2 3747   3.018   5.718   0.045
  950SOL     OW 3748   5.948   5.486   2.371
  950SOL    HW1 3749   5.974   5.464   2.465
  950SOL    HW2 3750   6.006   5.435   2.308
  951SOL     OW 3751   1.340   0.107   3.940
  951SOL    HW1 3752   1.257   0.086   3.991
  951SOL    HW2 3753   1.341   0.055   3.854
  952SOL     OW 3754   4.510   2.456   3.255
  952SOL    HW1 3755   4.553   2.457   3.345
  952SOL    HW2 3756   4.580   2.445   3.185
  953SOL     OW 3757   5.750   5.425   4.813
  953SOL    HW1 3758   5.818   5.489   4.778
  953SOL    HW2 3759   5.668   5.474   4.839
  954SOL     OW 3760   3.699   6.005   2.678
  954SOL    HW1 3761   3.760   6.049   2.612
  954SOL    HW2 3762   3.749   5.933   2.727
  955SOL     OW 3763   1.488   4.686   0.982
  955SOL    HW1 3764   1.470   4.732   1.069
  955SOL    HW2 3765   1.401   4.665   0.937
  956SOL     OW 3766   6.443   0.481   1.651
  956SOL    HW1 3767   6.427   0.465   1.749
  956SOL    HW2 3768   6.359   0.463   1.600
  957SOL     OW 3769   5.528   2.651   2.321
  957SOL    HW1 3770   5.471   2.570   2.306
  957SOL    HW2 3771   5.551   2.693   2.233
  958SOL     OW 3772   3.824   0.253   1.592
  958SOL    HW1 3773   3.854   0.342   1.559
  958SOL    HW2 3774   3.904   0.198   1.617
  959SOL     OW 3775   3.330   6.496   4.602
  959SOL    HW1 3776   3.254   6.502   4.537
  959SOL    HW2 3777   3.295   6.496   4.695
  960SOL     OW 3778   1.002   0.281   1.205
  960SOL    HW1 3779   0.938   0.208   1.183
  960SOL    HW2 3780   1.095   0.250   1.188
  961SOL     OW 3781   4.189   6.571   2.985
  961SOL    HW1 3782   4.164   6.604   2.894
  961SOL    HW2 3783   4.279   6.528   2.981
  962SOL     OW 3784   6.857   0.742   4.928
  962SOL    HW1 3785   6.846   0.695   4.840
  962SOL    HW2 3786   6.851   0.841   4.913
  963SOL     OW 3787   5.010   0.622   6.984
  963SOL    HW1 3788   5.001   0.530   6.946
  963SOL    HW2 3789   5.097   0.628   0.012
  964SOL     OW 3790   5.083   5.014   6.022
  964SOL    HW1 3791   5.150   4.961   6.073
  964SOL    HW2 3792   5.031   5.071   6.085
  965SOL     OW 3793   6.460   1.385   2.477
  965SOL    HW1 3794   6.373   1.345   2.503
  965SOL    HW2 3795   6.535   1.325   2.505
  966SOL     OW 3796   5.683   2.471   2.942
  966SOL    HW1 3797   5.694   2.405   2.867
  966SOL    HW2 3798   5.675   2.563   2.904
  967SOL     OW 3799   3.189   4.330   0.494
  967SOL    HW1 3800   3.217   4.356   0.586
  967SOL    HW2 3801   3.242   4.383   0.427
  968SOL     OW 3802   4.422   0.268   1.811
  968SOL    HW1 3803   4.422   0.306   1.718
  968SOL    HW2 3804   4.364   0.187   1.814
  969SOL     OW 3805   2.430   4.651   5.909
  969SOL    HW1 3806   2.497   4.715   5.947
  969SOL    HW2 3807   2.386   4.692   5.829
  970SOL     OW 3808   5.148   0.668   6.497
  970SOL    HW1 3809   5.205   0.742   6.463
  970SOL    HW2 3810   5.199   0.582   6.491
  971SOL     OW 3811   6.853   3.801   2.634
  971SOL    HW1 3812   6.892   3.860   2.705
  971SOL    HW2 3813   6.787   3.738   2.675
  972SOL     OW 3814   5.908   1.950   1.726
  972SOL    HW1 3815   5.957   1.928   1.642
  972SOL    HW2 3816   5.973   1.964   1.800
  973SOL     OW 3817   0.557   5.502   6.523
  973SOL    HW1 3818   0.514   5.412   6.522
  973SOL    HW2 3819   0.644   5.496   6.573
  974SOL     OW 3820   6.855   6.032   2.034
  974SOL    HW1 3821   6.773   5.977   2.045
  974SOL    HW2 3822   6.934   5.973   2.017
  975SOL     OW 3823   2.423   0.508   6.992
  975SOL    HW1 3824   2.375   0.586   0.011
  975SOL    HW2 3825   2.488   0.470   0.037
  976SOL     OW 3826   0.001   3.305   1.354
  976SOL    HW1 3827   0.062   3.260   1.419
  976SOL    HW2 3828   0.000   3.403   1.371
  977SOL     OW 3829   0.591   0.591   2.455
  977SOL    HW1 3830   0.621   0.540   2.374
  977SOL    HW2 3831   0.658   0.579   2.529
  978SOL     OW 3832   5.492   1.758   1.168
  978SOL    HW1 3833   5.405   1.797   1.200
  978SOL    HW2 3834   5.557   1.831   1.149
  979SOL     OW 3835   1.113   3.172   0.048
  979SOL    HW1 3836   1.057   3.170   6.987
  979SOL    HW2 3837   1.056   3.194   0.127
  980SOL     OW 3838   4.962   1.908   4.076
  980SOL    HW1 3839   4.963   1.971   4.153
  980SOL    HW2 3840   4.897   1.941   4.007
  981SOL     OW 3841   0.237   0.836   4.777
  981SOL    HW1 3842   0.173   0.879   4.842
  981SOL    HW2 3843   0.185   0.786   4.708
  982SOL     OW 3844   0.855   1.429   5.024
  982SOL    HW1 3845   0.913   1.384   5.092
  982SOL    HW2 3846   0.767   1.454   5.066
  983SOL     OW 3847   6.728   3.161   3.038
  983SOL    HW1 3848   6.697   3.122   3.125
  983SOL    HW2 3849   6.827   3.178   3.043
  984SOL     OW 3850   2.079   2.746   3.557
  984SOL    HW1 3851   2.098   2.685   3.634
  984SOL    HW2 3852   2.123   2.711   3.474
  985SOL     OW 3853   6.681   4.050   4.733
  985SOL    HW1 3854   6.769   4.071   4.689
  985SOL    HW2 3855   6.634   4.135   4.756
  986SOL     OW 3856   5.003   4.401   1.517
  986SOL    HW1 3857   4.955   4.371   1.599
  986SOL    HW2 3858   4.943   4.390   1.437
  987SOL     OW 3859   4.475   6.648   2.464
  987SOL    HW1 3860   4.411   6.575   2.487
  987SOL    HW2 3861   4.548   6.651   2.533
  988SOL     OW 3862   3.655   4.039   1.329
  988SOL    HW1 3863   3.717   4.056   1.253
  988SOL    HW2 3864   3.646   4.123   1.383
  989SOL     OW 3865   6.643   1.684   6.928
  989SOL    HW1 3866   6.614   1.768   6.974
  989SOL    HW2 3867   6.611   1.605   6.980
  990SOL     OW 3868   3.197   0.685   2.330
  990SOL    HW1 3869   3.201   0.782   2.307
  990SOL    HW2 3870   3.135   0.671   2.407
  991SOL     OW 3871   0.089   3.614   3.825
  991SOL    HW1 3872   0.146   3.646   3.901
  991SOL    HW2 3873   7.019   3.594   3.859
  992SOL     OW 3874   0.207   3.195   1.490
  992SOL    HW1 3875   0.259   3.277   1.514
  992SOL    HW2 3876   0.200   3.136   1.570
  993SOL     OW 3877   0.213   3.969   0.759
  993SOL    HW1 3878   0.235   3.945   0.854
  993SOL    HW2 3879   0.144   3.907   0.723
  994SOL     OW 3880   4.230   5.071   1.828
  994SOL    HW1 3881   4.308   5.013   1.854
  994SOL    HW2 3882   4.149   5.040   1.878
  995SOL     OW 3883   4.012   2.894   6.244
  995SOL    HW1 3884   4.036   2.900   6.341
  995SOL    HW2 3885   4.074   2.831   6.198
  996SOL     OW 3886   3.594   4.956   4.602
  996SOL    HW1 3887   3.574   4.892   4.677
  996SOL    HW2 3888   3.586   5.050   4.635
  997SOL     OW 3889   0.844   6.648   3.282
  997SOL    HW1 3890   0.915   6.577   3.282
  997SOL    HW2 3891   0.754   6.606   3.291
  998SOL     OW 3892   6.449   0.477   5.958
  998SOL    HW1 3893   6.371   0.415   5.970
  998SOL    HW2 3894   6.528   0.442   6.007
  999SOL     OW 3895   4.913   3.598   2.191
  999SOL    HW1 3896   4.906   3.500   2.176
  999SOL    HW2 3897   4.965   3.615   2.275
 1000SOL     OW 3898   4.278   1.717   1.511
 1000SOL    HW1 3899   4.202   1.781   1.514
 1000SOL    HW2 3900   4.263   1.650   1.438
 1001SOL     OW 3901   4.163   6.219   1.884
 1001SOL    HW1 3902   4.248   6.197   1.932
 1001SOL    HW2 3903   4.085   6.184   1.936
 1002SOL     OW 3904   5.475   2.355   1.582
 1002SOL    HW1 3905   5.420   2.413   1.643
 1002SOL    HW2 3906   5.427   2.269   1.566
 1003SOL     OW 3907   2.247   5.788   3.617
 1003SOL    HW1 3908   2.170   5.826   3.669
 1003SOL    HW2 3909   2.258   5.691   3.639
 1004SOL     OW 3910   0.261   0.892   2.330
 1004SOL    HW1 3911   0.294   0.816   2.387
 1004SOL    HW2 3912   0.184   0.937   2.375
 1005SOL     OW 3913   1.564   3.294   3.746
 1005SOL    HW1 3914   1.472   3.313   3.711
 1005SOL    HW2 3915   1.631   3.309   3.674
 1006SOL     OW 3916   1.525   3.917   0.198
 1006SOL    HW1 3917   1.615   3.921   0.154
 1006SOL    HW2 3918   1.537   3.890   0.294
 1007SOL     OW 3919   4.789   0.686   5.689
 1007SOL    HW1 3920   4.855   0.615   5.711
 1007SOL    HW2 3921   4.760   0.676   5.594
 1008SOL     OW 3922   0.189   2.261   5.323
 1008SOL    HW1 3923   0.227   2.344   5.364
 1008SOL    HW2 3924   0.096   2.279   5.291
 1009SOL     OW 3925   6.821   4.937   6.000
 1009SOL    HW1 3926   6.745   4.890   6.044
 1009SOL    HW2 3927   6.906   4.889   6.022
 1010SOL     OW 3928   2.848   3.155   1.479
 1010SOL    HW1 3929   2.853   3.133   1.577
 1010SOL    HW2 3930   2.752   3.157   1.451
 1011SOL     OW 3931   1.243   5.184   3.732
 1011SOL    HW1 3932   1.281   5.264   3.686
 1011SOL    HW2 3933   1.144   5.195   3.741
 1012SOL     OW 3934   0.130   6.600   2.356
 1012SOL    HW1 3935   0.062   6.528   2.337
 1012SOL    HW2 3936   0.181   6.619   2.273
 1013SOL     OW 3937   6.996   0.604   6.284
 1013SOL    HW1 3938   0.071   0.609   6.259
 1013SOL    HW2 3939   6.942   0.651   6.215
 1014SOL     OW 3940   0.387   4.170   4.931
 1014SOL    HW1 3941   0.362   4.085   4.976
 1014SOL    HW2 3942   0.316   4.195   4.865
 1015SOL     OW 3943   2.450   0.523   6.041
 1015SOL    HW1 3944   2.481   0.558   5.952
 1015SOL    HW2 3945   2.529   0.516   6.103
 1016SOL     OW 3946   4.410   4.821   0.939
 1016SOL    HW1 3947   4.426   4.891   0.870
 1016SOL    HW2 3948   4.314   4.792   0.936
 1017SOL     OW 3949   3.833   2.106   0.871
 1017SOL    HW1 3950   3.777   2.086   0.952
 1017SOL    HW2 3951   3.807   2.195   0.834
 1018SOL     OW 3952   0.947   4.751   3.854
 1018SOL    HW1 3953   0.968   4.679   3.920
 1018SOL    HW2 3954   0.976   4.839   3.890
 1019SOL     OW 3955   0.213   5.805   1.353
 1019SOL    HW1 3956   0.250   5.793   1.445
 1019SOL    HW2 3957   0.284   5.785   1.286
 1020SOL     OW 3958   6.235   1.503   1.510
 1020SOL    HW1 3959   6.249   1.455   1.423
 1020SOL    HW2 3960   6.212   1.598   1.492
 1021SOL     OW 3961   5.625   6.858   1.896
 1021SOL    HW1 3962   5.658   6.951   1.880
 1021SOL    HW2 3963   5.632   6.805   1.812
 1022SOL     OW 3964   3.061   4.991   5.431
 1022SOL    HW1 3965   3.111   4.910   5.460
 1022SOL    HW2 3966   3.046   4.987   5.332
 1023SOL     OW 3967   0.016   0.746   2.944
 1023SOL    HW1 3968   0.034   0.660   2.895
 1023SOL    HW2 3969   0.071   0.748   3.028
 1024SOL     OW 3970   0.427   1.827   3.660
 1024SOL    HW1 3971   0.466   1.894   3.724
 1024SOL    HW2 3972   0.408   1.872   3.572
 1025SOL     OW 3973   3.589   3.806   0.372
 1025SOL    HW1 3974   3.688   3.810   0.357
 1025SOL    HW2 3975   3.542   3.852   0.297
 1026SOL     OW 3976   2.595   3.327   1.740
 1026SOL    HW1 3977   2.617   3.380   1.658
 1026SOL    HW2 3978   2.522   3.371   1.790
 1027SOL     OW 3979   2.225   0.122   2.090
 1027SOL    HW1 3980   2.205   0.211   2.048
 1027SOL    HW2 3981   2.285   0.135   2.169
 1028SOL     OW 3982   1.211   0.208   2.936
 1028SOL    HW1 3983   1.121   0.247   2.956
 1028SOL    HW2 3984   1.281   0.279   2.947
 1029SOL     OW 3985   1.203   2.070   5.472
 1029SOL    HW1 3986   1.168   1.978   5.490
 1029SOL    HW2 3987   1.303   2.070   5.476
 1030SOL     OW 3988   3.264   3.407   1.356
 1030SOL    HW1 3989   3.230   3.338   1.420
 1030SOL    HW2 3990   3.359   3.429   1.378
 1031SOL     OW 3991   4.910   3.272   1.733
 1031SOL    HW1 3992   4.824   3.256   1.684
 1031SOL    HW2 3993   4.907   3.362   1.777
 1032SOL     OW 3994   1.632   1.002   5.043
 1032SOL    HW1 3995   1.554   1.029   5.098
 1032SOL    HW2 3996   1.712   0.987   5.102
 1033SOL     OW 3997   1.730   5.616   1.954
 1033SOL    HW1 3998   1.695   5.615   2.047
 1033SOL    HW2 3999   1.830   5.614   1.956
 1034SOL     OW 4000   1.532   5.595   4.685
 1034SOL    HW1 4001   1.515   5.634   4.594
 1034SOL    HW2 4002   1.448   5.553   4.719
 1035SOL     OW 4003   0.273   2.262   0.066
 1035SOL    HW1 4004   0.209   2.216   0.127
 1035SOL    HW2 4005   0.346   2.199   0.039
 1036SOL     OW 4006   3.959   0.916   2.027
 1036SOL    HW1 4007   4.038   0.930   2.087
 1036SOL    HW2 4008   3.989   0.922   1.932
 1037SOL     OW 4009   1.756   1.503   3.071
 1037SOL    HW1 4010   1.815   1.556   3.010
 1037SOL    HW2 4011   1.795   1.411   3.083
 1038SOL     OW 4012   1.724   1.576   5.081
 1038SOL    HW1 4013   1.791   1.508   5.110
 1038SOL    HW2 4014   1.673   1.540   5.003
 1039SOL     OW 4015   3.214   3.764   4.522
 1039SOL    HW1 4016   3.147   3.787   4.451
 1039SOL    HW2 4017   3.260   3.847   4.553
 1040SOL     OW 4018   4.941   1.068   2.325
 1040SOL    HW1 4019   4.867   1.007   2.353
 1040SOL    HW2 4020   4.965   1.051   2.230
 1041SOL     OW 4021   6.751   6.202   3.671
 1041SOL    HW1 4022   6.678   6.178   3.607
 1041SOL    HW2 4023   6.839   6.201   3.624
 1042SOL     OW 4024   4.313   5.460   2.865
 1042SOL    HW1 4025   4.330   5.438   2.769
 1042SOL    HW2 4026   4.318   5.559   2.879
 1043SOL     OW 4027   3.783   2.107   3.415
 1043SOL    HW1 4028   3.785   2.098   3.515
 1043SOL    HW2 4029   3.688   2.118   3.384
 1044SOL     OW 4030   5.847   5.048   2.159
 1044SOL    HW1 4031   5.872   5.108   2.235
 1044SOL    HW2 4032   5.916   5.056   2.086
 1045SOL     OW 4033   4.110   0.694   2.809
 1045SOL    HW1 4034   4.113   0.744   2.896
 1045SOL    HW2 4035   4.137   0.599   2.824
 1046SOL     OW 4036   2.127   1.689   6.900
 1046SOL    HW1 4037   2.161   1.684   6.993
 1046SOL    HW2 4038   2.084   1.602   6.875
 1047SOL     OW 4039   2.457   0.727   4.198
 1047SOL    HW1 4040   2.443   0.628   4.197
 1047SOL    HW2 4041   2.382   0.771   4.149
 1048SOL     OW 4042   3.310   5.933   1.645
 1048SOL    HW1 4043   3.392   5.880   1.624
 1048SOL    HW2 4044   3.324   5.986   1.728
 1049SOL     OW 4045   5.674   0.104   3.890
 1049SOL    HW1 4046   5.622   0.020   3.907
 1049SOL    HW2 4047   5.618   0.183   3.915
 1050SOL     OW 4048   3.800   5.514   2.213
 1050SOL    HW1 4049   3.737   5.469   2.277
 1050SOL    HW2 4050   3.839   5.445   2.152
 1051SOL     OW 4051   0.423   5.891   0.551
 1051SOL    HW1 4052   0.341   5.853   0.594
 1051SOL    HW2 4053   0.459   5.825   0.484
 1052SOL     OW 4054   4.738   0.657   5.409
 1052SOL    HW1 4055   4.838   0.657   5.401
 1052SOL    HW2 4056   4.697   0.640   5.320
 1053SOL     OW 4057   5.650   3.845   2.411
 1053SOL    HW1 4058   5.711   3.852   2.332
 1053SOL    HW2 4059   5.638   3.749   2.435
 1054SOL     OW 4060   2.809   3.672   0.978
 1054SOL    HW1 4061   2.869   3.633   1.048
 1054SOL    HW2 4062   2.843   3.646   0.887
 1055SOL     OW 4063   4.262   6.398   5.611
 1055SOL    HW1 4064   4.283   6.310   5.569
 1055SOL    HW2 4065   4.208   6.453   5.547
 1056SOL     OW 4066   1.498   3.620   0.265
 1056SOL    HW1 4067   1.455   3.690   0.323
 1056SOL    HW2 4068   1.596   3.620   0.281
 1057SOL     OW 4069   3.845   2.888   1.368
 1057SOL    HW1 4070   3.769   2.948   1.346
 1057SOL    HW2 4071   3.927   2.943   1.387
 1058SOL     OW 4072   5.135   2.574   4.178
 1058SOL    HW1 4073   5.211   2.591   4.115
 1058SOL    HW2 4074   5.051   2.610   4.138
 1059SOL     OW 4075   2.030   6.630   1.829
 1059SOL    HW1 4076   2.108   6.632   1.892
 1059SOL    HW2 4077   2.017   6.537   1.795
 1060SOL     OW 4078   0.191   4.681   4.278
 1060SOL    HW1 4079   0.192   4.739   4.197
 1060SOL    HW2 4080   0.262   4.711   4.341
 1061SOL     OW 4081   6.555   3.547   5.896
 1061SOL    HW1 4082   6.519   3.481   5.830
 1061SOL    HW2 4083   6.574   3.634   5.850
 1062SOL     OW 4084   4.347   5.589   6.216
 1062SOL    HW1 4085   4.279   5.550   6.154
 1062SOL    HW2 4086   4.404   5.515   6.252
 1063SOL     OW 4087   0.055   6.424   0.339
 1063SOL    HW1 4088   0.131   6.458   0.285
 1063SOL    HW2 4089   0.015   6.499   0.392
 1064SOL     OW 4090   1.578   4.376   1.903
 1064SOL    HW1 4091   1.584   4.278   1.885
 1064SOL    HW2 4092   1.592   4.393   2.000
 1065SOL     OW 4093   4.611   0.766   2.867
 1065SOL    HW1 4094   4.537   0.775   2.801
 1065SOL    HW2 4095   4.697   0.751   2.818
 1066SOL     OW 4096   4.295   6.556   2.703
 1066SOL    HW1 4097   4.370   6.547   2.768
 1066SOL    HW2 4098   4.275   6.653   2.687
 1067SOL     OW 4099   1.829   2.114   0.086
 1067SOL    HW1 4100   1.777   2.187   0.131
 1067SOL    HW2 4101   1.766   2.046   0.049
 1068SOL     OW 4102   6.531   4.153   1.373
 1068SOL    HW1 4103   6.609   4.138   1.433
 1068SOL    HW2 4104   6.446   4.147   1.426
 1069SOL     OW 4105   5.054   6.057   0.517
 1069SOL    HW1 4106   5.095   6.139   0.478
 1069SOL    HW2 4107   4.987   6.019   0.454
 1070SOL     OW 4108   1.612   0.177   1.882
 1070SOL    HW1 4109   1.546   0.233   1.831
 1070SOL    HW2 4110   1.694   0.231   1.900
 1071SOL     OW 4111   2.448   2.128   3.923
 1071SOL    HW1 4112   2.544   2.105   3.939
 1071SOL    HW2 4113   2.398   2.124   4.009
 1072SOL     OW 4114   2.670   0.971   1.024
 1072SOL    HW1 4115   2.620   0.888   1.050
 1072SOL    HW2 4116   2.674   1.033   1.102
 1073SOL     OW 4117   4.745   0.956   3.365
 1073SOL    HW1 4118   4.667   0.896   3.347
 1073SOL    HW2 4119   4.751   0.976   3.462
 1074SOL     OW 4120   2.515   5.236   1.691
 1074SOL    HW1 4121   2.524   5.328   1.728
 1074SOL    HW2 4122   2.589   5.218   1.626
 1075SOL     OW 4123   5.935   0.861   3.373
 1075SOL    HW1 4124   5.849   0.810   3.371
 1075SOL    HW2 4125   5.997   0.820   3.439
 1076SOL     OW 4126   0.744   2.367   5.952
 1076SOL    HW1 4127   0.719   2.464   5.951
 1076SOL    HW2 4128   0.812   2.349   5.881
 1077SOL     OW 4129   6.492   6.609   0.898
 1077SOL    HW1 4130   6.407   6.655   0.924
 1077SOL    HW2 4131   6.489   6.514   0.926
 1078SOL     OW 4132   6.781   0.692   3.026
 1078SOL    HW1 4133   6.868   0.723   2.987
 1078SOL    HW2 4134   6.730   0.771   3.061
 1079SOL     OW 4135   1.281   5.312   2.004
 1079SOL    HW1 4136   1.263   5.337   2.099
 1079SOL    HW2 4137   1.339   5.382   1.961
 1080SOL     OW 4138   2.342   5.551   3.777
 1080SOL    HW1 4139   2.328   5.568   3.875
 1080SOL    HW2 4140   2.327   5.455   3.757
 1081SOL     OW 4141   6.815   5.198   6.109
 1081SOL    HW1 4142   6.819   5.106   6.071
 1081SOL    HW2 4143   6.719   5.227   6.117
 1082SOL     OW 4144   6.065   1.850   5.881
 1082SOL    HW1 4145   6.060   1.910   5.801
 1082SOL    HW2 4146   5.994   1.876   5.946
 1083SOL     OW 4147   4.800   3.289   0.265
 1083SOL    HW1 4148   4.895   3.270   0.288
 1083SOL    HW2 4149   4.761   3.208   0.220
 1084SOL     OW 4150   6.694   6.759   6.018
 1084SOL    HW1 4151   6.704   6.701   5.938
 1084SOL    HW2 4152   6.672   6.853   5.989
 1085SOL     OW 4153   2.020   3.574   4.433
 1085SOL    HW1 4154   1.929   3.567   4.472
 1085SOL    HW2 4155   2.062   3.660   4.460
 1086SOL     OW 4156   6.782   4.547   0.372
 1086SOL    HW1 4157   6.754   4.642   0.366
 1086SOL    HW2 4158   6.796   4.522   0.468
 1087SOL     OW 4159   0.128   1.770   4.687
 1087SOL    HW1 4160   0.050   1.833   4.685
 1087SOL    HW2 4161   0.194   1.796   4.617
 1088SOL     OW 4162   0.376   4.585   3.114
 1088SOL    HW1 4163   0.333   4.528   3.184
 1088SOL    HW2 4164   0.313   4.599   3.038
 1089SOL     OW 4165   0.092   5.398   4.634
 1089SOL    HW1 4166   0.092   5.473   4.699
 1089SOL    HW2 4167   7.020   5.366   4.619
 1090SOL     OW 4168   3.861   2.079   2.498
 1090SOL    HW1 4169   3.932   2.126   2.551
 1090SOL    HW2 4170   3.865   2.109   2.403
 1091SOL     OW 4171   2.206   3.081   4.039
 1091SOL    HW1 4172   2.185   3.004   3.979
 1091SOL    HW2 4173   2.278   3.137   3.998
 1092SOL     OW 4174   1.237   5.098   0.677
 1092SOL    HW1 4175   1.223   5.018   0.617
 1092SOL    HW2 4176   1.272   5.068   0.765
 1093SOL     OW 4177   2.965   6.731   1.994
 1093SOL    HW1 4178   2.943   6.725   1.897
 1093SOL    HW2 4179   2.893   6.687   2.048
 1094SOL     OW 4180   0.574   6.510   2.361
 1094SOL    HW1 4181   0.583   6.605   2.332
 1094SOL    HW2 4182   0.488   6.497   2.409
 1095SOL     OW 4183   0.106   3.236   6.204
 1095SOL    HW1 4184   0.136   3.181   6.282
 1095SOL    HW2 4185   0.178   3.239   6.135
 1096SOL     OW 4186   3.587   4.598   1.458
 1096SOL    HW1 4187   3.529   4.632   1.384
 1096SOL    HW2 4188   3.530   4.570   1.535
 1097SOL     OW 4189   2.024   4.243   3.627
 1097SOL    HW1 4190   1.963   4.190   3.568
 1097SOL    HW2 4191   2.119   4.218   3.608
 1098SOL     OW 4192   5.678   3.326   6.260
 1098SOL    HW1 4193   5.656   3.348   6.165
 1098SOL    HW2 4194   5.755   3.262   6.263
 1099SOL     OW 4195   4.238   0.802   6.020
 1099SOL    HW1 4196   4.237   0.873   6.090
 1099SOL    HW2 4197   4.266   0.715   6.061
 1100SOL     OW 4198   4.413   1.049   4.453
 1100SOL    HW1 4199   4.316   1.058   4.429
 1100SOL    HW2 4200   4.466   1.030   4.371
 1101SOL     OW 4201   5.374   3.613   5.785
 1101SOL    HW1 4202   5.312   3.665   5.726
 1101SOL    HW2 4203   5.338   3.521   5.798
 1102SOL     OW 4204   1.745   0.884   4.597
 1102SOL    HW1 4205   1.765   0.800   4.648
 1102SOL    HW2 4206   1.734   0.862   4.500
 1103SOL     OW 4207   3.124   1.688   0.759
 1103SOL    HW1 4208   3.063   1.742   0.701
 1103SOL    HW2 4209   3.130   1.730   0.849
 1104SOL     OW 4210   1.670   3.741   3.924
 1104SOL    HW1 4211   1.676   3.794   4.009
 1104SOL    HW2 4212   1.720   3.790   3.852
 1105SOL     OW 4213   5.717   3.157   4.474
 1105SOL    HW1 4214   5.675   3.174   4.384
 1105SOL    HW2 4215   5.758   3.241   4.508
 1106SOL     OW 4216   0.930   2.043   1.722
 1106SOL    HW1 4217   0.977   2.128   1.746
 1106SOL    HW2 4218   0.908   1.992   1.806
 1107SOL     OW 4219   1.065   0.175   6.820
 1107SOL    HW1 4220   1.097   0.085   6.792
 1107SOL    HW2 4221   1.046   0.175   6.918
 1108SOL     OW 4222   3.163   6.581   5.073
 1108SOL    HW1 4223   3.212   6.553   5.156
 1108SOL    HW2 4224   3.150   6.680   5.073
 1109SOL     OW 4225   5.592   0.868   4.668
 1109SOL    HW1 4226   5.499   0.850   4.635
 1109SOL    HW2 4227   5.633   0.941   4.614
 1110SOL     OW 4228   4.338   1.802   3.149
 1110SOL    HW1 4229   4.243   1.773   3.136
 1110SOL    HW2 4230   4.367   1.780   3.242
 1111SOL     OW 4231   5.797   5.515   6.686
 1111SOL    HW1 4232   5.786   5.451   6.762
 1111SOL    HW2 4233   5.888   5.502   6.646
 1112SOL     OW 4234   5.835   1.106   2.905
 1112SOL    HW1 4235   5.864   1.026   2.958
 1112SOL    HW2 4236   5.906   1.131   2.840
 1113SOL     OW 4237   5.658   4.062   1.361
 1113SOL    HW1 4238   5.594   4.049   1.286
 1113SOL    HW2 4239   5.632   4.004   1.438
 1114SOL     OW 4240   2.927   1.746   6.014
 1114SOL    HW1 4241   3.004   1.779   6.069
 1114SOL    HW2 4242   2.958   1.671   5.956
 1115SOL     OW 4243   3.795   3.646   5.119
 1115SOL    HW1 4244   3.719   3.707   5.140
 1115SOL    HW2 4245   3.783   3.607   5.028
 1116SOL     OW 4246   5.401   6.824   6.621
 1116SOL    HW1 4247   5.489   6.869   6.611
 1116SOL    HW2 4248   5.378   6.816   6.719
 1117SOL     OW 4249   1.305   2.022   2.076
 1117SOL    HW1 4250   1.385   2.082   2.084
 1117SOL    HW2 4251   1.277   2.015   1.980
 1118SOL     OW 4252   2.426   5.263   0.136
 1118SOL    HW1 4253   2.383   5.349   0.109
 1118SOL    HW2 4254   2.360   5.189   0.130
 1119SOL     OW 4255   4.408   4.388   1.400
 1119SOL    HW1 4256   4.484   4.352   1.346
 1119SOL    HW2 4257   4.433   4.388   1.497
 1120SOL     OW 4258   6.319   5.987   1.309
 1120SOL    HW1 4259   6.253   5.913   1.325
 1120SOL    HW2 4260   6.278   6.056   1.250
 1121SOL     OW 4261   0.273   4.156   4.362
 1121SOL    HW1 4262   0.211   4.101   4.305
 1121SOL    HW2 4263   0.287   4.245   4.320
 1122SOL     OW 4264   6.147   2.804   2.318
 1122SOL    HW1 4265   6.082   2.785   2.391
 1122SOL    HW2 4266   6.236   2.764   2.340
 1123SOL     OW 4267   4.993   2.395   3.731
 1123SOL    HW1 4268   5.069   2.366   3.790
 1123SOL    HW2 4269   5.000   2.349   3.642
 1124SOL     OW 4270   0.084   4.404   5.547
 1124SOL    HW1 4271   0.062   4.437   5.456
 1124SOL    HW2 4272   0.167   4.448   5.580
 1125SOL     OW 4273   1.432   2.499   3.464
 1125SOL    HW1 4274   1.521   2.501   3.508
 1125SOL    HW2 4275   1.425   2.575   3.400
 1126SOL     OW 4276   6.231   5.760   6.019
 1126SOL    HW1 4277   6.178   5.679   6.046
 1126SOL    HW2 4278   6.290   5.735   5.942
 1127SOL     OW 4279   5.653   6.359   4.552
 1127SOL    HW1 4280   5.705   6.285   4.594
 1127SOL    HW2 4281   5.666   6.443   4.606
 1128SOL     OW 4282   6.180   1.242   4.564
 1128SOL    HW1 4283   6.098   1.278   4.521
 1128SOL    HW2 4284   6.161   1.224   4.661
 1129SOL     OW 4285   2.332   6.526   0.765
 1129SOL    HW1 4286   2.351   6.442   0.817
 1129SOL    HW2 4287   2.377   6.521   0.676
 1130SOL     OW 4288   2.002   4.879   1.096
 1130SOL    HW1 4289   2.064   4.954   1.120
 1130SOL    HW2 4290   2.051   4.792   1.103
 1131SOL     OW 4291   1.688   6.697   5.431
 1131SOL    HW1 4292   1.774   6.748   5.438
 1131SOL    HW2 4293   1.691   6.640   5.349
 1132SOL     OW 4294   4.326   0.274   3.367
 1132SOL    HW1 4295   4.338   0.181   3.333
 1132SOL    HW2 4296   4.251   0.319   3.318
 1133SOL     OW 4297   1.103   0.803   0.065
 1133SOL    HW1 4298   1.158   0.763   0.138
 1133SOL    HW2 4299   1.161   0.864   0.010
 1134SOL     OW 4300   4.913   0.081   3.319
 1134SOL    HW1 4301   4.889   7.006   3.306
 1134SOL    HW2 4302   4.991   0.104   3.261
 1135SOL     OW 4303   2.191   6.459   3.447
 1135SOL    HW1 4304   2.136   6.492   3.523
 1135SOL    HW2 4305   2.253   6.532   3.418
 1136SOL     OW 4306   4.089   4.860   2.692
 1136SOL    HW1 4307   4.029   4.833   2.616
 1136SOL    HW2 4308   4.105   4.958   2.688
 1137SOL     OW 4309   1.299   6.637   0.061
 1137SOL    HW1 4310   1.253   6.725   0.053
 1137SOL    HW2 4311   1.324   6.604   6.992
 1138SOL     OW 4312   0.421   1.497   5.287
 1138SOL    HW1 4313   0.347   1.515   5.222
 1138SOL    HW2 4314   0.406   1.551   5.370
 1139SOL     OW 4315   2.694   5.040   3.241
 1139SOL    HW1 4316   2.599   5.032   3.210
 1139SOL    HW2 4317   2.699   5.111   3.311
 1140SOL     OW 4318   2.844   0.399   2.207
 1140SOL    HW1 4319   2.746   0.416   2.201
 1140SOL    HW2 4320   2.893   0.472   2.160
 1141SOL     OW 4321   6.851   6.204   0.272
 1141SOL    HW1 4322   6.916   6.275   0.245
 1141SOL    HW2 4323   6.781   6.244   0.331
 1142SOL     OW 4324   3.438   0.810   4.147
 1142SOL    HW1 4325   3.527   0.854   4.157
 1142SOL    HW2 4326   3.370   0.859   4.201
 1143SOL     OW 4327   1.865   3.115   2.961
 1143SOL    HW1 4328   1.885   3.207   2.928
 1143SOL    HW2 4329   1.891   3.108   3.058
 1144SOL     OW 4330   5.652   4.584   3.732
 1144SOL    HW1 4331   5.705   4.500   3.717
 1144SOL    HW2 4332   5.555   4.565   3.724
 1145SOL     OW 4333   0.945   2.955   0.574
 1145SOL    HW1 4334   0.847   2.970   0.564
 1145SOL    HW2 4335   0.962   2.867   0.618
 1146SOL     OW 4336   0.764   1.631   2.205
 1146SOL    HW1 4337   0.856   1.607   2.236
 1146SOL    HW2 4338   0.698   1.610   2.277
 1147SOL     OW 4339   3.175   5.748   1.226
 1147SOL    HW1 4340   3.106   5.812   1.193
 1147SOL    HW2 4341   3.264   5.794   1.232
 1148SOL     OW 4342   4.559   6.210   1.133
 1148SOL    HW1 4343   4.593   6.292   1.179
 1148SOL    HW2 4344   4.524   6.235   1.042
 1149SOL     OW 4345   5.351   2.397   2.265
 1149SOL    HW1 4346   5.254   2.383   2.284
 1149SOL    HW2 4347   5.369   2.375   2.169
 1150SOL     OW 4348   0.761   4.050   0.374
 1150SOL    HW1 4349   0.811   3.965   0.390
 1150SOL    HW2 4350   0.758   4.070   0.276
 1151SOL     OW 4351   5.640   4.827   4.778
 1151SOL    HW1 4352   5.697   4.774   4.841
 1151SOL    HW2 4353   5.565   4.770   4.745
 1152SOL     OW 4354   5.095   6.519   6.584
 1152SOL    HW1 4355   5.160   6.492   6.655
 1152SOL    HW2 4356   5.005   6.480   6.603
 1153SOL     OW 4357   6.851   0.137   1.905
 1153SOL    HW1 4358   6.802   0.224   1.899
 1153SOL    HW2 4359   6.845   0.102   1.999
 1154SOL     OW 4360   0.434   4.600   0.365
 1154SOL    HW1 4361   0.441   4.575   0.462
 1154SOL    HW2 4362   0.458   4.521   0.309
 1155SOL     OW 4363   3.346   4.591   5.534
 1155SOL    HW1 4364   3.415   4.661   5.520
 1155SOL    HW2 4365   3.258   4.634   5.555
 1156SOL     OW 4366   4.619   2.410   5.015
 1156SOL    HW1 4367   4.682   2.442   5.086
 1156SOL    HW2 4368   4.670   2.358   4.946
 1157SOL     OW 4369   5.237   1.369   5.789
 1157SOL    HW1 4370   5.225   1.425   5.870
 1157SOL    HW2 4371   5.171   1.293   5.791
 1158SOL     OW 4372   6.517   5.285   5.028
 1158SOL    HW1 4373   6.578   5.325   4.960
 1158SOL    HW2 4374   6.498   5.352   5.100
 1159SOL     OW 4375   6.275   6.908   3.400
 1159SOL    HW1 4376   6.353   6.875   3.454
 1159SOL    HW2 4377   6.307   6.979   3.337
 1160SOL     OW 4378   4.563   5.197   1.462
 1160SOL    HW1 4379   4.544   5.227   1.556
 1160SOL    HW2 4380   4.486   5.219   1.403
 1161SOL     OW 4381   0.330   6.214   6.204
 1161SOL    HW1 4382   0.287   6.140   6.256
 1161SOL    HW2 4383   0.289   6.219   6.113
 1162SOL     OW 4384   2.444   2.545   5.974
 1162SOL    HW1 4385   2.369   2.565   6.038
 1162SOL    HW2 4386   2.491   2.461   6.004
 1163SOL     OW 4387   6.074   4.348   1.944
 1163SOL    HW1 4388   6.108   4.386   2.030
 1163SOL    HW2 4389   5.983   4.384   1.925
 1164SOL     OW 4390   4.653   2.116   4.853
 1164SOL    HW1 4391   4.746   2.131   4.887
 1164SOL    HW2 4392   4.646   2.022   4.818
 1165SOL     OW 4393   4.339   5.992   3.557
 1165SOL    HW1 4394   4.311   6.001   3.462
 1165SOL    HW2 4395   4.287   5.918   3.601
 1166SOL     OW 4396   2.388   6.373   0.020
 1166SOL    HW1 4397   2.415   6.384   0.116
 1166SOL    HW2 4398   2.348   6.458   7.008
 1167SOL     OW 4399   4.843   5.314   0.583
 1167SOL    HW1 4400   4.792   5.232   0.559
 1167SOL    HW2 4401   4.933   5.288   0.620
 1168SOL     OW 4402   5.948   2.573   1.767
 1168SOL    HW1 4403   6.036   2.621   1.757
 1168SOL    HW2 4404   5.884   2.632   1.816
 1169SOL     OW 4405   4.260   1.681   5.875
 1169SOL    HW1 4406   4.310   1.628   5.943
 1169SOL    HW2 4407   4.320   1.703   5.798
 1170SOL     OW 4408   5.574   0.362   3.583
 1170SOL    HW1 4409   5.571   0.387   3.680
 1170SOL    HW2 4410   5.621   0.434   3.532
 1171SOL     OW 4411   2.920   6.616   0.076
 1171SOL    HW1 4412   2.963   6.700   0.110
 1171SOL    HW2 4413   2.886   6.632   7.005
 1172SOL     OW 4414   5.397   4.149   0.922
 1172SOL    HW1 4415   5.446   4.214   0.863
 1172SOL    HW2 4416   5.377   4.066   0.869
 1173SOL     OW 4417   2.792   1.550   0.810
 1173SOL    HW1 4418   2.858   1.513   0.875
 1173SOL    HW2 4419   2.818   1.522   0.718
 1174SOL     OW 4420   3.734   3.800   1.983
 1174SOL    HW1 4421   3.724   3.841   2.073
 1174SOL    HW2 4422   3.793   3.858   1.926
 1175SOL     OW 4423   4.605   3.600   6.486
 1175SOL    HW1 4424   4.620   3.568   6.579
 1175SOL    HW2 4425   4.521   3.655   6.482
 1176SOL     OW 4426   5.231   3.529   0.427
 1176SOL    HW1 4427   5.302   3.562   0.488
 1176SOL    HW2 4428   5.272   3.472   0.356
 1177SOL     OW 4429   6.112   3.569   5.013
 1177SOL    HW1 4430   6.055   3.590   5.092
 1177SOL    HW2 4431   6.131   3.654   4.963
 1178SOL     OW 4432   2.799   4.450   0.470
 1178SOL    HW1 4433   2.749   4.493   0.395
 1178SOL    HW2 4434   2.740   4.383   0.515
 1179SOL     OW 4435   2.108   5.751   0.930
 1179SOL    HW1 4436   2.089   5.748   1.029
 1179SOL    HW2 4437   2.206   5.765   0.916
 1180SOL     OW 4438   2.563   6.559   4.012
 1180SOL    HW1 4439   2.592   6.564   3.916
 1180SOL    HW2 4440   2.639   6.530   4.069
 1181SOL     OW 4441   0.502   5.597   5.113
 1181SOL    HW1 4442   0.498   5.581   5.212
 1181SOL    HW2 4443   0.410   5.612   5.078
 1182SOL     OW 4444   4.720   5.286   3.522
 1182SOL    HW1 4445   4.681   5.201   3.487
 1182SOL    HW2 4446   4.662   5.363   3.493
 1183SOL     OW 4447   2.238   4.268   0.038
 1183SOL    HW1 4448   2.148   4.225   0.026
 1183SOL    HW2 4449   2.308   4.208   7.021
 1184SOL     OW 4450   7.011   1.020   4.454
 1184SOL    HW1 4451   6.928   0.981   4.415
 1184SOL    HW2 4452   0.066   0.957   4.441
 1185SOL     OW 4453   0.876   0.467   1.065
 1185SOL    HW1 4454   0.930   0.397   1.112
 1185SOL    HW2 4455   0.876   0.550   1.119
 1186SOL     OW 4456   5.523   6.458   6.230
 1186SOL    HW1 4457   5.503   6.521   6.305
 1186SOL    HW2 4458   5.448   6.459   6.164
 1187SOL     OW 4459   5.140   0.257   6.237
 1187SOL    HW1 4460   5.237   0.281   6.228
 1187SOL    HW2 4461   5.129   0.191   6.311
 1188SOL     OW 4462   3.513   5.966   5.912
 1188SOL    HW1 4463   3.536   5.937   6.005
 1188SOL    HW2 4464   3.553   5.902   5.847
 1189SOL     OW 4465   6.438   2.567   1.649
 1189SOL    HW1 4466   6.504   2.493   1.643
 1189SOL    HW2 4467   6.408   2.592   1.557
 1190SOL     OW 4468   3.021   5.504   3.487
 1190SOL    HW1 4469   3.029   5.465   3.395
 1190SOL    HW2 4470   2.955   5.452   3.540
 1191SOL     OW 4471   4.451   5.600   4.292
 1191SOL    HW1 4472   4.382   5.580   4.361
 1191SOL    HW2 4473   4.535   5.550   4.314
 1192SOL     OW 4474   5.124   4.914   1.981
 1192SOL    HW1 4475   5.212   4.874   1.956
 1192SOL    HW2 4476   5.074   4.851   2.040
 1193SOL     OW 4477   6.666   2.318   5.117
 1193SOL    HW1 4478   6.691   2.302   5.021
 1193SOL    HW2 4479   6.742   2.293   5.176
 1194SOL     OW 4480   5.944   6.797   1.756
 1194SOL    HW1 4481   5.977   6.878   1.806
 1194SOL    HW2 4482   5.889   6.826   1.678
 1195SOL     OW 4483   0.337   4.256   0.952
 1195SOL    HW1 4484   0.247   4.253   0.995
 1195SOL    HW2 4485   0.406   4.280   1.021
 1196SOL     OW 4486   6.948   5.392   3.443
 1196SOL    HW1 4487   6.892   5.394   3.361
 1196SOL    HW2 4488   6.989   5.482   3.458
 1197SOL     OW 4489   4.544   0.088   4.899
 1197SOL    HW1 4490   4.566   0.101   4.996
 1197SOL    HW2 4491   4.594   0.009   4.864
 1198SOL     OW 4492   1.078   3.070   2.786
 1198SOL    HW1 4493   1.156   3.016   2.817
 1198SOL    HW2 4494   1.004   3.065   2.854
 1199SOL     OW 4495   3.555   3.901   1.096
 1199SOL    HW1 4496   3.596   3.878   1.007
 1199SOL    HW2 4497   3.561   4.000   1.110
 1200SOL     OW 4498   2.992   3.935   4.060
 1200SOL    HW1 4499   3.087   3.905   4.050
 1200SOL    HW2 4500   2.985   4.032   4.035
 1201SOL     OW 4501   0.957   0.795   4.272
 1201SOL    HW1 4502   1.030   0.728   4.258
 1201SOL    HW2 4503   0.976   0.877   4.218
 1202SOL     OW 4504   0.541   5.711   5.845
 1202SOL    HW1 4505   0.548   5.789   5.906
 1202SOL    HW2 4506   0.631   5.669   5.834
 1203SOL     OW 4507   6.655   6.491   6.480
 1203SOL    HW1 4508   6.720   6.544   6.425
 1203SOL    HW2 4509   6.563   6.528   6.469
 1204SOL     OW 4510   4.316   0.597   1.869
 1204SOL    HW1 4511   4.234   0.598   1.926
 1204SOL    HW2 4512   4.316   0.516   1.811
 1205SOL     OW 4513   4.564   3.466   0.484
 1205SOL    HW1 4514   4.470   3.482   0.515
 1205SOL    HW2 4515   4.572   3.372   0.450
 1206SOL     OW 4516   2.513   2.586   5.489
 1206SOL    HW1 4517   2.481   2.625   5.575
 1206SOL    HW2 4518   2.524   2.658   5.421
 1207SOL     OW 4519   2.172   6.299   0.888
 1207SOL    HW1 4520   2.198   6.234   0.817
 1207SOL    HW2 4521   2.079   6.280   0.918
 1208SOL     OW 4522   3.008   3.388   1.041
 1208SOL    HW1 4523   3.054   3.466   1.083
 1208SOL    HW2 4524   2.987   3.409   0.945
 1209SOL     OW 4525   4.061   0.971   4.065
 1209SOL    HW1 4526   4.077   0.926   4.153
 1209SOL    HW2 4527   4.145   1.013   4.032
 1210SOL     OW 4528   2.872   0.333   3.714
 1210SOL    HW1 4529   2.774   0.317   3.724
 1210SOL    HW2 4530   2.914   0.344   3.805
 1211SOL     OW 4531   0.870   3.381   2.343
 1211SOL    HW1 4532   0.881   3.469   2.296
 1211SOL    HW2 4533   0.877   3.307   2.277
 1212SOL     OW 4534   6.160   0.256   0.456
 1212SOL    HW1 4535   6.158   0.318   0.377
 1212SOL    HW2 4536   6.255   0.232   0.476
 1213SOL     OW 4537   6.621   2.628   1.230
 1213SOL    HW1 4538   6.557   2.598   1.300
 1213SOL    HW2 4539   6.589   2.714   1.190
 1214SOL     OW 4540   1.393   2.913   6.772
 1214SOL    HW1 4541   1.434   2.864   6.695
 1214SOL    HW2 4542   1.303   2.873   6.792
 1215SOL     OW 4543   0.879   4.867   3.095
 1215SOL    HW1 4544   0.880   4.786   3.154
 1215SOL    HW2 4545   0.870   4.949   3.150
 1216SOL     OW 4546   5.245   0.407   1.258
 1216SOL    HW1 4547   5.336   0.398   1.218
 1216SOL    HW2 4548   5.216   0.502   1.253
 1217SOL     OW 4549   2.318   4.733   0.705
 1217SOL    HW1 4550   2.244   4.688   0.755
 1217SOL    HW2 4551   2.367   4.795   0.766
 1218SOL     OW 4552   1.771   4.324   4.594
 1218SOL    HW1 4553   1.822   4.354   4.514
 1218SOL    HW2 4554   1.825   4.258   4.646
 1219SOL     OW 4555   4.993   6.371   1.797
 1219SOL    HW1 4556   4.917   6.355   1.733
 1219SOL    HW2 4557   5.050   6.446   1.764
 1220SOL     OW 4558   0.728   4.426   3.123
 1220SOL    HW1 4559   0.701   4.501   3.062
 1220SOL    HW2 4560   0.775   4.355   3.070
 1221SOL     OW 4561   5.490   4.173   6.420
 1221SOL    HW1 4562   5.521   4.227   6.499
 1221SOL    HW2 4563   5.424   4.104   6.451
 1222SOL     OW 4564   6.669   0.707   6.712
 1222SOL    HW1 4565   6.636   0.730   6.803
 1222SOL    HW2 4566   6.764   0.674   6.719
 1223SOL     OW 4567   4.157   1.398   0.088
 1223SOL    HW1 4568   4.104   1.482   0.100
 1223SOL    HW2 4569   4.096   1.319   0.093
 1224SOL     OW 4570   3.658   5.507   0.478
 1224SOL    HW1 4571   3.633   5.444   0.552
 1224SOL    HW2 4572   3.609   5.594   0.491
 1225SOL     OW 4573   3.147   3.342   6.281
 1225SOL    HW1 4574   3.211   3.409   6.319
 1225SOL    HW2 4575   3.190   3.294   6.205
 1226SOL     OW 4576   2.935   5.333   1.697
 1226SOL    HW1 4577   2.985   5.247   1.709
 1226SOL    HW2 4578   2.873   5.325   1.620
 1227SOL     OW 4579   6.688   3.899   6.193
 1227SOL    HW1 4580   6.762   3.905   6.127
 1227SOL    HW2 4581   6.645   3.808   6.187
 1228SOL     OW 4582   3.182   2.063   6.681
 1228SOL    HW1 4583   3.102   2.117   6.653
 1228SOL    HW2 4584   3.252   2.124   6.717
 1229SOL     OW 4585   3.544   4.775   5.450
 1229SOL    HW1 4586   3.527   4.776   5.351
 1229SOL    HW2 4587   3.636   4.810   5.468
 1230SOL     OW 4588   4.788   0.097   2.868
 1230SOL    HW1 4589   4.727   0.141   2.933
 1230SOL    HW2 4590   4.880   0.135   2.876
 1231SOL     OW 4591   1.826   3.459   4.772
 1231SOL    HW1 4592   1.779   3.394   4.712
 1231SOL    HW2 4593   1.800   3.442   4.867
 1232SOL     OW 4594   0.672   1.913   4.816
 1232SOL    HW1 4595   0.632   1.865   4.738
 1232SOL    HW2 4596   0.753   1.864   4.848
 1233SOL     OW 4597   0.894   4.004   4.759
 1233SOL    HW1 4598   0.811   3.989   4.813
 1233SOL    HW2 4599   0.973   3.977   4.813
 1234SOL     OW 4600   6.314   3.867   5.123
 1234SOL    HW1 4601   6.229   3.895   5.078
 1234SOL    HW2 4602   6.292   3.817   5.206
 1235SOL     OW 4603   0.047   5.711   2.761
 1235SOL    HW1 4604   0.077   5.705   2.856
 1235SOL    HW2 4605   0.102   5.650   2.704
 1236SOL     OW 4606   4.972   1.465   0.384
 1236SOL    HW1 4607   5.006   1.448   0.476
 1236SOL    HW2 4608   4.914   1.547   0.384
 1237SOL     OW 4609   1.828   5.137   5.354
 1237SOL    HW1 4610   1.808   5.164   5.260
 1237SOL    HW2 4611   1.923   5.105   5.360
 1238SOL     OW 4612   2.746   0.919   0.271
 1238SOL    HW1 4613   2.683   0.863   0.218
 1238SOL    HW2 4614   2.696   0.994   0.315
 1239SOL     OW 4615   0.199   0.127   5.998
 1239SOL    HW1 4616   0.150   0.067   5.934
 1239SOL    HW2 4617   0.207   0.218   5.958
 1240SOL     OW 4618   5.159   6.188   2.008
 1240SOL    HW1 4619   5.065   6.217   1.991
 1240SOL    HW2 4620   5.201   6.252   2.072
 1241SOL     OW 4621   6.292   4.378   3.672
 1241SOL    HW1 4622   6.276   4.337   3.762
 1241SOL    HW2 4623   6.204   4.397   3.628
 1242SOL     OW 4624   6.821   3.353   1.565
 1242SOL    HW1 4625   6.722   3.344   1.568
 1242SOL    HW2 4626   6.848   3.405   1.484
 1243SOL     OW 4627   6.584   6.654   4.962
 1243SOL    HW1 4628   6.491   6.668   4.997
 1243SOL    HW2 4629   6.632   6.742   4.960
 1244SOL     OW 4630   6.546   0.183   4.572
 1244SOL    HW1 4631   6.559   0.235   4.487
 1244SOL    HW2 4632   6.611   0.108   4.575
 1245SOL     OW 4633   4.585   4.733   6.671
 1245SOL    HW1 4634   4.634   4.808   6.715
 1245SOL    HW2 4635   4.543   4.675   6.741
 1246SOL     OW 4636   2.267   6.067   1.564
 1246SOL    HW1 4637   2.296   6.082   1.470
 1246SOL    HW2 4638   2.172   6.038   1.566
 1247SOL     OW 4639   2.425   0.548   6.375
 1247SOL    HW1 4640   2.338   0.519   6.334
 1247SOL    HW2 4641   2.439   0.646   6.357
 1248SOL     OW 4642   1.750   6.607   4.745
 1248SOL    HW1 4643   1.685   6.557   4.688
 1248SOL    HW2 4644   1.781   6.689   4.696
 1249SOL     OW 4645   5.734   2.438   2.372
 1249SOL    HW1 4646   5.737   2.422   2.274
 1249SOL    HW2 4647   5.690   2.526   2.390
 1250SOL     OW 4648   6.245   4.964   4.620
 1250SOL    HW1 4649   6.308   4.912   4.562
 1250SOL    HW2 4650   6.297   5.032   4.672
 1251SOL     OW 4651   3.500   6.920   4.368
 1251SOL    HW1 4652   3.599   6.917   4.359
 1251SOL    HW2 4653   3.467   7.012   4.346
 1252SOL     OW 4654   4.019   3.061   5.275
 1252SOL    HW1 4655   3.988   3.155   5.261
 1252SOL    HW2 4656   4.013   3.011   5.189
 1253SOL     OW 4657   3.698   5.165   2.060
 1253SOL    HW1 4658   3.707   5.067   2.044
 1253SOL    HW2 4659   3.604   5.193   2.045
 1254SOL     OW 4660   0.339   2.441   2.304
 1254SOL    HW1 4661   0.355   2.399   2.393
 1254SOL    HW2 4662   0.261   2.503   2.310
 1255SOL     OW 4663   6.246   1.806   4.784
 1255SOL    HW1 4664   6.301   1.755   4.718
 1255SOL    HW2 4665   6.303   1.874   4.830
 1256SOL     OW 4666   6.725   6.472   3.766
 1256SOL    HW1 4667   6.705   6.479   3.864
 1256SOL    HW2 4668   6.740   6.376   3.742
 1257SOL     OW 4669   0.209   6.722   4.497
 1257SOL    HW1 4670   0.303   6.688   4.490
 1257SOL    HW2 4671   0.176   6.708   4.590
 1258SOL     OW 4672   2.052   5.888   3.858
 1258SOL    HW1 4673   1.995   5.951   3.911
 1258SOL    HW2 4674   2.140   5.930   3.839
 1259SOL     OW 4675   3.906   1.318   4.099
 1259SOL    HW1 4676   3.825   1.267   4.069
 1259SOL    HW2 4677   3.929   1.292   4.193
 1260SOL     OW 4678   1.575   1.387   6.606
 1260SOL    HW1 4679   1.486   1.423   6.634
 1260SOL    HW2 4680   1.616   1.337   6.683
 1261SOL     OW 4681   0.421   5.634   6.752
 1261SOL    HW1 4682   0.411   5.711   6.814
 1261SOL    HW2 4683   0.335   5.618   6.704
 1262SOL     OW 4684   4.559   4.253   1.154
 1262SOL    HW1 4685   4.617   4.251   1.073
 1262SOL    HW2 4686   4.588   4.182   1.219
 1263SOL     OW 4687   0.593   1.568   2.432
 1263SOL    HW1 4688   0.569   1.665   2.436
 1263SOL    HW2 4689   0.638   1.541   2.517
 1264SOL     OW 4690   6.963   4.494   6.633
 1264SOL    HW1 4691   6.881   4.522   6.683
 1264SOL    HW2 4692   7.015   4.428   6.687
 1265SOL     OW 4693   5.818   5.324   5.074
 1265SOL    HW1 4694   5.817   5.225   5.058
 1265SOL    HW2 4695   5.807   5.371   4.987
 1266SOL     OW 4696   0.575   0.626   4.549
 1266SOL    HW1 4697   0.639   0.679   4.494
 1266SOL    HW2 4698   0.569   0.666   4.641
 1267SOL     OW 4699   5.614   1.530   1.155
 1267SOL    HW1 4700   5.559   1.483   1.087
 1267SOL    HW2 4701   5.573   1.619   1.175
 1268SOL     OW 4702   2.845   3.050   0.043
 1268SOL    HW1 4703   2.942   3.030   0.057
 1268SOL    HW2 4704   2.812   3.001   6.984
 1269SOL     OW 4705   5.918   3.301   4.123
 1269SOL    HW1 4706   5.964   3.325   4.037
 1269SOL    HW2 4707   5.951   3.360   4.196
 1270SOL     OW 4708   2.422   4.569   2.775
 1270SOL    HW1 4709   2.431   4.512   2.693
 1270SOL    HW2 4710   2.512   4.608   2.798
 1271SOL     OW 4711   3.265   1.630   2.384
 1271SOL    HW1 4712   3.184   1.645   2.328
 1271SOL    HW2 4713   3.325   1.710   2.378
 1272SOL     OW 4714   5.511   5.119   6.877
 1272SOL    HW1 4715   5.460   5.190   6.925
 1272SOL    HW2 4716   5.454   5.036   6.870
 1273SOL     OW 4717   0.903   4.352   5.718
 1273SOL    HW1 4718   0.851   4.430   5.682
 1273SOL    HW2 4719   0.841   4.275   5.731
 1274SOL     OW 4720   0.142   4.656   0.698
 1274SOL    HW1 4721   0.104   4.590   0.633
 1274SOL    HW2 4722   0.230   4.690   0.663
 1275SOL     OW 4723   3.840   1.542   3.608
 1275SOL    HW1 4724   3.797   1.460   3.646
 1275SOL    HW2 4725   3.831   1.540   3.508
 1276SOL     OW 4726   5.473   5.272   4.993
 1276SOL    HW1 4727   5.466   5.345   5.061
 1276SOL    HW2 4728   5.551   5.213   5.014
 1277SOL     OW 4729   1.690   5.405   6.321
 1277SOL    HW1 4730   1.697   5.504   6.327
 1277SOL    HW2 4731   1.677   5.377   6.226
 1278SOL     OW 4732   1.704   0.221   5.114
 1278SOL    HW1 4733   1.638   0.296   5.110
 1278SOL    HW2 4734   1.680   0.153   5.045
 1279SOL     OW 4735   2.108   4.663   6.567
 1279SOL    HW1 4736   2.110   4.763   6.566
 1279SOL    HW2 4737   2.134   4.629   6.477
 1280SOL     OW 4738   4.285   6.604   3.360
 1280SOL    HW1 4739   4.245   6.546   3.431
 1280SOL    HW2 4740   4.325   6.686   3.402
 1281SOL     OW 4741   2.399   6.300   3.400
 1281SOL    HW1 4742   2.422   6.273   3.307
 1281SOL    HW2 4743   2.323   6.366   3.398
 1282SOL     OW 4744   0.048   2.281   6.842
 1282SOL    HW1 4745   0.091   2.191   6.851
 1282SOL    HW2 4746   0.049   2.309   6.746
 1283SOL     OW 4747   6.536   2.834   5.269
 1283SOL    HW1 4748   6.571   2.742   5.251
 1283SOL    HW2 4749   6.458   2.828   5.332
 1284SOL     OW 4750   4.030   0.958   1.764
 1284SOL    HW1 4751   4.077   0.927   1.681
 1284SOL    HW2 4752   4.000   1.053   1.752
 1285SOL     OW 4753   4.608   1.644   5.462
 1285SOL    HW1 4754   4.526   1.592   5.439
 1285SOL    HW2 4755   4.609   1.664   5.560
 1286SOL     OW 4756   4.424   2.807   0.978
 1286SOL    HW1 4757   4.340   2.818   0.923
 1286SOL    HW2 4758   4.472   2.725   0.949
 1287SOL     OW 4759   5.303   3.950   5.502
 1287SOL    HW1 4760   5.364   3.977   5.576
 1287SOL    HW2 4761   5.238   3.882   5.536
 1288SOL     OW 4762   3.712   4.637   5.856
 1288SOL    HW1 4763   3.644   4.707   5.835
 1288SOL    HW2 4764   3.709   4.566   5.785
 1289SOL     OW 4765   0.593   0.278   1.689
 1289SOL    HW1 4766   0.641   0.362   1.715
 1289SOL    HW2 4767   0.585   0.273   1.589
 1290SOL     OW 4768   1.226   0.391   0.368
 1290SOL    HW1 4769   1.177   0.339   0.298
 1290SOL    HW2 4770   1.221   0.342   0.455
 1291SOL     OW 4771   0.329   4.242   3.840
 1291SOL    HW1 4772   0.318   4.254   3.938
 1291SOL    HW2 4773   0.416   4.282   3.810
 1292SOL     OW 4774   0.342   5.861   2.292
 1292SOL    HW1 4775   0.421   5.906   2.248
 1292SOL    HW2 4776   0.259   5.912   2.270
 1293SOL     OW 4777   2.446   2.635   6.474
 1293SOL    HW1 4778   2.430   2.594   6.564
 1293SOL    HW2 4779   2.437   2.564   6.404
 1294SOL     OW 4780   0.301   3.865   5.787
 1294SOL    HW1 4781   0.247   3.886   5.706
 1294SOL    HW2 4782   0.268   3.919   5.864
 1295SOL     OW 4783   0.309   3.016   0.950
 1295SOL    HW1 4784   0.307   3.062   0.861
 1295SOL    HW2 4785   0.215   3.006   0.984
 1296SOL     OW 4786   4.546   6.572   5.192
 1296SOL    HW1 4787   4.455   6.576   5.235
 1296SOL    HW2 4788   4.538   6.526   5.104
 1297SOL     OW 4789   0.956   6.644   1.401
 1297SOL    HW1 4790   0.889   6.570   1.391
 1297SOL    HW2 4791   1.048   6.607   1.391
 1298SOL     OW 4792   5.304   6.712   3.736
 1298SOL    HW1 4793   5.362   6.706   3.817
 1298SOL    HW2 4794   5.343   6.655   3.663
 1299SOL     OW 4795   2.501   2.579   3.779
 1299SOL    HW1 4796   2.461   2.641   3.845
 1299SOL    HW2 4797   2.507   2.624   3.690
 1300SOL     OW 4798   2.176   3.435   1.256
 1300SOL    HW1 4799   2.103   3.447   1.324
 1300SOL    HW2 4800   2.147   3.369   1.187
 1301SOL     OW 4801   0.475   0.222   2.015
 1301SOL    HW1 4802   0.558   0.255   1.971
 1301SOL    HW2 4803   0.499   0.175   2.101
 1302SOL     OW 4804   5.254   0.399   5.472
 1302SOL    HW1 4805   5.332   0.462   5.461
 1302SOL    HW2 4806   5.248   0.340   5.391
 1303SOL     OW 4807   4.152   0.601   1.552
 1303SOL    HW1 4808   4.068   0.550   1.566
 1303SOL    HW2 4809   4.131   0.693   1.520
 1304SOL     OW 4810   1.737   0.381   1.044
 1304SOL    HW1 4811   1.784   0.292   1.046
 1304SOL    HW2 4812   1.638   0.366   1.039
 1305SOL     OW 4813   5.698   4.671   0.226
 1305SOL    HW1 4814   5.681   4.657   0.128
 1305SOL    HW2 4815   5.673   4.588   0.276
 1306SOL     OW 4816   1.475   6.089   4.187
 1306SOL    HW1 4817   1.406   6.149   4.228
 1306SOL    HW2 4818   1.441   6.052   4.101
 1307SOL     OW 4819   2.182   3.830   4.406
 1307SOL    HW1 4820   2.111   3.827   4.335
 1307SOL    HW2 4821   2.265   3.785   4.373
 1308SOL     OW 4822   0.178   6.979   5.722
 1308SOL    HW1 4823   0.087   6.986   5.762
 1308SOL    HW2 4824   0.201   0.044   5.678
 1309SOL     OW 4825   5.850   4.525   5.409
 1309SOL    HW1 4826   5.791   4.505   5.487
 1309SOL    HW2 4827   5.809   4.599   5.354
 1310SOL     OW 4828   7.010   3.500   3.046
 1310SOL    HW1 4829   0.058   3.464   2.985
 1310SOL    HW2 4830   6.983   3.430   3.112
 1311SOL     OW 4831   6.832   6.326   6.194
 1311SOL    HW1 4832   6.828   6.425   6.209
 1311SOL    HW2 4833   6.779   6.280   6.265
 1312SOL     OW 4834   1.564   6.872   6.974
 1312SOL    HW1 4835   1.623   6.803   6.932
 1312SOL    HW2 4836   1.621   6.941   7.019
 1313SOL     OW 4837   6.825   5.140   2.515
 1313SOL    HW1 4838   6.816   5.040   2.510
 1313SOL    HW2 4839   6.921   5.165   2.501
 1314SOL     OW 4840   3.636   1.779   4.702
 1314SOL    HW1 4841   3.666   1.857   4.646
 1314SOL    HW2 4842   3.556   1.805   4.756
 1315SOL     OW 4843   6.825   1.271   3.231
 1315SOL    HW1 4844   6.876   1.208   3.289
 1315SOL    HW2 4845   6.764   1.219   3.171
 1316SOL     OW 4846   3.255   6.902   5.525
 1316SOL    HW1 4847   3.254   6.951   5.612
 1316SOL    HW2 4848   3.340   6.923   5.477
 1317SOL     OW 4849   1.507   4.096   5.456
 1317SOL    HW1 4850   1.443   4.113   5.531
 1317SOL    HW2 4851   1.497   4.002   5.423
 1318SOL     OW 4852   1.315   2.867   0.324
 1318SOL    HW1 4853   1.222   2.900   0.313
 1318SOL    HW2 4854   1.341   2.813   0.243
 1319SOL     OW 4855   0.167   5.208   0.559
 1319SOL    HW1 4856   0.148   5.140   0.488
 1319SOL    HW2 4857   0.262   5.240   0.549
 1320SOL     OW 4858   3.471   3.531   7.007
 1320SOL    HW1 4859   3.542   3.586   6.963
 1320SOL    HW2 4860   3.507   3.492   0.070
 1321SOL     OW 4861   5.328   2.438   6.273
 1321SOL    HW1 4862   5.421   2.469   6.254
 1321SOL    HW2 4863   5.272   2.451   6.191
 1322SOL     OW 4864   3.936   1.768   4.715
 1322SOL    HW1 4865   3.837   1.760   4.729
 1322SOL    HW2 4866   3.955   1.795   4.621
 1323SOL     OW 4867   3.023   0.175   6.908
 1323SOL    HW1 4868   2.981   0.260   6.939
 1323SOL    HW2 4869   2.977   0.144   6.824
 1324SOL     OW 4870   0.322   3.286   0.065
 1324SOL    HW1 4871   0.284   3.197   0.090
 1324SOL    HW2 4872   0.248   3.350   0.042
 1325SOL     OW 4873   3.769   6.075   5.370
 1325SOL    HW1 4874   3.743   6.024   5.288
 1325SOL    HW2 4875   3.855   6.122   5.354
 1326SOL     OW 4876   4.860   3.578   5.322
 1326SOL    HW1 4877   4.889   3.482   5.326
 1326SOL    HW2 4878   4.844   3.604   5.226
 1327SOL     OW 4879   1.087   6.488   0.605
 1327SOL    HW1 4880   1.084   6.447   0.697
 1327SOL    HW2 4881   1.182   6.498   0.576
 1328SOL     OW 4882   2.457   3.323   0.352
 1328SOL    HW1 4883   2.451   3.264   0.433
 1328SOL    HW2 4884   2.546   3.311   0.308
 1329SOL     OW 4885   0.752   2.245   2.232
 1329SOL    HW1 4886   0.842   2.277   2.203
 1329SOL    HW2 4887   0.692   2.323   2.248
 1330SOL     OW 4888   1.442   1.906   1.388
 1330SOL    HW1 4889   1.476   1.999   1.400
 1330SOL    HW2 4890   1.504   1.841   1.435
 1331SOL     OW 4891   4.616   2.518   3.490
 1331SOL    HW1 4892   4.631   2.565   3.577
 1331SOL    HW2 4893   4.682   2.552   3.422
 1332SOL     OW 4894   2.886   6.901   0.939
 1332SOL    HW1 4895   2.849   6.934   0.852
 1332SOL    HW2 4896   2.964   6.958   0.966
 1333SOL     OW 4897   2.937   3.352   3.089
 1333SOL    HW1 4898   3.030   3.360   3.053
 1333SOL    HW2 4899   2.932   3.274   3.151
 1334SOL     OW 4900   6.889   0.971   4.022
 1334SOL    HW1 4901   6.871   0.884   3.976
 1334SOL    HW2 4902   6.804   1.007   4.060
 1335SOL     OW 4903   1.859   1.700   2.340
 1335SOL    HW1 4904   1.878   1.780   2.397
 1335SOL    HW2 4905   1.777   1.718   2.286
 1336SOL     OW 4906   3.439   1.848   4.868
 1336SOL    HW1 4907   3.374   1.807   4.933
 1336SOL    HW2 4908   3.423   1.947   4.864
 1337SOL     OW 4909   1.249   1.288   2.512
 1337SOL    HW1 4910   1.227   1.251   2.602
 1337SOL    HW2 4911   1.339   1.331   2.515
 1338SOL     OW 4912   7.016   3.095   4.502
 1338SOL    HW1 4913   0.085   3.112   4.463
 1338SOL    HW2 4914   6.973   3.018   4.454
 1339SOL     OW 4915   6.343   1.712   0.151
 1339SOL    HW1 4916   6.367   1.780   0.082
 1339SOL    HW2 4917   6.280   1.752   0.217
 1340SOL     OW 4918   5.441   1.379   2.682
 1340SOL    HW1 4919   5.436   1.478   2.693
 1340SOL    HW2 4920   5.522   1.343   2.728
 1341SOL     OW 4921   4.565   0.010   6.695
 1341SOL    HW1 4922   4.658   7.013   6.665
 1341SOL    HW2 4923   4.516   6.945   6.707
 1342SOL     OW 4924   2.723   5.530   6.444
 1342SOL    HW1 4925   2.655   5.509   6.513
 1342SOL    HW2 4926   2.683   5.589   6.374
 1343SOL     OW 4927   5.584   5.415   2.364
 1343SOL    HW1 4928   5.510   5.353   2.341
 1343SOL    HW2 4929   5.578   5.497   2.306
 1344SOL     OW 4930   0.633   6.230   4.080
 1344SOL    HW1 4931   0.628   6.222   4.180
 1344SOL    HW2 4932   0.565   6.169   4.039
 1345SOL     OW 4933   0.582   5.007   2.330
 1345SOL    HW1 4934   0.537   4.924   2.297
 1345SOL    HW2 4935   0.514   5.074   2.359
 1346SOL     OW 4936   1.947   5.462   5.679
 1346SOL    HW1 4937   1.901   5.551   5.682
 1346SOL    HW2 4938   1.891   5.397   5.628
 1347SOL     OW 4939   0.289   6.411   6.364
 1347SOL    HW1 4940   0.190   6.405   6.377
 1347SOL    HW2 4941   0.318   6.342   6.297
 1348SOL     OW 4942   6.721   6.233   4.713
 1348SOL    HW1 4943   6.683   6.182   4.636
 1348SOL    HW2 4944   6.806   6.190   4.742
 1349SOL     OW 4945   5.718   2.673   4.551
 1349SOL    HW1 4946   5.627   2.660   4.591
 1349SOL    HW2 4947   5.719   2.757   4.497
 1350SOL     OW 4948   5.353   4.974   5.083
 1350SOL    HW1 4949   5.395   5.062   5.060
 1350SOL    HW2 4950   5.418   4.917   5.133
 1351SOL     OW 4951   5.386   2.600   4.021
 1351SOL    HW1 4952   5.455   2.614   4.093
 1351SOL    HW2 4953   5.406   2.659   3.944
 1352SOL     OW 4954   6.259   5.913   4.525
 1352SOL    HW1 4955   6.316   5.949   4.600
 1352SOL    HW2 4956   6.170   5.886   4.562
 1353SOL     OW 4957   0.683   2.622   0.618
 1353SOL    HW1 4958   0.621   2.562   0.669
 1353SOL    HW2 4959   0.739   2.568   0.556
 1354SOL     OW 4960   0.077   4.736   1.703
 1354SOL    HW1 4961   0.040   4.785   1.624
 1354SOL    HW2 4962   0.003   4.717   1.768
 1355SOL     OW 4963   6.481   3.899   4.623
 1355SOL    HW1 4964   6.399   3.956   4.629
 1355SOL    HW2 4965   6.560   3.951   4.653
 1356SOL     OW 4966   3.779   3.100   2.032
 1356SOL    HW1 4967   3.721   3.027   2.067
 1356SOL    HW2 4968   3.871   3.093   2.072
 1357SOL     OW 4969   0.072   4.290   6.457
 1357SOL    HW1 4970   0.156   4.324   6.415
 1357SOL    HW2 4971   0.020   4.366   6.495
 1358SOL     OW 4972   6.202   6.292   6.556
 1358SOL    HW1 4973   6.121   6.278   6.612
 1358SOL    HW2 4974   6.179   6.348   6.476
 1359SOL     OW 4975   6.029   4.554   2.452
 1359SOL    HW1 4976   6.125   4.527   2.464
 1359SOL    HW2 4977   6.025   4.646   2.413
 1360SOL     OW 4978   2.501   3.864   0.617
 1360SOL    HW1 4979   2.594   3.883   0.587
 1360SOL    HW2 4980   2.458   3.800   0.555
 1361SOL     OW 4981   6.364   5.030   5.246
 1361SOL    HW1 4982   6.304   5.036   5.166
 1361SOL    HW2 4983   6.426   4.952   5.235
 1362SOL     OW 4984   4.138   3.407   3.469
 1362SOL    HW1 4985   4.199   3.486   3.464
 1362SOL    HW2 4986   4.139   3.369   3.561
 1363SOL     OW 4987   0.505   5.119   4.558
 1363SOL    HW1 4988   0.577   5.152   4.619
 1363SOL    HW2 4989   0.416   5.150   4.591
 1364SOL     OW 4990   5.495   3.936   0.328
 1364SOL    HW1 4991   5.565   3.867   0.311
 1364SOL    HW2 4992   5.487   3.996   0.248
 1365SOL     OW 4993   0.508   4.407   6.552
 1365SOL    HW1 4994   0.480   4.384   6.645
 1365SOL    HW2 4995   0.507   4.506   6.540
 1366SOL     OW 4996   1.387   6.088   6.066
 1366SOL    HW1 4997   1.402   6.087   5.967
 1366SOL    HW2 4998   1.291   6.070   6.086
 1367SOL     OW 4999   2.046   6.861   2.229
 1367SOL    HW1 5000   2.092   6.866   2.141
 1367SOL    HW2 5001   2.038   6.953   2.268
 1368SOL     OW 5002   5.077   0.035   4.362
 1368SOL    HW1 5003   5.159   0.084   4.390
 1368SOL    HW2 5004   5.066   6.975   4.419
 1369SOL     OW 5005   1.614   6.598   2.931
 1369SOL    HW1 5006   1.618   6.547   3.017
 1369SOL    HW2 5007   1.688   6.568   2.870
 1370SOL     OW 5008   3.534   0.873   2.048
 1370SOL    HW1 5009   3.441   0.901   2.026
 1370SOL    HW2 5010   3.599   0.931   2.000
 1371SOL     OW 5011   5.001   1.619   4.280
 1371SOL    HW1 5012   4.955   1.620   4.369
 1371SOL    HW2 5013   5.068   1.694   4.277
 1372SOL     OW 5014   1.792   2.920   0.710
 1372SOL    HW1 5015   1.882   2.893   0.676
 1372SOL    HW2 5016   1.730   2.842   0.704
 1373SOL     OW 5017   6.352   4.295   0.184
 1373SOL    HW1 5018   6.396   4.345   0.258
 1373SOL    HW2 5019   6.266   4.341   0.159
 1374SOL     OW 5020   3.957   2.448   0.646
 1374SOL    HW1 5021   3.867   2.415   0.674
 1374SOL    HW2 5022   4.021   2.371   0.639
 1375SOL     OW 5023   0.038   4.750   6.318
 1375SOL    HW1 5024   6.999   4.672   6.303
 1375SOL    HW2 5025   7.013   4.819   6.374
 1376SOL     OW 5026   5.282   3.088   3.399
 1376SOL    HW1 5027   5.223   3.098   3.479
 1376SOL    HW2 5028   5.358   3.153   3.405
 1377SOL     OW 5029   6.903   3.867   5.759
 1377SOL    HW1 5030   6.887   3.797   5.689
 1377SOL    HW2 5031   6.858   3.952   5.732
 1378SOL     OW 5032   6.411   2.020   4.837
 1378SOL    HW1 5033   6.463   2.030   4.753
 1378SOL    HW2 5034   6.443   2.086   4.905
 1379SOL     OW 5035   3.469   6.365   2.223
 1379SOL    HW1 5036   3.474   6.265   2.215
 1379SOL    HW2 5037   3.465   6.405   2.132
 1380SOL     OW 5038   6.871   6.888   2.595
 1380SOL    HW1 5039   6.910   6.970   2.552
 1380SOL    HW2 5040   6.925   6.864   2.676
 1381SOL     OW 5041   5.444   2.793   0.266
 1381SOL    HW1 5042   5.420   2.857   0.340
 1381SOL    HW2 5043   5.499   2.718   0.304
 1382SOL     OW 5044   6.071   5.301   6.946
 1382SOL    HW1 5045   6.074   5.317   0.023
 1382SOL    HW2 5046   5.976   5.283   6.919
 1383SOL     OW 5047   1.295   0.944   0.288
 1383SOL    HW1 5048   1.213   0.899   0.323
 1383SOL    HW2 5049   1.376   0.894   0.317
 1384SOL     OW 5050   3.791   1.529   3.329
 1384SOL    HW1 5051   3.801   1.455   3.263
 1384SOL    HW2 5052   3.741   1.605   3.287
 1385SOL     OW 5053   0.193   2.996   2.803
 1385SOL    HW1 5054   0.279   3.013   2.754
 1385SOL    HW2 5055   0.120   2.978   2.738
 1386SOL     OW 5056   2.072   2.413   4.337
 1386SOL    HW1 5057   1.988   2.371   4.302
 1386SOL    HW2 5058   2.049   2.481   4.406
 1387SOL     OW 5059   3.612   1.073   3.795
 1387SOL    HW1 5060   3.535   1.036   3.847
 1387SOL    HW2 5061   3.695   1.022   3.817
 1388SOL     OW 5062   6.440   6.609   4.299
 1388SOL    HW1 5063   6.472   6.680   4.362
 1388SOL    HW2 5064   6.490   6.524   4.316
 1389SOL     OW 5065   0.359   0.762   3.604
 1389SOL    HW1 5066   0.321   0.721   3.687
 1389SOL    HW2 5067   0.327   0.856   3.596
 1390SOL     OW 5068   4.413   1.325   6.995
 1390SOL    HW1 5069   4.328   1.352   0.019
 1390SOL    HW2 5070   4.490   1.341   0.036
 1391SOL     OW 5071   5.971   1.659   5.699
 1391SOL    HW1 5072   5.906   1.691   5.630
 1391SOL    HW2 5073   5.997   1.735   5.758
 1392SOL     OW 5074   4.593   5.881   6.141
 1392SOL    HW1 5075   4.501   5.856   6.111
 1392SOL    HW2 5076   4.592   5.899   6.240
 1393SOL     OW 5077   6.320   2.263   6.658
 1393SOL    HW1 5078   6.368   2.185   6.697
 1393SOL    HW2 5079   6.331   2.263   6.559
 1394SOL     OW 5080   4.485   6.534   4.062
 1394SOL    HW1 5081   4.485   6.612   4.000
 1394SOL    HW2 5082   4.453   6.564   4.152
 1395SOL     OW 5083   0.214   3.723   2.489
 1395SOL    HW1 5084   0.290   3.687   2.435
 1395SOL    HW2 5085   0.198   3.663   2.568
 1396SOL     OW 5086   1.696   0.533   4.065
 1396SOL    HW1 5087   1.662   0.461   4.005
 1396SOL    HW2 5088   1.793   0.517   4.086
 1397SOL     OW 5089   0.375   6.036   5.330
 1397SOL    HW1 5090   0.351   5.943   5.303
 1397SOL    HW2 5091   0.473   6.050   5.318
 1398SOL     OW 5092   1.624   1.093   0.449
 1398SOL    HW1 5093   1.604   1.010   0.398
 1398SOL    HW2 5094   1.721   1.096   0.471
 1399SOL     OW 5095   4.136   0.413   0.855
 1399SOL    HW1 5096   4.225   0.452   0.879
 1399SOL    HW2 5097   4.100   0.460   0.774
 1400SOL     OW 5098   6.604   0.666   4.232
 1400SOL    HW1 5099   6.619   0.621   4.320
 1400SOL    HW2 5100   6.545   0.608   4.175
 1401SOL     OW 5101   5.737   0.099   4.189
 1401SOL    HW1 5102   5.676   0.166   4.146
 1401SOL    HW2 5103   5.682   0.031   4.238
 1402SOL     OW 5104   5.809   3.964   0.555
 1402SOL    HW1 5105   5.797   3.865   0.550
 1402SOL    HW2 5106   5.878   3.993   0.489
 1403SOL     OW 5107   3.429   3.223   0.372
 1403SOL    HW1 5108   3.411   3.318   0.345
 1403SOL    HW2 5109   3.371   3.199   0.450
 1404SOL     OW 5110   4.819   0.158   1.280
 1404SOL    HW1 5111   4.787   0.121   1.193
 1404SOL    HW2 5112   4.912   0.126   1.298
 1405SOL     OW 5113   1.710   3.604   1.191
 1405SOL    HW1 5114   1.671   3.679   1.138
 1405SOL    HW2 5115   1.685   3.517   1.149
 1406SOL     OW 5116   2.239   3.796   1.480
 1406SOL    HW1 5117   2.305   3.783   1.554
 1406SOL    HW2 5118   2.155   3.834   1.517
 1407SOL     OW 5119   0.494   3.423   1.847
 1407SOL    HW1 5120   0.494   3.497   1.780
 1407SOL    HW2 5121   0.516   3.337   1.801
 1408SOL     OW 5122   6.239   5.984   6.903
 1408SOL    HW1 5123   6.174   5.913   6.879
 1408SOL    HW2 5124   6.327   5.942   6.928
 1409SOL     OW 5125   6.858   1.668   5.540
 1409SOL    HW1 5126   6.844   1.766   5.555
 1409SOL    HW2 5127   6.956   1.648   5.537
 1410SOL     OW 5128   2.355   3.308   6.171
 1410SOL    HW1 5129   2.380   3.235   6.234
 1410SOL    HW2 5130   2.369   3.276   6.077
 1411SOL     OW 5131   3.420   6.484   0.061
 1411SOL    HW1 5132   3.349   6.515   0.123
 1411SOL    HW2 5133   3.401   6.517   6.990
 1412SOL     OW 5134   0.642   3.286   0.860
 1412SOL    HW1 5135   0.737   3.254   0.858
 1412SOL    HW2 5136   0.596   3.256   0.777
 1413SOL     OW 5137   2.020   2.101   4.662
 1413SOL    HW1 5138   2.069   2.116   4.576
 1413SOL    HW2 5139   1.983   2.008   4.663
 1414SOL     OW 5140   1.195   3.385   1.874
 1414SOL    HW1 5141   1.141   3.314   1.829
 1414SOL    HW2 5142   1.246   3.436   1.805
 1415SOL     OW 5143   2.529   2.031   4.601
 1415SOL    HW1 5144   2.453   2.076   4.648
 1415SOL    HW2 5145   2.615   2.051   4.647
 1416SOL     OW 5146   4.036   0.299   4.967
 1416SOL    HW1 5147   4.066   0.218   4.916
 1416SOL    HW2 5148   3.955   0.337   4.923
 1417SOL     OW 5149   2.854   3.427   6.173
 1417SOL    HW1 5150   2.880   3.515   6.133
 1417SOL    HW2 5151   2.929   3.391   6.227
 1418SOL     OW 5152   3.446   3.953   0.193
 1418SOL    HW1 5153   3.394   4.008   0.258
 1418SOL    HW2 5154   3.500   4.013   0.134
 1419SOL     OW 5155   1.348   5.028   4.343
 1419SOL    HW1 5156   1.429   5.065   4.389
 1419SOL    HW2 5157   1.351   5.054   4.246
 1420SOL     OW 5158   3.941   5.237   2.489
 1420SOL    HW1 5159   4.015   5.217   2.553
 1420SOL    HW2 5160   3.853   5.226   2.534
 1421SOL     OW 5161   0.693   4.523   4.741
 1421SOL    HW1 5162   0.699   4.541   4.642
 1421SOL    HW2 5163   0.740   4.438   4.762
 1422SOL     OW 5164   2.646   4.078   5.594
 1422SOL    HW1 5165   2.648   4.110   5.499
 1422SOL    HW2 5166   2.562   4.110   5.637
 1423SOL     OW 5167   4.434   1.721   4.691
 1423SOL    HW1 5168   4.379   1.776   4.754
 1423SOL    HW2 5169   4.440   1.768   4.602
 1424SOL     OW 5170   6.115   3.232   6.131
 1424SOL    HW1 5171   6.054   3.196   6.060
 1424SOL    HW2 5172   6.192   3.169   6.143
 1425SOL     OW 5173   3.362   6.334   5.057
 1425SOL    HW1 5174   3.396   6.285   5.137
 1425SOL    HW2 5175   3.324   6.269   4.992
 1426SOL     OW 5176   2.001   1.471   6.781
 1426SOL    HW1 5177   2.082   1.453   6.725
 1426SOL    HW2 5178   1.925   1.497   6.722
 1427SOL     OW 5179   1.040   0.368   3.305
 1427SOL    HW1 5180   1.109   0.436   3.329
 1427SOL    HW2 5181   1.057   0.283   3.357
 1428SOL     OW 5182   0.438   2.271   2.083
 1428SOL    HW1 5183   0.398   2.282   2.174
 1428SOL    HW2 5184   0.472   2.359   2.050
 1429SOL     OW 5185   6.253   1.508   6.851
 1429SOL    HW1 5186   6.268   1.599   6.813
 1429SOL    HW2 5187   6.234   1.515   6.949
 1430SOL     OW 5188   2.754   4.689   4.139
 1430SOL    HW1 5189   2.680   4.699   4.205
 1430SOL    HW2 5190   2.789   4.595   4.141
 1431SOL     OW 5191   2.953   1.533   5.847
 1431SOL    HW1 5192   2.977   1.436   5.840
 1431SOL    HW2 5193   3.006   1.585   5.780
 1432SOL     OW 5194   2.364   1.364   0.807
 1432SOL    HW1 5195   2.416   1.444   0.837
 1432SOL    HW2 5196   2.406   1.281   0.842
 1433SOL     OW 5197   2.973   0.739   3.374
 1433SOL    HW1 5198   3.064   0.702   3.355
 1433SOL    HW2 5199   2.929   0.684   3.446
 1434SOL     OW 5200   0.303   2.418   6.860
 1434SOL    HW1 5201   0.293   2.353   6.935
 1434SOL    HW2 5202   0.256   2.382   6.779
 1435SOL     OW 5203   0.936   6.815   3.532
 1435SOL    HW1 5204   0.980   6.747   3.474
 1435SOL    HW2 5205   0.839   6.796   3.538
 1436SOL     OW 5206   5.942   3.321   0.634
 1436SOL    HW1 5207   6.027   3.276   0.660
 1436SOL    HW2 5208   5.874   3.251   0.611
 1437SOL     OW 5209   4.660   1.374   6.064
 1437SOL    HW1 5210   4.690   1.285   6.029
 1437SOL    HW2 5211   4.736   1.439   6.059
 1438SOL     OW 5212   2.679   1.088   1.282
 1438SOL    HW1 5213   2.603   1.133   1.329
 1438SOL    HW2 5214   2.689   0.995   1.316
 1439SOL     OW 5215   0.563   5.899   0.141
 1439SOL    HW1 5216   0.576   5.895   0.240
 1439SOL    HW2 5217   0.619   5.974   0.104
 1440SOL     OW 5218   3.219   3.564   3.903
 1440SOL    HW1 5219   3.141   3.525   3.953
 1440SOL    HW2 5220   3.220   3.528   3.810
 1441SOL     OW 5221   6.357   3.789   3.681
 1441SOL    HW1 5222   6.280   3.852   3.677
 1441SOL    HW2 5223   6.389   3.769   3.588
 1442SOL     OW 5224   5.620   4.582   0.580
 1442SOL    HW1 5225   5.552   4.559   0.650
 1442SOL    HW2 5226   5.627   4.506   0.515
 1443SOL     OW 5227   0.868   0.382   3.645
 1443SOL    HW1 5228   0.852   0.374   3.744
 1443SOL    HW2 5229   0.813   0.313   3.597
 1444SOL     OW 5230   4.477   6.569   3.106
 1444SOL    HW1 5231   4.403   6.596   3.167
 1444SOL    HW2 5232   4.562   6.613   3.134
 1445SOL     OW 5233   0.544   2.619   1.440
 1445SOL    HW1 5234   0.635   2.582   1.457
 1445SOL    HW2 5235   0.490   2.615   1.525
 1446SOL     OW 5236   4.393   2.086   0.443
 1446SOL    HW1 5237   4.442   2.168   0.472
 1446SOL    HW2 5238   4.324   2.110   0.375
 1447SOL     OW 5239   6.496   0.991   5.161
 1447SOL    HW1 5240   6.567   0.950   5.104
 1447SOL    HW2 5241   6.524   1.083   5.187
 1448SOL     OW 5242   6.252   1.561   0.606
 1448SOL    HW1 5243   6.206   1.483   0.564
 1448SOL    HW2 5244   6.334   1.583   0.553
 1449SOL     OW 5245   5.830   6.555   0.603
 1449SOL    HW1 5246   5.801   6.648   0.580
 1449SOL    HW2 5247   5.844   6.548   0.701
 1450SOL     OW 5248   6.097   2.912   2.839
 1450SOL    HW1 5249   6.068   2.859   2.919
 1450SOL    HW2 5250   6.034   2.896   2.764
 1451SOL     OW 5251   2.536   6.747   3.010
 1451SOL    HW1 5252   2.561   6.843   3.021
 1451SOL    HW2 5253   2.597   6.703   2.944
 1452SOL     OW 5254   5.288   0.552   4.864
 1452SOL    HW1 5255   5.243   0.594   4.942
 1452SOL    HW2 5256   5.219   0.521   4.798
 1453SOL     OW 5257   5.405   3.867   5.003
 1453SOL    HW1 5258   5.364   3.816   5.078
 1453SOL    HW2 5259   5.498   3.834   4.987
 1454SOL     OW 5260   5.316   2.581   2.042
 1454SOL    HW1 5261   5.221   2.561   2.017
 1454SOL    HW2 5262   5.330   2.680   2.043
 1455SOL     OW 5263   0.996   0.571   1.833
 1455SOL    HW1 5264   1.004   0.617   1.921
 1455SOL    HW2 5265   1.063   0.610   1.769
 1456SOL     OW 5266   6.935   6.778   4.949
 1456SOL    HW1 5267   0.005   6.820   4.953
 1456SOL    HW2 5268   6.935   6.693   5.002
 1457SOL     OW 5269   1.319   6.978   3.399
 1457SOL    HW1 5270   1.306   7.005   3.303
 1457SOL    HW2 5271   1.405   6.928   3.408
 1458SOL     OW 5272   4.895   0.052   5.296
 1458SOL    HW1 5273   4.991   0.025   5.309
 1458SOL    HW2 5274   4.881   0.144   5.333
 1459SOL     OW 5275   2.717   6.122   6.694
 1459SOL    HW1 5276   2.746   6.215   6.716
 1459SOL    HW2 5277   2.617   6.117   6.690
 1460SOL     OW 5278   0.306   6.436   7.007
 1460SOL    HW1 5279   0.271   6.525   6.978
 1460SOL    HW2 5280   0.229   6.373   0.002
 1461SOL     OW 5281   6.443   4.536   3.383
 1461SOL    HW1 5282   6.412   4.626   3.413
 1461SOL    HW2 5283   6.377   4.496   3.320
 1462SOL     OW 5284   6.498   1.550   0.440
 1462SOL    HW1 5285   6.542   1.612   0.374
 1462SOL    HW2 5286   6.563   1.528   0.512
 1463SOL     OW 5287   0.702   0.324   5.434
 1463SOL    HW1 5288   0.721   0.226   5.442
 1463SOL    HW2 5289   0.604   0.339   5.432
 1464SOL     OW 5290   0.225   6.924   0.307
 1464SOL    HW1 5291   0.246   6.849   0.245
 1464SOL    HW2 5292   0.128   6.922   0.330
 1465SOL     OW 5293   0.755   1.133   3.255
 1465SOL    HW1 5294   0.803   1.045   3.260
 1465SOL    HW2 5295   0.754   1.165   3.160
 1466SOL     OW 5296   6.984   6.317   2.639
 1466SOL    HW1 5297   0.028   6.390   2.652
 1466SOL    HW2 5298   0.009   6.229   2.641
 1467SOL     OW 5299   1.777   0.469   3.072
 1467SOL    HW1 5300   1.772   0.463   2.973
 1467SOL    HW2 5301   1.849   0.409   3.106
 1468SOL     OW 5302   5.628   5.849   3.250
 1468SOL    HW1 5303   5.709   5.867   3.304
 1468SOL    HW2 5304   5.653   5.798   3.167
 1469SOL     OW 5305   0.177   0.509   2.829
 1469SOL    HW1 5306   0.171   0.524   2.731
 1469SOL    HW2 5307   0.244   0.437   2.848
 1470SOL     OW 5308   1.396   0.653   2.740
 1470SOL    HW1 5309   1.408   0.701   2.827
 1470SOL    HW2 5310   1.484   0.647   2.693
 1471SOL     OW 5311   6.433   0.855   6.602
 1471SOL    HW1 5312   6.364   0.882   6.670
 1471SOL    HW2 5313   6.510   0.811   6.648
 1472SOL     OW 5314   4.771   6.061   4.757
 1472SOL    HW1 5315   4.828   6.007   4.819
 1472SOL    HW2 5316   4.694   6.006   4.725
 1473SOL     OW 5317   5.861   5.740   3.119
 1473SOL    HW1 5318   5.903   5.668   3.064
 1473SOL    HW2 5319   5.879   5.829   3.076
 1474SOL     OW 5320   5.988   5.595   4.075
 1474SOL    HW1 5321   6.072   5.544   4.057
 1474SOL    HW2 5322   5.986   5.676   4.016
 1475SOL     OW 5323   0.315   0.400   1.799
 1475SOL    HW1 5324   0.398   0.345   1.802
 1475SOL    HW2 5325   0.246   0.362   1.860
 1476SOL     OW 5326   1.156   1.040   1.889
 1476SOL    HW1 5327   1.232   0.979   1.913
 1476SOL    HW2 5328   1.081   1.026   1.953
 1477SOL     OW 5329   3.348   0.644   5.958
 1477SOL    HW1 5330   3.256   0.625   5.923
 1477SOL    HW2 5331   3.402   0.689   5.887
 1478SOL     OW 5332   6.040   4.702   0.899
 1478SOL    HW1 5333   5.994   4.706   0.810
 1478SOL    HW2 5334   6.046   4.794   0.938
 1479SOL     OW 5335   1.242   4.861   0.556
 1479SOL    HW1 5336   1.335   4.859   0.520
 1479SOL    HW2 5337   1.188   4.787   0.516
 1480SOL     OW 5338   2.225   1.123   6.551
 1480SOL    HW1 5339   2.254   1.173   6.632
 1480SOL    HW2 5340   2.143   1.165   6.513
 1481SOL     OW 5341   5.777   1.687   5.065
 1481SOL    HW1 5342   5.688   1.683   5.111
 1481SOL    HW2 5343   5.790   1.777   5.025
 1482SOL     OW 5344   5.840   1.439   1.252
 1482SOL    HW1 5345   5.825   1.462   1.348
 1482SOL    HW2 5346   5.756   1.455   1.201
 1483SOL     OW 5347   6.865   2.980   0.018
 1483SOL    HW1 5348   6.901   3.054   6.982
 1483SOL    HW2 5349   6.794   2.930   6.989
 1484SOL     OW 5350   6.523   4.174   2.935
 1484SOL    HW1 5351   6.535   4.135   3.026
 1484SOL    HW2 5352   6.442   4.232   2.934
 1485SOL     OW 5353   5.242   2.706   2.503
 1485SOL    HW1 5354   5.307   2.777   2.476
 1485SOL    HW2 5355   5.182   2.685   2.425
 1486SOL     OW 5356   4.558   2.240   3.513
 1486SOL    HW1 5357   4.510   2.241   3.425
 1486SOL    HW2 5358   4.583   2.334   3.538
 1487SOL     OW 5359   6.823   1.699   6.714
 1487SOL    HW1 5360   6.823   1.633   6.639
 1487SOL    HW2 5361   6.755   1.671   6.782
 1488SOL     OW 5362   4.804   1.898   2.979
 1488SOL    HW1 5363   4.858   1.848   2.911
 1488SOL    HW2 5364   4.732   1.838   3.015
 1489SOL     OW 5365   3.833   4.931   4.469
 1489SOL    HW1 5366   3.745   4.941   4.516
 1489SOL    HW2 5367   3.902   4.987   4.515
 1490SOL     OW 5368   1.114   1.905   0.516
 1490SOL    HW1 5369   1.113   1.808   0.489
 1490SOL    HW2 5370   1.059   1.917   0.598
 1491SOL     OW 5371   6.401   4.110   3.441
 1491SOL    HW1 5372   6.332   4.142   3.505
 1491SOL    HW2 5373   6.453   4.035   3.482
 1492SOL     OW 5374   5.158   1.965   1.697
 1492SOL    HW1 5375   5.059   1.974   1.686
 1492SOL    HW2 5376   5.181   1.870   1.717
 1493SOL     OW 5377   4.617   6.879   4.764
 1493SOL    HW1 5378   4.707   6.847   4.795
 1493SOL    HW2 5379   4.623   6.907   4.668
 1494SOL     OW 5380   3.448   2.744   5.311
 1494SOL    HW1 5381   3.458   2.644   5.305
 1494SOL    HW2 5382   3.398   2.767   5.395
 1495SOL     OW 5383   0.283   3.310   3.120
 1495SOL    HW1 5384   0.206   3.247   3.121
 1495SOL    HW2 5385   0.257   3.396   3.163
 1496SOL     OW 5386   0.401   0.514   1.547
 1496SOL    HW1 5387   0.368   0.465   1.628
 1496SOL    HW2 5388   0.467   0.583   1.574
 1497SOL     OW 5389   0.133   5.118   4.199
 1497SOL    HW1 5390   0.170   5.061   4.271
 1497SOL    HW2 5391   0.145   5.214   4.223
 1498SOL     OW 5392   2.432   4.954   6.428
 1498SOL    HW1 5393   2.437   4.856   6.406
 1498SOL    HW2 5394   2.514   4.981   6.478
 1499SOL     OW 5395   1.108   4.262   4.733
 1499SOL    HW1 5396   1.195   4.229   4.696
 1499SOL    HW2 5397   1.049   4.183   4.754
 1500SOL     OW 5398   5.948   6.847   0.980
 1500SOL    HW1 5399   5.930   6.758   1.023
 1500SOL    HW2 5400   6.007   6.901   1.039
 1501SOL     OW 5401   3.878   0.716   6.731
 1501SOL    HW1 5402   3.905   0.737   6.825
 1501SOL    HW2 5403   3.869   0.801   6.679
 1502SOL     OW 5404   6.452   6.538   0.158
 1502SOL    HW1 5405   6.356   6.510   0.165
 1502SOL    HW2 5406   6.492   6.498   0.076
 1503SOL     OW 5407   2.085   2.827   1.003
 1503SOL    HW1 5408   2.077   2.899   0.934
 1503SOL    HW2 5409   1.999   2.819   1.053
 1504SOL     OW 5410   2.498   0.272   4.603
 1504SOL    HW1 5411   2.540   0.220   4.677
 1504SOL    HW2 5412   2.400   0.285   4.623
 1505SOL     OW 5413   5.110   0.411   6.017
 1505SOL    HW1 5414   5.120   0.370   6.108
 1505SOL    HW2 5415   5.083   0.507   6.027
 1506SOL     OW 5416   1.186   4.772   3.651
 1506SOL    HW1 5417   1.123   4.719   3.707
 1506SOL    HW2 5418   1.228   4.843   3.706
 1507SOL     OW 5419   1.460   1.481   4.545
 1507SOL    HW1 5420   1.505   1.431   4.470
 1507SOL    HW2 5421   1.363   1.457   4.548
 1508SOL     OW 5422   4.858   0.127   0.774
 1508SOL    HW1 5423   4.814   0.186   0.706
 1508SOL    HW2 5424   4.860   0.033   0.740
 1509SOL     OW 5425   4.402   2.466   6.736
 1509SOL    HW1 5426   4.307   2.490   6.718
 1509SOL    HW2 5427   4.451   2.456   6.650
 1510SOL     OW 5428   6.474   2.669   4.343
 1510SOL    HW1 5429   6.514   2.643   4.254
 1510SOL    HW2 5430   6.379   2.698   4.329
 1511SOL     OW 5431   2.266   1.464   6.679
 1511SOL    HW1 5432   2.351   1.420   6.709
 1511SOL    HW2 5433   2.275   1.493   6.584
 1512SOL     OW 5434   6.485   6.862   2.324
 1512SOL    HW1 5435   6.395   6.836   2.357
 1512SOL    HW2 5436   6.550   6.788   2.342
 1513SOL     OW 5437   3.696   0.590   3.580
 1513SOL    HW1 5438   3.622   0.524   3.568
 1513SOL    HW2 5439   3.684   0.638   3.667
 1514SOL     OW 5440   5.309   1.595   5.119
 1514SOL    HW1 5441   5.268   1.544   5.195
 1514SOL    HW2 5442   5.303   1.542   5.035
 1515SOL     OW 5443   6.866   3.671   5.558
 1515SOL    HW1 5444   6.950   3.664   5.504
 1515SOL    HW2 5445   6.810   3.590   5.541
 1516SOL     OW 5446   0.991   0.941   0.997
 1516SOL    HW1 5447   0.976   0.887   0.914
 1516SOL    HW2 5448   0.933   0.905   1.070
 1517SOL     OW 5449   4.415   5.341   4.001
 1517SOL    HW1 5450   4.402   5.275   3.927
 1517SOL    HW2 5451   4.471   5.417   3.968
 1518SOL     OW 5452   6.794   4.104   6.858
 1518SOL    HW1 5453   6.779   4.034   6.927
 1518SOL    HW2 5454   6.865   4.167   6.889
 1519SOL     OW 5455   0.090   4.244   1.142
 1519SOL    HW1 5456   0.054   4.168   1.194
 1519SOL    HW2 5457   0.016   4.304   1.113
 1520SOL     OW 5458   2.043   3.320   2.348
 1520SOL    HW1 5459   2.080   3.330   2.440
 1520SOL    HW2 5460   2.083   3.239   2.305
 1521SOL     OW 5461   1.776   3.120   0.099
 1521SOL    HW1 5462   1.738   3.204   0.138
 1521SOL    HW2 5463   1.874   3.114   0.121
 1522SOL     OW 5464   6.894   1.824   6.305
 1522SOL    HW1 5465   6.829   1.898   6.323
 1522SOL    HW2 5466   6.903   1.811   6.206
 1523SOL     OW 5467   5.095   3.579   6.499
 1523SOL    HW1 5468   5.140   3.618   6.580
 1523SOL    HW2 5469   5.058   3.489   6.522
 1524SOL     OW 5470   1.202   1.809   1.649
 1524SOL    HW1 5471   1.116   1.784   1.693
 1524SOL    HW2 5472   1.193   1.801   1.550
 1525SOL     OW 5473   4.635   1.596   5.777
 1525SOL    HW1 5474   4.734   1.589   5.764
 1525SOL    HW2 5475   4.612   1.684   5.817
 1526SOL     OW 5476   0.391   1.173   1.049
 1526SOL    HW1 5477   0.450   1.228   0.990
 1526SOL    HW2 5478   0.424   1.078   1.050
 1527SOL     OW 5479   3.205   1.766   5.003
 1527SOL    HW1 5480   3.162   1.704   4.937
 1527SOL    HW2 5481   3.154   1.764   5.089
 1528SOL     OW 5482   4.921   6.117   2.532
 1528SOL    HW1 5483   4.935   6.119   2.433
 1528SOL    HW2 5484   4.889   6.026   2.559
 1529SOL     OW 5485   4.956   1.096   6.114
 1529SOL    HW1 5486   4.908   1.126   6.031
 1529SOL    HW2 5487   4.889   1.059   6.178
 1530SOL     OW 5488   3.021   6.539   1.505
 1530SOL    HW1 5489   2.982   6.571   1.418
 1530SOL    HW2 5490   2.959   6.473   1.547
 1531SOL     OW 5491   5.713   1.128   5.279
 1531SOL    HW1 5492   5.633   1.186   5.291
 1531SOL    HW2 5493   5.763   1.157   5.197
 1532SOL     OW 5494   3.014   2.164   4.760
 1532SOL    HW1 5495   3.095   2.150   4.703
 1532SOL    HW2 5496   3.040   2.209   4.845
 1533SOL     OW 5497   6.883   3.102   6.338
 1533SOL    HW1 5498   6.864   3.200   6.332
 1533SOL    HW2 5499   6.982   3.087   6.343
 1534SOL     OW 5500   2.071   5.468   0.133
 1534SOL    HW1 5501   2.022   5.392   0.174
 1534SOL    HW2 5502   2.008   5.543   0.114
 1535SOL     OW 5503   5.271   5.112   4.549
 1535SOL    HW1 5504   5.199   5.077   4.609
 1535SOL    HW2 5505   5.360   5.094   4.590
 1536SOL     OW 5506   3.220   5.155   4.083
 1536SOL    HW1 5507   3.262   5.075   4.040
 1536SOL    HW2 5508   3.251   5.162   4.177
 1537SOL     OW 5509   3.224   5.268   3.594
 1537SOL    HW1 5510   3.230   5.329   3.515
 1537SOL    HW2 5511   3.222   5.173   3.563
 1538SOL     OW 5512   3.071   4.938   6.495
 1538SOL    HW1 5513   3.094   5.035   6.504
 1538SOL    HW2 5514   3.104   4.904   6.407
 1539SOL     OW 5515   3.584   4.269   1.558
 1539SOL    HW1 5516   3.492   4.296   1.530
 1539SOL    HW2 5517   3.580   4.215   1.642
 1540SOL     OW 5518   1.423   0.302   4.409
 1540SOL    HW1 5519   1.332   0.340   4.427
 1540SOL    HW2 5520   1.414   0.204   4.390
 1541SOL     OW 5521   4.032   2.618   1.007
 1541SOL    HW1 5522   4.005   2.525   1.033
 1541SOL    HW2 5523   3.985   2.644   0.923
 1542SOL     OW 5524   0.089   5.886   2.003
 1542SOL    HW1 5525   0.171   5.931   1.967
 1542SOL    HW2 5526   0.098   5.787   1.994
 1543SOL     OW 5527   3.448   3.482   3.331
 1543SOL    HW1 5528   3.388   3.500   3.253
 1543SOL    HW2 5529   3.429   3.391   3.368
 1544SOL     OW 5530   2.989   3.749   1.993
 1544SOL    HW1 5531   2.953   3.670   2.043
 1544SOL    HW2 5532   3.019   3.818   2.059
 1545SOL     OW 5533   5.421   0.593   5.193
 1545SOL    HW1 5534   5.332   0.623   5.226
 1545SOL    HW2 5535   5.489   0.663   5.211
 1546SOL     OW 5536   5.812   0.371   6.357
 1546SOL    HW1 5537   5.811   0.447   6.422
 1546SOL    HW2 5538   5.907   0.341   6.342
 1547SOL     OW 5539   2.286   4.262   2.828
 1547SOL    HW1 5540   2.244   4.219   2.748
 1547SOL    HW2 5541   2.343   4.339   2.799
 1548SOL     OW 5542   4.076   4.229   5.864
 1548SOL    HW1 5543   4.059   4.283   5.946
 1548SOL    HW2 5544   4.020   4.264   5.789
 1549SOL     OW 5545   6.584   1.336   1.865
 1549SOL    HW1 5546   6.525   1.261   1.892
 1549SOL    HW2 5547   6.591   1.402   1.940
 1550SOL     OW 5548   2.849   6.801   5.599
 1550SOL    HW1 5549   2.800   6.731   5.650
 1550SOL    HW2 5550   2.852   6.775   5.502
 1551SOL     OW 5551   2.193   3.158   1.602
 1551SOL    HW1 5552   2.253   3.204   1.537
 1551SOL    HW2 5553   2.243   3.142   1.687
 1552SOL     OW 5554   1.068   7.010   0.873
 1552SOL    HW1 5555   1.034   0.067   0.821
 1552SOL    HW2 5556   1.016   6.929   0.847
 1553SOL     OW 5557   5.788   1.623   6.915
 1553SOL    HW1 5558   5.854   1.698   6.904
 1553SOL    HW2 5559   5.827   1.540   6.875
 1554SOL     OW 5560   4.227   2.217   2.873
 1554SOL    HW1 5561   4.185   2.213   2.782
 1554SOL    HW2 5562   4.282   2.300   2.881
 1555SOL     OW 5563   4.804   2.475   5.180
 1555SOL    HW1 5564   4.827   2.397   5.238
 1555SOL    HW2 5565   4.831   2.560   5.226
 1556SOL     OW 5566   3.402   0.032   0.952
 1556SOL    HW1 5567   3.345   0.099   0.904
 1556SOL    HW2 5568   3.410   0.057   1.048
 1557SOL     OW 5569   2.482   2.837   0.957
 1557SOL    HW1 5570   2.428   2.834   1.041
 1557SOL    HW2 5571   2.550   2.910   0.964
 1558SOL     OW 5572   5.814   2.249   5.455
 1558SOL    HW1 5573   5.910   2.243   5.482
 1558SOL    HW2 5574   5.807   2.244   5.356
 1559SOL     OW 5575   0.363   3.788   2.255
 1559SOL    HW1 5576   0.338   3.881   2.230
 1559SOL    HW2 5577   0.347   3.726   2.178
 1560SOL     OW 5578   3.629   1.216   0.469
 1560SOL    HW1 5579   3.661   1.132   0.513
 1560SOL    HW2 5580   3.631   1.291   0.535
 1561SOL     OW 5581   5.436   6.322   2.359
 1561SOL    HW1 5582   5.470   6.390   2.425
 1561SOL    HW2 5583   5.509   6.258   2.337
 1562SOL     OW 5584   2.636   6.480   2.423
 1562SOL    HW1 5585   2.571   6.497   2.497
 1562SOL    HW2 5586   2.706   6.416   2.454
 1563SOL     OW 5587   2.824   2.200   5.127
 1563SOL    HW1 5588   2.885   2.219   5.205
 1563SOL    HW2 5589   2.850   2.258   5.050
 1564SOL     OW 5590   1.248   1.195   2.255
 1564SOL    HW1 5591   1.316   1.127   2.285
 1564SOL    HW2 5592   1.214   1.244   2.335
 1565SOL     OW 5593   3.995   5.445   4.641
 1565SOL    HW1 5594   3.956   5.531   4.610
 1565SOL    HW2 5595   4.034   5.396   4.564
 1566SOL     OW 5596   5.364   4.572   3.671
 1566SOL    HW1 5597   5.311   4.497   3.633
 1566SOL    HW2 5598   5.313   4.657   3.661
 1567SOL     OW 5599   6.044   5.366   6.315
 1567SOL    HW1 5600   6.134   5.324   6.310
 1567SOL    HW2 5601   6.034   5.413   6.403
 1568SOL     OW 5602   2.498   6.155   3.835
 1568SOL    HW1 5603   2.502   6.231   3.770
 1568SOL    HW2 5604   2.479   6.191   3.927
 1569SOL     OW 5605   3.486   0.530   2.870
 1569SOL    HW1 5606   3.463   0.448   2.817
 1569SOL    HW2 5607   3.545   0.590   2.816
 1570SOL     OW 5608   2.800   6.655   6.567
 1570SOL    HW1 5609   2.823   6.606   6.483
 1570SOL    HW2 5610   2.723   6.610   6.612
 1571SOL     OW 5611   1.278   2.359   3.173
 1571SOL    HW1 5612   1.377   2.366   3.165
 1571SOL    HW2 5613   1.254   2.305   3.253
 1572SOL     OW 5614   1.633   5.552   1.710
 1572SOL    HW1 5615   1.628   5.639   1.660
 1572SOL    HW2 5616   1.701   5.560   1.783
 1573SOL     OW 5617   5.155   5.707   1.650
 1573SOL    HW1 5618   5.186   5.641   1.582
 1573SOL    HW2 5619   5.104   5.780   1.604
 1574SOL     OW 5620   6.004   3.146   2.077
 1574SOL    HW1 5621   5.970   3.164   2.169
 1574SOL    HW2 5622   6.093   3.100   2.083
 1575SOL     OW 5623   1.642   0.729   1.235
 1575SOL    HW1 5624   1.553   0.682   1.237
 1575SOL    HW2 5625   1.647   0.793   1.311
 1576SOL     OW 5626   0.766   6.132   2.429
 1576SOL    HW1 5627   0.794   6.208   2.371
 1576SOL    HW2 5628   0.676   6.151   2.469
 1577SOL     OW 5629   3.069   0.644   6.382
 1577SOL    HW1 5630   3.137   0.662   6.310
 1577SOL    HW2 5631   3.086   0.555   6.423
 1578SOL     OW 5632   4.885   0.861   6.898
 1578SOL    HW1 5633   4.921   0.767   6.897
 1578SOL    HW2 5634   4.787   0.859   6.883
 1579SOL     OW 5635   0.734   3.049   1.512
 1579SOL    HW1 5636   0.667   2.986   1.474
 1579SOL    HW2 5637   0.780   3.005   1.589
 1580SOL     OW 5638   3.235   4.151   3.313
 1580SOL    HW1 5639   3.240   4.094   3.232
 1580SOL    HW2 5640   3.276   4.240   3.293
 1581SOL     OW 5641   7.003   4.851   5.411
 1581SOL    HW1 5642   7.001   4.828   5.508
 1581SOL    HW2 5643   0.048   4.924   5.395
 1582SOL     OW 5644   3.863   5.475   4.894
 1582SOL    HW1 5645   3.929   5.463   4.820
 1582SOL    HW2 5646   3.860   5.571   4.921
 1583SOL     OW 5647   0.744   6.391   4.882
 1583SOL    HW1 5648   0.678   6.326   4.844
 1583SOL    HW2 5649   0.807   6.342   4.942
 1584SOL     OW 5650   1.559   4.550   6.884
 1584SOL    HW1 5651   1.555   4.541   6.984
 1584SOL    HW2 5652   1.610   4.632   6.861
 1585SOL     OW 5653   4.430   1.726   3.392
 1585SOL    HW1 5654   4.374   1.696   3.469
 1585SOL    HW2 5655   4.517   1.678   3.393
 1586SOL     OW 5656   3.316   4.941   3.096
 1586SOL    HW1 5657   3.318   4.923   3.195
 1586SOL    HW2 5658   3.253   5.016   3.077
 1587SOL     OW 5659   1.831   5.757   5.473
 1587SOL    HW1 5660   1.738   5.751   5.437
 1587SOL    HW2 5661   1.889   5.806   5.409
 1588SOL     OW 5662   4.676   0.084   2.630
 1588SOL    HW1 5663   4.589   0.132   2.641
 1588SOL    HW2 5664   4.720   0.072   2.719
 1589SOL     OW 5665   6.487   3.680   2.744
 1589SOL    HW1 5666   6.562   3.654   2.805
 1589SOL    HW2 5667   6.413   3.613   2.751
 1590SOL     OW 5668   5.542   2.095   3.422
 1590SOL    HW1 5669   5.487   2.176   3.404
 1590SOL    HW2 5670   5.638   2.120   3.434
 1591SOL     OW 5671   6.789   5.310   1.664
 1591SOL    HW1 5672   6.708   5.310   1.605
 1591SOL    HW2 5673   6.843   5.392   1.648
 1592SOL     OW 5674   1.559   4.485   0.126
 1592SOL    HW1 5675   1.502   4.406   0.149
 1592SOL    HW2 5676   1.600   4.521   0.210
 1593SOL     OW 5677   0.827   6.917   6.125
 1593SOL    HW1 5678   0.762   6.862   6.072
 1593SOL    HW2 5679   0.894   6.957   6.063
 1594SOL     OW 5680   6.601   6.877   1.507
 1594SOL    HW1 5681   6.655   6.923   1.577
 1594SOL    HW2 5682   6.645   6.790   1.484
 1595SOL     OW 5683   1.464   4.126   0.431
 1595SOL    HW1 5684   1.473   4.028   0.450
 1595SOL    HW2 5685   1.554   4.169   0.430
 1596SOL     OW 5686   6.019   3.639   3.076
 1596SOL    HW1 5687   6.058   3.547   3.083
 1596SOL    HW2 5688   5.939   3.637   3.016
 1597SOL     OW 5689   3.020   5.944   1.135
 1597SOL    HW1 5690   2.928   5.955   1.097
 1597SOL    HW2 5691   3.074   6.025   1.117
 1598SOL     OW 5692   1.227   5.299   6.656
 1598SOL    HW1 5693   1.156   5.358   6.617
 1598SOL    HW2 5694   1.189   5.207   6.671
 1599SOL     OW 5695   4.179   4.767   4.922
 1599SOL    HW1 5696   4.116   4.755   4.845
 1599SOL    HW2 5697   4.239   4.688   4.930
 1600SOL     OW 5698   2.823   0.134   2.151
 1600SOL    HW1 5699   2.850   0.225   2.183
 1600SOL    HW2 5700   2.771   0.088   2.222
 1601SOL     OW 5701   0.015   6.267   4.006
 1601SOL    HW1 5702   7.019   6.187   3.949
 1601SOL    HW2 5703   0.097   6.250   4.062
 1602SOL     OW 5704   5.047   5.276   3.969
 1602SOL    HW1 5705   5.050   5.328   4.054
 1602SOL    HW2 5706   5.050   5.178   3.990
 1603SOL     OW 5707   2.726   5.542   4.254
 1603SOL    HW1 5708   2.676   5.624   4.227
 1603SOL    HW2 5709   2.821   5.567   4.274
 1604SOL     OW 5710   4.186   4.728   1.503
 1604SOL    HW1 5711   4.150   4.758   1.592
 1604SOL    HW2 5712   4.266   4.781   1.479
 1605SOL     OW 5713   6.072   5.675   1.052
 1605SOL    HW1 5714   6.135   5.654   1.127
 1605SOL    HW2 5715   5.997   5.609   1.052
 1606SOL     OW 5716   3.964   5.020   5.360
 1606SOL    HW1 5717   3.881   5.060   5.321
 1606SOL    HW2 5718   4.016   4.974   5.288
 1607SOL     OW 5719   4.324   0.008   1.865
 1607SOL    HW1 5720   4.398   6.967   1.837
 1607SOL    HW2 5721   4.294   7.006   1.958
 1608SOL     OW 5722   6.469   0.525   3.331
 1608SOL    HW1 5723   6.534   0.599   3.351
 1608SOL    HW2 5724   6.446   0.478   3.417
 1609SOL     OW 5725   2.917   6.685   0.762
 1609SOL    HW1 5726   2.886   6.743   0.838
 1609SOL    HW2 5727   3.001   6.638   0.788
 1610SOL     OW 5728   4.710   6.403   0.871
 1610SOL    HW1 5729   4.723   6.305   0.886
 1610SOL    HW2 5730   4.715   6.423   0.773
 1611SOL     OW 5731   1.845   3.759   0.862
 1611SOL    HW1 5732   1.939   3.723   0.863
 1611SOL    HW2 5733   1.822   3.794   0.952
 1612SOL     OW 5734   2.965   6.145   1.425
 1612SOL    HW1 5735   2.942   6.054   1.389
 1612SOL    HW2 5736   3.062   6.163   1.410
 1613SOL     OW 5737   0.541   6.012   2.215
 1613SOL    HW1 5738   0.626   5.995   2.166
 1613SOL    HW2 5739   0.490   6.085   2.169
 1614SOL     OW 5740   5.563   2.233   6.097
 1614SOL    HW1 5741   5.636   2.287   6.056
 1614SOL    HW2 5742   5.592   2.203   6.188
 1615SOL     OW 5743   0.086   5.193   6.086
 1615SOL    HW1 5744   0.125   5.236   6.005
 1615SOL    HW2 5745   7.011   5.215   6.092
 1616SOL     OW 5746   3.832   0.781   4.518
 1616SOL    HW1 5747   3.838   0.758   4.421
 1616SOL    HW2 5748   3.901   0.850   4.541
 1617SOL     OW 5749   4.789   0.089   3.564
 1617SOL    HW1 5750   4.822   0.020   3.629
 1617SOL    HW2 5751   4.834   0.076   3.476
 1618SOL     OW 5752   1.481   5.769   2.462
 1618SOL    HW1 5753   1.406   5.748   2.526
 1618SOL    HW2 5754   1.464   5.723   2.375
 1619SOL     OW 5755   0.847   5.020   6.893
 1619SOL    HW1 5756   0.845   5.120   6.885
 1619SOL    HW2 5757   0.755   4.984   6.876
 1620SOL     OW 5758   3.187   5.309   1.322
 1620SOL    HW1 5759   3.151   5.400   1.346
 1620SOL    HW2 5760   3.278   5.319   1.282
 1621SOL     OW 5761   6.329   0.346   1.218
 1621SOL    HW1 5762   6.380   0.311   1.297
 1621SOL    HW2 5763   6.242   0.299   1.210
 1622SOL     OW 5764   0.265   3.985   6.029
 1622SOL    HW1 5765   0.320   4.068   6.026
 1622SOL    HW2 5766   0.234   3.968   6.123
 1623SOL     OW 5767   0.391   2.279   4.465
 1623SOL    HW1 5768   0.490   2.287   4.453
 1623SOL    HW2 5769   0.353   2.226   4.390
 1624SOL     OW 5770   4.385   1.422   6.701
 1624SOL    HW1 5771   4.410   1.404   6.797
 1624SOL    HW2 5772   4.461   1.470   6.656
 1625SOL     OW 5773   1.534   4.967   6.783
 1625SOL    HW1 5774   1.574   4.975   6.875
 1625SOL    HW2 5775   1.524   5.058   6.743
 1626SOL     OW 5776   3.002   1.470   1.936
 1626SOL    HW1 5777   3.071   1.541   1.949
 1626SOL    HW2 5778   2.922   1.491   1.993
 1627SOL     OW 5779   5.763   3.018   3.993
 1627SOL    HW1 5780   5.678   3.023   3.941
 1627SOL    HW2 5781   5.742   2.998   4.089
 1628SOL     OW 5782   4.637   5.873   6.649
 1628SOL    HW1 5783   4.573   5.908   6.717
 1628SOL    HW2 5784   4.726   5.916   6.661
 1629SOL     OW 5785   2.590   1.785   3.044
 1629SOL    HW1 5786   2.559   1.767   2.951
 1629SOL    HW2 5787   2.618   1.699   3.087
 1630SOL     OW 5788   6.441   4.193   5.653
 1630SOL    HW1 5789   6.441   4.140   5.738
 1630SOL    HW2 5790   6.467   4.133   5.577
 1631SOL     OW 5791   6.720   3.179   0.761
 1631SOL    HW1 5792   6.622   3.185   0.778
 1631SOL    HW2 5793   6.758   3.271   0.755
 1632SOL     OW 5794   4.787   4.761   2.720
 1632SOL    HW1 5795   4.710   4.724   2.669
 1632SOL    HW2 5796   4.775   4.741   2.818
 1633SOL     OW 5797   4.740   4.184   4.584
 1633SOL    HW1 5798   4.702   4.259   4.638
 1633SOL    HW2 5799   4.718   4.097   4.627
 1634SOL     OW 5800   4.384   0.782   4.531
 1634SOL    HW1 5801   4.458   0.716   4.522
 1634SOL    HW2 5802   4.418   0.873   4.509
 1635SOL     OW 5803   2.229   5.463   6.418
 1635SOL    HW1 5804   2.136   5.449   6.453
 1635SOL    HW2 5805   2.288   5.495   6.492
 1636SOL     OW 5806   3.799   5.345   1.082
 1636SOL    HW1 5807   3.750   5.432   1.091
 1636SOL    HW2 5808   3.895   5.364   1.062
 1637SOL     OW 5809   6.411   6.617   3.995
 1637SOL    HW1 5810   6.496   6.565   3.988
 1637SOL    HW2 5811   6.408   6.664   4.083
 1638SOL     OW 5812   0.278   2.939   1.314
 1638SOL    HW1 5813   0.246   3.033   1.323
 1638SOL    HW2 5814   0.230   2.894   1.239
 1639SOL     OW 5815   7.007   4.389   2.189
 1639SOL    HW1 5816   6.981   4.443   2.270
 1639SOL    HW2 5817   0.023   4.301   2.218
 1640SOL     OW 5818   6.675   0.259   0.684
 1640SOL    HW1 5819   6.602   0.191   0.694
 1640SOL    HW2 5820   6.736   0.232   0.609
 1641SOL     OW 5821   6.888   2.516   3.597
 1641SOL    HW1 5822   6.813   2.571   3.634
 1641SOL    HW2 5823   6.962   2.510   3.665
 1642SOL     OW 5824   0.388   2.766   6.228
 1642SOL    HW1 5825   0.322   2.744   6.300
 1642SOL    HW2 5826   0.480   2.748   6.261
 1643SOL     OW 5827   3.309   4.899   2.826
 1643SOL    HW1 5828   3.214   4.879   2.804
 1643SOL    HW2 5829   3.324   4.888   2.924
 1644SOL     OW 5830   5.892   2.993   6.653
 1644SOL    HW1 5831   5.951   2.928   6.702
 1644SOL    HW2 5832   5.804   2.950   6.635
 1645SOL     OW 5833   2.911   6.821   6.232
 1645SOL    HW1 5834   3.008   6.845   6.229
 1645SOL    HW2 5835   2.869   6.844   6.144
 1646SOL     OW 5836   2.077   6.294   0.580
 1646SOL    HW1 5837   2.100   6.220   0.642
 1646SOL    HW2 5838   2.116   6.276   0.490
 1647SOL     OW 5839   5.521   2.692   4.251
 1647SOL    HW1 5840   5.504   2.678   4.349
 1647SOL    HW2 5841   5.617   2.669   4.231
 1648SOL     OW 5842   5.371   6.263   0.270
 1648SOL    HW1 5843   5.403   6.172   0.296
 1648SOL    HW2 5844   5.277   6.275   0.302
 1649SOL     OW 5845   3.855   1.287   3.772
 1649SOL    HW1 5846   3.949   1.289   3.805
 1649SOL    HW2 5847   3.798   1.238   3.839
 1650SOL     OW 5848   1.252   5.361   5.760
 1650SOL    HW1 5849   1.212   5.367   5.668
 1650SOL    HW2 5850   1.196   5.413   5.824
 1651SOL     OW 5851   0.559   2.517   2.590
 1651SOL    HW1 5852   0.523   2.587   2.652
 1651SOL    HW2 5853   0.497   2.439   2.588
 1652SOL     OW 5854   1.159   3.507   2.498
 1652SOL    HW1 5855   1.194   3.486   2.406
 1652SOL    HW2 5856   1.101   3.432   2.529
 1653SOL     OW 5857   0.135   5.607   1.986
 1653SOL    HW1 5858   0.206   5.596   1.916
 1653SOL    HW2 5859   0.068   5.534   1.977
 1654SOL     OW 5860   0.455   3.236   1.059
 1654SOL    HW1 5861   0.400   3.156   1.034
 1654SOL    HW2 5862   0.524   3.252   0.989
 1655SOL     OW 5863   6.727   1.333   4.557
 1655SOL    HW1 5864   6.773   1.266   4.499
 1655SOL    HW2 5865   6.787   1.358   4.633
 1656SOL     OW 5866   2.703   5.495   3.780
 1656SOL    HW1 5867   2.774   5.431   3.750
 1656SOL    HW2 5868   2.660   5.460   3.864
 1657SOL     OW 5869   6.437   0.801   5.368
 1657SOL    HW1 5870   6.339   0.786   5.382
 1657SOL    HW2 5871   6.451   0.848   5.281
 1658SOL     OW 5872   7.008   0.434   0.742
 1658SOL    HW1 5873   0.037   0.352   0.716
 1658SOL    HW2 5874   6.959   0.417   0.828
 1659SOL     OW 5875   3.775   0.471   0.048
 1659SOL    HW1 5876   3.844   0.456   0.119
 1659SOL    HW2 5877   3.744   0.566   0.053
 1660SOL     OW 5878   1.504   0.312   2.478
 1660SOL    HW1 5879   1.549   0.303   2.389
 1660SOL    HW2 5880   1.405   0.316   2.465
 1661SOL     OW 5881   3.108   5.674   2.132
 1661SOL    HW1 5882   3.081   5.660   2.228
 1661SOL    HW2 5883   3.145   5.766   2.121
 1662SOL     OW 5884   6.379   0.567   5.164
 1662SOL    HW1 5885   6.389   0.551   5.262
 1662SOL    HW2 5886   6.461   0.615   5.130
 1663SOL     OW 5887   5.320   5.700   2.324
 1663SOL    HW1 5888   5.307   5.603   2.344
 1663SOL    HW2 5889   5.414   5.715   2.292
 1664SOL     OW 5890   1.955   6.793   5.438
 1664SOL    HW1 5891   1.989   6.771   5.529
 1664SOL    HW2 5892   1.995   6.880   5.407
 1665SOL     OW 5893   0.108   3.777   1.926
 1665SOL    HW1 5894   0.082   3.753   1.832
 1665SOL    HW2 5895   0.030   3.762   1.986
 1666SOL     OW 5896   5.912   0.118   0.072
 1666SOL    HW1 5897   5.816   0.128   0.097
 1666SOL    HW2 5898   5.967   0.102   0.154
 1667SOL     OW 5899   6.589   6.297   1.349
 1667SOL    HW1 5900   6.491   6.314   1.346
 1667SOL    HW2 5901   6.627   6.330   1.435
 1668SOL     OW 5902   4.787   4.707   3.145
 1668SOL    HW1 5903   4.719   4.733   3.077
 1668SOL    HW2 5904   4.850   4.783   3.160
 1669SOL     OW 5905   6.915   4.450   5.741
 1669SOL    HW1 5906   6.929   4.429   5.838
 1669SOL    HW2 5907   6.989   4.409   5.688
 1670SOL     OW 5908   0.696   4.460   5.572
 1670SOL    HW1 5909   0.700   4.417   5.482
 1670SOL    HW2 5910   0.699   4.559   5.562
 1671SOL     OW 5911   5.773   1.714   3.266
 1671SOL    HW1 5912   5.811   1.639   3.212
 1671SOL    HW2 5913   5.816   1.800   3.240
 1672SOL     OW 5914   1.385   4.417   6.060
 1672SOL    HW1 5915   1.317   4.470   6.008
 1672SOL    HW2 5916   1.477   4.441   6.029
 1673SOL     OW 5917   1.768   1.342   4.871
 1673SOL    HW1 5918   1.733   1.249   4.858
 1673SOL    HW2 5919   1.706   1.408   4.828
 1674SOL     OW 5920   6.426   2.702   2.343
 1674SOL    HW1 5921   6.451   2.773   2.408
 1674SOL    HW2 5922   6.468   2.721   2.254
 1675SOL     OW 5923   5.310   0.217   0.600
 1675SOL    HW1 5924   5.266   0.292   0.550
 1675SOL    HW2 5925   5.262   0.202   0.686
 1676SOL     OW 5926   2.578   2.040   2.198
 1676SOL    HW1 5927   2.487   2.065   2.229
 1676SOL    HW2 5928   2.599   1.947   2.228
 1677SOL     OW 5929   3.939   3.717   3.423
 1677SOL    HW1 5930   3.971   3.718   3.518
 1677SOL    HW2 5931   3.929   3.622   3.393
 1678SOL     OW 5932   0.179   5.995   1.697
 1678SOL    HW1 5933   0.133   5.907   1.709
 1678SOL    HW2 5934   0.117   6.060   1.653
 1679SOL     OW 5935   1.497   0.912   4.721
 1679SOL    HW1 5936   1.478   0.993   4.775
 1679SOL    HW2 5937   1.587   0.921   4.678
 1680SOL     OW 5938   5.320   3.359   5.675
 1680SOL    HW1 5939   5.366   3.367   5.586
 1680SOL    HW2 5940   5.221   3.362   5.662
 1681SOL     OW 5941   2.203   5.543   5.018
 1681SOL    HW1 5942   2.160   5.527   4.930
 1681SOL    HW2 5943   2.231   5.639   5.025
 1682SOL     OW 5944   2.364   0.998   5.780
 1682SOL    HW1 5945   2.431   0.931   5.812
 1682SOL    HW2 5946   2.357   0.993   5.680
 1683SOL     OW 5947   5.787   6.194   3.154
 1683SOL    HW1 5948   5.841   6.279   3.160
 1683SOL    HW2 5949   5.770   6.159   3.246
 1684SOL     OW 5950   0.790   5.016   2.124
 1684SOL    HW1 5951   0.722   5.005   2.196
 1684SOL    HW2 5952   0.815   4.926   2.087
 1685SOL     OW 5953   1.870   1.886   5.485
 1685SOL    HW1 5954   1.840   1.906   5.579
 1685SOL    HW2 5955   1.952   1.829   5.489
 1686SOL     OW 5956   3.555   5.747   4.090
 1686SOL    HW1 5957   3.463   5.737   4.128
 1686SOL    HW2 5958   3.597   5.831   4.124
 1687SOL     OW 5959   0.577   3.886   1.898
 1687SOL    HW1 5960   0.517   3.922   1.968
 1687SOL    HW2 5961   0.580   3.950   1.821
 1688SOL     OW 5962   1.713   2.498   3.585
 1688SOL    HW1 5963   1.754   2.418   3.629
 1688SOL    HW2 5964   1.737   2.580   3.636
 1689SOL     OW 5965   6.220   1.092   3.014
 1689SOL    HW1 5966   6.203   1.076   3.111
 1689SOL    HW2 5967   6.214   1.006   2.964
 1690SOL     OW 5968   0.548   3.194   4.394
 1690SOL    HW1 5969   0.623   3.232   4.448
 1690SOL    HW2 5970   0.582   3.119   4.337
 1691SOL     OW 5971   5.313   3.099   4.014
 1691SOL    HW1 5972   5.251   3.060   4.083
 1691SOL    HW2 5973   5.287   3.193   3.995
 1692SOL     OW 5974   5.372   5.337   1.305
 1692SOL    HW1 5975   5.309   5.302   1.235
 1692SOL    HW2 5976   5.424   5.413   1.267
 1693SOL     OW 5977   6.639   1.646   4.571
 1693SOL    HW1 5978   6.738   1.631   4.571
 1693SOL    HW2 5979   6.620   1.741   4.546
 1694SOL     OW 5980   6.297   0.474   4.541
 1694SOL    HW1 5981   6.302   0.392   4.484
 1694SOL    HW2 5982   6.281   0.554   4.484
 1695SOL     OW 5983   3.503   0.827   6.841
 1695SOL    HW1 5984   3.464   0.881   6.766
 1695SOL    HW2 5985   3.591   0.867   6.868
 1696SOL     OW 5986   3.835   5.951   0.986
 1696SOL    HW1 5987   3.910   5.917   1.043
 1696SOL    HW2 5988   3.791   6.029   1.032
 1697SOL     OW 5989   6.050   2.609   0.892
 1697SOL    HW1 5990   5.958   2.579   0.918
 1697SOL    HW2 5991   6.106   2.529   0.869
 1698SOL     OW 5992   3.632   1.053   1.685
 1698SOL    HW1 5993   3.695   1.101   1.624
 1698SOL    HW2 5994   3.659   1.067   1.780
 1699SOL     OW 5995   2.438   1.739   5.589
 1699SOL    HW1 5996   2.492   1.812   5.548
 1699SOL    HW2 5997   2.498   1.665   5.618
 1700SOL     OW 5998   5.806   3.405   3.379
 1700SOL    HW1 5999   5.811   3.440   3.473
 1700SOL    HW2 6000   5.745   3.463   3.325
 1701SOL     OW 6001   5.897   4.967   5.365
 1701SOL    HW1 6002   5.967   4.958   5.436
 1701SOL    HW2 6003   5.827   5.031   5.394
 1702SOL     OW 6004   1.188   1.232   6.674
 1702SOL    HW1 6005   1.184   1.300   6.600
 1702SOL    HW2 6006   1.178   1.279   6.762
 1703SOL     OW 6007   4.404   1.512   6.075
 1703SOL    HW1 6008   4.497   1.480   6.057
 1703SOL    HW2 6009   4.340   1.435   6.066
 1704SOL     OW 6010   1.214   1.869   6.896
 1704SOL    HW1 6011   1.158   1.815   6.958
 1704SOL    HW2 6012   1.294   1.815   6.868
 1705SOL     OW 6013   3.652   1.737   1.728
 1705SOL    HW1 6014   3.624   1.826   1.764
 1705SOL    HW2 6015   3.733   1.705   1.778
 1706SOL     OW 6016   4.562   1.700   1.252
 1706SOL    HW1 6017   4.609   1.668   1.170
 1706SOL    HW2 6018   4.478   1.648   1.265
 1707SOL     OW 6019   4.828   2.543   2.389
 1707SOL    HW1 6020   4.754   2.477   2.377
 1707SOL    HW2 6021   4.850   2.551   2.486
 1708SOL     OW 6022   4.270   5.289   1.392
 1708SOL    HW1 6023   4.175   5.310   1.367
 1708SOL    HW2 6024   4.272   5.203   1.443
 1709SOL     OW 6025   3.915   6.488   0.619
 1709SOL    HW1 6026   3.929   6.570   0.564
 1709SOL    HW2 6027   3.992   6.425   0.605
 1710SOL     OW 6028   3.815   4.848   3.348
 1710SOL    HW1 6029   3.886   4.846   3.277
 1710SOL    HW2 6030   3.743   4.912   3.321
 1711SOL     OW 6031   2.311   4.911   5.274
 1711SOL    HW1 6032   2.334   4.814   5.275
 1711SOL    HW2 6033   2.363   4.957   5.202
 1712SOL     OW 6034   6.882   2.167   4.498
 1712SOL    HW1 6035   6.826   2.196   4.420
 1712SOL    HW2 6036   6.917   2.248   4.545
 1713SOL     OW 6037   3.805   1.309   3.131
 1713SOL    HW1 6038   3.726   1.321   3.072
 1713SOL    HW2 6039   3.792   1.227   3.188
 1714SOL     OW 6040   3.608   1.829   0.199
 1714SOL    HW1 6041   3.657   1.895   0.256
 1714SOL    HW2 6042   3.672   1.787   0.135
 1715SOL     OW 6043   2.510   6.050   2.658
 1715SOL    HW1 6044   2.488   5.954   2.672
 1715SOL    HW2 6045   2.506   6.072   2.561
 1716SOL     OW 6046   4.386   0.279   3.912
 1716SOL    HW1 6047   4.307   0.330   3.943
 1716SOL    HW2 6048   4.459   0.284   3.980
 1717SOL     OW 6049   3.709   5.012   5.275
 1717SOL    HW1 6050   3.657   5.008   5.190
 1717SOL    HW2 6051   3.697   5.101   5.318
 1718SOL     OW 6052   2.536   1.835   2.509
 1718SOL    HW1 6053   2.550   1.806   2.415
 1718SOL    HW2 6054   2.617   1.883   2.542
 1719SOL     OW 6055   1.973   4.345   0.862
 1719SOL    HW1 6056   1.981   4.252   0.825
 1719SOL    HW2 6057   1.893   4.390   0.823
 1720SOL     OW 6058   0.069   2.516   5.757
 1720SOL    HW1 6059   0.163   2.547   5.742
 1720SOL    HW2 6060   0.006   2.591   5.738
 1721SOL     OW 6061   1.294   0.348   2.009
 1721SOL    HW1 6062   1.315   0.253   2.033
 1721SOL    HW2 6063   1.329   0.367   1.917
 1722SOL     OW 6064   4.082   1.814   3.110
 1722SOL    HW1 6065   4.019   1.867   3.167
 1722SOL    HW2 6066   4.056   1.823   3.014
 1723SOL     OW 6067   4.250   2.079   6.424
 1723SOL    HW1 6068   4.215   2.137   6.498
 1723SOL    HW2 6069   4.272   2.136   6.345
 1724SOL     OW 6070   6.566   2.217   1.901
 1724SOL    HW1 6071   6.563   2.292   1.967
 1724SOL    HW2 6072   6.620   2.243   1.821
 1725SOL     OW 6073   2.174   5.323   6.950
 1725SOL    HW1 6074   2.136   5.381   0.000
 1725SOL    HW2 6075   2.221   5.380   6.883
 1726SOL     OW 6076   5.551   3.774   3.915
 1726SOL    HW1 6077   5.508   3.859   3.945
 1726SOL    HW2 6078   5.516   3.698   3.968
 1727SOL     OW 6079   3.734   3.615   2.883
 1727SOL    HW1 6080   3.785   3.694   2.848
 1727SOL    HW2 6081   3.795   3.554   2.932
 1728SOL     OW 6082   4.894   4.208   5.405
 1728SOL    HW1 6083   4.889   4.299   5.447
 1728SOL    HW2 6084   4.990   4.184   5.390
 1729SOL     OW 6085   1.082   3.935   3.226
 1729SOL    HW1 6086   1.061   3.912   3.130
 1729SOL    HW2 6087   1.066   4.032   3.242
 1730SOL     OW 6088   2.992   6.376   5.103
 1730SOL    HW1 6089   2.897   6.406   5.091
 1730SOL    HW2 6090   3.053   6.451   5.079
 1731SOL     OW 6091   5.783   4.797   3.837
 1731SOL    HW1 6092   5.743   4.720   3.787
 1731SOL    HW2 6093   5.879   4.776   3.858
 1732SOL     OW 6094   1.696   4.530   6.503
 1732SOL    HW1 6095   1.741   4.578   6.428
 1732SOL    HW2 6096   1.658   4.443   6.469
 1733SOL     OW 6097   2.523   4.311   1.412
 1733SOL    HW1 6098   2.561   4.365   1.487
 1733SOL    HW2 6099   2.464   4.239   1.450
 1734SOL     OW 6100   5.784   3.217   1.120
 1734SOL    HW1 6101   5.880   3.216   1.090
 1734SOL    HW2 6102   5.779   3.236   1.218
 1735SOL     OW 6103   4.201   5.563   5.964
 1735SOL    HW1 6104   4.109   5.533   5.939
 1735SOL    HW2 6105   4.240   5.618   5.891
 1736SOL     OW 6106   4.194   4.113   0.666
 1736SOL    HW1 6107   4.110   4.060   0.672
 1736SOL    HW2 6108   4.267   4.066   0.716
 1737SOL     OW 6109   5.281   0.149   4.679
 1737SOL    HW1 6110   5.315   0.138   4.585
 1737SOL    HW2 6111   5.357   0.139   4.743
 1738SOL     OW 6112   1.684   3.630   4.285
 1738SOL    HW1 6113   1.708   3.712   4.233
 1738SOL    HW2 6114   1.594   3.597   4.256
 1739SOL     OW 6115   6.259   0.226   4.379
 1739SOL    HW1 6116   6.261   0.133   4.414
 1739SOL    HW2 6117   6.177   0.239   4.324
 1740SOL     OW 6118   6.858   1.830   4.838
 1740SOL    HW1 6119   6.839   1.734   4.821
 1740SOL    HW2 6120   6.787   1.869   4.896
 1741SOL     OW 6121   2.336   1.694   3.565
 1741SOL    HW1 6122   2.420   1.715   3.514
 1741SOL    HW2 6123   2.319   1.767   3.631
 1742SOL     OW 6124   5.715   1.142   6.236
 1742SOL    HW1 6125   5.617   1.136   6.257
 1742SOL    HW2 6126   5.762   1.191   6.309
 1743SOL     OW 6127   1.404   1.039   2.813
 1743SOL    HW1 6128   1.387   0.966   2.746
 1743SOL    HW2 6129   1.418   1.125   2.765
 1744SOL     OW 6130   5.022   2.714   2.853
 1744SOL    HW1 6131   5.009   2.682   2.759
 1744SOL    HW2 6132   5.051   2.637   2.910
 1745SOL     OW 6133   6.322   6.386   2.240
 1745SOL    HW1 6134   6.317   6.340   2.329
 1745SOL    HW2 6135   6.242   6.445   2.229
 1746SOL     OW 6136   1.982   3.586   4.094
 1746SOL    HW1 6137   2.027   3.524   4.159
 1746SOL    HW2 6138   1.921   3.533   4.035
 1747SOL     OW 6139   3.904   1.496   2.154
 1747SOL    HW1 6140   3.942   1.524   2.242
 1747SOL    HW2 6141   3.805   1.510   2.154
 1748SOL     OW 6142   6.283   1.439   4.393
 1748SOL    HW1 6143   6.270   1.398   4.483
 1748SOL    HW2 6144   6.373   1.413   4.358
 1749SOL     OW 6145   3.259   6.568   0.277
 1749SOL    HW1 6146   3.260   6.469   0.285
 1749SOL    HW2 6147   3.171   6.603   0.310
 1750SOL     OW 6148   4.168   0.157   4.704
 1750SOL    HW1 6149   4.201   0.085   4.765
 1750SOL    HW2 6150   4.244   0.218   4.681
 1751SOL     OW 6151   6.227   2.381   5.083
 1751SOL    HW1 6152   6.230   2.364   4.985
 1751SOL    HW2 6153   6.239   2.479   5.101
 1752SOL     OW 6154   6.368   1.136   1.352
 1752SOL    HW1 6155   6.373   1.236   1.358
 1752SOL    HW2 6156   6.332   1.109   1.263
 1753SOL     OW 6157   6.801   1.503   1.776
 1753SOL    HW1 6158   6.807   1.488   1.677
 1753SOL    HW2 6159   6.735   1.440   1.815
 1754SOL     OW 6160   2.214   6.048   6.021
 1754SOL    HW1 6161   2.233   6.011   5.930
 1754SOL    HW2 6162   2.134   6.001   6.059
 1755SOL     OW 6163   6.483   5.991   5.570
 1755SOL    HW1 6164   6.519   6.064   5.512
 1755SOL    HW2 6165   6.553   5.962   5.634
 1756SOL     OW 6166   3.912   6.788   6.344
 1756SOL    HW1 6167   3.841   6.778   6.275
 1756SOL    HW2 6168   3.995   6.826   6.302
 1757SOL     OW 6169   3.223   5.185   4.656
 1757SOL    HW1 6170   3.238   5.226   4.565
 1757SOL    HW2 6171   3.294   5.217   4.719
 1758SOL     OW 6172   1.487   0.078   4.702
 1758SOL    HW1 6173   1.455   7.018   4.653
 1758SOL    HW2 6174   1.417   0.149   4.699
 1759SOL     OW 6175   1.404   6.594   5.797
 1759SOL    HW1 6176   1.435   6.588   5.702
 1759SOL    HW2 6177   1.330   6.660   5.804
 1760SOL     OW 6178   6.533   1.223   4.821
 1760SOL    HW1 6179   6.453   1.182   4.865
 1760SOL    HW2 6180   6.520   1.222   4.722
 1761SOL     OW 6181   0.515   0.898   0.989
 1761SOL    HW1 6182   0.540   0.906   1.085
 1761SOL    HW2 6183   0.465   0.813   0.974
 1762SOL     OW 6184   0.311   1.123   4.844
 1762SOL    HW1 6185   0.370   1.080   4.913
 1762SOL    HW2 6186   0.234   1.063   4.824
 1763SOL     OW 6187   0.671   4.326   5.315
 1763SOL    HW1 6188   0.578   4.315   5.281
 1763SOL    HW2 6189   0.736   4.295   5.245
 1764SOL     OW 6190   0.804   3.691   2.280
 1764SOL    HW1 6191   0.869   3.746   2.333
 1764SOL    HW2 6192   0.808   3.719   2.184
 1765SOL     OW 6193   4.348   2.561   1.554
 1765SOL    HW1 6194   4.254   2.549   1.588
 1765SOL    HW2 6195   4.406   2.595   1.627
 1766SOL     OW 6196   5.017   4.343   4.195
 1766SOL    HW1 6197   5.032   4.408   4.269
 1766SOL    HW2 6198   5.075   4.262   4.208
 1767SOL     OW 6199   0.638   4.815   2.747
 1767SOL    HW1 6200   0.653   4.786   2.653
 1767SOL    HW2 6201   0.711   4.879   2.774
 1768SOL     OW 6202   4.767   0.518   0.646
 1768SOL    HW1 6203   4.866   0.531   0.654
 1768SOL    HW2 6204   4.748   0.421   0.630
 1769SOL     OW 6205   5.826   1.007   7.009
 1769SOL    HW1 6206   5.820   1.047   6.918
 1769SOL    HW2 6207   5.852   1.078   0.053
 1770SOL     OW 6208   0.451   4.119   5.786
 1770SOL    HW1 6209   0.475   4.144   5.879
 1770SOL    HW2 6210   0.393   4.038   5.787
 1771SOL     OW 6211   1.436   5.069   0.128
 1771SOL    HW1 6212   1.459   5.164   0.110
 1771SOL    HW2 6213   1.386   5.031   0.050
 1772SOL     OW 6214   3.794   5.320   4.365
 1772SOL    HW1 6215   3.884   5.323   4.407
 1772SOL    HW2 6216   3.772   5.226   4.341
 1773SOL     OW 6217   1.379   1.355   5.026
 1773SOL    HW1 6218   1.351   1.422   5.095
 1773SOL    HW2 6219   1.339   1.379   4.938
 1774SOL     OW 6220   5.854   6.663   2.226
 1774SOL    HW1 6221   5.944   6.686   2.190
 1774SOL    HW2 6222   5.784   6.713   2.175
 1775SOL     OW 6223   2.080   5.506   5.936
 1775SOL    HW1 6224   2.011   5.480   5.869
 1775SOL    HW2 6225   2.150   5.435   5.941
 1776SOL     OW 6226   4.961   0.507   5.751
 1776SOL    HW1 6227   4.931   0.509   5.846
 1776SOL    HW2 6228   4.989   0.414   5.727
 1777SOL     OW 6229   3.732   6.782   6.142
 1777SOL    HW1 6230   3.735   6.827   6.053
 1777SOL    HW2 6231   3.642   6.739   6.154
 1778SOL     OW 6232   5.284   1.408   4.336
 1778SOL    HW1 6233   5.248   1.387   4.245
 1778SOL    HW2 6234   5.350   1.482   4.330
 1779SOL     OW 6235   5.067   6.918   5.566
 1779SOL    HW1 6236   5.153   6.969   5.573
 1779SOL    HW2 6237   4.990   6.980   5.585
 1780SOL     OW 6238   1.220   5.112   4.610
 1780SOL    HW1 6239   1.196   5.086   4.516
 1780SOL    HW2 6240   1.157   5.183   4.641
 1781SOL     OW 6241   5.320   6.756   4.596
 1781SOL    HW1 6242   5.260   6.781   4.672
 1781SOL    HW2 6243   5.414   6.750   4.628
 1782SOL     OW 6244   2.131   1.564   2.830
 1782SOL    HW1 6245   2.037   1.586   2.805
 1782SOL    HW2 6246   2.161   1.624   2.904
 1783SOL     OW 6247   2.644   3.334   6.295
 1783SOL    HW1 6248   2.560   3.358   6.247
 1783SOL    HW2 6249   2.722   3.379   6.252
 1784SOL     OW 6250   2.390   0.930   1.373
 1784SOL    HW1 6251   2.396   1.025   1.402
 1784SOL    HW2 6252   2.479   0.885   1.386
 1785SOL     OW 6253   0.283   6.171   4.120
 1785SOL    HW1 6254   0.325   6.089   4.159
 1785SOL    HW2 6255   0.325   6.191   4.032
 1786SOL     OW 6256   1.667   5.561   0.608
 1786SOL    HW1 6257   1.651   5.462   0.616
 1786SOL    HW2 6258   1.757   5.584   0.645
 1787SOL     OW 6259   1.406   2.398   5.270
 1787SOL    HW1 6260   1.458   2.364   5.348
 1787SOL    HW2 6261   1.311   2.369   5.279
 1788SOL     OW 6262   5.184   3.782   0.240
 1788SOL    HW1 6263   5.244   3.843   0.293
 1788SOL    HW2 6264   5.187   3.691   0.281
 1789SOL     OW 6265   6.352   3.385   2.077
 1789SOL    HW1 6266   6.253   3.399   2.084
 1789SOL    HW2 6267   6.381   3.319   2.146
 1790SOL     OW 6268   3.119   1.482   4.408
 1790SOL    HW1 6269   3.037   1.489   4.351
 1790SOL    HW2 6270   3.092   1.465   4.503
 1791SOL     OW 6271   5.579   1.005   3.904
 1791SOL    HW1 6272   5.521   1.043   3.831
 1791SOL    HW2 6273   5.527   0.936   3.955
 1792SOL     OW 6274   6.942   1.389   5.117
 1792SOL    HW1 6275   6.878   1.446   5.169
 1792SOL    HW2 6276   6.971   1.437   5.035
 1793SOL     OW 6277   6.832   1.196   4.893
 1793SOL    HW1 6278   6.734   1.212   4.877
 1793SOL    HW2 6279   6.881   1.283   4.894
 1794SOL     OW 6280   6.237   0.495   6.467
 1794SOL    HW1 6281   6.263   0.492   6.563
 1794SOL    HW2 6282   6.245   0.589   6.433
 1795SOL     OW 6283   5.813   4.907   0.283
 1795SOL    HW1 6284   5.761   4.824   0.263
 1795SOL    HW2 6285   5.777   4.949   0.367
 1796SOL     OW 6286   1.687   0.999   5.547
 1796SOL    HW1 6287   1.762   0.967   5.605
 1796SOL    HW2 6288   1.668   1.095   5.569
 1797SOL     OW 6289   1.721   6.771   4.995
 1797SOL    HW1 6290   1.740   6.712   4.916
 1797SOL    HW2 6291   1.651   6.728   5.052
 1798SOL     OW 6292   3.712   3.244   4.326
 1798SOL    HW1 6293   3.635   3.259   4.265
 1798SOL    HW2 6294   3.776   3.321   4.319
 1799SOL     OW 6295   4.169   1.252   6.668
 1799SOL    HW1 6296   4.107   1.282   6.740
 1799SOL    HW2 6297   4.251   1.310   6.668
 1800SOL     OW 6298   4.944   4.356   3.941
 1800SOL    HW1 6299   4.947   4.334   4.039
 1800SOL    HW2 6300   4.958   4.454   3.929
 1801SOL     OW 6301   1.276   1.563   2.033
 1801SOL    HW1 6302   1.216   1.581   1.955
 1801SOL    HW2 6303   1.275   1.465   2.054
 1802SOL     OW 6304   6.382   5.333   3.514
 1802SOL    HW1 6305   6.332   5.253   3.481
 1802SOL    HW2 6306   6.325   5.383   3.579
 1803SOL     OW 6307   0.376   6.154   2.533
 1803SOL    HW1 6308   0.306   6.120   2.596
 1803SOL    HW2 6309   0.450   6.198   2.585
 1804SOL     OW 6310   3.135   3.563   5.930
 1804SOL    HW1 6311   3.077   3.644   5.918
 1804SOL    HW2 6312   3.077   3.482   5.939
 1805SOL     OW 6313   0.960   6.319   5.745
 1805SOL    HW1 6314   0.922   6.404   5.781
 1805SOL    HW2 6315   1.055   6.334   5.718
 1806SOL     OW 6316   6.592   2.109   2.349
 1806SOL    HW1 6317   6.603   2.096   2.250
 1806SOL    HW2 6318   6.583   2.206   2.370
 1807SOL     OW 6319   6.263   3.552   0.456
 1807SOL    HW1 6320   6.333   3.498   0.501
 1807SOL    HW2 6321   6.188   3.492   0.427
 1808SOL     OW 6322   5.387   2.786   4.937
 1808SOL    HW1 6323   5.462   2.765   4.999
 1808SOL    HW2 6324   5.300   2.765   4.982
 1809SOL     OW 6325   3.161   1.932   5.391
 1809SOL    HW1 6326   3.115   1.878   5.320
 1809SOL    HW2 6327   3.128   2.027   5.386
 1810SOL     OW 6328   0.460   0.454   4.145
 1810SOL    HW1 6329   0.487   0.461   4.049
 1810SOL    HW2 6330   0.382   0.393   4.154
 1811SOL     OW 6331   4.557   4.810   1.776
 1811SOL    HW1 6332   4.560   4.861   1.690
 1811SOL    HW2 6333   4.583   4.715   1.758
 1812SOL     OW 6334   4.379   0.107   5.869
 1812SOL    HW1 6335   4.299   0.126   5.926
 1812SOL    HW2 6336   4.362   0.140   5.777
 1813SOL     OW 6337   4.576   4.699   2.547
 1813SOL    HW1 6338   4.496   4.759   2.542
 1813SOL    HW2 6339   4.605   4.673   2.454
 1814SOL     OW 6340   6.820   0.075   1.053
 1814SOL    HW1 6341   6.749   0.075   1.123
 1814SOL    HW2 6342   6.896   0.134   1.081
 1815SOL     OW 6343   5.454   5.781   2.627
 1815SOL    HW1 6344   5.414   5.756   2.539
 1815SOL    HW2 6345   5.487   5.698   2.673
 1816SOL     OW 6346   4.026   6.207   5.396
 1816SOL    HW1 6347   4.118   6.169   5.405
 1816SOL    HW2 6348   3.979   6.203   5.484
 1817SOL     OW 6349   3.161   1.588   2.957
 1817SOL    HW1 6350   3.209   1.549   3.036
 1817SOL    HW2 6351   3.117   1.674   2.984
 1818SOL     OW 6352   1.788   6.594   0.148
 1818SOL    HW1 6353   1.832   6.551   0.226
 1818SOL    HW2 6354   1.826   6.685   0.134
 1819SOL     OW 6355   0.863   4.582   2.879
 1819SOL    HW1 6356   0.855   4.559   2.783
 1819SOL    HW2 6357   0.779   4.626   2.910
 1820SOL     OW 6358   3.593   0.249   2.760
 1820SOL    HW1 6359   3.572   0.184   2.687
 1820SOL    HW2 6360   3.585   0.203   2.848
 1821SOL     OW 6361   3.543   0.622   2.084
 1821SOL    HW1 6362   3.532   0.721   2.082
 1821SOL    HW2 6363   3.484   0.583   2.155
 1822SOL     OW 6364   1.214   3.564   2.120
 1822SOL    HW1 6365   1.242   3.494   2.186
 1822SOL    HW2 6366   1.132   3.533   2.072
 1823SOL     OW 6367   3.356   6.177   2.451
 1823SOL    HW1 6368   3.449   6.213   2.459
 1823SOL    HW2 6369   3.332   6.167   2.354
 1824SOL     OW 6370   4.457   3.644   0.788
 1824SOL    HW1 6371   4.500   3.708   0.852
 1824SOL    HW2 6372   4.512   3.561   0.781
 1825SOL     OW 6373   1.001   2.551   4.941
 1825SOL    HW1 6374   0.930   2.540   4.872
 1825SOL    HW2 6375   1.082   2.594   4.900
 1826SOL     OW 6376   3.654   1.391   1.464
 1826SOL    HW1 6377   3.614   1.379   1.555
 1826SOL    HW2 6378   3.637   1.484   1.432
 1827SOL     OW 6379   4.813   4.847   0.747
 1827SOL    HW1 6380   4.906   4.857   0.712
 1827SOL    HW2 6381   4.807   4.767   0.806
 1828SOL     OW 6382   0.994   3.639   6.028
 1828SOL    HW1 6383   0.969   3.672   6.119
 1828SOL    HW2 6384   1.068   3.573   6.036
 1829SOL     OW 6385   3.715   0.801   3.309
 1829SOL    HW1 6386   3.631   0.851   3.326
 1829SOL    HW2 6387   3.701   0.736   3.234
 1830SOL     OW 6388   5.798   6.791   5.166
 1830SOL    HW1 6389   5.793   6.731   5.086
 1830SOL    HW2 6390   5.757   6.745   5.244
 1831SOL     OW 6391   5.062   5.833   2.730
 1831SOL    HW1 6392   5.094   5.928   2.736
 1831SOL    HW2 6393   5.088   5.784   2.813
 1832SOL     OW 6394   2.636   4.151   0.418
 1832SOL    HW1 6395   2.604   4.152   0.324
 1832SOL    HW2 6396   2.735   4.165   0.420
 1833SOL     OW 6397   4.650   6.828   1.608
 1833SOL    HW1 6398   4.681   6.896   1.541
 1833SOL    HW2 6399   4.551   6.816   1.599
 1834SOL     OW 6400   2.882   2.797   0.731
 1834SOL    HW1 6401   2.840   2.727   0.674
 1834SOL    HW2 6402   2.816   2.869   0.750
 1835SOL     OW 6403   1.194   5.382   1.367
 1835SOL    HW1 6404   1.193   5.286   1.397
 1835SOL    HW2 6405   1.277   5.426   1.401
 1836SOL     OW 6406   4.936   1.459   2.357
 1836SOL    HW1 6407   4.987   1.429   2.276
 1836SOL    HW2 6408   4.953   1.396   2.433
 1837SOL     OW 6409   2.100   1.185   5.533
 1837SOL    HW1 6410   2.067   1.119   5.601
 1837SOL    HW2 6411   2.096   1.277   5.571
 1838SOL     OW 6412   6.775   0.898   0.234
 1838SOL    HW1 6413   6.839   0.895   0.157
 1838SOL    HW2 6414   6.733   0.989   0.239
 1839SOL     OW 6415   6.412   1.712   6.689
 1839SOL    HW1 6416   6.458   1.636   6.734
 1839SOL    HW2 6417   6.478   1.765   6.637
 1840SOL     OW 6418   3.547   0.158   3.023
 1840SOL    HW1 6419   3.498   0.219   3.085
 1840SOL    HW2 6420   3.548   0.065   3.060
 1841SOL     OW 6421   1.846   0.306   1.949
 1841SOL    HW1 6422   1.900   0.230   1.913
 1841SOL    HW2 6423   1.811   0.282   2.039
 1842SOL     OW 6424   1.545   4.765   0.498
 1842SOL    HW1 6425   1.591   4.840   0.545
 1842SOL    HW2 6426   1.565   4.769   0.400
 1843SOL     OW 6427   3.678   1.299   4.812
 1843SOL    HW1 6428   3.777   1.302   4.802
 1843SOL    HW2 6429   3.646   1.384   4.855
 1844SOL     OW 6430   4.913   1.683   5.838
 1844SOL    HW1 6431   4.918   1.734   5.924
 1844SOL    HW2 6432   4.988   1.617   5.834
 1845SOL     OW 6433   2.702   0.863   3.189
 1845SOL    HW1 6434   2.756   0.863   3.273
 1845SOL    HW2 6435   2.629   0.931   3.196
 1846SOL     OW 6436   4.532   1.102   3.079
 1846SOL    HW1 6437   4.586   1.031   3.124
 1846SOL    HW2 6438   4.488   1.065   2.998
 1847SOL     OW 6439   1.842   0.583   4.555
 1847SOL    HW1 6440   1.792   0.650   4.501
 1847SOL    HW2 6441   1.923   0.553   4.505
 1848SOL     OW 6442   2.227   5.942   4.168
 1848SOL    HW1 6443   2.297   5.997   4.213
 1848SOL    HW2 6444   2.163   6.003   4.120
 1849SOL     OW 6445   5.025   2.895   2.514
 1849SOL    HW1 6446   5.074   2.943   2.441
 1849SOL    HW2 6447   5.081   2.819   2.547
 1850SOL     OW 6448   4.796   1.867   2.279
 1850SOL    HW1 6449   4.855   1.928   2.226
 1850SOL    HW2 6450   4.828   1.864   2.374
 1851SOL     OW 6451   0.412   2.885   6.622
 1851SOL    HW1 6452   0.399   2.981   6.595
 1851SOL    HW2 6453   0.504   2.873   6.658
 1852SOL     OW 6454   1.001   3.934   1.878
 1852SOL    HW1 6455   0.940   3.874   1.929
 1852SOL    HW2 6456   1.082   3.954   1.933
 1853SOL     OW 6457   0.173   3.155   4.990
 1853SOL    HW1 6458   0.127   3.108   4.914
 1853SOL    HW2 6459   0.243   3.217   4.953
 1854SOL     OW 6460   1.085   5.669   3.437
 1854SOL    HW1 6461   1.152   5.721   3.384
 1854SOL    HW2 6462   1.016   5.631   3.375
 1855SOL     OW 6463   5.116   3.424   4.220
 1855SOL    HW1 6464   5.174   3.440   4.300
 1855SOL    HW2 6465   5.173   3.409   4.140
 1856SOL     OW 6466   3.793   2.990   6.716
 1856SOL    HW1 6467   3.853   3.059   6.674
 1856SOL    HW2 6468   3.746   2.939   6.644
 1857SOL     OW 6469   5.781   0.865   0.482
 1857SOL    HW1 6470   5.712   0.844   0.550
 1857SOL    HW2 6471   5.868   0.822   0.508
 1858SOL     OW 6472   4.977   2.144   4.241
 1858SOL    HW1 6473   4.929   2.223   4.203
 1858SOL    HW2 6474   4.929   2.114   4.324
 1859SOL     OW 6475   5.503   1.835   5.091
 1859SOL    HW1 6476   5.437   1.761   5.097
 1859SOL    HW2 6477   5.494   1.881   5.003
 1860SOL     OW 6478   0.581   1.735   4.589
 1860SOL    HW1 6479   0.645   1.728   4.512
 1860SOL    HW2 6480   0.492   1.766   4.556
 1861SOL     OW 6481   5.627   0.533   3.010
 1861SOL    HW1 6482   5.528   0.526   3.016
 1861SOL    HW2 6483   5.660   0.480   2.932
 1862SOL     OW 6484   1.973   6.562   6.842
 1862SOL    HW1 6485   1.874   6.563   6.858
 1862SOL    HW2 6486   1.991   6.560   6.744
 1863SOL     OW 6487   0.757   2.813   0.954
 1863SOL    HW1 6488   0.733   2.875   1.028
 1863SOL    HW2 6489   0.857   2.812   0.942
 1864SOL     OW 6490   2.998   6.048   4.521
 1864SOL    HW1 6491   2.997   6.081   4.426
 1864SOL    HW2 6492   3.092   6.050   4.555
 1865SOL     OW 6493   4.559   1.662   0.977
 1865SOL    HW1 6494   4.603   1.611   0.903
 1865SOL    HW2 6495   4.494   1.728   0.939
 1866SOL     OW 6496   6.849   3.984   4.325
 1866SOL    HW1 6497   6.823   3.887   4.325
 1866SOL    HW2 6498   6.770   4.040   4.301
 1867SOL     OW 6499   2.639   2.708   1.468
 1867SOL    HW1 6500   2.722   2.705   1.412
 1867SOL    HW2 6501   2.599   2.617   1.473
 1868SOL     OW 6502   4.817   4.082   4.855
 1868SOL    HW1 6503   4.822   4.020   4.933
 1868SOL    HW2 6504   4.902   4.077   4.802
 1869SOL     OW 6505   4.859   2.372   3.990
 1869SOL    HW1 6506   4.922   2.342   3.919
 1869SOL    HW2 6507   4.875   2.469   4.010
 1870SOL     OW 6508   0.837   3.505   4.204
 1870SOL    HW1 6509   0.843   3.497   4.104
 1870SOL    HW2 6510   0.928   3.501   4.244
 1871SOL     OW 6511   0.345   6.469   0.281
 1871SOL    HW1 6512   0.360   6.375   0.249
 1871SOL    HW2 6513   0.305   6.468   0.372
 1872SOL     OW 6514   3.211   2.670   0.342
 1872SOL    HW1 6515   3.137   2.635   0.284
 1872SOL    HW2 6516   3.202   2.632   0.434
 1873SOL     OW 6517   6.486   1.275   0.105
 1873SOL    HW1 6518   6.401   1.230   0.131
 1873SOL    HW2 6519   6.564   1.218   0.132
 1874SOL     OW 6520   0.974   0.344   5.934
 1874SOL    HW1 6521   0.908   0.292   5.880
 1874SOL    HW2 6522   1.043   0.384   5.874
 1875SOL     OW 6523   6.234   6.519   6.873
 1875SOL    HW1 6524   6.215   6.512   6.971
 1875SOL    HW2 6525   6.238   6.428   6.833
 1876SOL     OW 6526   5.368   6.562   5.884
 1876SOL    HW1 6527   5.310   6.615   5.821
 1876SOL    HW2 6528   5.316   6.540   5.966
 1877SOL     OW 6529   0.372   0.787   2.094
 1877SOL    HW1 6530   0.362   0.688   2.089
 1877SOL    HW2 6531   0.324   0.822   2.174
 1878SOL     OW 6532   0.582   4.050   3.194
 1878SOL    HW1 6533   0.595   4.070   3.097
 1878SOL    HW2 6534   0.664   4.006   3.231
 1879SOL     OW 6535   2.564   5.280   4.697
 1879SOL    HW1 6536   2.585   5.357   4.758
 1879SOL    HW2 6537   2.620   5.201   4.722
 1880SOL     OW 6538   6.938   2.399   3.084
 1880SOL    HW1 6539   6.961   2.311   3.125
 1880SOL    HW2 6540   6.923   2.467   3.157
 1881SOL     OW 6541   1.401   2.030   3.095
 1881SOL    HW1 6542   1.350   2.053   3.178
 1881SOL    HW2 6543   1.338   2.002   3.023
 1882SOL     OW 6544   0.936   5.916   0.164
 1882SOL    HW1 6545   0.997   5.904   0.085
 1882SOL    HW2 6546   0.991   5.926   0.247
 1883SOL     OW 6547   1.667   3.584   2.637
 1883SOL    HW1 6548   1.572   3.559   2.618
 1883SOL    HW2 6549   1.678   3.683   2.634
 1884SOL     OW 6550   4.012   0.985   0.513
 1884SOL    HW1 6551   4.017   0.887   0.533
 1884SOL    HW2 6552   4.095   1.030   0.547
 1885SOL     OW 6553   0.081   2.679   0.916
 1885SOL    HW1 6554   0.135   2.681   1.000
 1885SOL    HW2 6555   0.054   2.585   0.896
 1886SOL     OW 6556   2.116   1.766   6.376
 1886SOL    HW1 6557   2.079   1.775   6.468
 1886SOL    HW2 6558   2.197   1.706   6.378
 1887SOL     OW 6559   0.497   4.675   5.689
 1887SOL    HW1 6560   0.535   4.767   5.683
 1887SOL    HW2 6561   0.422   4.674   5.755
 1888SOL     OW 6562   1.972   1.884   4.878
 1888SOL    HW1 6563   1.983   1.982   4.893
 1888SOL    HW2 6564   1.935   1.841   4.960
 1889SOL     OW 6565   4.343   3.278   0.206
 1889SOL    HW1 6566   4.368   3.375   0.196
 1889SOL    HW2 6567   4.245   3.271   0.223
 1890SOL     OW 6568   0.882   6.059   5.787
 1890SOL    HW1 6569   0.850   6.038   5.879
 1890SOL    HW2 6570   0.876   6.157   5.771
 1891SOL     OW 6571   6.081   3.444   5.807
 1891SOL    HW1 6572   6.004   3.402   5.758
 1891SOL    HW2 6573   6.156   3.460   5.743
 1892SOL     OW 6574   4.080   6.217   1.151
 1892SOL    HW1 6575   4.157   6.171   1.196
 1892SOL    HW2 6576   3.994   6.177   1.181
 1893SOL     OW 6577   3.346   2.146   4.842
 1893SOL    HW1 6578   3.316   2.161   4.748
 1893SOL    HW2 6579   3.290   2.201   4.904
 1894SOL     OW 6580   4.476   4.074   1.554
 1894SOL    HW1 6581   4.561   4.099   1.507
 1894SOL    HW2 6582   4.462   4.134   1.632
 1895SOL     OW 6583   6.263   1.247   2.616
 1895SOL    HW1 6584   6.249   1.172   2.551
 1895SOL    HW2 6585   6.192   1.244   2.687
 1896SOL     OW 6586   6.005   1.457   4.166
 1896SOL    HW1 6587   6.014   1.357   4.166
 1896SOL    HW2 6588   6.094   1.498   4.185
 1897SOL     OW 6589   6.210   5.508   3.926
 1897SOL    HW1 6590   6.192   5.429   3.867
 1897SOL    HW2 6591   6.275   5.569   3.881
 1898SOL     OW 6592   5.264   6.031   1.327
 1898SOL    HW1 6593   5.343   5.970   1.339
 1898SOL    HW2 6594   5.244   6.042   1.230
 1899SOL     OW 6595   0.090   3.612   2.697
 1899SOL    HW1 6596   0.105   3.564   2.783
 1899SOL    HW2 6597   0.004   3.663   2.702
 1900SOL     OW 6598   1.518   6.970   6.567
 1900SOL    HW1 6599   1.429   7.000   6.602
 1900SOL    HW2 6600   1.587   0.016   6.589
 1901SOL     OW 6601   2.272   1.335   6.971
 1901SOL    HW1 6602   2.270   1.403   0.022
 1901SOL    HW2 6603   2.314   1.374   6.889
 1902SOL     OW 6604   1.357   2.298   4.523
 1902SOL    HW1 6605   1.397   2.283   4.613
 1902SOL    HW2 6606   1.259   2.317   4.532
 1903SOL     OW 6607   6.450   5.015   3.640
 1903SOL    HW1 6608   6.388   5.035   3.564
 1903SOL    HW2 6609   6.469   5.098   3.691
 1904SOL     OW 6610   0.367   0.087   4.370
 1904SOL    HW1 6611   0.366   7.009   4.367
 1904SOL    HW2 6612   0.450   0.118   4.418
 1905SOL     OW 6613   6.874   1.996   3.652
 1905SOL    HW1 6614   6.814   1.979   3.730
 1905SOL    HW2 6615   6.846   2.080   3.607
 1906SOL     OW 6616   2.835   0.370   5.558
 1906SOL    HW1 6617   2.771   0.310   5.510
 1906SOL    HW2 6618   2.819   0.365   5.656
 1907SOL     OW 6619   2.821   0.023   3.303
 1907SOL    HW1 6620   2.786   6.982   3.373
 1907SOL    HW2 6621   2.920   0.031   3.313
 1908SOL     OW 6622   4.687   1.187   5.646
 1908SOL    HW1 6623   4.690   1.089   5.629
 1908SOL    HW2 6624   4.601   1.225   5.612
 1909SOL     OW 6625   2.373   4.597   4.743
 1909SOL    HW1 6626   2.438   4.606   4.819
 1909SOL    HW2 6627   2.293   4.546   4.774
 1910SOL     OW 6628   5.242   2.311   6.700
 1910SOL    HW1 6629   5.327   2.285   6.655
 1910SOL    HW2 6630   5.171   2.327   6.631
 1911SOL     OW 6631   6.641   1.934   4.977
 1911SOL    HW1 6632   6.565   1.940   4.912
 1911SOL    HW2 6633   6.610   1.888   5.060
 1912SOL     OW 6634   3.548   6.531   2.448
 1912SOL    HW1 6635   3.519   6.474   2.372
 1912SOL    HW2 6636   3.636   6.573   2.427
 1913SOL     OW 6637   2.010   6.526   5.386
 1913SOL    HW1 6638   1.986   6.470   5.307
 1913SOL    HW2 6639   1.985   6.621   5.369
 1914SOL     OW 6640   2.206   3.069   6.545
 1914SOL    HW1 6641   2.161   3.154   6.574
 1914SOL    HW2 6642   2.140   2.994   6.548
 1915SOL     OW 6643   3.793   0.804   6.119
 1915SOL    HW1 6644   3.779   0.719   6.170
 1915SOL    HW2 6645   3.865   0.791   6.051
 1916SOL     OW 6646   4.150   5.655   0.966
 1916SOL    HW1 6647   4.239   5.702   0.970
 1916SOL    HW2 6648   4.108   5.671   0.877
 1917SOL     OW 6649   3.942   4.012   4.502
 1917SOL    HW1 6650   3.857   4.027   4.553
 1917SOL    HW2 6651   4.020   4.042   4.557
 1918SOL     OW 6652   6.175   6.671   6.064
 1918SOL    HW1 6653   6.111   6.699   5.992
 1918SOL    HW2 6654   6.268   6.673   6.028
 1919SOL     OW 6655   1.050   6.162   2.201
 1919SOL    HW1 6656   1.016   6.074   2.167
 1919SOL    HW2 6657   1.102   6.147   2.285
 1920SOL     OW 6658   0.845   4.187   3.796
 1920SOL    HW1 6659   0.899   4.107   3.774
 1920SOL    HW2 6660   0.904   4.258   3.834
 1921SOL     OW 6661   0.531   5.382   6.826
 1921SOL    HW1 6662   0.510   5.464   6.773
 1921SOL    HW2 6663   0.475   5.380   6.908
 1922SOL     OW 6664   4.260   3.238   1.277
 1922SOL    HW1 6665   4.183   3.286   1.236
 1922SOL    HW2 6666   4.285   3.159   1.220
 1923SOL     OW 6667   2.930   1.523   0.527
 1923SOL    HW1 6668   2.959   1.595   0.464
 1923SOL    HW2 6669   2.870   1.459   0.480
 1924SOL     OW 6670   6.792   4.512   1.655
 1924SOL    HW1 6671   6.727   4.439   1.678
 1924SOL    HW2 6672   6.856   4.479   1.585
 1925SOL     OW 6673   2.909   3.856   1.763
 1925SOL    HW1 6674   2.977   3.909   1.711
 1925SOL    HW2 6675   2.950   3.827   1.850
 1926SOL     OW 6676   1.449   0.603   4.484
 1926SOL    HW1 6677   1.437   0.518   4.433
 1926SOL    HW2 6678   1.360   0.648   4.495
 1927SOL     OW 6679   3.544   3.978   6.903
 1927SOL    HW1 6680   3.625   4.030   6.875
 1927SOL    HW2 6681   3.571   3.886   6.930
 1928SOL     OW 6682   6.421   3.082   5.907
 1928SOL    HW1 6683   6.398   3.056   6.001
 1928SOL    HW2 6684   6.340   3.073   5.849
 1929SOL     OW 6685   1.227   5.811   1.964
 1929SOL    HW1 6686   1.183   5.852   1.885
 1929SOL    HW2 6687   1.326   5.827   1.959
 1930SOL     OW 6688   6.105   4.422   0.072
 1930SOL    HW1 6689   6.054   4.508   0.069
 1930SOL    HW2 6690   6.109   4.383   7.001
 1931SOL     OW 6691   6.923   3.316   3.219
 1931SOL    HW1 6692   6.883   3.318   3.311
 1931SOL    HW2 6693   7.013   3.274   3.223
 1932SOL     OW 6694   5.220   3.863   2.949
 1932SOL    HW1 6695   5.285   3.853   3.024
 1932SOL    HW2 6696   5.233   3.788   2.883
 1933SOL     OW 6697   2.799   5.210   0.901
 1933SOL    HW1 6698   2.840   5.191   0.811
 1933SOL    HW2 6699   2.791   5.308   0.914
 1934SOL     OW 6700   1.487   6.870   5.633
 1934SOL    HW1 6701   1.569   6.925   5.654
 1934SOL    HW2 6702   1.413   6.896   5.695
 1935SOL     OW 6703   2.893   0.165   4.904
 1935SOL    HW1 6704   2.925   0.071   4.894
 1935SOL    HW2 6705   2.913   0.197   4.997
 1936SOL     OW 6706   5.406   5.480   5.164
 1936SOL    HW1 6707   5.373   5.477   5.258
 1936SOL    HW2 6708   5.333   5.514   5.104
 1937SOL     OW 6709   3.913   6.541   1.922
 1937SOL    HW1 6710   3.848   6.522   1.849
 1937SOL    HW2 6711   4.005   6.514   1.893
 1938SOL     OW 6712   4.076   1.618   3.347
 1938SOL    HW1 6713   4.071   1.681   3.270
 1938SOL    HW2 6714   3.992   1.563   3.351
 1939SOL     OW 6715   1.049   0.602   3.574
 1939SOL    HW1 6716   1.134   0.579   3.526
 1939SOL    HW2 6717   0.996   0.518   3.589
 1940SOL     OW 6718   4.799   5.484   6.592
 1940SOL    HW1 6719   4.801   5.449   6.686
 1940SOL    HW2 6720   4.728   5.554   6.584
 1941SOL     OW 6721   6.725   4.522   3.031
 1941SOL    HW1 6722   6.696   4.473   3.113
 1941SOL    HW2 6723   6.756   4.614   3.056
 1942SOL     OW 6724   5.459   5.929   2.190
 1942SOL    HW1 6725   5.432   5.948   2.095
 1942SOL    HW2 6726   5.539   5.984   2.213
 1943SOL     OW 6727   3.377   5.749   1.980
 1943SOL    HW1 6728   3.416   5.793   1.899
 1943SOL    HW2 6729   3.294   5.797   2.007
 1944SOL     OW 6730   5.105   1.840   6.694
 1944SOL    HW1 6731   5.024   1.885   6.655
 1944SOL    HW2 6732   5.124   1.879   6.784
 1945SOL     OW 6733   4.853   5.492   3.009
 1945SOL    HW1 6734   4.764   5.535   2.993
 1945SOL    HW2 6735   4.839   5.398   3.040
 1946SOL     OW 6736   0.511   1.125   0.609
 1946SOL    HW1 6737   0.595   1.116   0.664
 1946SOL    HW2 6738   0.482   1.035   0.577
 1947SOL     OW 6739   5.392   6.324   4.414
 1947SOL    HW1 6740   5.483   6.311   4.454
 1947SOL    HW2 6741   5.377   6.422   4.397
 1948SOL     OW 6742   6.547   5.403   4.703
 1948SOL    HW1 6743   6.456   5.373   4.734
 1948SOL    HW2 6744   6.605   5.323   4.688
 1949SOL     OW 6745   4.219   3.988   5.748
 1949SOL    HW1 6746   4.167   3.924   5.691
 1949SOL    HW2 6747   4.156   4.041   5.804
 1950SOL     OW 6748   3.844   3.827   0.288
 1950SOL    HW1 6749   3.862   3.813   0.190
 1950SOL    HW2 6750   3.877   3.917   0.316
 1951SOL     OW 6751   6.829   2.747   0.506
 1951SOL    HW1 6752   6.837   2.800   0.590
 1951SOL    HW2 6753   6.876   2.794   0.432
 1952SOL     OW 6754   3.708   2.649   0.136
 1952SOL    HW1 6755   3.699   2.620   0.232
 1952SOL    HW2 6756   3.637   2.716   0.114
 1953SOL     OW 6757   6.765   2.034   6.934
 1953SOL    HW1 6758   6.694   1.993   6.991
 1953SOL    HW2 6759   6.783   2.128   6.966
 1954SOL     OW 6760   5.640   2.226   3.892
 1954SOL    HW1 6761   5.697   2.273   3.824
 1954SOL    HW2 6762   5.699   2.173   3.953
 1955SOL     OW 6763   1.335   6.921   1.724
 1955SOL    HW1 6764   1.268   6.996   1.725
 1955SOL    HW2 6765   1.386   6.921   1.810
 1956SOL     OW 6766   5.500   6.268   2.691
 1956SOL    HW1 6767   5.541   6.256   2.781
 1956SOL    HW2 6768   5.541   6.348   2.646
 1957SOL     OW 6769   6.290   5.599   5.343
 1957SOL    HW1 6770   6.275   5.698   5.342
 1957SOL    HW2 6771   6.203   5.552   5.361
 1958SOL     OW 6772   6.197   3.405   4.076
 1958SOL    HW1 6773   6.275   3.343   4.076
 1958SOL    HW2 6774   6.150   3.399   3.988
 1959SOL     OW 6775   0.736   2.647   5.903
 1959SOL    HW1 6776   0.718   2.699   5.986
 1959SOL    HW2 6777   0.834   2.624   5.898
 1960SOL     OW 6778   6.782   4.814   1.247
 1960SOL    HW1 6779   6.799   4.716   1.233
 1960SOL    HW2 6780   6.712   4.825   1.318
 1961SOL     OW 6781   5.718   4.307   4.354
 1961SOL    HW1 6782   5.692   4.330   4.447
 1961SOL    HW2 6783   5.761   4.385   4.311
 1962SOL     OW 6784   1.498   6.192   3.347
 1962SOL    HW1 6785   1.592   6.224   3.355
 1962SOL    HW2 6786   1.498   6.093   3.335
 1963SOL     OW 6787   0.947   0.798   1.995
 1963SOL    HW1 6788   0.883   0.760   2.062
 1963SOL    HW2 6789   0.899   0.865   1.937
 1964SOL     OW 6790   4.580   2.904   1.390
 1964SOL    HW1 6791   4.637   2.822   1.382
 1964SOL    HW2 6792   4.486   2.877   1.410
 1965SOL     OW 6793   0.684   3.038   2.849
 1965SOL    HW1 6794   0.624   3.089   2.910
 1965SOL    HW2 6795   0.750   2.986   2.903
 1966SOL     OW 6796   0.379   5.207   5.307
 1966SOL    HW1 6797   0.452   5.191   5.374
 1966SOL    HW2 6798   0.348   5.302   5.315
 1967SOL     OW 6799   4.679   1.927   6.252
 1967SOL    HW1 6800   4.600   1.866   6.240
 1967SOL    HW2 6801   4.658   2.017   6.214
 1968SOL     OW 6802   3.213   6.293   0.274
 1968SOL    HW1 6803   3.204   6.279   0.372
 1968SOL    HW2 6804   3.228   6.204   0.229
 1969SOL     OW 6805   0.033   1.018   1.937
 1969SOL    HW1 6806   7.002   0.944   1.979
 1969SOL    HW2 6807   6.996   1.097   1.922
 1970SOL     OW 6808   2.720   1.101   6.061
 1970SOL    HW1 6809   2.629   1.084   6.100
 1970SOL    HW2 6810   2.722   1.193   6.021
 1971SOL     OW 6811   6.720   0.418   6.155
 1971SOL    HW1 6812   6.639   0.411   6.214
 1971SOL    HW2 6813   6.801   0.393   6.207
 1972SOL     OW 6814   0.241   2.785   3.032
 1972SOL    HW1 6815   0.309   2.838   3.083
 1972SOL    HW2 6816   0.186   2.847   2.977
 1973SOL     OW 6817   3.536   3.422   1.458
 1973SOL    HW1 6818   3.607   3.379   1.402
 1973SOL    HW2 6819   3.579   3.469   1.536
 1974SOL     OW 6820   6.036   6.031   4.182
 1974SOL    HW1 6821   6.035   6.011   4.280
 1974SOL    HW2 6822   6.055   6.128   4.168
 1975SOL     OW 6823   2.654   1.157   3.079
 1975SOL    HW1 6824   2.590   1.234   3.074
 1975SOL    HW2 6825   2.668   1.118   2.988
 1976SOL     OW 6826   0.634   6.189   6.905
 1976SOL    HW1 6827   0.690   6.166   6.984
 1976SOL    HW2 6828   0.640   6.117   6.836
 1977SOL     OW 6829   0.923   2.760   3.676
 1977SOL    HW1 6830   1.021   2.755   3.654
 1977SOL    HW2 6831   0.878   2.820   3.610
 1978SOL     OW 6832   1.587   0.788   4.111
 1978SOL    HW1 6833   1.527   0.830   4.043
 1978SOL    HW2 6834   1.642   0.717   4.068
 1979SOL     OW 6835   6.890   4.197   4.964
 1979SOL    HW1 6836   6.874   4.220   5.060
 1979SOL    HW2 6837   6.887   4.280   4.909
 1980SOL     OW 6838   3.059   0.305   0.373
 1980SOL    HW1 6839   3.047   0.231   0.439
 1980SOL    HW2 6840   3.149   0.348   0.387
 1981SOL     OW 6841   5.164   1.992   2.399
 1981SOL    HW1 6842   5.154   1.893   2.406
 1981SOL    HW2 6843   5.251   2.014   2.355
 1982SOL     OW 6844   6.253   4.379   5.652
 1982SOL    HW1 6845   6.168   4.327   5.655
 1982SOL    HW2 6846   6.331   4.315   5.658
 1983SOL     OW 6847   0.998   2.692   2.619
 1983SOL    HW1 6848   1.045   2.607   2.643
 1983SOL    HW2 6849   1.061   2.752   2.570
 1984SOL     OW 6850   5.325   1.312   5.530
 1984SOL    HW1 6851   5.284   1.352   5.613
 1984SOL    HW2 6852   5.412   1.269   5.553
 1985SOL     OW 6853   1.300   0.752   2.306
 1985SOL    HW1 6854   1.372   0.819   2.291
 1985SOL    HW2 6855   1.333   0.661   2.279
 1986SOL     OW 6856   1.320   1.272   0.002
 1986SOL    HW1 6857   1.411   1.282   6.983
 1986SOL    HW2 6858   1.259   1.343   6.988
 1987SOL     OW 6859   2.367   3.367   1.501
 1987SOL    HW1 6860   2.367   3.408   1.410
 1987SOL    HW2 6861   2.303   3.415   1.560
 1988SOL     OW 6862   4.930   4.124   1.007
 1988SOL    HW1 6863   4.870   4.200   0.985
 1988SOL    HW2 6864   4.982   4.097   0.925
 1989SOL     OW 6865   2.124   0.677   5.186
 1989SOL    HW1 6866   2.088   0.729   5.108
 1989SOL    HW2 6867   2.190   0.734   5.235
 1990SOL     OW 6868   3.320   0.124   1.458
 1990SOL    HW1 6869   3.382   0.156   1.529
 1990SOL    HW2 6870   3.272   0.042   1.489
 1991SOL     OW 6871   3.804   5.205   6.140
 1991SOL    HW1 6872   3.748   5.224   6.059
 1991SOL    HW2 6873   3.798   5.282   6.204
 1992SOL     OW 6874   2.456   6.576   6.507
 1992SOL    HW1 6875   2.519   6.550   6.580
 1992SOL    HW2 6876   2.390   6.642   6.543
 1993SOL     OW 6877   4.357   3.299   5.287
 1993SOL    HW1 6878   4.363   3.330   5.192
 1993SOL    HW2 6879   4.442   3.321   5.335
 1994SOL     OW 6880   1.579   2.346   1.560
 1994SOL    HW1 6881   1.592   2.442   1.534
 1994SOL    HW2 6882   1.499   2.310   1.513
 1995SOL     OW 6883   6.137   2.522   2.033
 1995SOL    HW1 6884   6.164   2.490   1.942
 1995SOL    HW2 6885   6.206   2.495   2.100
 1996SOL     OW 6886   2.804   3.933   0.868
 1996SOL    HW1 6887   2.777   3.857   0.926
 1996SOL    HW2 6888   2.812   3.902   0.773
 1997SOL     OW 6889   4.621   0.284   5.851
 1997SOL    HW1 6890   4.565   0.211   5.890
 1997SOL    HW2 6891   4.658   0.254   5.763
 1998SOL     OW 6892   2.981   3.769   5.836
 1998SOL    HW1 6893   3.017   3.847   5.887
 1998SOL    HW2 6894   2.981   3.791   5.738
 1999SOL     OW 6895   2.907   0.165   1.901
 1999SOL    HW1 6896   2.871   0.150   1.993
 1999SOL    HW2 6897   2.983   0.229   1.905
 2000SOL     OW 6898   4.172   1.696   5.589
 2000SOL    HW1 6899   4.219   1.779   5.621
 2000SOL    HW2 6900   4.074   1.710   5.595
 2001SOL     OW 6901   3.388   2.324   1.752
 2001SOL    HW1 6902   3.484   2.315   1.780
 2001SOL    HW2 6903   3.362   2.420   1.756
 2002SOL     OW 6904   1.169   5.762   6.286
 2002SOL    HW1 6905   1.206   5.840   6.336
 2002SOL    HW2 6906   1.236   5.688   6.286
 2003SOL     OW 6907   4.503   0.077   3.571
 2003SOL    HW1 6908   4.600   0.103   3.577
 2003SOL    HW2 6909   4.476   0.074   3.475
 2004SOL     OW 6910   4.928   0.997   4.786
 2004SOL    HW1 6911   4.851   1.019   4.725
 2004SOL    HW2 6912   4.892   0.960   4.872
 2005SOL     OW 6913   1.350   5.545   0.084
 2005SOL    HW1 6914   1.447   5.569   0.093
 2005SOL    HW2 6915   1.338   5.486   0.004
 2006SOL     OW 6916   5.256   4.147   3.306
 2006SOL    HW1 6917   5.293   4.055   3.320
 2006SOL    HW2 6918   5.173   4.142   3.252
 2007SOL     OW 6919   4.453   6.060   0.386
 2007SOL    HW1 6920   4.443   6.013   0.298
 2007SOL    HW2 6921   4.390   6.137   0.390
 2008SOL     OW 6922   1.015   5.114   3.278
 2008SOL    HW1 6923   1.012   5.039   3.344
 2008SOL    HW2 6924   1.075   5.089   3.202
 2009SOL     OW 6925   6.844   0.289   1.399
 2009SOL    HW1 6926   6.843   0.347   1.317
 2009SOL    HW2 6927   6.791   0.333   1.472
 2010SOL     OW 6928   1.594   1.090   0.776
 2010SOL    HW1 6929   1.576   1.138   0.862
 2010SOL    HW2 6930   1.524   1.114   0.709
 2011SOL     OW 6931   6.249   1.691   5.037
 2011SOL    HW1 6932   6.236   1.767   5.101
 2011SOL    HW2 6933   6.218   1.718   4.946
 2012SOL     OW 6934   1.020   3.638   1.159
 2012SOL    HW1 6935   0.920   3.637   1.166
 2012SOL    HW2 6936   1.058   3.581   1.232
 2013SOL     OW 6937   5.318   1.043   3.030
 2013SOL    HW1 6938   5.227   1.057   2.992
 2013SOL    HW2 6939   5.331   0.946   3.050
 2014SOL     OW 6940   1.596   5.225   3.172
 2014SOL    HW1 6941   1.617   5.308   3.120
 2014SOL    HW2 6942   1.676   5.165   3.173
 2015SOL     OW 6943   2.668   1.216   6.604
 2015SOL    HW1 6944   2.717   1.296   6.569
 2015SOL    HW2 6945   2.620   1.171   6.529
 2016SOL     OW 6946   0.710   6.111   5.274
 2016SOL    HW1 6947   0.775   6.060   5.218
 2016SOL    HW2 6948   0.758   6.150   5.353
 2017SOL     OW 6949   3.925   6.323   3.566
 2017SOL    HW1 6950   3.905   6.303   3.662
 2017SOL    HW2 6951   3.844   6.306   3.510
 2018SOL     OW 6952   6.536   5.765   6.115
 2018SOL    HW1 6953   6.437   5.775   6.103
 2018SOL    HW2 6954   6.565   5.815   6.196
 2019SOL     OW 6955   5.018   2.833   2.100
 2019SOL    HW1 6956   4.945   2.900   2.101
 2019SOL    HW2 6957   5.026   2.793   2.008
 2020SOL     OW 6958   1.052   4.815   4.735
 2020SOL    HW1 6959   1.017   4.904   4.705
 2020SOL    HW2 6960   1.067   4.756   4.656
 2021SOL     OW 6961   2.207   0.016   2.915
 2021SOL    HW1 6962   2.135   6.994   2.861
 2021SOL    HW2 6963   2.294   0.006   2.869
 2022SOL     OW 6964   1.930   3.746   2.343
 2022SOL    HW1 6965   1.844   3.748   2.293
 2022SOL    HW2 6966   1.998   3.695   2.290
 2023SOL     OW 6967   0.087   1.842   0.439
 2023SOL    HW1 6968   0.077   1.922   0.499
 2023SOL    HW2 6969   0.000   1.792   0.437
 2024SOL     OW 6970   6.920   0.918   2.739
 2024SOL    HW1 6971   6.992   0.888   2.803
 2024SOL    HW2 6972   6.875   0.999   2.777
 2025SOL     OW 6973   1.660   2.586   2.258
 2025SOL    HW1 6974   1.647   2.652   2.333
 2025SOL    HW2 6975   1.757   2.574   2.240
 2026SOL     OW 6976   1.510   2.252   5.911
 2026SOL    HW1 6977   1.489   2.321   5.980
 2026SOL    HW2 6978   1.433   2.243   5.848
 2027SOL     OW 6979   1.457   1.544   1.329
 2027SOL    HW1 6980   1.430   1.452   1.360
 2027SOL    HW2 6981   1.512   1.537   1.246
 2028SOL     OW 6982   3.524   1.469   6.514
 2028SOL    HW1 6983   3.514   1.484   6.613
 2028SOL    HW2 6984   3.433   1.473   6.471
 2029SOL     OW 6985   0.329   0.266   6.806
 2029SOL    HW1 6986   0.353   0.206   6.729
 2029SOL    HW2 6987   0.331   0.361   6.775
 2030SOL     OW 6988   1.917   1.353   4.083
 2030SOL    HW1 6989   1.838   1.405   4.117
 2030SOL    HW2 6990   1.890   1.302   4.001
 2031SOL     OW 6991   4.968   6.192   2.255
 2031SOL    HW1 6992   5.045   6.253   2.266
 2031SOL    HW2 6993   4.899   6.235   2.197
 2032SOL     OW 6994   5.450   5.768   1.102
 2032SOL    HW1 6995   5.453   5.813   1.191
 2032SOL    HW2 6996   5.359   5.729   1.087
 2033SOL     OW 6997   3.508   4.579   6.820
 2033SOL    HW1 6998   3.456   4.495   6.807
 2033SOL    HW2 6999   3.458   4.656   6.779
 2034SOL     OW 7000   2.436   0.035   4.492
 2034SOL    HW1 7001   2.447   0.126   4.532
 2034SOL    HW2 7002   2.464   6.987   4.558
 2035SOL     OW 7003   0.313   0.736   2.558
 2035SOL    HW1 7004   0.312   0.784   2.646
 2035SOL    HW2 7005   0.408   0.714   2.534
 2036SOL     OW 7006   0.612   5.808   3.000
 2036SOL    HW1 7007   0.608   5.902   3.033
 2036SOL    HW2 7008   0.543   5.795   2.928
 2037SOL     OW 7009   6.605   1.829   5.776
 2037SOL    HW1 7010   6.548   1.796   5.851
 2037SOL    HW2 7011   6.652   1.751   5.733
 2038SOL     OW 7012   1.110   1.507   6.545
 2038SOL    HW1 7013   1.208   1.528   6.554
 2038SOL    HW2 7014   1.071   1.562   6.471
 2039SOL     OW 7015   0.892   5.252   3.056
 2039SOL    HW1 7016   0.938   5.232   3.142
 2039SOL    HW2 7017   0.802   5.292   3.075
 2040SOL     OW 7018   3.366   2.949   5.131
 2040SOL    HW1 7019   3.389   2.868   5.185
 2040SOL    HW2 7020   3.368   2.925   5.034
 2041SOL     OW 7021   6.894   6.320   6.682
 2041SOL    HW1 7022   6.827   6.354   6.616
 2041SOL    HW2 7023   6.902   6.221   6.673
 2042SOL     OW 7024   6.118   5.601   7.015
 2042SOL    HW1 7025   6.189   5.607   0.063
 2042SOL    HW2 7026   6.137   5.522   6.956
 2043SOL     OW 7027   6.907   4.510   2.459
 2043SOL    HW1 7028   6.810   4.517   2.482
 2043SOL    HW2 7029   6.958   4.584   2.504
 2044SOL     OW 7030   4.882   0.507   2.152
 2044SOL    HW1 7031   4.896   0.467   2.062
 2044SOL    HW2 7032   4.971   0.528   2.193
 2045SOL     OW 7033   2.458   4.356   5.334
 2045SOL    HW1 7034   2.515   4.408   5.269
 2045SOL    HW2 7035   2.464   4.259   5.312
 2046SOL     OW 7036   0.017   0.243   4.375
 2046SOL    HW1 7037   0.028   0.162   4.432
 2046SOL    HW2 7038   0.079   0.315   4.406
 2047SOL     OW 7039   4.414   2.046   6.765
 2047SOL    HW1 7040   4.391   2.132   6.810
 2047SOL    HW2 7041   4.422   2.061   6.666
 2048SOL     OW 7042   3.868   6.285   0.049
 2048SOL    HW1 7043   3.799   6.245   0.108
 2048SOL    HW2 7044   3.913   6.214   7.017
 2049SOL     OW 7045   4.247   2.289   6.256
 2049SOL    HW1 7046   4.167   2.315   6.201
 2049SOL    HW2 7047   4.239   2.329   6.347
 2050SOL     OW 7048   6.228   2.767   3.983
 2050SOL    HW1 7049   6.157   2.717   4.032
 2050SOL    HW2 7050   6.201   2.862   3.973
 2051SOL     OW 7051   6.791   4.861   0.129
 2051SOL    HW1 7052   6.863   4.835   0.065
 2051SOL    HW2 7053   6.825   4.850   0.223
 2052SOL     OW 7054   0.474   4.090   0.233
 2052SOL    HW1 7055   0.547   4.066   0.169
 2052SOL    HW2 7056   0.484   4.035   0.317
 2053SOL     OW 7057   6.030   0.473   0.665
 2053SOL    HW1 7058   6.062   0.423   0.584
 2053SOL    HW2 7059   6.109   0.498   0.722
 2054SOL     OW 7060   5.019   2.662   1.891
 2054SOL    HW1 7061   4.960   2.717   1.832
 2054SOL    HW2 7062   5.011   2.565   1.865
 2055SOL     OW 7063   6.058   3.172   2.595
 2055SOL    HW1 7064   6.042   3.250   2.655
 2055SOL    HW2 7065   6.008   3.093   2.629
 2056SOL     OW 7066   2.492   1.360   2.988
 2056SOL    HW1 7067   2.450   1.381   2.900
 2056SOL    HW2 7068   2.584   1.397   2.991
 2057SOL     OW 7069   5.736   2.671   3.863
 2057SOL    HW1 7070   5.650   2.707   3.828
 2057SOL    HW2 7071   5.812   2.729   3.833
 2058SOL     OW 7072   1.167   1.762   3.485
 2058SOL    HW1 7073   1.205   1.700   3.554
 2058SOL    HW2 7074   1.071   1.779   3.505
 2059SOL     OW 7075   2.851   6.488   5.940
 2059SOL    HW1 7076   2.780   6.455   6.002
 2059SOL    HW2 7077   2.864   6.422   5.866
 2060SOL     OW 7078   6.695   3.881   0.840
 2060SOL    HW1 7079   6.701   3.850   0.745
 2060SOL    HW2 7080   6.772   3.844   0.892
 2061SOL     OW 7081   1.249   1.960   2.878
 2061SOL    HW1 7082   1.161   1.942   2.923
 2061SOL    HW2 7083   1.292   1.874   2.853
 2062SOL     OW 7084   5.619   0.225   3.159
 2062SOL    HW1 7085   5.713   0.191   3.157
 2062SOL    HW2 7086   5.594   0.258   3.068
 2063SOL     OW 7087   0.953   1.600   5.958
 2063SOL    HW1 7088   0.924   1.624   5.865
 2063SOL    HW2 7089   0.873   1.593   6.017
 2064SOL     OW 7090   0.722   1.498   5.512
 2064SOL    HW1 7091   0.747   1.440   5.435
 2064SOL    HW2 7092   0.640   1.461   5.556
 2065SOL     OW 7093   6.432   4.152   2.644
 2065SOL    HW1 7094   6.421   4.219   2.718
 2065SOL    HW2 7095   6.493   4.079   2.674
 2066SOL     OW 7096   0.527   5.672   4.091
 2066SOL    HW1 7097   0.467   5.611   4.143
 2066SOL    HW2 7098   0.500   5.672   3.995
 2067SOL     OW 7099   6.995   6.866   0.966
 2067SOL    HW1 7100   7.019   6.853   0.869
 2067SOL    HW2 7101   6.923   6.935   0.974
 2068SOL     OW 7102   1.002   1.301   5.368
 2068SOL    HW1 7103   1.073   1.361   5.406
 2068SOL    HW2 7104   1.027   1.274   5.276
 2069SOL     OW 7105   0.374   2.386   3.424
 2069SOL    HW1 7106   0.288   2.373   3.474
 2069SOL    HW2 7107   0.436   2.441   3.479
 2070SOL     OW 7108   1.678   6.910   2.141
 2070SOL    HW1 7109   1.658   6.880   2.234
 2070SOL    HW2 7110   1.764   6.869   2.110
 2071SOL     OW 7111   0.156   5.638   5.668
 2071SOL    HW1 7112   0.244   5.649   5.622
 2071SOL    HW2 7113   0.099   5.719   5.652
 2072SOL     OW 7114   4.548   6.454   1.672
 2072SOL    HW1 7115   4.502   6.411   1.594
 2072SOL    HW2 7116   4.519   6.409   1.756
 2073SOL     OW 7117   3.645   0.181   4.543
 2073SOL    HW1 7118   3.620   0.232   4.625
 2073SOL    HW2 7119   3.743   0.158   4.546
 2074SOL     OW 7120   0.886   3.135   6.885
 2074SOL    HW1 7121   0.801   3.149   6.834
 2074SOL    HW2 7122   0.875   3.059   6.949
 2075SOL     OW 7123   5.233   2.465   1.709
 2075SOL    HW1 7124   5.236   2.412   1.794
 2075SOL    HW2 7125   5.150   2.442   1.658
 2076SOL     OW 7126   5.250   6.719   0.190
 2076SOL    HW1 7127   5.340   6.761   0.201
 2076SOL    HW2 7128   5.179   6.784   0.216
 2077SOL     OW 7129   4.535   2.517   2.255
 2077SOL    HW1 7130   4.473   2.447   2.222
 2077SOL    HW2 7131   4.524   2.600   2.200
 2078SOL     OW 7132   1.916   6.629   6.591
 2078SOL    HW1 7133   1.887   6.554   6.532
 2078SOL    HW2 7134   1.968   6.696   6.537
 2079SOL     OW 7135   5.369   0.930   3.675
 2079SOL    HW1 7136   5.360   0.955   3.578
 2079SOL    HW2 7137   5.292   0.969   3.726
 2080SOL     OW 7138   1.530   0.644   4.737
 2080SOL    HW1 7139   1.488   0.733   4.753
 2080SOL    HW2 7140   1.500   0.609   4.648
 2081SOL     OW 7141   1.494   5.994   5.274
 2081SOL    HW1 7142   1.549   6.020   5.353
 2081SOL    HW2 7143   1.552   5.951   5.205
 2082SOL     OW 7144   6.603   0.550   2.818
 2082SOL    HW1 7145   6.640   0.593   2.736
 2082SOL    HW2 7146   6.672   0.552   2.891
 2083SOL     OW 7147   4.707   4.623   6.422
 2083SOL    HW1 7148   4.622   4.618   6.370
 2083SOL    HW2 7149   4.686   4.647   6.517
 2084SOL     OW 7150   6.871   4.463   3.622
 2084SOL    HW1 7151   6.967   4.435   3.624
 2084SOL    HW2 7152   6.812   4.382   3.619
 2085SOL     OW 7153   5.355   1.144   0.308
 2085SOL    HW1 7154   5.258   1.119   0.300
 2085SOL    HW2 7155   5.363   1.240   0.334
 2086SOL     OW 7156   3.038   6.240   5.326
 2086SOL    HW1 7157   3.026   6.284   5.237
 2086SOL    HW2 7158   3.133   6.249   5.355
 2087SOL     OW 7159   4.742   0.306   2.308
 2087SOL    HW1 7160   4.759   0.309   2.407
 2087SOL    HW2 7161   4.804   0.369   2.262
 2088SOL     OW 7162   2.551   5.799   0.679
 2088SOL    HW1 7163   2.597   5.869   0.734
 2088SOL    HW2 7164   2.610   5.718   0.671
 2089SOL     OW 7165   4.703   1.635   6.890
 2089SOL    HW1 7166   4.669   1.722   6.854
 2089SOL    HW2 7167   4.725   1.646   6.987
 2090SOL     OW 7168   4.006   3.603   5.295
 2090SOL    HW1 7169   4.030   3.699   5.312
 2090SOL    HW2 7170   3.931   3.599   5.229
 2091SOL     OW 7171   6.864   5.767   0.086
 2091SOL    HW1 7172   6.806   5.842   0.054
 2091SOL    HW2 7173   6.811   5.705   0.143
 2092SOL     OW 7174   4.801   6.048   0.006
 2092SOL    HW1 7175   4.708   6.042   6.993
 2092SOL    HW2 7176   4.865   6.022   6.955
 2093SOL     OW 7177   1.759   2.677   1.773
 2093SOL    HW1 7178   1.778   2.581   1.788
 2093SOL    HW2 7179   1.812   2.733   1.837
 2094SOL     OW 7180   5.481   1.749   1.725
 2094SOL    HW1 7181   5.388   1.753   1.688
 2094SOL    HW2 7182   5.518   1.841   1.735
 2095SOL     OW 7183   5.523   0.072   4.837
 2095SOL    HW1 7184   5.563   0.108   4.921
 2095SOL    HW2 7185   5.512   6.995   4.845
 2096SOL     OW 7186   4.516   4.422   2.571
 2096SOL    HW1 7187   4.535   4.384   2.480
 2096SOL    HW2 7188   4.528   4.521   2.569
 2097SOL     OW 7189   1.523   3.009   0.075
 2097SOL    HW1 7190   1.463   3.077   0.117
 2097SOL    HW2 7191   1.619   3.037   0.089
 2098SOL     OW 7192   4.441   5.380   3.477
 2098SOL    HW1 7193   4.432   5.289   3.436
 2098SOL    HW2 7194   4.375   5.390   3.551
 2099SOL     OW 7195   2.790   2.884   5.360
 2099SOL    HW1 7196   2.826   2.924   5.276
 2099SOL    HW2 7197   2.724   2.946   5.401
 2100SOL     OW 7198   3.929   3.530   5.552
 2100SOL    HW1 7199   3.939   3.594   5.476
 2100SOL    HW2 7200   4.013   3.477   5.563
 2101SOL     OW 7201   1.420   6.799   2.881
 2101SOL    HW1 7202   1.370   6.815   2.966
 2101SOL    HW2 7203   1.482   6.722   2.893
 2102SOL     OW 7204   6.656   5.437   2.371
 2102SOL    HW1 7205   6.591   5.436   2.447
 2102SOL    HW2 7206   6.632   5.365   2.306
 2103SOL     OW 7207   2.903   3.030   6.545
 2103SOL    HW1 7208   2.839   3.105   6.562
 2103SOL    HW2 7209   2.866   2.945   6.584
 2104SOL     OW 7210   1.248   3.825   6.519
 2104SOL    HW1 7211   1.273   3.745   6.574
 2104SOL    HW2 7212   1.166   3.868   6.558
 2105SOL     OW 7213   4.917   5.614   4.496
 2105SOL    HW1 7214   4.825   5.614   4.534
 2105SOL    HW2 7215   4.984   5.617   4.571
 2106SOL     OW 7216   5.045   4.006   0.494
 2106SOL    HW1 7217   4.946   4.015   0.487
 2106SOL    HW2 7218   5.089   4.072   0.432
 2107SOL     OW 7219   4.763   2.769   5.818
 2107SOL    HW1 7220   4.735   2.853   5.771
 2107SOL    HW2 7221   4.779   2.789   5.915
 2108SOL     OW 7222   6.766   6.492   5.523
 2108SOL    HW1 7223   6.827   6.569   5.501
 2108SOL    HW2 7224   6.814   6.406   5.506
 2109SOL     OW 7225   4.760   6.626   3.176
 2109SOL    HW1 7226   4.850   6.591   3.150
 2109SOL    HW2 7227   4.748   6.617   3.275
 2110SOL     OW 7228   2.469   2.692   5.748
 2110SOL    HW1 7229   2.461   2.646   5.837
 2110SOL    HW2 7230   2.557   2.738   5.743
 2111SOL     OW 7231   1.076   2.192   6.598
 2111SOL    HW1 7232   1.074   2.095   6.620
 2111SOL    HW2 7233   0.992   2.216   6.549
 2112SOL     OW 7234   4.964   2.352   0.920
 2112SOL    HW1 7235   5.056   2.317   0.901
 2112SOL    HW2 7236   4.929   2.399   0.839
 2113SOL     OW 7237   1.483   0.379   5.201
 2113SOL    HW1 7238   1.474   0.472   5.236
 2113SOL    HW2 7239   1.399   0.352   5.154
 2114SOL     OW 7240   1.681   2.971   1.003
 2114SOL    HW1 7241   1.635   3.059   1.005
 2114SOL    HW2 7242   1.682   2.936   0.909
 2115SOL     OW 7243   2.158   3.967   2.917
 2115SOL    HW1 7244   2.225   4.031   2.880
 2115SOL    HW2 7245   2.183   3.874   2.888
 2116SOL     OW 7246   0.120   5.093   3.268
 2116SOL    HW1 7247   0.161   5.179   3.300
 2116SOL    HW2 7248   0.030   5.082   3.311
 2117SOL     OW 7249   6.847   4.298   1.116
 2117SOL    HW1 7250   6.804   4.243   1.045
 2117SOL    HW2 7251   6.780   4.362   1.153
 2118SOL     OW 7252   6.572   3.548   2.130
 2118SOL    HW1 7253   6.652   3.555   2.071
 2118SOL    HW2 7254   6.516   3.471   2.099
 2119SOL     OW 7255   2.316   5.936   1.284
 2119SOL    HW1 7256   2.343   5.853   1.237
 2119SOL    HW2 7257   2.300   6.009   1.218
 2120SOL     OW 7258   0.674   4.738   4.494
 2120SOL    HW1 7259   0.761   4.762   4.452
 2120SOL    HW2 7260   0.626   4.673   4.436
 2121SOL     OW 7261   0.748   4.619   5.847
 2121SOL    HW1 7262   0.708   4.555   5.912
 2121SOL    HW2 7263   0.694   4.620   5.763
 2122SOL     OW 7264   5.808   4.463   5.968
 2122SOL    HW1 7265   5.827   4.424   6.058
 2122SOL    HW2 7266   5.712   4.493   5.965
 2123SOL     OW 7267   6.659   4.749   1.853
 2123SOL    HW1 7268   6.577   4.723   1.903
 2123SOL    HW2 7269   6.690   4.672   1.796
 2124SOL     OW 7270   2.779   1.860   2.033
 2124SOL    HW1 7271   2.776   1.950   1.990
 2124SOL    HW2 7272   2.734   1.864   2.122
 2125SOL     OW 7273   2.016   0.592   0.683
 2125SOL    HW1 7274   1.984   0.503   0.650
 2125SOL    HW2 7275   1.963   0.619   0.763
 2126SOL     OW 7276   3.635   0.853   0.872
 2126SOL    HW1 7277   3.602   0.871   0.779
 2126SOL    HW2 7278   3.626   0.935   0.927
 2127SOL     OW 7279   6.829   3.470   4.212
 2127SOL    HW1 7280   6.926   3.446   4.222
 2127SOL    HW2 7281   6.777   3.429   4.287
 2128SOL     OW 7282   6.416   3.813   3.990
 2128SOL    HW1 7283   6.368   3.742   4.042
 2128SOL    HW2 7284   6.393   3.804   3.893
 2129SOL     OW 7285   4.721   3.083   5.238
 2129SOL    HW1 7286   4.671   3.051   5.318
 2129SOL    HW2 7287   4.723   3.011   5.169
 2130SOL     OW 7288   3.671   0.399   2.534
 2130SOL    HW1 7289   3.662   0.375   2.631
 2130SOL    HW2 7290   3.601   0.467   2.511
 2131SOL     OW 7291   6.486   0.430   0.888
 2131SOL    HW1 7292   6.518   0.335   0.880
 2131SOL    HW2 7293   6.554   0.485   0.935
 2132SOL     OW 7294   3.839   2.022   1.429
 2132SOL    HW1 7295   3.799   2.105   1.390
 2132SOL    HW2 7296   3.839   2.030   1.529
 2133SOL     OW 7297   2.400   3.099   6.336
 2133SOL    HW1 7298   2.368   3.077   6.428
 2133SOL    HW2 7299   2.486   3.051   6.318
 2134SOL     OW 7300   0.520   2.338   0.366
 2134SOL    HW1 7301   0.579   2.384   0.301
 2134SOL    HW2 7302   0.450   2.401   0.400
 2135SOL     OW 7303   0.627   3.988   5.126
 2135SOL    HW1 7304   0.715   3.993   5.173
 2135SOL    HW2 7305   0.562   4.051   5.170
 2136SOL     OW 7306   2.015   4.409   3.043
 2136SOL    HW1 7307   2.030   4.492   3.097
 2136SOL    HW2 7308   2.103   4.374   3.010
 2137SOL     OW 7309   2.329   5.379   5.466
 2137SOL    HW1 7310   2.333   5.449   5.538
 2137SOL    HW2 7311   2.314   5.423   5.378
 2138SOL     OW 7312   6.395   6.676   3.262
 2138SOL    HW1 7313   6.341   6.759   3.277
 2138SOL    HW2 7314   6.447   6.654   3.345
 2139SOL     OW 7315   4.480   0.869   3.910
 2139SOL    HW1 7316   4.439   0.956   3.937
 2139SOL    HW2 7317   4.408   0.802   3.891
 2140SOL     OW 7318   3.021   6.938   4.321
 2140SOL    HW1 7319   2.981   6.891   4.242
 2140SOL    HW2 7320   3.094   6.883   4.360
 2141SOL     OW 7321   6.420   2.882   2.585
 2141SOL    HW1 7322   6.493   2.945   2.557
 2141SOL    HW2 7323   6.452   2.827   2.662
 2142SOL     OW 7324   1.486   1.510   3.082
 2142SOL    HW1 7325   1.583   1.496   3.061
 2142SOL    HW2 7326   1.475   1.594   3.134
 2143SOL     OW 7327   3.301   4.988   1.177
 2143SOL    HW1 7328   3.344   4.933   1.105
 2143SOL    HW2 7329   3.372   5.020   1.241
 2144SOL     OW 7330   0.195   5.597   4.783
 2144SOL    HW1 7331   0.173   5.686   4.823
 2144SOL    HW2 7332   0.290   5.597   4.751
 2145SOL     OW 7333   3.835   6.282   4.518
 2145SOL    HW1 7334   3.795   6.192   4.536
 2145SOL    HW2 7335   3.818   6.343   4.596
 2146SOL     OW 7336   2.482   3.109   1.179
 2146SOL    HW1 7337   2.403   3.053   1.202
 2146SOL    HW2 7338   2.470   3.149   1.088
 2147SOL     OW 7339   5.784   1.266   6.737
 2147SOL    HW1 7340   5.856   1.318   6.784
 2147SOL    HW2 7341   5.699   1.318   6.740
 2148SOL     OW 7342   5.811   3.446   5.994
 2148SOL    HW1 7343   5.753   3.404   5.924
 2148SOL    HW2 7344   5.900   3.401   5.995
 2149SOL     OW 7345   2.147   1.667   1.141
 2149SOL    HW1 7346   2.175   1.575   1.111
 2149SOL    HW2 7347   2.061   1.661   1.191
 2150SOL     OW 7348   2.285   2.665   2.334
 2150SOL    HW1 7349   2.323   2.579   2.301
 2150SOL    HW2 7350   2.212   2.647   2.399
 2151SOL     OW 7351   1.468   6.351   6.409
 2151SOL    HW1 7352   1.507   6.302   6.487
 2151SOL    HW2 7353   1.531   6.346   6.331
 2152SOL     OW 7354   4.261   4.623   2.370
 2152SOL    HW1 7355   4.220   4.566   2.299
 2152SOL    HW2 7356   4.315   4.565   2.432
 2153SOL     OW 7357   3.758   1.818   2.499
 2153SOL    HW1 7358   3.808   1.739   2.534
 2153SOL    HW2 7359   3.807   1.902   2.523
 2154SOL     OW 7360   3.662   6.984   4.110
 2154SOL    HW1 7361   3.685   6.905   4.166
 2154SOL    HW2 7362   3.735   7.000   4.044
 2155SOL     OW 7363   4.245   0.125   0.908
 2155SOL    HW1 7364   4.217   0.128   1.004
 2155SOL    HW2 7365   4.238   0.217   0.869
 2156SOL     OW 7366   0.163   0.394   4.550
 2156SOL    HW1 7367   0.257   0.390   4.518
 2156SOL    HW2 7368   0.160   0.372   4.648
 2157SOL     OW 7369   5.657   5.997   3.654
 2157SOL    HW1 7370   5.609   6.077   3.691
 2157SOL    HW2 7371   5.730   5.970   3.717
 2158SOL     OW 7372   3.701   6.128   0.216
 2158SOL    HW1 7373   3.740   6.037   0.202
 2158SOL    HW2 7374   3.652   6.130   0.303
 2159SOL     OW 7375   1.360   0.943   5.213
 2159SOL    HW1 7376   1.439   0.915   5.268
 2159SOL    HW2 7377   1.281   0.958   5.273
 2160SOL     OW 7378   4.890   4.343   6.922
 2160SOL    HW1 7379   4.843   4.417   6.874
 2160SOL    HW2 7380   4.844   4.256   6.902
 2161SOL     OW 7381   6.622   4.307   1.751
 2161SOL    HW1 7382   6.557   4.368   1.798
 2161SOL    HW2 7383   6.606   4.213   1.782
 2162SOL     OW 7384   3.159   0.298   2.314
 2162SOL    HW1 7385   3.061   0.278   2.308
 2162SOL    HW2 7386   3.211   0.213   2.314
 2163SOL     OW 7387   1.914   4.993   0.503
 2163SOL    HW1 7388   1.925   4.945   0.590
 2163SOL    HW2 7389   1.893   4.928   0.431
 2164SOL     OW 7390   1.805   2.190   6.223
 2164SOL    HW1 7391   1.823   2.279   6.265
 2164SOL    HW2 7392   1.853   2.185   6.135
 2165SOL     OW 7393   0.302   1.973   3.461
 2165SOL    HW1 7394   0.253   1.918   3.393
 2165SOL    HW2 7395   0.360   2.039   3.414
 2166SOL     OW 7396   0.698   3.671   4.404
 2166SOL    HW1 7397   0.733   3.587   4.362
 2166SOL    HW2 7398   0.742   3.685   4.493
 2167SOL     OW 7399   0.621   2.750   3.727
 2167SOL    HW1 7400   0.691   2.701   3.779
 2167SOL    HW2 7401   0.599   2.836   3.774
 2168SOL     OW 7402   1.323   1.705   2.858
 2168SOL    HW1 7403   1.246   1.646   2.834
 2168SOL    HW2 7404   1.359   1.678   2.947
 2169SOL     OW 7405   6.085   1.299   0.860
 2169SOL    HW1 7406   6.139   1.324   0.940
 2169SOL    HW2 7407   5.991   1.333   0.872
 2170SOL     OW 7408   6.873   3.888   5.191
 2170SOL    HW1 7409   6.886   3.874   5.093
 2170SOL    HW2 7410   6.779   3.864   5.216
 2171SOL     OW 7411   0.468   5.665   1.251
 2171SOL    HW1 7412   0.503   5.751   1.213
 2171SOL    HW2 7413   0.540   5.620   1.304
 2172SOL     OW 7414   2.123   2.038   6.268
 2172SOL    HW1 7415   2.055   1.997   6.330
 2172SOL    HW2 7416   2.152   1.970   6.201
 2173SOL     OW 7417   4.608   0.769   5.135
 2173SOL    HW1 7418   4.668   0.817   5.070
 2173SOL    HW2 7419   4.525   0.740   5.088
 2174SOL     OW 7420   6.565   5.918   4.957
 2174SOL    HW1 7421   6.601   5.826   4.978
 2174SOL    HW2 7422   6.640   5.984   4.963
 2175SOL     OW 7423   1.748   3.464   3.943
 2175SOL    HW1 7424   1.780   3.424   3.857
 2175SOL    HW2 7425   1.716   3.557   3.926
 2176SOL     OW 7426   5.392   1.892   1.404
 2176SOL    HW1 7427   5.473   1.833   1.401
 2176SOL    HW2 7428   5.310   1.836   1.395
 2177SOL     OW 7429   0.096   0.563   2.531
 2177SOL    HW1 7430   0.098   0.473   2.487
 2177SOL    HW2 7431   0.189   0.598   2.540
 2178SOL     OW 7432   1.590   1.520   1.869
 2178SOL    HW1 7433   1.518   1.562   1.814
 2178SOL    HW2 7434   1.552   1.447   1.925
 2179SOL     OW 7435   1.838   4.231   6.019
 2179SOL    HW1 7436   1.747   4.206   6.053
 2179SOL    HW2 7437   1.893   4.149   6.004
 2180SOL     OW 7438   1.395   3.695   2.331
 2180SOL    HW1 7439   1.358   3.619   2.277
 2180SOL    HW2 7440   1.394   3.778   2.275
 2181SOL     OW 7441   4.464   5.023   4.185
 2181SOL    HW1 7442   4.406   5.000   4.107
 2181SOL    HW2 7443   4.490   4.939   4.232
 2182SOL     OW 7444   1.765   4.692   3.583
 2182SOL    HW1 7445   1.810   4.635   3.652
 2182SOL    HW2 7446   1.829   4.715   3.511
 2183SOL     OW 7447   2.125   4.257   0.322
 2183SOL    HW1 7448   2.211   4.228   0.279
 2183SOL    HW2 7449   2.057   4.185   0.314
 2184SOL     OW 7450   4.102   0.154   6.040
 2184SOL    HW1 7451   4.142   0.127   6.128
 2184SOL    HW2 7452   4.014   0.109   6.028
 2185SOL     OW 7453   0.805   1.280   0.051
 2185SOL    HW1 7454   0.721   1.320   0.015
 2185SOL    HW2 7455   0.856   1.236   6.999
 2186SOL     OW 7456   6.540   5.376   0.407
 2186SOL    HW1 7457   6.613   5.310   0.424
 2186SOL    HW2 7458   6.533   5.438   0.485
 2187SOL     OW 7459   0.385   5.553   1.814
 2187SOL    HW1 7460   0.452   5.536   1.887
 2187SOL    HW2 7461   0.339   5.467   1.791
 2188SOL     OW 7462   1.286   5.606   5.171
 2188SOL    HW1 7463   1.381   5.615   5.202
 2188SOL    HW2 7464   1.247   5.522   5.208
 2189SOL     OW 7465   1.420   6.865   1.469
 2189SOL    HW1 7466   1.409   6.847   1.567
 2189SOL    HW2 7467   1.424   6.778   1.419
 2190SOL     OW 7468   6.727   3.010   1.717
 2190SOL    HW1 7469   6.753   2.914   1.728
 2190SOL    HW2 7470   6.809   3.064   1.698
 2191SOL     OW 7471   2.082   2.015   5.810
 2191SOL    HW1 7472   2.130   1.931   5.783
 2191SOL    HW2 7473   2.115   2.091   5.756
 2192SOL     OW 7474   5.721   0.961   2.524
 2192SOL    HW1 7475   5.677   0.949   2.614
 2192SOL    HW2 7476   5.650   0.963   2.453
 2193SOL     OW 7477   6.495   0.298   6.727
 2193SOL    HW1 7478   6.462   0.270   6.637
 2193SOL    HW2 7479   6.439   0.373   6.762
 2194SOL     OW 7480   1.961   4.113   6.687
 2194SOL    HW1 7481   1.994   4.202   6.718
 2194SOL    HW2 7482   1.880   4.126   6.629
 2195SOL     OW 7483   6.701   6.635   5.783
 2195SOL    HW1 7484   6.705   6.560   5.716
 2195SOL    HW2 7485   6.702   6.723   5.735
 2196SOL     OW 7486   3.119   0.010   4.588
 2196SOL    HW1 7487   3.126   0.037   4.684
 2196SOL    HW2 7488   3.096   0.090   4.532
 2197SOL     OW 7489   2.630   3.713   6.183
 2197SOL    HW1 7490   2.649   3.725   6.086
 2197SOL    HW2 7491   2.532   3.723   6.199
 2198SOL     OW 7492   5.979   0.011   2.051
 2198SOL    HW1 7493   6.010   0.038   1.960
 2198SOL    HW2 7494   5.992   0.087   2.115
 2199SOL     OW 7495   5.336   7.001   4.133
 2199SOL    HW1 7496   5.406   7.002   4.062
 2199SOL    HW2 7497   5.291   6.912   4.134
 2200SOL     OW 7498   1.754   2.104   4.300
 2200SOL    HW1 7499   1.724   2.126   4.207
 2200SOL    HW2 7500   1.791   2.186   4.343
 2201SOL     OW 7501   6.425   2.754   3.173
 2201SOL    HW1 7502   6.506   2.736   3.229
 2201SOL    HW2 7503   6.381   2.838   3.205
 2202SOL     OW 7504   4.019   5.870   1.879
 2202SOL    HW1 7505   4.053   5.889   1.787
 2202SOL    HW2 7506   3.971   5.950   1.914
 2203SOL     OW 7507   2.489   3.611   0.999
 2203SOL    HW1 7508   2.434   3.694   0.991
 2203SOL    HW2 7509   2.586   3.635   0.988
 2204SOL     OW 7510   4.755   2.445   1.096
 2204SOL    HW1 7511   4.661   2.415   1.079
 2204SOL    HW2 7512   4.817   2.395   1.035
 2205SOL     OW 7513   1.219   6.877   6.329
 2205SOL    HW1 7514   1.135   6.925   6.303
 2205SOL    HW2 7515   1.198   6.809   6.400
 2206SOL     OW 7516   3.393   4.509   5.789
 2206SOL    HW1 7517   3.407   4.536   5.694
 2206SOL    HW2 7518   3.305   4.462   5.798
 2207SOL     OW 7519   3.185   5.142   6.219
 2207SOL    HW1 7520   3.223   5.181   6.303
 2207SOL    HW2 7521   3.157   5.048   6.236
 2208SOL     OW 7522   1.702   5.108   3.539
 2208SOL    HW1 7523   1.618   5.161   3.526
 2208SOL    HW2 7524   1.769   5.134   3.470
 2209SOL     OW 7525   2.515   0.083   4.812
 2209SOL    HW1 7526   2.584   0.137   4.859
 2209SOL    HW2 7527   2.451   0.045   4.879
 2210SOL     OW 7528   0.481   4.397   4.063
 2210SOL    HW1 7529   0.515   4.409   3.969
 2210SOL    HW2 7530   0.547   4.343   4.115
 2211SOL     OW 7531   6.886   0.574   0.551
 2211SOL    HW1 7532   6.918   0.500   0.610
 2211SOL    HW2 7533   6.855   0.651   0.607
 2212SOL     OW 7534   2.183   5.869   0.546
 2212SOL    HW1 7535   2.143   5.910   0.464
 2212SOL    HW2 7536   2.262   5.813   0.519
 2213SOL     OW 7537   3.391   1.921   5.222
 2213SOL    HW1 7538   3.323   1.941   5.292
 2213SOL    HW2 7539   3.416   2.006   5.174
 2214SOL     OW 7540   2.963   3.690   4.714
 2214SOL    HW1 7541   2.935   3.595   4.732
 2214SOL    HW2 7542   3.055   3.705   4.750
 2215SOL     OW 7543   5.568   0.648   0.262
 2215SOL    HW1 7544   5.561   0.734   0.212
 2215SOL    HW2 7545   5.640   0.592   0.220
 2216SOL     OW 7546   1.091   0.937   6.728
 2216SOL    HW1 7547   1.131   1.029   6.729
 2216SOL    HW2 7548   1.158   0.872   6.765
 2217SOL     OW 7549   3.766   6.621   2.328
 2217SOL    HW1 7550   3.716   6.695   2.283
 2217SOL    HW2 7551   3.856   6.611   2.287
 2218SOL     OW 7552   0.164   5.060   0.333
 2218SOL    HW1 7553   0.171   5.085   0.236
 2218SOL    HW2 7554   0.173   4.960   0.341
 2219SOL     OW 7555   6.088   1.734   0.762
 2219SOL    HW1 7556   6.005   1.701   0.807
 2219SOL    HW2 7557   6.128   1.661   0.708
 2220SOL     OW 7558   2.202   6.031   5.141
 2220SOL    HW1 7559   2.152   5.978   5.209
 2220SOL    HW2 7560   2.215   6.125   5.174
 2221SOL     OW 7561   5.825   1.818   5.551
 2221SOL    HW1 7562   5.832   1.784   5.457
 2221SOL    HW2 7563   5.904   1.876   5.571
 2222SOL     OW 7564   5.836   0.574   1.310
 2222SOL    HW1 7565   5.805   0.666   1.335
 2222SOL    HW2 7566   5.757   0.517   1.287
 2223SOL     OW 7567   5.855   1.108   5.826
 2223SOL    HW1 7568   5.814   1.182   5.773
 2223SOL    HW2 7569   5.954   1.118   5.827
 2224SOL     OW 7570   6.276   3.818   0.416
 2224SOL    HW1 7571   6.273   3.719   0.433
 2224SOL    HW2 7572   6.323   3.835   0.329
 2225SOL     OW 7573   5.995   6.372   4.284
 2225SOL    HW1 7574   6.031   6.303   4.347
 2225SOL    HW2 7575   6.070   6.419   4.239
 2226SOL     OW 7576   4.022   5.089   0.843
 2226SOL    HW1 7577   4.045   5.184   0.823
 2226SOL    HW2 7578   4.068   5.061   0.927
 2227SOL     OW 7579   6.104   2.341   0.162
 2227SOL    HW1 7580   6.048   2.422   0.176
 2227SOL    HW2 7581   6.194   2.354   0.204
 2228SOL     OW 7582   4.432   5.164   0.912
 2228SOL    HW1 7583   4.389   5.206   0.992
 2228SOL    HW2 7584   4.411   5.220   0.831
 2229SOL     OW 7585   4.285   3.025   5.370
 2229SOL    HW1 7586   4.188   3.035   5.394
 2229SOL    HW2 7587   4.318   3.111   5.331
 2230SOL     OW 7588   6.334   5.972   0.560
 2230SOL    HW1 7589   6.297   5.924   0.481
 2230SOL    HW2 7590   6.277   6.052   0.580
 2231SOL     OW 7591   0.178   0.938   1.415
 2231SOL    HW1 7592   0.097   0.927   1.473
 2231SOL    HW2 7593   0.149   0.962   1.322
 2232SOL     OW 7594   0.884   1.374   4.321
 2232SOL    HW1 7595   0.833   1.451   4.357
 2232SOL    HW2 7596   0.957   1.407   4.261
 2233SOL     OW 7597   2.608   3.365   0.649
 2233SOL    HW1 7598   2.595   3.291   0.716
 2233SOL    HW2 7599   2.560   3.447   0.681
 2234SOL     OW 7600   4.240   1.494   1.333
 2234SOL    HW1 7601   4.285   1.417   1.287
 2234SOL    HW2 7602   4.174   1.536   1.271
 2235SOL     OW 7603   3.057   0.207   1.282
 2235SOL    HW1 7604   3.079   0.258   1.366
 2235SOL    HW2 7605   3.030   0.271   1.210
 2236SOL     OW 7606   1.945   3.985   5.998
 2236SOL    HW1 7607   1.988   3.907   5.954
 2236SOL    HW2 7608   1.864   3.954   6.048
 2237SOL     OW 7609   5.456   4.028   3.947
 2237SOL    HW1 7610   5.388   4.102   3.949
 2237SOL    HW2 7611   5.547   4.067   3.958
 2238SOL     OW 7612   4.954   5.421   1.582
 2238SOL    HW1 7613   4.914   5.512   1.586
 2238SOL    HW2 7614   4.897   5.361   1.526
 2239SOL     OW 7615   3.709   4.970   3.987
 2239SOL    HW1 7616   3.704   4.994   3.891
 2239SOL    HW2 7617   3.618   4.981   4.029
 2240SOL     OW 7618   3.315   5.440   3.198
 2240SOL    HW1 7619   3.374   5.417   3.120
 2240SOL    HW2 7620   3.221   5.450   3.166
 2241SOL     OW 7621   0.073   5.776   3.046
 2241SOL    HW1 7622   7.001   5.780   3.081
 2241SOL    HW2 7623   0.112   5.686   3.064
 2242SOL     OW 7624   5.342   2.996   2.787
 2242SOL    HW1 7625   5.375   2.903   2.803
 2242SOL    HW2 7626   5.244   3.000   2.810
 2243SOL     OW 7627   1.660   6.220   5.878
 2243SOL    HW1 7628   1.619   6.287   5.817
 2243SOL    HW2 7629   1.755   6.244   5.896
 2244SOL     OW 7630   2.218   6.792   0.966
 2244SOL    HW1 7631   2.155   6.816   0.892
 2244SOL    HW2 7632   2.293   6.858   0.969
 2245SOL     OW 7633   0.971   1.432   2.014
 2245SOL    HW1 7634   1.045   1.365   2.009
 2245SOL    HW2 7635   0.919   1.418   2.098
 2246SOL     OW 7636   1.812   0.953   4.066
 2246SOL    HW1 7637   1.799   1.047   4.099
 2246SOL    HW2 7638   1.732   0.898   4.090
 2247SOL     OW 7639   3.224   2.978   3.610
 2247SOL    HW1 7640   3.212   2.916   3.688
 2247SOL    HW2 7641   3.320   3.008   3.606
 2248SOL     OW 7642   6.519   4.075   5.070
 2248SOL    HW1 7643   6.617   4.080   5.092
 2248SOL    HW2 7644   6.483   3.987   5.101
 2249SOL     OW 7645   5.752   6.777   3.834
 2249SOL    HW1 7646   5.819   6.826   3.890
 2249SOL    HW2 7647   5.734   6.830   3.750
 2250SOL     OW 7648   3.579   3.831   4.875
 2250SOL    HW1 7649   3.671   3.814   4.841
 2250SOL    HW2 7650   3.582   3.846   4.974
 2251SOL     OW 7651   5.168   0.142   6.854
 2251SOL    HW1 7652   5.170   0.085   6.772
 2251SOL    HW2 7653   5.145   0.087   6.934
 2252SOL     OW 7654   4.787   2.155   2.680
 2252SOL    HW1 7655   4.711   2.195   2.628
 2252SOL    HW2 7656   4.755   2.129   2.771
 2253SOL     OW 7657   6.815   3.682   6.801
 2253SOL    HW1 7658   6.742   3.720   6.744
 2253SOL    HW2 7659   6.892   3.655   6.744
 2254SOL     OW 7660   3.477   3.143   4.525
 2254SOL    HW1 7661   3.443   3.227   4.569
 2254SOL    HW2 7662   3.571   3.158   4.493
 2255SOL     OW 7663   3.963   3.139   6.108
 2255SOL    HW1 7664   4.009   3.056   6.140
 2255SOL    HW2 7665   3.897   3.115   6.037
 2256SOL     OW 7666   4.932   6.356   2.045
 2256SOL    HW1 7667   4.953   6.362   1.947
 2256SOL    HW2 7668   4.934   6.447   2.086
 2257SOL     OW 7669   6.985   1.567   4.261
 2257SOL    HW1 7670   6.983   1.601   4.167
 2257SOL    HW2 7671   6.975   1.467   4.260
 2258SOL     OW 7672   1.476   5.428   4.337
 2258SOL    HW1 7673   1.423   5.391   4.413
 2258SOL    HW2 7674   1.414   5.461   4.266
 2259SOL     OW 7675   4.979   2.892   5.497
 2259SOL    HW1 7676   5.020   2.965   5.441
 2259SOL    HW2 7677   5.046   2.860   5.564
 2260SOL     OW 7678   0.515   4.484   1.307
 2260SOL    HW1 7679   0.598   4.428   1.312
 2260SOL    HW2 7680   0.534   4.575   1.345
 2261SOL     OW 7681   5.240   5.046   0.097
 2261SOL    HW1 7682   5.310   5.112   0.124
 2261SOL    HW2 7683   5.187   5.083   0.020
 2262SOL     OW 7684   5.849   0.523   3.932
 2262SOL    HW1 7685   5.895   0.436   3.915
 2262SOL    HW2 7686   5.902   0.577   3.997
 2263SOL     OW 7687   3.257   6.006   0.233
 2263SOL    HW1 7688   3.280   5.933   0.169
 2263SOL    HW2 7689   3.182   5.976   0.292
 2264SOL     OW 7690   2.954   5.605   6.776
 2264SOL    HW1 7691   2.960   5.633   6.871
 2264SOL    HW2 7692   2.940   5.506   6.771
 2265SOL     OW 7693   1.877   0.826   3.573
 2265SOL    HW1 7694   1.815   0.747   3.576
 2265SOL    HW2 7695   1.915   0.843   3.664
 2266SOL     OW 7696   5.665   1.346   0.442
 2266SOL    HW1 7697   5.578   1.394   0.435
 2266SOL    HW2 7698   5.648   1.248   0.452
 2267SOL     OW 7699   4.853   3.145   4.794
 2267SOL    HW1 7700   4.926   3.081   4.816
 2267SOL    HW2 7701   4.772   3.121   4.848
 2268SOL     OW 7702   5.958   3.854   6.566
 2268SOL    HW1 7703   5.920   3.794   6.496
 2268SOL    HW2 7704   6.003   3.932   6.523
 2269SOL     OW 7705   6.824   4.701   5.767
 2269SOL    HW1 7706   6.839   4.611   5.726
 2269SOL    HW2 7707   6.910   4.751   5.769
 2270SOL     OW 7708   3.106   2.412   5.713
 2270SOL    HW1 7709   3.079   2.442   5.805
 2270SOL    HW2 7710   3.185   2.465   5.682
 2271SOL     OW 7711   5.464   4.375   0.201
 2271SOL    HW1 7712   5.467   4.420   0.111
 2271SOL    HW2 7713   5.557   4.372   0.239
 2272SOL     OW 7714   6.310   2.163   6.410
 2272SOL    HW1 7715   6.272   2.090   6.468
 2272SOL    HW2 7716   6.305   2.135   6.314
 2273SOL     OW 7717   1.802   1.143   1.992
 2273SOL    HW1 7718   1.805   1.095   1.904
 2273SOL    HW2 7719   1.887   1.194   2.005
 2274SOL     OW 7720   1.064   2.193   5.949
 2274SOL    HW1 7721   1.112   2.251   6.016
 2274SOL    HW2 7722   1.111   2.199   5.861
 2275SOL     OW 7723   6.442   6.307   4.821
 2275SOL    HW1 7724   6.500   6.238   4.778
 2275SOL    HW2 7725   6.454   6.395   4.773
 2276SOL     OW 7726   2.589   5.628   1.800
 2276SOL    HW1 7727   2.583   5.701   1.867
 2276SOL    HW2 7728   2.639   5.660   1.719
 2277SOL     OW 7729   4.047   3.696   4.208
 2277SOL    HW1 7730   4.048   3.785   4.254
 2277SOL    HW2 7731   3.959   3.682   4.164
 2278SOL     OW 7732   6.131   4.443   4.451
 2278SOL    HW1 7733   6.224   4.476   4.466
 2278SOL    HW2 7734   6.121   4.352   4.492
 2279SOL     OW 7735   5.592   6.727   5.950
 2279SOL    HW1 7736   5.509   6.675   5.928
 2279SOL    HW2 7737   5.668   6.664   5.964
 2280SOL     OW 7738   6.868   0.237   4.903
 2280SOL    HW1 7739   6.802   0.311   4.914
 2280SOL    HW2 7740   6.821   0.149   4.910
 2281SOL     OW 7741   3.154   0.727   1.876
 2281SOL    HW1 7742   3.201   0.641   1.858
 2281SOL    HW2 7743   3.209   0.783   1.938
 2282SOL     OW 7744   5.807   0.185   5.472
 2282SOL    HW1 7745   5.877   0.215   5.537
 2282SOL    HW2 7746   5.767   0.265   5.427
 2283SOL     OW 7747   1.104   5.954   1.777
 2283SOL    HW1 7748   1.183   5.973   1.718
 2283SOL    HW2 7749   1.020   5.969   1.726
 2284SOL     OW 7750   1.625   2.561   0.263
 2284SOL    HW1 7751   1.700   2.498   0.246
 2284SOL    HW2 7752   1.658   2.641   0.314
 2285SOL     OW 7753   2.019   2.666   1.391
 2285SOL    HW1 7754   2.083   2.729   1.348
 2285SOL    HW2 7755   1.930   2.711   1.402
 2286SOL     OW 7756   5.886   7.000   3.544
 2286SOL    HW1 7757   5.932   6.933   3.603
 2286SOL    HW2 7758   5.950   0.012   3.476
 2287SOL     OW 7759   2.349   6.940   3.420
 2287SOL    HW1 7760   2.275   6.969   3.359
 2287SOL    HW2 7761   2.437   6.964   3.379
 2288SOL     OW 7762   5.974   4.664   4.100
 2288SOL    HW1 7763   5.964   4.747   4.154
 2288SOL    HW2 7764   6.008   4.687   4.009
 2289SOL     OW 7765   0.934   5.274   0.871
 2289SOL    HW1 7766   0.892   5.300   0.784
 2289SOL    HW2 7767   0.874   5.302   0.946
 2290SOL     OW 7768   0.756   3.682   0.859
 2290SOL    HW1 7769   0.716   3.683   0.767
 2290SOL    HW2 7770   0.757   3.774   0.896
 2291SOL     OW 7771   1.989   2.263   5.187
 2291SOL    HW1 7772   1.996   2.224   5.279
 2291SOL    HW2 7773   2.065   2.229   5.132
 2292SOL     OW 7774   0.524   1.941   4.278
 2292SOL    HW1 7775   0.468   2.014   4.239
 2292SOL    HW2 7776   0.551   1.877   4.205
 2293SOL     OW 7777   4.895   6.011   1.676
 2293SOL    HW1 7778   4.873   6.101   1.639
 2293SOL    HW2 7779   4.940   5.956   1.605
 2294SOL     OW 7780   3.450   0.511   7.002
 2294SOL    HW1 7781   3.542   0.492   0.016
 2294SOL    HW2 7782   3.443   0.475   6.909
 2295SOL     OW 7783   1.037   1.814   3.053
 2295SOL    HW1 7784   1.039   1.719   3.023
 2295SOL    HW2 7785   0.977   1.867   2.993
 2296SOL     OW 7786   4.559   5.079   0.577
 2296SOL    HW1 7787   4.502   5.001   0.604
 2296SOL    HW2 7788   4.629   5.049   0.513
 2297SOL     OW 7789   4.470   4.205   5.267
 2297SOL    HW1 7790   4.539   4.140   5.298
 2297SOL    HW2 7791   4.507   4.260   5.192
 2298SOL     OW 7792   4.067   3.047   1.381
 2298SOL    HW1 7793   4.107   3.020   1.294
 2298SOL    HW2 7794   4.129   3.024   1.456
 2299SOL     OW 7795   4.296   6.144   5.407
 2299SOL    HW1 7796   4.297   6.069   5.341
 2299SOL    HW2 7797   4.350   6.221   5.372
 2300SOL     OW 7798   2.145   5.546   2.477
 2300SOL    HW1 7799   2.181   5.562   2.569
 2300SOL    HW2 7800   2.163   5.452   2.450
 2301SOL     OW 7801   3.229   3.016   3.043
 2301SOL    HW1 7802   3.325   3.036   3.024
 2301SOL    HW2 7803   3.180   3.006   2.957
 2302SOL     OW 7804   3.810   0.200   0.660
 2302SOL    HW1 7805   3.771   0.214   0.569
 2302SOL    HW2 7806   3.761   0.257   0.726
 2303SOL     OW 7807   1.958   3.284   6.044
 2303SOL    HW1 7808   1.980   3.249   6.135
 2303SOL    HW2 7809   1.874   3.240   6.011
 2304SOL     OW 7810   4.313   6.703   3.721
 2304SOL    HW1 7811   4.331   6.731   3.627
 2304SOL    HW2 7812   4.383   6.741   3.781
 2305SOL     OW 7813   2.720   6.663   2.860
 2305SOL    HW1 7814   2.790   6.662   2.931
 2305SOL    HW2 7815   2.763   6.647   2.771
 2306SOL     OW 7816   2.461   5.126   2.169
 2306SOL    HW1 7817   2.474   5.221   2.199
 2306SOL    HW2 7818   2.457   5.123   2.070
 2307SOL     OW 7819   0.536   4.201   2.933
 2307SOL    HW1 7820   0.452   4.238   2.973
 2307SOL    HW2 7821   0.515   4.160   2.844
 2308SOL     OW 7822   1.636   6.373   0.396
 2308SOL    HW1 7823   1.594   6.433   0.328
 2308SOL    HW2 7824   1.616   6.278   0.373
 2309SOL     OW 7825   2.067   6.818   6.901
 2309SOL    HW1 7826   2.019   6.732   6.888
 2309SOL    HW2 7827   2.036   6.861   6.986
 2310SOL     OW 7828   5.533   6.346   1.140
 2310SOL    HW1 7829   5.546   6.445   1.131
 2310SOL    HW2 7830   5.450   6.319   1.092
 2311SOL     OW 7831   1.914   5.977   1.942
 2311SOL    HW1 7832   1.896   5.931   1.855
 2311SOL    HW2 7833   1.881   6.072   1.937
 2312SOL     OW 7834   3.814   6.379   4.154
 2312SOL    HW1 7835   3.878   6.304   4.144
 2312SOL    HW2 7836   3.855   6.463   4.118
 2313SOL     OW 7837   5.099   5.414   1.177
 2313SOL    HW1 7838   5.104   5.367   1.265
 2313SOL    HW2 7839   5.007   5.404   1.139
 2314SOL     OW 7840   5.316   0.324   5.204
 2314SOL    HW1 7841   5.357   0.414   5.222
 2314SOL    HW2 7842   5.389   0.257   5.188
 2315SOL     OW 7843   4.897   3.309   5.268
 2315SOL    HW1 7844   4.840   3.228   5.260
 2315SOL    HW2 7845   4.948   3.323   5.183
 2316SOL     OW 7846   2.976   0.551   4.201
 2316SOL    HW1 7847   2.951   0.480   4.135
 2316SOL    HW2 7848   2.988   0.638   4.153
 2317SOL     OW 7849   6.837   6.015   3.409
 2317SOL    HW1 7850   6.882   6.071   3.340
 2317SOL    HW2 7851   6.738   6.022   3.399
 2318SOL     OW 7852   2.201   2.765   4.413
 2318SOL    HW1 7853   2.285   2.789   4.462
 2318SOL    HW2 7854   2.222   2.701   4.340
 2319SOL     OW 7855   2.393   5.466   4.575
 2319SOL    HW1 7856   2.439   5.555   4.569
 2319SOL    HW2 7857   2.461   5.394   4.588
 2320SOL     OW 7858   0.869   3.075   4.836
 2320SOL    HW1 7859   0.843   2.982   4.810
 2320SOL    HW2 7860   0.967   3.077   4.858
 2321SOL     OW 7861   2.304   6.159   6.910
 2321SOL    HW1 7862   2.348   6.212   6.983
 2321SOL    HW2 7863   2.221   6.207   6.880
 2322SOL     OW 7864   1.679   3.912   3.285
 2322SOL    HW1 7865   1.740   3.833   3.283
 2322SOL    HW2 7866   1.606   3.899   3.218
 2323SOL     OW 7867   3.489   4.885   1.709
 2323SOL    HW1 7868   3.518   4.827   1.785
 2323SOL    HW2 7869   3.569   4.918   1.660
 2324SOL     OW 7870   6.712   5.717   0.869
 2324SOL    HW1 7871   6.746   5.637   0.820
 2324SOL    HW2 7872   6.704   5.695   0.967
 2325SOL     OW 7873   0.901   4.389   1.660
 2325SOL    HW1 7874   0.944   4.349   1.742
 2325SOL    HW2 7875   0.919   4.488   1.659
 2326SOL     OW 7876   3.636   5.601   6.479
 2326SOL    HW1 7877   3.693   5.533   6.523
 2326SOL    HW2 7878   3.545   5.602   6.522
 2327SOL     OW 7879   6.653   1.313   4.087
 2327SOL    HW1 7880   6.678   1.228   4.133
 2327SOL    HW2 7881   6.735   1.362   4.059
 2328SOL     OW 7882   1.813   1.933   2.965
 2328SOL    HW1 7883   1.890   1.924   3.028
 2328SOL    HW2 7884   1.735   1.973   3.014
 2329SOL     OW 7885   1.485   4.654   4.574
 2329SOL    HW1 7886   1.488   4.738   4.627
 2329SOL    HW2 7887   1.473   4.576   4.635
 2330SOL     OW 7888   0.825   3.898   1.287
 2330SOL    HW1 7889   0.915   3.942   1.281
 2330SOL    HW2 7890   0.829   3.824   1.354
 2331SOL     OW 7891   3.958   5.820   6.736
 2331SOL    HW1 7892   4.017   5.891   6.696
 2331SOL    HW2 7893   3.866   5.826   6.696
 2332SOL     OW 7894   5.168   1.400   5.272
 2332SOL    HW1 7895   5.201   1.362   5.358
 2332SOL    HW2 7896   5.069   1.417   5.278
 2333SOL     OW 7897   0.269   4.296   2.979
 2333SOL    HW1 7898   0.241   4.392   2.966
 2333SOL    HW2 7899   0.188   4.238   2.979
 2334SOL     OW 7900   2.030   0.925   0.079
 2334SOL    HW1 7901   1.981   0.938   7.015
 2334SOL    HW2 7902   2.060   1.013   0.115
 2335SOL     OW 7903   6.115   1.300   3.422
 2335SOL    HW1 7904   6.066   1.269   3.504
 2335SOL    HW2 7905   6.174   1.377   3.446
 2336SOL     OW 7906   4.403   2.447   4.830
 2336SOL    HW1 7907   4.334   2.442   4.903
 2336SOL    HW2 7908   4.494   2.444   4.870
 2337SOL     OW 7909   4.702   1.121   1.800
 2337SOL    HW1 7910   4.802   1.124   1.798
 2337SOL    HW2 7911   4.671   1.115   1.895
 2338SOL     OW 7912   1.226   3.034   5.763
 2338SOL    HW1 7913   1.185   2.945   5.782
 2338SOL    HW2 7914   1.177   3.105   5.814
 2339SOL     OW 7915   3.215   3.496   4.490
 2339SOL    HW1 7916   3.127   3.458   4.520
 2339SOL    HW2 7917   3.221   3.592   4.519
 2340SOL     OW 7918   5.931   4.391   0.334
 2340SOL    HW1 7919   5.975   4.318   0.386
 2340SOL    HW2 7920   5.950   4.378   0.236
 2341SOL     OW 7921   4.111   4.451   1.698
 2341SOL    HW1 7922   4.131   4.476   1.603
 2341SOL    HW2 7923   4.017   4.418   1.705
 2342SOL     OW 7924   0.455   0.332   4.812
 2342SOL    HW1 7925   0.442   0.346   4.713
 2342SOL    HW2 7926   0.551   0.352   4.835
 2343SOL     OW 7927   2.011   5.706   3.338
 2343SOL    HW1 7928   2.066   5.787   3.357
 2343SOL    HW2 7929   2.015   5.644   3.416
 2344SOL     OW 7930   1.908   6.253   0.098
 2344SOL    HW1 7931   1.849   6.175   0.119
 2344SOL    HW2 7932   1.884   6.330   0.156
 2345SOL     OW 7933   3.605   5.757   4.853
 2345SOL    HW1 7934   3.574   5.748   4.758
 2345SOL    HW2 7935   3.579   5.676   4.905
 2346SOL     OW 7936   4.035   2.941   5.595
 2346SOL    HW1 7937   4.033   2.845   5.569
 2346SOL    HW2 7938   4.100   2.954   5.670
 2347SOL     OW 7939   2.906   2.886   1.698
 2347SOL    HW1 7940   2.880   2.982   1.686
 2347SOL    HW2 7941   2.826   2.828   1.684
 2348SOL     OW 7942   2.392   0.191   3.769
 2348SOL    HW1 7943   2.341   0.237   3.841
 2348SOL    HW2 7944   2.353   0.101   3.752
 2349SOL     OW 7945   0.884   4.216   6.772
 2349SOL    HW1 7946   0.877   4.309   6.736
 2349SOL    HW2 7947   0.953   4.214   6.844
 2350SOL     OW 7948   4.376   6.786   6.291
 2350SOL    HW1 7949   4.367   6.756   6.386
 2350SOL    HW2 7950   4.460   6.748   6.252
 2351SOL     OW 7951   2.937   5.289   3.692
 2351SOL    HW1 7952   2.997   5.353   3.741
 2351SOL    HW2 7953   2.961   5.195   3.716
 2352SOL     OW 7954   0.982   4.619   2.478
 2352SOL    HW1 7955   1.023   4.710   2.491
 2352SOL    HW2 7956   0.890   4.617   2.517
 2353SOL     OW 7957   2.845   4.564   6.197
 2353SOL    HW1 7958   2.852   4.531   6.103
 2353SOL    HW2 7959   2.924   4.533   6.250
 2354SOL     OW 7960   3.367   1.352   5.864
 2354SOL    HW1 7961   3.399   1.277   5.807
 2354SOL    HW2 7962   3.431   1.364   5.940
 2355SOL     OW 7963   2.394   5.599   0.443
 2355SOL    HW1 7964   2.418   5.574   0.536
 2355SOL    HW2 7965   2.428   5.692   0.423
 2356SOL     OW 7966   1.325   3.590   6.684
 2356SOL    HW1 7967   1.379   3.621   6.762
 2356SOL    HW2 7968   1.290   3.498   6.704
 2357SOL     OW 7969   4.097   6.746   2.762
 2357SOL    HW1 7970   4.085   6.834   2.809
 2357SOL    HW2 7971   4.013   6.724   2.711
 2358SOL     OW 7972   4.197   4.889   5.164
 2358SOL    HW1 7973   4.278   4.867   5.218
 2358SOL    HW2 7974   4.185   4.819   5.093
 2359SOL     OW 7975   6.074   0.823   6.015
 2359SOL    HW1 7976   6.099   0.726   6.016
 2359SOL    HW2 7977   5.975   0.832   6.014
 2360SOL     OW 7978   5.379   4.846   6.896
 2360SOL    HW1 7979   5.319   4.832   6.975
 2360SOL    HW2 7980   5.469   4.806   6.914
 2361SOL     OW 7981   2.181   0.892   4.828
 2361SOL    HW1 7982   2.168   0.983   4.790
 2361SOL    HW2 7983   2.182   0.825   4.754
 2362SOL     OW 7984   2.111   0.061   4.801
 2362SOL    HW1 7985   2.092   0.060   4.702
 2362SOL    HW2 7986   2.108   0.155   4.834
 2363SOL     OW 7987   4.414   2.213   5.160
 2363SOL    HW1 7988   4.452   2.241   5.072
 2363SOL    HW2 7989   4.483   2.223   5.232
 2364SOL     OW 7990   1.119   1.616   2.644
 2364SOL    HW1 7991   1.087   1.710   2.627
 2364SOL    HW2 7992   1.083   1.556   2.573
 2365SOL     OW 7993   6.725   2.943   6.500
 2365SOL    HW1 7994   6.783   3.004   6.446
 2365SOL    HW2 7995   6.781   2.896   6.568
 2366SOL     OW 7996   1.750   5.862   6.184
 2366SOL    HW1 7997   1.665   5.914   6.180
 2366SOL    HW2 7998   1.744   5.784   6.121
 2367SOL     OW 7999   2.972   4.709   0.666
 2367SOL    HW1 8000   2.921   4.633   0.706
 2367SOL    HW2 8001   3.020   4.677   0.584
 2368SOL     OW 8002   4.524   0.430   3.521
 2368SOL    HW1 8003   4.481   0.365   3.458
 2368SOL    HW2 8004   4.489   0.522   3.504
 2369SOL     OW 8005   0.805   2.583   5.532
 2369SOL    HW1 8006   0.894   2.628   5.539
 2369SOL    HW2 8007   0.733   2.647   5.559
 2370SOL     OW 8008   5.225   3.510   6.997
 2370SOL    HW1 8009   5.138   3.533   0.020
 2370SOL    HW2 8010   5.241   3.412   7.004
 2371SOL     OW 8011   0.626   0.504   2.201
 2371SOL    HW1 8012   0.677   0.472   2.121
 2371SOL    HW2 8013   0.538   0.542   2.172
 2372SOL     OW 8014   6.895   2.429   2.152
 2372SOL    HW1 8015   6.797   2.413   2.148
 2372SOL    HW2 8016   6.926   2.430   2.247
 2373SOL     OW 8017   0.186   1.360   0.372
 2373SOL    HW1 8018   0.234   1.396   0.452
 2373SOL    HW2 8019   0.152   1.435   0.316
 2374SOL     OW 8020   5.820   1.113   3.900
 2374SOL    HW1 8021   5.775   1.203   3.900
 2374SOL    HW2 8022   5.751   1.042   3.913
 2375SOL     OW 8023   2.621   6.870   4.585
 2375SOL    HW1 8024   2.594   6.902   4.675
 2375SOL    HW2 8025   2.718   6.889   4.570
 2376SOL     OW 8026   6.489   2.847   4.051
 2376SOL    HW1 8027   6.411   2.801   4.010
 2376SOL    HW2 8028   6.573   2.800   4.026
 2377SOL     OW 8029   3.470   4.116   3.143
 2377SOL    HW1 8030   3.402   4.046   3.120
 2377SOL    HW2 8031   3.507   4.099   3.234
 2378SOL     OW 8032   5.236   2.380   0.197
 2378SOL    HW1 8033   5.171   2.316   0.239
 2378SOL    HW2 8034   5.303   2.409   0.265
 2379SOL     OW 8035   5.833   2.413   6.958
 2379SOL    HW1 8036   5.927   2.381   6.953
 2379SOL    HW2 8037   5.774   2.339   6.989
 2380SOL     OW 8038   0.850   0.280   6.170
 2380SOL    HW1 8039   0.904   0.290   6.086
 2380SOL    HW2 8040   0.911   0.281   6.249
 2381SOL     OW 8041   2.074   3.732   4.671
 2381SOL    HW1 8042   2.102   3.799   4.603
 2381SOL    HW2 8043   2.047   3.779   4.755
 2382SOL     OW 8044   2.447   4.487   3.808
 2382SOL    HW1 8045   2.469   4.429   3.886
 2382SOL    HW2 8046   2.442   4.431   3.725
 2383SOL     OW 8047   5.903   6.670   1.356
 2383SOL    HW1 8048   5.805   6.687   1.364
 2383SOL    HW2 8049   5.931   6.601   1.423
 2384SOL     OW 8050   6.176   6.748   2.661
 2384SOL    HW1 8051   6.130   6.659   2.666
 2384SOL    HW2 8052   6.187   6.785   2.753
 2385SOL     OW 8053   0.786   6.149   1.064
 2385SOL    HW1 8054   0.766   6.098   0.980
 2385SOL    HW2 8055   0.732   6.233   1.066
 2386SOL     OW 8056   5.219   4.684   4.204
 2386SOL    HW1 8057   5.222   4.783   4.210
 2386SOL    HW2 8058   5.250   4.655   4.113
 2387SOL     OW 8059   1.391   1.501   3.686
 2387SOL    HW1 8060   1.483   1.500   3.646
 2387SOL    HW2 8061   1.385   1.574   3.753
 2388SOL     OW 8062   1.470   2.180   3.424
 2388SOL    HW1 8063   1.370   2.185   3.428
 2388SOL    HW2 8064   1.506   2.265   3.385
 2389SOL     OW 8065   5.001   3.687   2.813
 2389SOL    HW1 8066   5.080   3.645   2.767
 2389SOL    HW2 8067   4.992   3.782   2.784
 2390SOL     OW 8068   3.964   3.541   3.011
 2390SOL    HW1 8069   3.993   3.475   3.080
 2390SOL    HW2 8070   3.995   3.633   3.038
 2391SOL     OW 8071   4.634   4.402   5.782
 2391SOL    HW1 8072   4.710   4.442   5.731
 2391SOL    HW2 8073   4.615   4.310   5.747
 2392SOL     OW 8074   3.489   6.747   5.616
 2392SOL    HW1 8075   3.462   6.656   5.646
 2392SOL    HW2 8076   3.516   6.744   5.520
 2393SOL     OW 8077   5.008   3.609   6.069
 2393SOL    HW1 8078   4.976   3.627   6.162
 2393SOL    HW2 8079   4.939   3.557   6.019
 2394SOL     OW 8080   1.678   3.127   4.468
 2394SOL    HW1 8081   1.593   3.159   4.425
 2394SOL    HW2 8082   1.660   3.099   4.562
 2395SOL     OW 8083   6.224   2.639   6.889
 2395SOL    HW1 8084   6.187   2.570   6.951
 2395SOL    HW2 8085   6.298   2.599   6.835
 2396SOL     OW 8086   4.515   4.899   1.203
 2396SOL    HW1 8087   4.569   4.972   1.162
 2396SOL    HW2 8088   4.444   4.870   1.138
 2397SOL     OW 8089   0.749   3.825   6.940
 2397SOL    HW1 8090   0.845   3.842   6.918
 2397SOL    HW2 8091   0.700   3.798   6.857
 2398SOL     OW 8092   2.692   3.732   6.718
 2398SOL    HW1 8093   2.683   3.651   6.660
 2398SOL    HW2 8094   2.604   3.754   6.760
 2399SOL     OW 8095   4.307   1.517   2.349
 2399SOL    HW1 8096   4.254   1.466   2.280
 2399SOL    HW2 8097   4.396   1.541   2.312
 2400SOL     OW 8098   3.041   4.821   6.945
 2400SOL    HW1 8099   3.034   4.796   6.848
 2400SOL    HW2 8100   3.087   4.748   6.995
 2401SOL     OW 8101   3.669   6.478   6.278
 2401SOL    HW1 8102   3.665   6.515   6.185
 2401SOL    HW2 8103   3.612   6.534   6.339
 2402SOL     OW 8104   6.973   0.916   3.613
 2402SOL    HW1 8105   0.007   0.947   3.691
 2402SOL    HW2 8106   6.980   0.982   3.539
 2403SOL     OW 8107   2.068   2.562   0.652
 2403SOL    HW1 8108   2.132   2.552   0.728
 2403SOL    HW2 8109   1.976   2.538   0.682
 2404SOL     OW 8110   4.378   0.871   1.208
 2404SOL    HW1 8111   4.423   0.831   1.288
 2404SOL    HW2 8112   4.396   0.969   1.204
 2405SOL     OW 8113   3.955   3.336   2.824
 2405SOL    HW1 8114   3.950   3.250   2.875
 2405SOL    HW2 8115   3.958   3.413   2.887
 2406SOL     OW 8116   2.900   6.738   3.040
 2406SOL    HW1 8117   2.876   6.753   3.137
 2406SOL    HW2 8118   3.000   6.742   3.030
 2407SOL     OW 8119   4.836   1.881   2.551
 2407SOL    HW1 8120   4.819   1.979   2.544
 2407SOL    HW2 8121   4.756   1.837   2.592
 2408SOL     OW 8122   4.219   5.060   3.561
 2408SOL    HW1 8123   4.170   5.127   3.506
 2408SOL    HW2 8124   4.172   4.972   3.556
 2409SOL     OW 8125   1.392   3.894   2.162
 2409SOL    HW1 8126   1.430   3.958   2.230
 2409SOL    HW2 8127   1.452   3.891   2.083
 2410SOL     OW 8128   4.788   2.297   5.637
 2410SOL    HW1 8129   4.816   2.281   5.543
 2410SOL    HW2 8130   4.757   2.392   5.647
 2411SOL     OW 8131   4.315   5.222   5.254
 2411SOL    HW1 8132   4.249   5.184   5.189
 2411SOL    HW2 8133   4.360   5.302   5.213
 2412SOL     OW 8134   4.697   4.766   1.348
 2412SOL    HW1 8135   4.713   4.667   1.354
 2412SOL    HW2 8136   4.630   4.785   1.276
 2413SOL     OW 8137   6.418   2.489   0.915
 2413SOL    HW1 8138   6.442   2.568   0.859
 2413SOL    HW2 8139   6.336   2.446   0.878
 2414SOL     OW 8140   4.881   4.279   2.423
 2414SOL    HW1 8141   4.816   4.285   2.348
 2414SOL    HW2 8142   4.961   4.226   2.393
 2415SOL     OW 8143   6.881   6.725   1.827
 2415SOL    HW1 8144   6.956   6.775   1.871
 2415SOL    HW2 8145   6.801   6.725   1.887
 2416SOL     OW 8146   4.063   2.104   5.021
 2416SOL    HW1 8147   3.978   2.060   4.992
 2416SOL    HW2 8148   4.125   2.036   5.058
 2417SOL     OW 8149   3.783   3.489   6.127
 2417SOL    HW1 8150   3.870   3.444   6.105
 2417SOL    HW2 8151   3.718   3.476   6.052
 2418SOL     OW 8152   3.109   3.858   3.710
 2418SOL    HW1 8153   3.187   3.799   3.691
 2418SOL    HW2 8154   3.120   3.945   3.662
 2419SOL     OW 8155   0.914   6.254   4.540
 2419SOL    HW1 8156   0.919   6.354   4.545
 2419SOL    HW2 8157   0.890   6.218   4.630
 2420SOL     OW 8158   3.140   1.214   2.029
 2420SOL    HW1 8159   3.124   1.264   2.114
 2420SOL    HW2 8160   3.102   1.266   1.952
 2421SOL     OW 8161   2.865   1.789   4.818
 2421SOL    HW1 8162   2.787   1.728   4.809
 2421SOL    HW2 8163   2.948   1.742   4.790
 2422SOL     OW 8164   5.895   0.814   1.718
 2422SOL    HW1 8165   5.986   0.823   1.678
 2422SOL    HW2 8166   5.903   0.797   1.816
 2423SOL     OW 8167   1.103   6.112   3.381
 2423SOL    HW1 8168   1.135   6.026   3.340
 2423SOL    HW2 8169   1.006   6.104   3.404
 2424SOL     OW 8170   6.401   6.690   6.471
 2424SOL    HW1 8171   6.398   6.757   6.397
 2424SOL    HW2 8172   6.381   6.735   6.558
 2425SOL     OW 8173   6.015   0.227   4.188
 2425SOL    HW1 8174   5.929   0.177   4.177
 2425SOL    HW2 8175   6.072   0.213   4.107
 2426SOL     OW 8176   1.121   5.580   4.448
 2426SOL    HW1 8177   1.116   5.481   4.445
 2426SOL    HW2 8178   1.089   5.613   4.537
 2427SOL     OW 8179   5.747   5.186   5.445
 2427SOL    HW1 8180   5.716   5.271   5.402
 2427SOL    HW2 8181   5.731   5.192   5.544
 2428SOL     OW 8182   6.209   0.223   3.527
 2428SOL    HW1 8183   6.274   0.194   3.597
 2428SOL    HW2 8184   6.160   0.144   3.492
 2429SOL     OW 8185   5.383   5.241   3.633
 2429SOL    HW1 8186   5.452   5.307   3.603
 2429SOL    HW2 8187   5.335   5.278   3.713
 2430SOL     OW 8188   6.311   1.876   1.270
 2430SOL    HW1 8189   6.245   1.827   1.213
 2430SOL    HW2 8190   6.306   1.974   1.250
 2431SOL     OW 8191   4.365   0.789   2.732
 2431SOL    HW1 8192   4.278   0.747   2.758
 2431SOL    HW2 8193   4.411   0.732   2.664
 2432SOL     OW 8194   3.452   6.777   2.892
 2432SOL    HW1 8195   3.437   6.680   2.876
 2432SOL    HW2 8196   3.495   6.818   2.812
 2433SOL     OW 8197   3.554   0.492   1.552
 2433SOL    HW1 8198   3.618   0.418   1.574
 2433SOL    HW2 8199   3.471   0.454   1.511
 2434SOL     OW 8200   4.585   0.358   5.110
 2434SOL    HW1 8201   4.488   0.376   5.092
 2434SOL    HW2 8202   4.638   0.376   5.028
 2435SOL     OW 8203   4.298   4.810   6.228
 2435SOL    HW1 8204   4.217   4.860   6.260
 2435SOL    HW2 8205   4.363   4.801   6.304
 2436SOL     OW 8206   1.578   5.804   1.598
 2436SOL    HW1 8207   1.530   5.859   1.666
 2436SOL    HW2 8208   1.525   5.802   1.513
 2437SOL     OW 8209   4.889   6.002   6.736
 2437SOL    HW1 8210   4.920   6.091   6.770
 2437SOL    HW2 8211   4.968   5.948   6.706
 2438SOL     OW 8212   3.777   1.246   6.258
 2438SOL    HW1 8213   3.865   1.250   6.304
 2438SOL    HW2 8214   3.762   1.154   6.221
 2439SOL     OW 8215   1.031   4.835   6.357
 2439SOL    HW1 8216   0.974   4.836   6.440
 2439SOL    HW2 8217   0.973   4.852   6.278
 2440SOL     OW 8218   4.750   5.656   5.820
 2440SOL    HW1 8219   4.833   5.651   5.764
 2440SOL    HW2 8220   4.736   5.751   5.850
 2441SOL     OW 8221   0.657   0.532   6.734
 2441SOL    HW1 8222   0.570   0.513   6.780
 2441SOL    HW2 8223   0.704   0.446   6.715
 2442SOL     OW 8224   0.032   4.770   4.997
 2442SOL    HW1 8225   6.968   4.818   5.014
 2442SOL    HW2 8226   0.051   4.770   4.899
 2443SOL     OW 8227   4.295   5.730   5.486
 2443SOL    HW1 8228   4.385   5.726   5.531
 2443SOL    HW2 8229   4.289   5.812   5.430
 2444SOL     OW 8230   2.863   4.235   6.245
 2444SOL    HW1 8231   2.806   4.263   6.168
 2444SOL    HW2 8232   2.939   4.300   6.256
 2445SOL     OW 8233   0.358   0.511   2.060
 2445SOL    HW1 8234   0.361   0.427   2.115
 2445SOL    HW2 8235   0.393   0.492   1.968
 2446SOL     OW 8236   0.169   5.025   3.910
 2446SOL    HW1 8237   0.168   5.114   3.955
 2446SOL    HW2 8238   0.246   5.022   3.845
 2447SOL     OW 8239   2.061   2.417   1.061
 2447SOL    HW1 8240   2.045   2.398   1.157
 2447SOL    HW2 8241   2.154   2.450   1.048
 2448SOL     OW 8242   0.580   0.182   4.055
 2448SOL    HW1 8243   0.643   0.152   4.126
 2448SOL    HW2 8244   0.486   0.178   4.090
 2449SOL     OW 8245   0.304   5.053   0.771
 2449SOL    HW1 8246   0.276   5.107   0.691
 2449SOL    HW2 8247   0.365   5.107   0.828
 2450SOL     OW 8248   2.427   5.084   3.135
 2450SOL    HW1 8249   2.432   5.016   3.063
 2450SOL    HW2 8250   2.423   5.176   3.095
 2451SOL     OW 8251   0.702   0.309   3.025
 2451SOL    HW1 8252   0.688   0.405   3.049
 2451SOL    HW2 8253   0.691   0.252   3.106
 2452SOL     OW 8254   1.542   3.191   2.785
 2452SOL    HW1 8255   1.622   3.218   2.733
 2452SOL    HW2 8256   1.461   3.238   2.749
 2453SOL     OW 8257   6.004   4.091   1.031
 2453SOL    HW1 8258   5.972   4.056   1.119
 2453SOL    HW2 8259   5.950   4.171   1.005
 2454SOL     OW 8260   2.836   1.022   0.627
 2454SOL    HW1 8261   2.838   0.927   0.596
 2454SOL    HW2 8262   2.742   1.057   0.619
 2455SOL     OW 8263   5.492   6.032   0.374
 2455SOL    HW1 8264   5.590   6.045   0.388
 2455SOL    HW2 8265   5.471   5.935   0.369
 2456SOL     OW 8266   5.634   6.629   1.064
 2456SOL    HW1 8267   5.730   6.617   1.088
 2456SOL    HW2 8268   5.596   6.706   1.116
 2457SOL     OW 8269   6.235   6.293   0.279
 2457SOL    HW1 8270   6.201   6.305   0.372
 2457SOL    HW2 8271   6.315   6.234   0.280
 2458SOL     OW 8272   2.583   5.782   3.193
 2458SOL    HW1 8273   2.492   5.798   3.232
 2458SOL    HW2 8274   2.652   5.791   3.265
 2459SOL     OW 8275   2.468   6.781   0.743
 2459SOL    HW1 8276   2.417   6.697   0.761
 2459SOL    HW2 8277   2.423   6.831   0.669
 2460SOL     OW 8278   1.795   0.843   1.046
 2460SOL    HW1 8279   1.893   0.850   1.058
 2460SOL    HW2 8280   1.753   0.805   1.128
 2461SOL     OW 8281   4.972   0.843   3.120
 2461SOL    HW1 8282   4.997   0.922   3.064
 2461SOL    HW2 8283   4.893   0.867   3.178
 2462SOL     OW 8284   2.566   5.556   7.001
 2462SOL    HW1 8285   2.574   5.635   6.940
 2462SOL    HW2 8286   2.490   5.570   0.042
 2463SOL     OW 8287   6.017   2.684   3.718
 2463SOL    HW1 8288   6.109   2.669   3.681
 2463SOL    HW2 8289   5.999   2.783   3.721
 2464SOL     OW 8290   1.405   5.505   1.838
 2464SOL    HW1 8291   1.490   5.505   1.784
 2464SOL    HW2 8292   1.338   5.565   1.794
 2465SOL     OW 8293   0.130   5.372   1.422
 2465SOL    HW1 8294   0.193   5.447   1.442
 2465SOL    HW2 8295   0.151   5.336   1.331
 2466SOL     OW 8296   3.372   0.490   1.812
 2466SOL    HW1 8297   3.434   0.530   1.879
 2466SOL    HW2 8298   3.415   0.492   1.722
 2467SOL     OW 8299   5.565   0.749   5.736
 2467SOL    HW1 8300   5.566   0.675   5.669
 2467SOL    HW2 8301   5.471   0.777   5.755
 2468SOL     OW 8302   6.615   6.288   2.300
 2468SOL    HW1 8303   6.533   6.322   2.254
 2468SOL    HW2 8304   6.655   6.214   2.245
 2469SOL     OW 8305   3.827   4.170   5.474
 2469SOL    HW1 8306   3.915   4.187   5.518
 2469SOL    HW2 8307   3.826   4.212   5.384
 2470SOL     OW 8308   2.484   3.951   6.067
 2470SOL    HW1 8309   2.480   3.859   6.029
 2470SOL    HW2 8310   2.552   4.005   6.016
 2471SOL     OW 8311   1.574   6.904   0.775
 2471SOL    HW1 8312   1.495   6.844   0.766
 2471SOL    HW2 8313   1.651   6.854   0.814
 2472SOL     OW 8314   5.382   1.201   4.584
 2472SOL    HW1 8315   5.371   1.218   4.486
 2472SOL    HW2 8316   5.476   1.219   4.611
 2473SOL     OW 8317   2.208   4.217   4.956
 2473SOL    HW1 8318   2.250   4.242   4.869
 2473SOL    HW2 8319   2.252   4.136   4.993
 2474SOL     OW 8320   0.217   4.793   0.383
 2474SOL    HW1 8321   0.300   4.738   0.378
 2474SOL    HW2 8322   0.140   4.739   0.349
 2475SOL     OW 8323   4.083   1.984   0.774
 2475SOL    HW1 8324   4.149   2.058   0.787
 2475SOL    HW2 8325   3.991   2.016   0.801
 2476SOL     OW 8326   0.665   2.448   3.118
 2476SOL    HW1 8327   0.567   2.455   3.100
 2476SOL    HW2 8328   0.680   2.387   3.197
 2477SOL     OW 8329   6.093   6.780   2.067
 2477SOL    HW1 8330   6.188   6.805   2.048
 2477SOL    HW2 8331   6.037   6.862   2.068
 2478SOL     OW 8332   5.404   6.956   2.608
 2478SOL    HW1 8333   5.362   0.011   2.559
 2478SOL    HW2 8334   5.339   6.920   2.675
 2479SOL     OW 8335   0.455   3.591   1.316
 2479SOL    HW1 8336   0.457   3.492   1.307
 2479SOL    HW2 8337   0.472   3.633   1.227
 2480SOL     OW 8338   0.073   2.922   1.110
 2480SOL    HW1 8339   0.084   2.843   1.050
 2480SOL    HW2 8340   6.999   2.930   1.138
 2481SOL     OW 8341   3.353   6.190   0.568
 2481SOL    HW1 8342   3.411   6.235   0.636
 2481SOL    HW2 8343   3.410   6.135   0.507
 2482SOL     OW 8344   4.492   3.278   6.061
 2482SOL    HW1 8345   4.579   3.264   6.109
 2482SOL    HW2 8346   4.507   3.267   5.963
 2483SOL     OW 8347   2.210   1.307   0.579
 2483SOL    HW1 8348   2.195   1.405   0.573
 2483SOL    HW2 8349   2.269   1.286   0.657
 2484SOL     OW 8350   2.048   0.789   1.106
 2484SOL    HW1 8351   2.047   0.689   1.110
 2484SOL    HW2 8352   2.091   0.825   1.189
 2485SOL     OW 8353   5.287   5.206   2.702
 2485SOL    HW1 8354   5.242   5.223   2.790
 2485SOL    HW2 8355   5.264   5.114   2.670
 2486SOL     OW 8356   1.635   5.673   3.237
 2486SOL    HW1 8357   1.675   5.598   3.291
 2486SOL    HW2 8358   1.699   5.750   3.234
 2487SOL     OW 8359   4.162   6.139   0.153
 2487SOL    HW1 8360   4.144   6.140   0.251
 2487SOL    HW2 8361   4.081   6.106   0.104
 2488SOL     OW 8362   2.710   4.383   1.647
 2488SOL    HW1 8363   2.769   4.313   1.606
 2488SOL    HW2 8364   2.764   4.440   1.708
 2489SOL     OW 8365   2.409   5.237   4.276
 2489SOL    HW1 8366   2.361   5.183   4.346
 2489SOL    HW2 8367   2.344   5.295   4.228
 2490SOL     OW 8368   6.745   4.945   0.933
 2490SOL    HW1 8369   6.682   4.891   0.988
 2490SOL    HW2 8370   6.807   4.883   0.884
 2491SOL     OW 8371   2.950   5.816   2.723
 2491SOL    HW1 8372   3.026   5.880   2.712
 2491SOL    HW2 8373   2.881   5.856   2.782
 2492SOL     OW 8374   4.489   3.017   6.315
 2492SOL    HW1 8375   4.427   3.052   6.246
 2492SOL    HW2 8376   4.467   3.057   6.404
 2493SOL     OW 8377   5.946   6.954   2.699
 2493SOL    HW1 8378   5.974   6.885   2.632
 2493SOL    HW2 8379   5.890   6.911   2.770
 2494SOL     OW 8380   4.861   3.055   2.721
 2494SOL    HW1 8381   4.903   3.030   2.808
 2494SOL    HW2 8382   4.878   2.982   2.655
 2495SOL     OW 8383   4.840   1.205   5.061
 2495SOL    HW1 8384   4.766   1.231   4.999
 2495SOL    HW2 8385   4.857   1.280   5.125
 2496SOL     OW 8386   1.254   5.110   0.350
 2496SOL    HW1 8387   1.185   5.037   0.349
 2496SOL    HW2 8388   1.314   5.101   0.271
 2497SOL     OW 8389   6.915   1.664   0.480
 2497SOL    HW1 8390   6.873   1.579   0.446
 2497SOL    HW2 8391   6.968   1.644   0.563
 2498SOL     OW 8392   2.182   3.106   3.650
 2498SOL    HW1 8393   2.184   3.054   3.564
 2498SOL    HW2 8394   2.234   3.056   3.719
 2499SOL     OW 8395   5.472   0.375   4.871
 2499SOL    HW1 8396   5.462   0.328   4.784
 2499SOL    HW2 8397   5.383   0.407   4.903
 2500SOL     OW 8398   4.699   3.550   6.144
 2500SOL    HW1 8399   4.730   3.455   6.142
 2500SOL    HW2 8400   4.732   3.594   6.228
 2501SOL     OW 8401   5.906   4.151   6.764
 2501SOL    HW1 8402   5.988   4.197   6.798
 2501SOL    HW2 8403   5.932   4.070   6.711
 2502SOL     OW 8404   2.502   6.848   3.844
 2502SOL    HW1 8405   2.428   6.905   3.808
 2502SOL    HW2 8406   2.498   6.847   3.944
 2503SOL     OW 8407   3.949   5.612   5.713
 2503SOL    HW1 8408   3.901   5.680   5.658
 2503SOL    HW2 8409   3.937   5.521   5.672
 2504SOL     OW 8410   2.233   4.877   4.706
 2504SOL    HW1 8411   2.211   4.779   4.711
 2504SOL    HW2 8412   2.149   4.930   4.705
 2505SOL     OW 8413   3.834   5.901   4.794
 2505SOL    HW1 8414   3.757   5.839   4.811
 2505SOL    HW2 8415   3.903   5.888   4.865
 2506SOL     OW 8416   6.458   3.348   5.747
 2506SOL    HW1 8417   6.424   3.265   5.791
 2506SOL    HW2 8418   6.397   3.373   5.671
 2507SOL     OW 8419   5.891   5.035   0.579
 2507SOL    HW1 8420   5.922   5.127   0.557
 2507SOL    HW2 8421   5.869   5.029   0.677
 2508SOL     OW 8422   3.127   2.299   1.679
 2508SOL    HW1 8423   3.064   2.350   1.739
 2508SOL    HW2 8424   3.221   2.322   1.703
 2509SOL     OW 8425   5.903   1.917   2.353
 2509SOL    HW1 8426   5.979   1.858   2.325
 2509SOL    HW2 8427   5.906   2.002   2.300
 2510SOL     OW 8428   3.322   4.640   0.649
 2510SOL    HW1 8429   3.409   4.633   0.599
 2510SOL    HW2 8430   3.279   4.550   0.654
 2511SOL     OW 8431   1.370   1.074   4.909
 2511SOL    HW1 8432   1.422   1.142   4.960
 2511SOL    HW2 8433   1.328   1.117   4.829
 2512SOL     OW 8434   5.272   4.230   4.202
 2512SOL    HW1 8435   5.281   4.153   4.265
 2512SOL    HW2 8436   5.321   4.309   4.238
 2513SOL     OW 8437   0.660   2.516   6.527
 2513SOL    HW1 8438   0.645   2.499   6.624
 2513SOL    HW2 8439   0.737   2.460   6.495
 2514SOL     OW 8440   0.343   1.811   4.464
 2514SOL    HW1 8441   0.359   1.728   4.412
 2514SOL    HW2 8442   0.381   1.889   4.414
 2515SOL     OW 8443   1.402   6.736   0.521
 2515SOL    HW1 8444   1.345   6.806   0.479
 2515SOL    HW2 8445   1.498   6.761   0.512
 2516SOL     OW 8446   6.007   5.486   3.057
 2516SOL    HW1 8447   6.075   5.523   3.120
 2516SOL    HW2 8448   6.001   5.387   3.069
 2517SOL     OW 8449   2.357   4.379   6.209
 2517SOL    HW1 8450   2.359   4.407   6.113
 2517SOL    HW2 8451   2.373   4.280   6.215
 2518SOL     OW 8452   2.093   2.828   6.913
 2518SOL    HW1 8453   2.112   2.758   6.982
 2518SOL    HW2 8454   2.144   2.911   6.935
 2519SOL     OW 8455   4.975   5.343   4.397
 2519SOL    HW1 8456   4.961   5.425   4.453
 2519SOL    HW2 8457   5.027   5.368   4.315
 2520SOL     OW 8458   1.653   3.522   0.856
 2520SOL    HW1 8459   1.706   3.606   0.862
 2520SOL    HW2 8460   1.714   3.443   0.863
 2521SOL     OW 8461   1.080   0.090   5.538
 2521SOL    HW1 8462   1.075   0.181   5.496
 2521SOL    HW2 8463   1.089   0.020   5.467
 2522SOL     OW 8464   1.413   3.354   4.404
 2522SOL    HW1 8465   1.487   3.382   4.465
 2522SOL    HW2 8466   1.406   3.419   4.328
 2523SOL     OW 8467   6.437   3.218   0.809
 2523SOL    HW1 8468   6.386   3.296   0.847
 2523SOL    HW2 8469   6.409   3.204   0.714
 2524SOL     OW 8470   0.522   5.968   3.957
 2524SOL    HW1 8471   0.609   5.919   3.968
 2524SOL    HW2 8472   0.510   5.993   3.861
 2525SOL     OW 8473   0.730   4.247   4.097
 2525SOL    HW1 8474   0.830   4.247   4.101
 2525SOL    HW2 8475   0.697   4.153   4.087
 2526SOL     OW 8476   0.234   2.635   5.046
 2526SOL    HW1 8477   0.273   2.558   5.098
 2526SOL    HW2 8478   0.293   2.656   4.969
 2527SOL     OW 8479   5.770   6.596   5.589
 2527SOL    HW1 8480   5.759   6.505   5.629
 2527SOL    HW2 8481   5.762   6.589   5.489
 2528SOL     OW 8482   5.616   4.864   0.504
 2528SOL    HW1 8483   5.555   4.850   0.426
 2528SOL    HW2 8484   5.640   4.775   0.544
 2529SOL     OW 8485   4.860   5.079   5.512
 2529SOL    HW1 8486   4.871   5.153   5.578
 2529SOL    HW2 8487   4.949   5.036   5.496
 2530SOL     OW 8488   0.889   6.080   3.759
 2530SOL    HW1 8489   0.979   6.097   3.717
 2530SOL    HW2 8490   0.852   5.994   3.724
 2531SOL     OW 8491   5.223   6.963   5.219
 2531SOL    HW1 8492   5.303   6.973   5.160
 2531SOL    HW2 8493   5.229   6.876   5.268
 2532SOL     OW 8494   0.644   5.718   0.954
 2532SOL    HW1 8495   0.729   5.754   0.991
 2532SOL    HW2 8496   0.569   5.782   0.975
 2533SOL     OW 8497   5.451   6.551   4.916
 2533SOL    HW1 8498   5.402   6.580   4.998
 2533SOL    HW2 8499   5.387   6.509   4.851
 2534SOL     OW 8500   2.676   0.377   3.384
 2534SOL    HW1 8501   2.613   0.405   3.311
 2534SOL    HW2 8502   2.624   0.359   3.467
 2535SOL     OW 8503   1.725   2.202   4.874
 2535SOL    HW1 8504   1.805   2.240   4.827
 2535SOL    HW2 8505   1.721   2.238   4.967
 2536SOL     OW 8506   6.189   1.153   4.152
 2536SOL    HW1 8507   6.229   1.198   4.072
 2536SOL    HW2 8508   6.263   1.119   4.211
 2537SOL     OW 8509   4.723   6.640   0.996
 2537SOL    HW1 8510   4.725   6.559   0.938
 2537SOL    HW2 8511   4.630   6.678   0.996
 2538SOL     OW 8512   1.684   4.794   4.971
 2538SOL    HW1 8513   1.736   4.753   5.046
 2538SOL    HW2 8514   1.641   4.722   4.917
 2539SOL     OW 8515   4.571   0.001   5.515
 2539SOL    HW1 8516   4.521   6.939   5.534
 2539SOL    HW2 8517   4.650   7.003   5.458
 2540SOL     OW 8518   5.501   0.696   1.501
 2540SOL    HW1 8519   5.475   0.792   1.487
 2540SOL    HW2 8520   5.432   0.651   1.557
 2541SOL     OW 8521   1.812   0.193   5.361
 2541SOL    HW1 8522   1.904   0.154   5.361
 2541SOL    HW2 8523   1.777   0.198   5.267
 2542SOL     OW 8524   4.585   2.050   4.400
 2542SOL    HW1 8525   4.543   2.096   4.321
 2542SOL    HW2 8526   4.594   2.115   4.475
 2543SOL     OW 8527   0.786   0.482   3.382
 2543SOL    HW1 8528   0.867   0.429   3.357
 2543SOL    HW2 8529   0.778   0.487   3.481
 2544SOL     OW 8530   0.105   4.909   1.467
 2544SOL    HW1 8531   0.018   4.958   1.476
 2544SOL    HW2 8532   0.125   4.896   1.370
 2545SOL     OW 8533   2.006   1.981   1.273
 2545SOL    HW1 8534   1.981   2.021   1.185
 2545SOL    HW2 8535   2.075   1.910   1.259
 2546SOL     OW 8536   6.376   3.568   1.832
 2546SOL    HW1 8537   6.297   3.618   1.795
 2546SOL    HW2 8538   6.345   3.504   1.902
 2547SOL     OW 8539   5.582   5.208   0.992
 2547SOL    HW1 8540   5.514   5.241   1.057
 2547SOL    HW2 8541   5.595   5.275   0.919
 2548SOL     OW 8542   1.845   6.866   4.670
 2548SOL    HW1 8543   1.836   6.955   4.714
 2548SOL    HW2 8544   1.861   6.879   4.572
 2549SOL     OW 8545   1.894   2.838   1.947
 2549SOL    HW1 8546   1.897   2.917   1.885
 2549SOL    HW2 8547   1.963   2.849   2.018
 2550SOL     OW 8548   5.495   6.997   0.102
 2550SOL    HW1 8549   5.554   0.043   0.145
 2550SOL    HW2 8550   5.521   6.906   0.133
 2551SOL     OW 8551   3.743   4.525   6.953
 2551SOL    HW1 8552   3.814   4.549   6.888
 2551SOL    HW2 8553   3.653   4.546   6.914
 2552SOL     OW 8554   2.571   5.273   6.418
 2552SOL    HW1 8555   2.534   5.321   6.498
 2552SOL    HW2 8556   2.650   5.323   6.383
 2553SOL     OW 8557   3.905   2.270   6.308
 2553SOL    HW1 8558   3.918   2.274   6.209
 2553SOL    HW2 8559   3.865   2.181   6.333
 2554SOL     OW 8560   2.205   5.695   6.951
 2554SOL    HW1 8561   2.256   5.667   0.011
 2554SOL    HW2 8562   2.151   5.777   6.971
 2555SOL     OW 8563   6.824   6.088   6.410
 2555SOL    HW1 8564   6.876   6.051   6.487
 2555SOL    HW2 8565   6.742   6.134   6.444
 2556SOL     OW 8566   3.943   0.244   0.947
 2556SOL    HW1 8567   4.014   0.305   0.913
 2556SOL    HW2 8568   3.853   0.274   0.914
 2557SOL     OW 8569   3.208   0.694   6.755
 2557SOL    HW1 8570   3.138   0.722   6.689
 2557SOL    HW2 8571   3.294   0.676   6.706
 2558SOL     OW 8572   5.639   4.050   6.012
 2558SOL    HW1 8573   5.571   3.988   5.975
 2558SOL    HW2 8574   5.620   4.067   6.109
 2559SOL     OW 8575   6.829   3.335   3.491
 2559SOL    HW1 8576   6.730   3.340   3.505
 2559SOL    HW2 8577   6.867   3.428   3.490
 2560SOL     OW 8578   5.186   3.517   3.440
 2560SOL    HW1 8579   5.111   3.455   3.461
 2560SOL    HW2 8580   5.156   3.612   3.455
 2561SOL     OW 8581   3.605   0.917   3.563
 2561SOL    HW1 8582   3.609   0.996   3.624
 2561SOL    HW2 8583   3.641   0.837   3.610
 2562SOL     OW 8584   3.345   6.576   3.195
 2562SOL    HW1 8585   3.402   6.620   3.125
 2562SOL    HW2 8586   3.384   6.488   3.219
 2563SOL     OW 8587   3.224   1.552   6.777
 2563SOL    HW1 8588   3.317   1.516   6.785
 2563SOL    HW2 8589   3.195   1.589   6.865
 2564SOL     OW 8590   2.111   0.276   0.422
 2564SOL    HW1 8591   2.016   0.307   0.409
 2564SOL    HW2 8592   2.143   0.306   0.511
 2565SOL     OW 8593   0.643   1.503   6.495
 2565SOL    HW1 8594   0.589   1.586   6.487
 2565SOL    HW2 8595   0.734   1.525   6.530
 2566SOL     OW 8596   2.353   6.560   1.324
 2566SOL    HW1 8597   2.432   6.621   1.318
 2566SOL    HW2 8598   2.311   6.551   1.234
 2567SOL     OW 8599   1.419   1.261   0.453
 2567SOL    HW1 8600   1.363   1.208   0.390
 2567SOL    HW2 8601   1.505   1.213   0.471
 2568SOL     OW 8602   2.802   6.869   1.214
 2568SOL    HW1 8603   2.858   6.920   1.279
 2568SOL    HW2 8604   2.838   6.882   1.121
 2569SOL     OW 8605   2.889   1.213   1.208
 2569SOL    HW1 8606   2.979   1.171   1.224
 2569SOL    HW2 8607   2.818   1.152   1.242
 2570SOL     OW 8608   5.477   5.694   6.161
 2570SOL    HW1 8609   5.381   5.707   6.137
 2570SOL    HW2 8610   5.486   5.689   6.261
 2571SOL     OW 8611   3.694   2.842   4.834
 2571SOL    HW1 8612   3.754   2.912   4.795
 2571SOL    HW2 8613   3.705   2.757   4.783
 2572SOL     OW 8614   3.129   5.724   1.560
 2572SOL    HW1 8615   3.091   5.699   1.649
 2572SOL    HW2 8616   3.185   5.807   1.570
 2573SOL     OW 8617   6.363   2.642   3.754
 2573SOL    HW1 8618   6.344   2.544   3.754
 2573SOL    HW2 8619   6.315   2.686   3.829
 2574SOL     OW 8620   6.393   2.940   0.810
 2574SOL    HW1 8621   6.423   3.035   0.809
 2574SOL    HW2 8622   6.324   2.928   0.881
 2575SOL     OW 8623   5.041   3.521   0.718
 2575SOL    HW1 8624   4.946   3.550   0.729
 2575SOL    HW2 8625   5.089   3.588   0.662
 2576SOL     OW 8626   3.186   6.757   3.303
 2576SOL    HW1 8627   3.225   6.843   3.270
 2576SOL    HW2 8628   3.236   6.680   3.263
 2577SOL     OW 8629   3.657   0.496   3.944
 2577SOL    HW1 8630   3.700   0.416   3.902
 2577SOL    HW2 8631   3.624   0.473   4.035
 2578SOL     OW 8632   5.105   2.762   5.119
 2578SOL    HW1 8633   5.133   2.856   5.139
 2578SOL    HW2 8634   5.043   2.730   5.190
 2579SOL     OW 8635   0.853   1.662   5.721
 2579SOL    HW1 8636   0.932   1.707   5.681
 2579SOL    HW2 8637   0.809   1.604   5.652
 2580SOL     OW 8638   1.540   2.356   5.510
 2580SOL    HW1 8639   1.542   2.359   5.610
 2580SOL    HW2 8640   1.629   2.382   5.474
 2581SOL     OW 8641   5.407   5.107   1.966
 2581SOL    HW1 8642   5.321   5.155   1.984
 2581SOL    HW2 8643   5.400   5.058   1.879
 2582SOL     OW 8644   2.268   5.705   3.017
 2582SOL    HW1 8645   2.321   5.632   3.061
 2582SOL    HW2 8646   2.212   5.751   3.085
 2583SOL     OW 8647   1.283   0.950   1.242
 2583SOL    HW1 8648   1.272   0.992   1.331
 2583SOL    HW2 8649   1.253   1.014   1.171
 2584SOL     OW 8650   3.518   6.642   1.100
 2584SOL    HW1 8651   3.512   6.697   1.016
 2584SOL    HW2 8652   3.540   6.548   1.077
 2585SOL     OW 8653   3.364   0.406   1.039
 2585SOL    HW1 8654   3.370   0.488   1.095
 2585SOL    HW2 8655   3.384   0.325   1.094
 2586SOL     OW 8656   5.550   1.421   4.980
 2586SOL    HW1 8657   5.529   1.489   4.909
 2586SOL    HW2 8658   5.508   1.448   5.066
 2587SOL     OW 8659   6.834   0.058   4.598
 2587SOL    HW1 8660   6.892   0.017   4.668
 2587SOL    HW2 8661   6.840   0.003   4.514
 2588SOL     OW 8662   5.776   0.155   1.278
 2588SOL    HW1 8663   5.808   0.062   1.265
 2588SOL    HW2 8664   5.786   0.206   1.192
 2589SOL     OW 8665   6.994   0.279   5.695
 2589SOL    HW1 8666   6.965   0.249   5.604
 2589SOL    HW2 8667   6.913   0.294   5.752
 2590SOL     OW 8668   3.868   6.940   2.419
 2590SOL    HW1 8669   3.887   0.007   2.462
 2590SOL    HW2 8670   3.843   6.873   2.489
 2591SOL     OW 8671   5.341   5.970   0.873
 2591SOL    HW1 8672   5.411   6.026   0.827
 2591SOL    HW2 8673   5.382   5.884   0.904
 2592SOL     OW 8674   2.962   5.854   1.415
 2592SOL    HW1 8675   3.021   5.788   1.462
 2592SOL    HW2 8676   2.959   5.832   1.317
 2593SOL     OW 8677   3.802   6.813   2.677
 2593SOL    HW1 8678   3.763   6.721   2.684
 2593SOL    HW2 8679   3.800   6.857   2.767
 2594SOL     OW 8680   0.489   0.116   6.027
 2594SOL    HW1 8681   0.395   0.143   6.004
 2594SOL    HW2 8682   0.504   0.022   5.996
 2595SOL     OW 8683   0.357   2.044   5.122
 2595SOL    HW1 8684   0.343   1.989   5.039
 2595SOL    HW2 8685   0.289   2.117   5.125
 2596SOL     OW 8686   3.637   2.531   1.668
 2596SOL    HW1 8687   3.646   2.470   1.746
 2596SOL    HW2 8688   3.603   2.620   1.699
 2597SOL     OW 8689   1.822   3.856   0.612
 2597SOL    HW1 8690   1.899   3.919   0.626
 2597SOL    HW2 8691   1.810   3.801   0.695
 2598SOL     OW 8692   6.543   2.872   4.620
 2598SOL    HW1 8693   6.496   2.785   4.603
 2598SOL    HW2 8694   6.504   2.943   4.562
 2599SOL     OW 8695   3.589   5.862   6.639
 2599SOL    HW1 8696   3.630   5.794   6.579
 2599SOL    HW2 8697   3.524   5.917   6.588
 2600SOL     OW 8698   4.910   3.654   3.999
 2600SOL    HW1 8699   4.900   3.563   4.040
 2600SOL    HW2 8700   4.854   3.719   4.050
 2601SOL     OW 8701   3.044   2.373   6.721
 2601SOL    HW1 8702   3.142   2.371   6.703
 2601SOL    HW2 8703   3.012   2.468   6.720
 2602SOL     OW 8704   0.226   4.789   4.039
 2602SOL    HW1 8705   0.154   4.733   3.998
 2602SOL    HW2 8706   0.197   4.884   4.045
 2603SOL     OW 8707   2.689   2.714   1.726
 2603SOL    HW1 8708   2.654   2.711   1.632
 2603SOL    HW2 8709   2.708   2.621   1.756
 2604SOL     OW 8710   5.427   0.779   0.811
 2604SOL    HW1 8711   5.431   0.684   0.780
 2604SOL    HW2 8712   5.381   0.835   0.742
 2605SOL     OW 8713   4.746   5.022   3.039
 2605SOL    HW1 8714   4.828   4.995   3.089
 2605SOL    HW2 8715   4.716   4.945   2.982
 2606SOL     OW 8716   0.024   4.665   0.234
 2606SOL    HW1 8717   6.980   4.598   0.267
 2606SOL    HW2 8718   0.097   4.619   0.183
 2607SOL     OW 8719   0.749   1.513   4.747
 2607SOL    HW1 8720   0.698   1.576   4.688
 2607SOL    HW2 8721   0.713   1.519   4.841
 2608SOL     OW 8722   4.950   0.082   2.531
 2608SOL    HW1 8723   4.993   0.136   2.605
 2608SOL    HW2 8724   4.855   0.065   2.554
 2609SOL     OW 8725   0.920   1.848   1.927
 2609SOL    HW1 8726   0.935   1.865   2.024
 2609SOL    HW2 8727   0.827   1.815   1.912
 2610SOL     OW 8728   6.788   5.415   4.927
 2610SOL    HW1 8729   6.865   5.440   4.986
 2610SOL    HW2 8730   6.822   5.372   4.844
 2611SOL     OW 8731   5.934   6.477   1.550
 2611SOL    HW1 8732   5.837   6.482   1.575
 2611SOL    HW2 8733   5.987   6.439   1.626
 2612SOL     OW 8734   6.201   5.993   4.904
 2612SOL    HW1 8735   6.248   6.063   4.958
 2612SOL    HW2 8736   6.208   5.905   4.950
 2613SOL     OW 8737   3.056   6.233   2.347
 2613SOL    HW1 8738   3.096   6.188   2.427
 2613SOL    HW2 8739   3.025   6.325   2.372
 2614SOL     OW 8740   6.354   6.046   5.910
 2614SOL    HW1 8741   6.307   5.959   5.921
 2614SOL    HW2 8742   6.288   6.118   5.887
 2615SOL     OW 8743   5.637   5.572   3.134
 2615SOL    HW1 8744   5.722   5.620   3.114
 2615SOL    HW2 8745   5.650   5.512   3.212
 2616SOL     OW 8746   4.165   3.593   3.924
 2616SOL    HW1 8747   4.259   3.558   3.926
 2616SOL    HW2 8748   4.162   3.684   3.967
 2617SOL     OW 8749   3.093   5.726   0.904
 2617SOL    HW1 8750   3.075   5.644   0.958
 2617SOL    HW2 8751   3.040   5.803   0.941
 2618SOL     OW 8752   6.995   6.308   3.531
 2618SOL    HW1 8753   6.973   6.401   3.502
 2618SOL    HW2 8754   0.035   6.266   3.465
 2619SOL     OW 8755   4.251   1.678   2.547
 2619SOL    HW1 8756   4.278   1.653   2.640
 2619SOL    HW2 8757   4.269   1.601   2.486
 2620SOL     OW 8758   1.730   5.848   3.797
 2620SOL    HW1 8759   1.631   5.833   3.791
 2620SOL    HW2 8760   1.761   5.828   3.890
 2621SOL     OW 8761   1.570   5.924   3.402
 2621SOL    HW1 8762   1.556   5.868   3.483
 2621SOL    HW2 8763   1.668   5.944   3.392
 2622SOL     OW 8764   1.757   3.122   5.931
 2622SOL    HW1 8765   1.806   3.072   5.859
 2622SOL    HW2 8766   1.665   3.146   5.898
 2623SOL     OW 8767   3.988   0.982   4.564
 2623SOL    HW1 8768   3.908   1.042   4.560
 2623SOL    HW2 8769   4.040   1.003   4.647
 2624SOL     OW 8770   6.688   3.069   3.309
 2624SOL    HW1 8771   6.758   3.057   3.380
 2624SOL    HW2 8772   6.687   2.988   3.249
 2625SOL     OW 8773   1.328   3.051   5.295
 2625SOL    HW1 8774   1.319   2.952   5.294
 2625SOL    HW2 8775   1.367   3.082   5.209
 2626SOL     OW 8776   0.513   5.964   3.670
 2626SOL    HW1 8777   0.428   6.000   3.630
 2626SOL    HW2 8778   0.580   5.949   3.598
 2627SOL     OW 8779   0.486   0.771   4.781
 2627SOL    HW1 8780   0.493   0.699   4.849
 2627SOL    HW2 8781   0.390   0.799   4.773
 2628SOL     OW 8782   3.568   5.613   6.872
 2628SOL    HW1 8783   3.599   5.685   6.809
 2628SOL    HW2 8784   3.469   5.617   6.883
 2629SOL     OW 8785   3.896   4.031   1.865
 2629SOL    HW1 8786   3.971   4.074   1.915
 2629SOL    HW2 8787   3.921   4.020   1.769
 2630SOL     OW 8788   3.476   1.822   2.336
 2630SOL    HW1 8789   3.490   1.920   2.349
 2630SOL    HW2 8790   3.544   1.771   2.389
 2631SOL     OW 8791   3.984   6.865   3.739
 2631SOL    HW1 8792   4.080   6.853   3.767
 2631SOL    HW2 8793   3.944   6.775   3.720
 2632SOL     OW 8794   3.347   2.221   6.018
 2632SOL    HW1 8795   3.248   2.218   6.018
 2632SOL    HW2 8796   3.382   2.174   5.936
 2633SOL     OW 8797   6.138   2.233   6.011
 2633SOL    HW1 8798   6.211   2.302   6.016
 2633SOL    HW2 8799   6.065   2.258   6.074
 2634SOL     OW 8800   1.900   4.119   2.995
 2634SOL    HW1 8801   1.913   4.219   2.993
 2634SOL    HW2 8802   1.990   4.074   2.992
 2635SOL     OW 8803   5.360   5.644   3.901
 2635SOL    HW1 8804   5.330   5.709   3.830
 2635SOL    HW2 8805   5.346   5.685   3.991
 2636SOL     OW 8806   5.304   0.442   6.480
 2636SOL    HW1 8807   5.357   0.402   6.555
 2636SOL    HW2 8808   5.339   0.409   6.392
 2637SOL     OW 8809   6.275   0.890   3.895
 2637SOL    HW1 8810   6.315   0.801   3.872
 2637SOL    HW2 8811   6.189   0.901   3.844
 2638SOL     OW 8812   6.487   0.140   2.504
 2638SOL    HW1 8813   6.519   0.119   2.412
 2638SOL    HW2 8814   6.541   0.089   2.570
 2639SOL     OW 8815   6.666   6.715   2.487
 2639SOL    HW1 8816   6.749   6.764   2.513
 2639SOL    HW2 8817   6.686   6.617   2.481
 2640SOL     OW 8818   0.047   6.618   5.824
 2640SOL    HW1 8819   0.056   6.678   5.903
 2640SOL    HW2 8820   7.014   6.538   5.848
 2641SOL     OW 8821   6.025   3.257   0.989
 2641SOL    HW1 8822   6.095   3.244   0.920
 2641SOL    HW2 8823   6.026   3.352   1.021
 2642SOL     OW 8824   5.135   0.375   4.663
 2642SOL    HW1 8825   5.166   0.443   4.596
 2642SOL    HW2 8826   5.198   0.298   4.665
 2643SOL     OW 8827   0.593   4.953   3.184
 2643SOL    HW1 8828   0.551   4.896   3.254
 2643SOL    HW2 8829   0.556   4.928   3.094
 2644SOL     OW 8830   0.321   4.356   5.813
 2644SOL    HW1 8831   0.377   4.273   5.812
 2644SOL    HW2 8832   0.323   4.399   5.722
 2645SOL     OW 8833   4.298   6.657   5.304
 2645SOL    HW1 8834   4.248   6.730   5.257
 2645SOL    HW2 8835   4.234   6.588   5.336
 2646SOL     OW 8836   6.624   0.061   6.484
 2646SOL    HW1 8837   6.721   0.073   6.465
 2646SOL    HW2 8838   6.608   6.990   6.520
 2647SOL     OW 8839   5.497   0.431   1.229
 2647SOL    HW1 8840   5.525   0.506   1.169
 2647SOL    HW2 8841   5.571   0.411   1.293
 2648SOL     OW 8842   6.255   6.524   3.626
 2648SOL    HW1 8843   6.291   6.601   3.679
 2648SOL    HW2 8844   6.320   6.448   3.631
 2649SOL     OW 8845   3.995   1.560   5.800
 2649SOL    HW1 8846   3.996   1.503   5.718
 2649SOL    HW2 8847   4.087   1.598   5.815
 2650SOL     OW 8848   0.996   4.281   4.162
 2650SOL    HW1 8849   1.030   4.212   4.098
 2650SOL    HW2 8850   0.991   4.241   4.254
 2651SOL     OW 8851   1.418   1.637   0.769
 2651SOL    HW1 8852   1.362   1.650   0.851
 2651SOL    HW2 8853   1.396   1.709   0.702
 2652SOL     OW 8854   3.024   3.349   3.731
 2652SOL    HW1 8855   3.008   3.375   3.826
 2652SOL    HW2 8856   3.076   3.422   3.685
 2653SOL     OW 8857   4.790   6.662   5.266
 2653SOL    HW1 8858   4.775   6.758   5.242
 2653SOL    HW2 8859   4.706   6.610   5.248
 2654SOL     OW 8860   5.050   2.987   0.380
 2654SOL    HW1 8861   4.973   2.998   0.443
 2654SOL    HW2 8862   5.062   3.072   0.327
 2655SOL     OW 8863   4.781   4.741   4.249
 2655SOL    HW1 8864   4.728   4.692   4.180
 2655SOL    HW2 8865   4.786   4.838   4.225
 2656SOL     OW 8866   4.379   4.735   4.101
 2656SOL    HW1 8867   4.455   4.768   4.045
 2656SOL    HW2 8868   4.389   4.636   4.113
 2657SOL     OW 8869   2.645   4.472   6.404
 2657SOL    HW1 8870   2.699   4.525   6.338
 2657SOL    HW2 8871   2.617   4.386   6.363
 2658SOL     OW 8872   5.650   4.749   6.865
 2658SOL    HW1 8873   5.687   4.828   6.914
 2658SOL    HW2 8874   5.637   4.772   6.768
 2659SOL     OW 8875   6.684   2.174   4.288
 2659SOL    HW1 8876   6.633   2.258   4.303
 2659SOL    HW2 8877   6.632   2.096   4.324
 2660SOL     OW 8878   0.717   2.074   1.232
 2660SOL    HW1 8879   0.647   2.060   1.302
 2660SOL    HW2 8880   0.806   2.046   1.267
 2661SOL     OW 8881   1.662   6.460   2.035
 2661SOL    HW1 8882   1.737   6.523   2.058
 2661SOL    HW2 8883   1.700   6.376   1.996
 2662SOL     OW 8884   4.482   6.783   4.987
 2662SOL    HW1 8885   4.556   6.786   5.054
 2662SOL    HW2 8886   4.510   6.829   4.903
 2663SOL     OW 8887   2.201   5.045   1.223
 2663SOL    HW1 8888   2.193   5.132   1.272
 2663SOL    HW2 8889   2.248   4.978   1.281
 2664SOL     OW 8890   3.594   4.032   3.419
 2664SOL    HW1 8891   3.531   3.962   3.388
 2664SOL    HW2 8892   3.688   4.000   3.409
 2665SOL     OW 8893   3.551   2.120   5.129
 2665SOL    HW1 8894   3.643   2.129   5.165
 2665SOL    HW2 8895   3.555   2.089   5.034
 2666SOL     OW 8896   4.831   3.362   0.985
 2666SOL    HW1 8897   4.744   3.321   1.011
 2666SOL    HW2 8898   4.906   3.301   1.014
 2667SOL     OW 8899   1.543   6.078   4.910
 2667SOL    HW1 8900   1.450   6.074   4.948
 2667SOL    HW2 8901   1.609   6.091   4.984
 2668SOL     OW 8902   6.564   3.357   3.484
 2668SOL    HW1 8903   6.502   3.314   3.418
 2668SOL    HW2 8904   6.532   3.336   3.577
 2669SOL     OW 8905   3.094   4.723   5.519
 2669SOL    HW1 8906   3.010   4.762   5.555
 2669SOL    HW2 8907   3.073   4.641   5.466
 2670SOL     OW 8908   6.109   1.446   6.580
 2670SOL    HW1 8909   6.109   1.358   6.532
 2670SOL    HW2 8910   6.185   1.450   6.644
 2671SOL     OW 8911   2.821   4.423   6.991
 2671SOL    HW1 8912   2.762   4.430   0.049
 2671SOL    HW2 8913   2.808   4.334   6.947
 2672SOL     OW 8914   0.902   5.504   6.942
 2672SOL    HW1 8915   0.834   5.560   6.989
 2672SOL    HW2 8916   0.973   5.563   6.905
 2673SOL     OW 8917   5.454   2.758   3.782
 2673SOL    HW1 8918   5.488   2.843   3.823
 2673SOL    HW2 8919   5.379   2.779   3.720
 2674SOL     OW 8920   1.879   4.269   3.870
 2674SOL    HW1 8921   1.918   4.302   3.784
 2674SOL    HW2 8922   1.904   4.173   3.883
 2675SOL     OW 8923   1.005   4.517   5.120
 2675SOL    HW1 8924   0.967   4.425   5.128
 2675SOL    HW2 8925   1.013   4.558   5.211
 2676SOL     OW 8926   4.539   1.257   2.807
 2676SOL    HW1 8927   4.474   1.185   2.831
 2676SOL    HW2 8928   4.629   1.216   2.790
 2677SOL     OW 8929   3.722   4.987   1.636
 2677SOL    HW1 8930   3.687   5.058   1.574
 2677SOL    HW2 8931   3.779   5.030   1.706
 2678SOL     OW 8932   0.502   4.695   0.811
 2678SOL    HW1 8933   0.505   4.608   0.762
 2678SOL    HW2 8934   0.485   4.678   0.908
 2679SOL     OW 8935   4.466   5.715   1.329
 2679SOL    HW1 8936   4.483   5.811   1.349
 2679SOL    HW2 8937   4.515   5.657   1.394
 2680SOL     OW 8938   1.493   1.488   0.981
 2680SOL    HW1 8939   1.466   1.534   0.897
 2680SOL    HW2 8940   1.462   1.393   0.978
 2681SOL     OW 8941   1.356   2.893   4.023
 2681SOL    HW1 8942   1.379   2.947   3.942
 2681SOL    HW2 8943   1.257   2.878   4.027
 2682SOL     OW 8944   5.450   3.206   2.638
 2682SOL    HW1 8945   5.407   3.123   2.674
 2682SOL    HW2 8946   5.468   3.195   2.540
 2683SOL     OW 8947   1.375   4.196   1.271
 2683SOL    HW1 8948   1.286   4.237   1.292
 2683SOL    HW2 8949   1.382   4.181   1.173
 2684SOL     OW 8950   4.042   5.521   2.484
 2684SOL    HW1 8951   4.003   5.586   2.419
 2684SOL    HW2 8952   4.020   5.428   2.455
 2685SOL     OW 8953   6.332   6.714   5.073
 2685SOL    HW1 8954   6.241   6.700   5.113
 2685SOL    HW2 8955   6.385   6.773   5.133
 2686SOL     OW 8956   1.788   2.374   4.310
 2686SOL    HW1 8957   1.826   2.375   4.217
 2686SOL    HW2 8958   1.761   2.467   4.336
 2687SOL     OW 8959   4.328   4.706   2.752
 2687SOL    HW1 8960   4.387   4.784   2.730
 2687SOL    HW2 8961   4.240   4.716   2.707
 2688SOL     OW 8962   4.336   6.073   5.952
 2688SOL    HW1 8963   4.322   5.978   5.979
 2688SOL    HW2 8964   4.248   6.113   5.926
 2689SOL     OW 8965   2.327   1.910   3.736
 2689SOL    HW1 8966   2.358   1.992   3.688
 2689SOL    HW2 8967   2.241   1.928   3.782
 2690SOL     OW 8968   3.207   3.505   3.606
 2690SOL    HW1 8969   3.222   3.552   3.519
 2690SOL    HW2 8970   3.289   3.455   3.632
 2691SOL     OW 8971   1.848   5.278   2.260
 2691SOL    HW1 8972   1.810   5.244   2.174
 2691SOL    HW2 8973   1.800   5.236   2.336
 2692SOL     OW 8974   5.558   6.046   4.294
 2692SOL    HW1 8975   5.462   6.033   4.319
 2692SOL    HW2 8976   5.569   6.134   4.247
 2693SOL     OW 8977   2.225   4.240   3.082
 2693SOL    HW1 8978   2.287   4.299   3.135
 2693SOL    HW2 8979   2.254   4.237   2.987
 2694SOL     OW 8980   3.498   0.838   2.849
 2694SOL    HW1 8981   3.566   0.767   2.863
 2694SOL    HW2 8982   3.523   0.919   2.903
 2695SOL     OW 8983   5.441   1.658   2.722
 2695SOL    HW1 8984   5.527   1.697   2.752
 2695SOL    HW2 8985   5.365   1.710   2.761
 2696SOL     OW 8986   3.136   2.539   5.337
 2696SOL    HW1 8987   3.203   2.546   5.411
 2696SOL    HW2 8988   3.171   2.478   5.265
 2697SOL     OW 8989   4.465   2.154   4.186
 2697SOL    HW1 8990   4.514   2.146   4.099
 2697SOL    HW2 8991   4.367   2.170   4.168
 2698SOL     OW 8992   1.940   4.830   0.713
 2698SOL    HW1 8993   2.016   4.799   0.770
 2698SOL    HW2 8994   1.856   4.831   0.768
 2699SOL     OW 8995   3.622   5.249   6.815
 2699SOL    HW1 8996   3.668   5.312   6.753
 2699SOL    HW2 8997   3.689   5.208   6.877
 2700SOL     OW 8998   2.077   3.242   1.977
 2700SOL    HW1 8999   2.128   3.327   1.966
 2700SOL    HW2 9000   1.980   3.259   1.960
 2701SOL     OW 9001   4.041   6.810   6.809
 2701SOL    HW1 9002   3.959   6.843   6.856
 2701SOL    HW2 9003   4.111   6.881   6.809
 2702SOL     OW 9004   0.059   1.290   2.972
 2702SOL    HW1 9005   0.032   1.280   2.876
 2702SOL    HW2 9006   0.073   1.387   2.994
 2703SOL     OW 9007   2.381   0.843   2.847
 2703SOL    HW1 9008   2.394   0.760   2.901
 2703SOL    HW2 9009   2.458   0.904   2.860
 2704SOL     OW 9010   1.213   5.639   0.805
 2704SOL    HW1 9011   1.238   5.712   0.869
 2704SOL    HW2 9012   1.136   5.588   0.841
 2705SOL     OW 9013   0.557   5.073   4.300
 2705SOL    HW1 9014   0.540   5.074   4.398
 2705SOL    HW2 9015   0.541   4.981   4.264
 2706SOL     OW 9016   0.584   0.702   1.631
 2706SOL    HW1 9017   0.658   0.764   1.604
 2706SOL    HW2 9018   0.496   0.747   1.621
 2707SOL     OW 9019   2.408   0.786   5.564
 2707SOL    HW1 9020   2.406   0.692   5.600
 2707SOL    HW2 9021   2.503   0.813   5.548
 2708SOL     OW 9022   1.894   3.133   1.664
 2708SOL    HW1 9023   1.820   3.124   1.596
 2708SOL    HW2 9024   1.981   3.144   1.617
 2709SOL     OW 9025   5.206   6.643   1.070
 2709SOL    HW1 9026   5.180   6.562   1.121
 2709SOL    HW2 9027   5.257   6.705   1.130
 2710SOL     OW 9028   6.317   3.910   2.756
 2710SOL    HW1 9029   6.325   3.991   2.698
 2710SOL    HW2 9030   6.401   3.857   2.750
 2711SOL     OW 9031   2.337   0.197   2.552
 2711SOL    HW1 9032   2.416   0.239   2.597
 2711SOL    HW2 9033   2.253   0.222   2.600
 2712SOL     OW 9034   3.829   4.898   0.050
 2712SOL    HW1 9035   3.852   4.930   6.980
 2712SOL    HW2 9036   3.845   4.971   0.116
 2713SOL     OW 9037   1.508   2.873   4.432
 2713SOL    HW1 9038   1.578   2.941   4.411
 2713SOL    HW2 9039   1.520   2.840   4.526
 2714SOL     OW 9040   4.797   2.078   0.355
 2714SOL    HW1 9041   4.806   1.981   0.375
 2714SOL    HW2 9042   4.747   2.090   0.269
 2715SOL     OW 9043   6.457   0.376   0.006
 2715SOL    HW1 9044   6.523   0.437   6.983
 2715SOL    HW2 9045   6.365   0.417   0.001
 2716SOL     OW 9046   6.352   4.947   1.946
 2716SOL    HW1 9047   6.371   4.959   1.848
 2716SOL    HW2 9048   6.255   4.927   1.959
 2717SOL     OW 9049   0.952   5.468   2.228
 2717SOL    HW1 9050   1.007   5.429   2.302
 2717SOL    HW2 9051   0.876   5.406   2.207
 2718SOL     OW 9052   1.700   3.332   4.200
 2718SOL    HW1 9053   1.770   3.305   4.266
 2718SOL    HW2 9054   1.742   3.387   4.127
 2719SOL     OW 9055   4.952   4.854   1.357
 2719SOL    HW1 9056   4.855   4.830   1.348
 2719SOL    HW2 9057   5.008   4.780   1.319
 2720SOL     OW 9058   1.917   6.434   4.080
 2720SOL    HW1 9059   1.916   6.374   4.159
 2720SOL    HW2 9060   1.832   6.487   4.076
 2721SOL     OW 9061   2.926   0.296   5.179
 2721SOL    HW1 9062   2.886   0.387   5.193
 2721SOL    HW2 9063   3.018   0.294   5.217
 2722SOL     OW 9064   6.285   5.414   2.660
 2722SOL    HW1 9065   6.293   5.513   2.672
 2722SOL    HW2 9066   6.364   5.370   2.702
 2723SOL     OW 9067   1.891   0.859   6.520
 2723SOL    HW1 9068   1.836   0.782   6.553
 2723SOL    HW2 9069   1.867   0.941   6.573
 2724SOL     OW 9070   3.298   6.578   5.319
 2724SOL    HW1 9071   3.246   6.571   5.404
 2724SOL    HW2 9072   3.387   6.621   5.337
 2725SOL     OW 9073   5.978   5.229   3.075
 2725SOL    HW1 9074   6.026   5.180   3.003
 2725SOL    HW2 9075   5.914   5.167   3.121
 2726SOL     OW 9076   6.185   4.131   1.814
 2726SOL    HW1 9077   6.224   4.092   1.898
 2726SOL    HW2 9078   6.135   4.214   1.836
 2727SOL     OW 9079   0.369   4.724   2.752
 2727SOL    HW1 9080   0.455   4.773   2.737
 2727SOL    HW2 9081   0.370   4.639   2.699
 2728SOL     OW 9082   3.179   0.668   4.924
 2728SOL    HW1 9083   3.157   0.750   4.870
 2728SOL    HW2 9084   3.143   0.587   4.878
 2729SOL     OW 9085   0.008   5.357   1.960
 2729SOL    HW1 9086   6.931   5.365   1.969
 2729SOL    HW2 9087   0.043   5.292   2.027
 2730SOL     OW 9088   1.309   6.808   0.776
 2730SOL    HW1 9089   1.223   6.857   0.788
 2730SOL    HW2 9090   1.315   6.774   0.682
 2731SOL     OW 9091   3.221   3.547   1.102
 2731SOL    HW1 9092   3.252   3.455   1.122
 2731SOL    HW2 9093   3.189   3.591   1.186
 2732SOL     OW 9094   5.903   3.469   2.336
 2732SOL    HW1 9095   5.881   3.464   2.434
 2732SOL    HW2 9096   5.949   3.556   2.318
 2733SOL     OW 9097   0.493   6.989   5.138
 2733SOL    HW1 9098   0.495   7.021   5.043
 2733SOL    HW2 9099   0.449   0.036   5.195
 2734SOL     OW 9100   2.223   5.632   2.753
 2734SOL    HW1 9101   2.184   5.652   2.844
 2734SOL    HW2 9102   2.316   5.669   2.748
 2735SOL     OW 9103   0.677   2.963   2.560
 2735SOL    HW1 9104   0.690   2.966   2.659
 2735SOL    HW2 9105   0.750   3.015   2.515
 2736SOL     OW 9106   5.040   0.762   4.330
 2736SOL    HW1 9107   4.963   0.738   4.271
 2736SOL    HW2 9108   5.022   0.849   4.375
 2737SOL     OW 9109   3.212   3.404   5.599
 2737SOL    HW1 9110   3.298   3.412   5.549
 2737SOL    HW2 9111   3.230   3.370   5.691
 2738SOL     OW 9112   5.095   5.657   4.700
 2738SOL    HW1 9113   5.192   5.635   4.690
 2738SOL    HW2 9114   5.080   5.754   4.684
 2739SOL     OW 9115   5.965   3.957   0.125
 2739SOL    HW1 9116   6.052   3.954   0.076
 2739SOL    HW2 9117   5.983   3.945   0.223
 2740SOL     OW 9118   5.462   2.017   2.387
 2740SOL    HW1 9119   5.436   2.038   2.482
 2740SOL    HW2 9120   5.536   1.949   2.388
 2741SOL     OW 9121   0.313   1.633   6.180
 2741SOL    HW1 9122   0.296   1.628   6.279
 2741SOL    HW2 9123   0.356   1.548   6.149
 2742SOL     OW 9124   1.533   6.032   6.285
 2742SOL    HW1 9125   1.587   6.113   6.305
 2742SOL    HW2 9126   1.488   6.043   6.197
 2743SOL     OW 9127   6.029   5.278   1.736
 2743SOL    HW1 9128   6.110   5.313   1.783
 2743SOL    HW2 9129   5.948   5.293   1.792
 2744SOL     OW 9130   3.894   2.882   0.156
 2744SOL    HW1 9131   3.893   2.883   0.056
 2744SOL    HW2 9132   3.831   2.811   0.189
 2745SOL     OW 9133   2.284   6.636   6.999
 2745SOL    HW1 9134   2.233   6.652   0.062
 2745SOL    HW2 9135   2.242   6.686   6.924
 2746SOL     OW 9136   1.969   3.161   4.784
 2746SOL    HW1 9137   2.010   3.214   4.858
 2746SOL    HW2 9138   2.023   3.174   4.701
 2747SOL     OW 9139   5.787   4.699   4.987
 2747SOL    HW1 9140   5.884   4.682   4.973
 2747SOL    HW2 9141   5.740   4.611   5.002
 2748SOL     OW 9142   3.265   1.151   2.389
 2748SOL    HW1 9143   3.316   1.196   2.315
 2748SOL    HW2 9144   3.324   1.139   2.468
 2749SOL     OW 9145   5.279   5.021   3.908
 2749SOL    HW1 9146   5.355   5.074   3.947
 2749SOL    HW2 9147   5.270   5.043   3.811
 2750SOL     OW 9148   0.887   5.519   1.521
 2750SOL    HW1 9149   0.885   5.564   1.432
 2750SOL    HW2 9150   0.964   5.455   1.523
 2751SOL     OW 9151   1.755   0.349   0.024
 2751SOL    HW1 9152   1.691   0.415   0.064
 2751SOL    HW2 9153   1.823   0.398   6.990
 2752SOL     OW 9154   5.157   5.775   5.680
 2752SOL    HW1 9155   5.182   5.727   5.597
 2752SOL    HW2 9156   5.199   5.730   5.759
 2753SOL     OW 9157   2.342   6.163   6.339
 2753SOL    HW1 9158   2.287   6.118   6.410
 2753SOL    HW2 9159   2.424   6.109   6.321
 2754SOL     OW 9160   6.351   0.187   4.730
 2754SOL    HW1 9161   6.420   0.196   4.659
 2754SOL    HW2 9162   6.321   0.278   4.759
 2755SOL     OW 9163   3.114   6.543   2.917
 2755SOL    HW1 9164   3.112   6.481   2.995
 2755SOL    HW2 9165   3.206   6.579   2.905
 2756SOL     OW 9166   5.832   4.302   3.947
 2756SOL    HW1 9167   5.850   4.328   3.852
 2756SOL    HW2 9168   5.918   4.299   3.998
 2757SOL     OW 9169   2.803   1.445   6.568
 2757SOL    HW1 9170   2.893   1.484   6.551
 2757SOL    HW2 9171   2.733   1.513   6.548
 2758SOL     OW 9172   5.092   6.045   3.566
 2758SOL    HW1 9173   5.114   5.950   3.542
 2758SOL    HW2 9174   4.993   6.058   3.563
 2759SOL     OW 9175   3.565   4.444   5.388
 2759SOL    HW1 9176   3.475   4.488   5.395
 2759SOL    HW2 9177   3.553   4.345   5.384
 2760SOL     OW 9178   6.098   5.784   2.657
 2760SOL    HW1 9179   6.038   5.826   2.725
 2760SOL    HW2 9180   6.042   5.736   2.589
 2761SOL     OW 9181   1.567   3.576   3.666
 2761SOL    HW1 9182   1.509   3.573   3.584
 2761SOL    HW2 9183   1.518   3.536   3.743
 2762SOL     OW 9184   1.284   2.127   6.999
 2762SOL    HW1 9185   1.255   2.044   6.950
 2762SOL    HW2 9186   1.343   2.181   6.941
 2763SOL     OW 9187   5.354   2.019   5.823
 2763SOL    HW1 9188   5.396   2.034   5.734
 2763SOL    HW2 9189   5.339   1.921   5.838
 2764SOL     OW 9190   0.401   4.856   2.972
 2764SOL    HW1 9191   0.313   4.866   3.018
 2764SOL    HW2 9192   0.388   4.809   2.885
 2765SOL     OW 9193   0.334   0.137   1.222
 2765SOL    HW1 9194   0.391   0.121   1.302
 2765SOL    HW2 9195   0.271   0.059   1.210
 2766SOL     OW 9196   4.361   1.059   6.638
 2766SOL    HW1 9197   4.292   1.129   6.615
 2766SOL    HW2 9198   4.429   1.098   6.699
 2767SOL     OW 9199   5.808   6.025   6.734
 2767SOL    HW1 9200   5.839   6.109   6.690
 2767SOL    HW2 9201   5.845   6.019   6.826
 2768SOL     OW 9202   4.381   1.035   0.791
 2768SOL    HW1 9203   4.397   0.985   0.876
 2768SOL    HW2 9204   4.358   0.970   0.718
 2769SOL     OW 9205   1.341   4.430   6.328
 2769SOL    HW1 9206   1.340   4.420   6.228
 2769SOL    HW2 9207   1.278   4.503   6.355
 2770SOL     OW 9208   3.571   6.256   5.907
 2770SOL    HW1 9209   3.492   6.317   5.912
 2770SOL    HW2 9210   3.547   6.167   5.946
 2771SOL     OW 9211   5.644   6.760   4.586
 2771SOL    HW1 9212   5.677   6.689   4.524
 2771SOL    HW2 9213   5.719   6.792   4.643
 2772SOL     OW 9214   3.369   0.840   2.508
 2772SOL    HW1 9215   3.295   0.776   2.526
 2772SOL    HW2 9216   3.446   0.792   2.467
 2773SOL     OW 9217   0.170   2.376   3.576
 2773SOL    HW1 9218   0.140   2.280   3.578
 2773SOL    HW2 9219   0.162   2.416   3.667
 2774SOL     OW 9220   5.075   2.993   2.945
 2774SOL    HW1 9221   5.063   2.894   2.937
 2774SOL    HW2 9222   5.124   3.013   3.030
 2775SOL     OW 9223   6.850   4.013   3.815
 2775SOL    HW1 9224   6.803   4.077   3.754
 2775SOL    HW2 9225   6.785   3.948   3.853
 2776SOL     OW 9226   4.973   5.800   6.497
 2776SOL    HW1 9227   5.001   5.810   6.593
 2776SOL    HW2 9228   5.036   5.740   6.450
 2777SOL     OW 9229   2.344   2.022   5.954
 2777SOL    HW1 9230   2.261   1.972   5.980
 2777SOL    HW2 9231   2.328   2.070   5.868
 2778SOL     OW 9232   1.989   5.905   6.031
 2778SOL    HW1 9233   1.938   5.861   6.104
 2778SOL    HW2 9234   1.931   5.913   5.950
 2779SOL     OW 9235   5.736   5.941   2.172
 2779SOL    HW1 9236   5.708   5.907   2.082
 2779SOL    HW2 9237   5.830   5.912   2.190
 2780SOL     OW 9238   0.343   0.302   6.234
 2780SOL    HW1 9239   0.270   0.238   6.256
 2780SOL    HW2 9240   0.431   0.262   6.256
 2781SOL     OW 9241   6.096   0.538   2.877
 2781SOL    HW1 9242   6.080   0.522   2.974
 2781SOL    HW2 9243   6.194   0.553   2.861
 2782SOL     OW 9244   4.419   1.230   5.527
 2782SOL    HW1 9245   4.334   1.178   5.519
 2782SOL    HW2 9246   4.427   1.268   5.619
 2783SOL     OW 9247   6.361   3.158   1.078
 2783SOL    HW1 9248   6.307   3.225   1.131
 2783SOL    HW2 9249   6.394   3.202   0.994
 2784SOL     OW 9250   2.844   1.922   2.332
 2784SOL    HW1 9251   2.913   1.992   2.314
 2784SOL    HW2 9252   2.805   1.936   2.424
 2785SOL     OW 9253   4.901   2.380   1.796
 2785SOL    HW1 9254   4.860   2.393   1.705
 2785SOL    HW2 9255   4.832   2.399   1.866
 2786SOL     OW 9256   6.337   6.150   1.604
 2786SOL    HW1 9257   6.348   6.051   1.603
 2786SOL    HW2 9258   6.425   6.194   1.621
 2787SOL     OW 9259   6.565   5.835   5.361
 2787SOL    HW1 9260   6.597   5.753   5.408
 2787SOL    HW2 9261   6.514   5.892   5.426
 2788SOL     OW 9262   3.109   5.970   6.333
 2788SOL    HW1 9263   3.060   5.948   6.417
 2788SOL    HW2 9264   3.174   5.898   6.312
 2789SOL     OW 9265   0.952   2.361   3.819
 2789SOL    HW1 9266   0.965   2.309   3.903
 2789SOL    HW2 9267   0.958   2.459   3.839
 2790SOL     OW 9268   2.840   4.905   0.512
 2790SOL    HW1 9269   2.828   4.880   0.415
 2790SOL    HW2 9270   2.874   4.826   0.563
 2791SOL     OW 9271   0.558   4.163   2.123
 2791SOL    HW1 9272   0.494   4.194   2.053
 2791SOL    HW2 9273   0.508   4.141   2.207
 2792SOL     OW 9274   3.352   0.758   4.579
 2792SOL    HW1 9275   3.410   0.684   4.611
 2792SOL    HW2 9276   3.274   0.719   4.528
 2793SOL     OW 9277   5.045   3.771   1.293
 2793SOL    HW1 9278   5.009   3.704   1.228
 2793SOL    HW2 9279   5.107   3.724   1.357
 2794SOL     OW 9280   0.116   1.118   6.258
 2794SOL    HW1 9281   0.116   1.179   6.338
 2794SOL    HW2 9282   0.021   1.099   6.231
 2795SOL     OW 9283   0.940   5.154   1.259
 2795SOL    HW1 9284   0.875   5.210   1.209
 2795SOL    HW2 9285   0.897   5.068   1.286
 2796SOL     OW 9286   0.923   5.487   5.286
 2796SOL    HW1 9287   1.011   5.439   5.287
 2796SOL    HW2 9288   0.866   5.451   5.212
 2797SOL     OW 9289   5.476   4.931   5.901
 2797SOL    HW1 9290   5.410   4.973   5.839
 2797SOL    HW2 9291   5.538   5.001   5.936
 2798SOL     OW 9292   6.845   5.850   2.694
 2798SOL    HW1 9293   6.829   5.873   2.597
 2798SOL    HW2 9294   6.937   5.813   2.705
 2799SOL     OW 9295   4.484   5.456   5.528
 2799SOL    HW1 9296   4.458   5.361   5.546
 2799SOL    HW2 9297   4.514   5.499   5.613
 2800SOL     OW 9298   5.887   0.828   0.226
 2800SOL    HW1 9299   5.834   0.838   0.310
 2800SOL    HW2 9300   5.854   0.893   0.158
 2801SOL     OW 9301   0.817   5.484   6.052
 2801SOL    HW1 9302   0.815   5.543   6.133
 2801SOL    HW2 9303   0.811   5.540   5.970
 2802SOL     OW 9304   0.045   6.363   4.965
 2802SOL    HW1 9305   0.083   6.299   5.033
 2802SOL    HW2 9306   7.001   6.423   5.010
 2803SOL     OW 9307   3.447   3.822   5.696
 2803SOL    HW1 9308   3.377   3.788   5.633
 2803SOL    HW2 9309   3.419   3.803   5.790
 2804SOL     OW 9310   0.587   2.827   4.105
 2804SOL    HW1 9311   0.538   2.892   4.048
 2804SOL    HW2 9312   0.671   2.798   4.059
 2805SOL     OW 9313   5.059   3.708   1.989
 2805SOL    HW1 9314   5.148   3.676   2.020
 2805SOL    HW2 9315   4.986   3.665   2.042
 2806SOL     OW 9316   2.156   4.558   6.291
 2806SOL    HW1 9317   2.182   4.462   6.276
 2806SOL    HW2 9318   2.237   4.612   6.312
 2807SOL     OW 9319   2.846   0.832   2.917
 2807SOL    HW1 9320   2.830   0.862   3.011
 2807SOL    HW2 9321   2.941   0.853   2.891
 2808SOL     OW 9322   5.712   5.576   0.902
 2808SOL    HW1 9323   5.634   5.561   0.963
 2808SOL    HW2 9324   5.728   5.674   0.891
 2809SOL     OW 9325   5.707   3.184   1.664
 2809SOL    HW1 9326   5.658   3.146   1.586
 2809SOL    HW2 9327   5.646   3.188   1.743
 2810SOL     OW 9328   2.460   6.179   3.156
 2810SOL    HW1 9329   2.419   6.109   3.097
 2810SOL    HW2 9330   2.429   6.269   3.126
 2811SOL     OW 9331   0.796   0.692   3.044
 2811SOL    HW1 9332   0.870   0.629   3.070
 2811SOL    HW2 9333   0.749   0.723   3.127
 2812SOL     OW 9334   0.525   3.142   0.639
 2812SOL    HW1 9335   0.515   3.211   0.567
 2812SOL    HW2 9336   0.583   3.067   0.605
 2813SOL     OW 9337   0.882   1.858   1.320
 2813SOL    HW1 9338   0.973   1.820   1.333
 2813SOL    HW2 9339   0.831   1.801   1.256
 2814SOL     OW 9340   2.696   3.979   6.549
 2814SOL    HW1 9341   2.739   3.938   6.468
 2814SOL    HW2 9342   2.678   3.909   6.617
 2815SOL     OW 9343   0.077   6.021   5.844
 2815SOL    HW1 9344   0.053   5.953   5.774
 2815SOL    HW2 9345   0.007   6.092   5.848
 2816SOL     OW 9346   6.815   6.182   5.216
 2816SOL    HW1 9347   6.768   6.230   5.142
 2816SOL    HW2 9348   6.844   6.248   5.286
 2817SOL     OW 9349   3.942   0.629   2.156
 2817SOL    HW1 9350   3.881   0.565   2.202
 2817SOL    HW2 9351   3.889   0.707   2.123
 2818SOL     OW 9352   0.697   1.034   0.811
 2818SOL    HW1 9353   0.635   0.974   0.862
 2818SOL    HW2 9354   0.771   0.979   0.772
 2819SOL     OW 9355   0.888   0.888   0.693
 2819SOL    HW1 9356   0.837   0.858   0.612
 2819SOL    HW2 9357   0.927   0.808   0.740
 2820SOL     OW 9358   1.353   1.968   2.482
 2820SOL    HW1 9359   1.281   2.029   2.450
 2820SOL    HW2 9360   1.441   1.996   2.444
 2821SOL     OW 9361   3.536   4.927   5.989
 2821SOL    HW1 9362   3.446   4.970   6.000
 2821SOL    HW2 9363   3.581   4.966   5.909
 2822SOL     OW 9364   3.768   2.955   0.436
 2822SOL    HW1 9365   3.758   3.054   0.444
 2822SOL    HW2 9366   3.677   2.913   0.425
 2823SOL     OW 9367   5.276   0.953   0.641
 2823SOL    HW1 9368   5.229   0.869   0.614
 2823SOL    HW2 9369   5.224   1.032   0.610
 2824SOL     OW 9370   1.677   3.769   5.218
 2824SOL    HW1 9371   1.672   3.678   5.176
 2824SOL    HW2 9372   1.754   3.772   5.283
 2825SOL     OW 9373   5.375   0.594   6.914
 2825SOL    HW1 9374   5.304   0.644   6.864
 2825SOL    HW2 9375   5.370   0.497   6.888
 2826SOL     OW 9376   1.511   3.391   6.296
 2826SOL    HW1 9377   1.525   3.293   6.285
 2826SOL    HW2 9378   1.575   3.441   6.237
 2827SOL     OW 9379   0.381   0.592   6.278
 2827SOL    HW1 9380   0.374   0.493   6.263
 2827SOL    HW2 9381   0.473   0.614   6.310
 2828SOL     OW 9382   1.937   3.574   1.353
 2828SOL    HW1 9383   1.927   3.604   1.448
 2828SOL    HW2 9384   1.867   3.618   1.297
 2829SOL     OW 9385   3.459   3.906   2.801
 2829SOL    HW1 9386   3.476   3.858   2.887
 2829SOL    HW2 9387   3.460   4.004   2.817
 2830SOL     OW 9388   3.841   4.291   5.221
 2830SOL    HW1 9389   3.939   4.310   5.229
 2830SOL    HW2 9390   3.790   4.376   5.233
 2831SOL     OW 9391   0.011   1.806   2.540
 2831SOL    HW1 9392   0.105   1.784   2.567
 2831SOL    HW2 9393   0.012   1.887   2.482
 2832SOL     OW 9394   1.003   3.523   1.431
 2832SOL    HW1 9395   0.962   3.435   1.455
 2832SOL    HW2 9396   0.946   3.597   1.467
 2833SOL     OW 9397   2.663   0.788   2.037
 2833SOL    HW1 9398   2.717   0.748   1.963
 2833SOL    HW2 9399   2.598   0.854   1.998
 2834SOL     OW 9400   4.387   6.315   4.644
 2834SOL    HW1 9401   4.347   6.243   4.700
 2834SOL    HW2 9402   4.484   6.324   4.666
 2835SOL     OW 9403   1.475   6.568   0.262
 2835SOL    HW1 9404   1.423   6.590   0.179
 2835SOL    HW2 9405   1.412   6.540   0.334
 2836SOL     OW 9406   4.061   6.675   3.189
 2836SOL    HW1 9407   4.110   6.670   3.276
 2836SOL    HW2 9408   4.114   6.629   3.118
 2837SOL     OW 9409   5.699   3.894   1.923
 2837SOL    HW1 9410   5.777   3.954   1.940
 2837SOL    HW2 9411   5.620   3.950   1.895
 2838SOL     OW 9412   5.185   4.280   6.147
 2838SOL    HW1 9413   5.265   4.223   6.162
 2838SOL    HW2 9414   5.167   4.335   6.229
 2839SOL     OW 9415   6.503   3.278   3.749
 2839SOL    HW1 9416   6.585   3.222   3.746
 2839SOL    HW2 9417   6.501   3.330   3.834
 2840SOL     OW 9418   1.354   5.667   3.029
 2840SOL    HW1 9419   1.321   5.575   3.008
 2840SOL    HW2 9420   1.345   5.684   3.127
 2841SOL     OW 9421   6.152   2.643   0.498
 2841SOL    HW1 9422   6.158   2.716   0.430
 2841SOL    HW2 9423   6.097   2.674   0.575
 2842SOL     OW 9424   0.998   5.686   4.675
 2842SOL    HW1 9425   1.025   5.761   4.736
 2842SOL    HW2 9426   0.910   5.650   4.704
 2843SOL     OW 9427   2.309   2.757   2.876
 2843SOL    HW1 9428   2.350   2.671   2.845
 2843SOL    HW2 9429   2.296   2.818   2.798
 2844SOL     OW 9430   4.691   4.256   1.521
 2844SOL    HW1 9431   4.622   4.308   1.571
 2844SOL    HW2 9432   4.771   4.241   1.580
 2845SOL     OW 9433   5.160   3.069   3.739
 2845SOL    HW1 9434   5.119   3.158   3.723
 2845SOL    HW2 9435   5.179   3.058   3.837
 2846SOL     OW 9436   3.930   0.747   7.013
 2846SOL    HW1 9437   3.930   0.826   0.053
 2846SOL    HW2 9438   3.840   0.705   7.012
 2847SOL     OW 9439   4.714   4.270   2.201
 2847SOL    HW1 9440   4.624   4.298   2.167
 2847SOL    HW2 9441   4.760   4.214   2.132
 2848SOL     OW 9442   1.125   2.579   5.249
 2848SOL    HW1 9443   1.146   2.482   5.264
 2848SOL    HW2 9444   1.032   2.587   5.212
 2849SOL     OW 9445   3.670   0.287   1.876
 2849SOL    HW1 9446   3.673   0.386   1.888
 2849SOL    HW2 9447   3.748   0.257   1.821
 2850SOL     OW 9448   2.016   6.847   3.428
 2850SOL    HW1 9449   1.993   6.937   3.464
 2850SOL    HW2 9450   2.100   6.814   3.472
 2851SOL     OW 9451   3.979   3.173   6.599
 2851SOL    HW1 9452   4.045   3.234   6.643
 2851SOL    HW2 9453   3.913   3.228   6.548
 2852SOL     OW 9454   6.428   4.001   6.826
 2852SOL    HW1 9455   6.389   4.054   6.752
 2852SOL    HW2 9456   6.470   4.063   6.893
 2853SOL     OW 9457   0.108   3.446   0.017
 2853SOL    HW1 9458   0.009   3.455   0.019
 2853SOL    HW2 9459   0.148   3.520   6.984
 2854SOL     OW 9460   3.356   0.951   6.298
 2854SOL    HW1 9461   3.384   0.973   6.391
 2854SOL    HW2 9462   3.284   1.013   6.269
 2855SOL     OW 9463   0.853   2.452   4.237
 2855SOL    HW1 9464   0.889   2.540   4.269
 2855SOL    HW2 9465   0.813   2.402   4.314
 2856SOL     OW 9466   1.577   3.197   3.062
 2856SOL    HW1 9467   1.558   3.222   2.967
 2856SOL    HW2 9468   1.622   3.107   3.064
 2857SOL     OW 9469   0.267   3.438   0.304
 2857SOL    HW1 9470   0.190   3.395   0.351
 2857SOL    HW2 9471   0.290   3.384   0.223
 2858SOL     OW 9472   5.613   6.187   2.936
 2858SOL    HW1 9473   5.532   6.152   2.983
 2858SOL    HW2 9474   5.685   6.206   3.002
 2859SOL     OW 9475   5.501   5.680   0.629
 2859SOL    HW1 9476   5.423   5.741   0.641
 2859SOL    HW2 9477   5.468   5.586   0.618
 2860SOL     OW 9478   1.542   6.034   1.410
 2860SOL    HW1 9479   1.572   5.999   1.322
 2860SOL    HW2 9480   1.606   6.104   1.442
 2861SOL     OW 9481   3.225   4.942   5.754
 2861SOL    HW1 9482   3.252   4.943   5.851
 2861SOL    HW2 9483   3.176   4.857   5.734
 2862SOL     OW 9484   4.336   2.788   1.376
 2862SOL    HW1 9485   4.314   2.694   1.349
 2862SOL    HW2 9486   4.332   2.797   1.475
 2863SOL     OW 9487   5.229   0.912   6.144
 2863SOL    HW1 9488   5.205   1.006   6.119
 2863SOL    HW2 9489   5.204   0.895   6.239
 2864SOL     OW 9490   4.606   2.987   1.121
 2864SOL    HW1 9491   4.628   2.990   1.218
 2864SOL    HW2 9492   4.524   2.932   1.107
 2865SOL     OW 9493   4.457   6.210   4.164
 2865SOL    HW1 9494   4.456   6.275   4.239
 2865SOL    HW2 9495   4.375   6.221   4.108
 2866SOL     OW 9496   5.601   4.510   7.005
 2866SOL    HW1 9497   5.651   4.428   6.977
 2866SOL    HW2 9498   5.607   4.579   6.933
 2867SOL     OW 9499   6.795   6.472   2.118
 2867SOL    HW1 9500   6.698   6.467   2.096
 2867SOL    HW2 9501   6.809   6.449   2.215
 2868SOL     OW 9502   0.982   1.236   5.634
 2868SOL    HW1 9503   1.051   1.293   5.678
 2868SOL    HW2 9504   1.002   1.229   5.536
 2869SOL     OW 9505   5.948   6.924   4.274
 2869SOL    HW1 9506   5.878   6.995   4.288
 2869SOL    HW2 9507   5.990   6.902   4.362
 2870SOL     OW 9508   1.501   1.939   0.113
 2870SOL    HW1 9509   1.406   1.946   0.142
 2870SOL    HW2 9510   1.529   1.843   0.117
 2871SOL     OW 9511   6.690   0.956   1.296
 2871SOL    HW1 9512   6.660   0.883   1.235
 2871SOL    HW2 9513   6.621   0.970   1.368
 2872SOL     OW 9514   2.744   1.473   2.092
 2872SOL    HW1 9515   2.714   1.499   2.184
 2872SOL    HW2 9516   2.710   1.539   2.025
 2873SOL     OW 9517   0.574   5.587   1.493
 2873SOL    HW1 9518   0.505   5.642   1.539
 2873SOL    HW2 9519   0.577   5.496   1.534
 2874SOL     OW 9520   3.320   0.178   2.590
 2874SOL    HW1 9521   3.232   0.141   2.557
 2874SOL    HW2 9522   3.327   0.163   2.688
 2875SOL     OW 9523   3.084   6.767   2.778
 2875SOL    HW1 9524   3.029   6.789   2.698
 2875SOL    HW2 9525   3.068   6.672   2.806
 2876SOL     OW 9526   1.107   6.420   1.833
 2876SOL    HW1 9527   1.121   6.503   1.778
 2876SOL    HW2 9528   1.195   6.386   1.865
 2877SOL     OW 9529   2.137   1.873   6.070
 2877SOL    HW1 9530   2.149   1.776   6.089
 2877SOL    HW2 9531   2.045   1.889   6.035
 2878SOL     OW 9532   3.212   3.060   4.653
 2878SOL    HW1 9533   3.135   3.078   4.592
 2878SOL    HW2 9534   3.297   3.086   4.607
 2879SOL     OW 9535   4.593   5.166   5.718
 2879SOL    HW1 9536   4.550   5.177   5.629
 2879SOL    HW2 9537   4.551   5.227   5.784
 2880SOL     OW 9538   0.641   2.067   3.549
 2880SOL    HW1 9539   0.574   2.081   3.476
 2880SOL    HW2 9540   0.732   2.057   3.509
 2881SOL     OW 9541   3.187   5.355   6.989
 2881SOL    HW1 9542   3.214   5.366   0.063
 2881SOL    HW2 9543   3.168   5.258   6.971
 2882SOL     OW 9544   5.661   6.322   0.469
 2882SOL    HW1 9545   5.708   6.234   0.469
 2882SOL    HW2 9546   5.715   6.388   0.521
 2883SOL     OW 9547   6.655   6.779   3.182
 2883SOL    HW1 9548   6.621   6.793   3.275
 2883SOL    HW2 9549   6.579   6.763   3.120
 2884SOL     OW 9550   0.026   4.846   2.646
 2884SOL    HW1 9551   6.959   4.863   2.603
 2884SOL    HW2 9552   0.099   4.864   2.581
 2885SOL     OW 9553   1.501   2.686   4.136
 2885SOL    HW1 9554   1.463   2.777   4.121
 2885SOL    HW2 9555   1.557   2.687   4.219
 2886SOL     OW 9556   2.613   4.585   0.319
 2886SOL    HW1 9557   2.567   4.621   0.400
 2886SOL    HW2 9558   2.685   4.649   0.290
 2887SOL     OW 9559   0.257   5.837   3.937
 2887SOL    HW1 9560   0.222   5.791   4.018
 2887SOL    HW2 9561   0.344   5.882   3.959
 2888SOL     OW 9562   0.317   5.914   6.764
 2888SOL    HW1 9563   0.272   5.988   6.813
 2888SOL    HW2 9564   0.249   5.860   6.715
 2889SOL     OW 9565   3.380   6.517   2.833
 2889SOL    HW1 9566   3.340   6.430   2.860
 2889SOL    HW2 9567   3.367   6.532   2.735
 2890SOL     OW 9568   2.414   6.122   0.588
 2890SOL    HW1 9569   2.428   6.167   0.500
 2890SOL    HW2 9570   2.334   6.063   0.583
 2891SOL     OW 9571   0.988   3.048   2.483
 2891SOL    HW1 9572   1.069   2.997   2.513
 2891SOL    HW2 9573   0.974   3.126   2.543
 2892SOL     OW 9574   6.511   3.585   1.034
 2892SOL    HW1 9575   6.513   3.681   1.007
 2892SOL    HW2 9576   6.526   3.578   1.133
 2893SOL     OW 9577   1.094   5.339   4.813
 2893SOL    HW1 9578   1.077   5.257   4.868
 2893SOL    HW2 9579   1.007   5.387   4.799
 2894SOL     OW 9580   2.049   4.371   1.886
 2894SOL    HW1 9581   2.122   4.364   1.817
 2894SOL    HW2 9582   1.968   4.413   1.845
 2895SOL     OW 9583   3.731   0.543   6.256
 2895SOL    HW1 9584   3.774   0.477   6.318
 2895SOL    HW2 9585   3.639   0.510   6.231
 2896SOL     OW 9586   5.977   6.938   5.731
 2896SOL    HW1 9587   6.035   7.014   5.758
 2896SOL    HW2 9588   5.983   6.925   5.632
 2897SOL     OW 9589   3.689   5.185   2.624
 2897SOL    HW1 9590   3.630   5.266   2.632
 2897SOL    HW2 9591   3.634   5.102   2.629
 2898SOL     OW 9592   6.118   4.001   3.439
 2898SOL    HW1 9593   6.164   3.948   3.367
 2898SOL    HW2 9594   6.090   4.089   3.402
 2899SOL     OW 9595   6.979   2.474   1.255
 2899SOL    HW1 9596   6.947   2.503   1.345
 2899SOL    HW2 9597   0.050   2.509   1.239
 2900SOL     OW 9598   3.676   4.450   6.529
 2900SOL    HW1 9599   3.579   4.468   6.543
 2900SOL    HW2 9600   3.723   4.535   6.502
 2901SOL     OW 9601   1.691   4.791   3.933
 2901SOL    HW1 9602   1.695   4.883   3.895
 2901SOL    HW2 9603   1.597   4.757   3.931
 2902SOL     OW 9604   6.905   5.964   3.667
 2902SOL    HW1 9605   6.821   5.939   3.714
 2902SOL    HW2 9606   6.884   5.996   3.575
 2903SOL     OW 9607   4.248   6.270   0.929
 2903SOL    HW1 9608   4.183   6.278   1.005
 2903SOL    HW2 9609   4.287   6.360   0.909
 2904SOL     OW 9610   2.954   4.786   5.207
 2904SOL    HW1 9611   2.894   4.723   5.158
 2904SOL    HW2 9612   3.032   4.810   5.149
 2905SOL     OW 9613   1.292   4.268   2.931
 2905SOL    HW1 9614   1.236   4.333   2.982
 2905SOL    HW2 9615   1.346   4.318   2.862
 2906SOL     OW 9616   5.391   6.098   3.072
 2906SOL    HW1 9617   5.348   6.121   3.160
 2906SOL    HW2 9618   5.409   6.000   3.069
 2907SOL     OW 9619   0.726   0.586   4.141
 2907SOL    HW1 9620   0.641   0.532   4.136
 2907SOL    HW2 9621   0.729   0.633   4.229
 2908SOL     OW 9622   5.213   0.300   3.796
 2908SOL    HW1 9623   5.165   0.270   3.713
 2908SOL    HW2 9624   5.149   0.346   3.857
 2909SOL     OW 9625   1.159   6.726   3.026
 2909SOL    HW1 9626   1.107   6.698   2.946
 2909SOL    HW2 9627   1.184   6.646   3.080
 2910SOL     OW 9628   6.630   0.911   4.107
 2910SOL    HW1 9629   6.633   0.822   4.153
 2910SOL    HW2 9630   6.601   0.899   4.012
 2911SOL     OW 9631   1.319   4.936   3.818
 2911SOL    HW1 9632   1.403   4.902   3.775
 2911SOL    HW2 9633   1.296   5.025   3.779
 2912SOL     OW 9634   6.902   6.473   0.714
 2912SOL    HW1 9635   6.962   6.403   0.677
 2912SOL    HW2 9636   6.828   6.430   0.766
 2913SOL     OW 9637   2.210   4.449   2.164
 2913SOL    HW1 9638   2.211   4.413   2.257
 2913SOL    HW2 9639   2.125   4.500   2.149
 2914SOL     OW 9640   5.274   5.179   1.067
 2914SOL    HW1 9641   5.182   5.194   1.031
 2914SOL    HW2 9642   5.275   5.096   1.122
 2915SOL     OW 9643   3.030   2.201   3.123
 2915SOL    HW1 9644   3.085   2.229   3.045
 2915SOL    HW2 9645   2.946   2.256   3.126
 2916SOL     OW 9646   2.597   5.323   6.883
 2916SOL    HW1 9647   2.575   5.403   6.938
 2916SOL    HW2 9648   2.669   5.270   6.929
 2917SOL     OW 9649   2.367   0.314   4.021
 2917SOL    HW1 9650   2.370   0.230   4.075
 2917SOL    HW2 9651   2.455   0.362   4.028
 2918SOL     OW 9652   6.302   3.439   0.896
 2918SOL    HW1 9653   6.234   3.506   0.867
 2918SOL    HW2 9654   6.381   3.486   0.935
 2919SOL     OW 9655   6.699   5.770   4.314
 2919SOL    HW1 9656   6.773   5.820   4.358
 2919SOL    HW2 9657   6.683   5.684   4.362
 2920SOL     OW 9658   2.209   0.374   1.965
 2920SOL    HW1 9659   2.216   0.421   2.053
 2920SOL    HW2 9660   2.129   0.408   1.916
 2921SOL     OW 9661   6.597   6.646   5.332
 2921SOL    HW1 9662   6.617   6.555   5.370
 2921SOL    HW2 9663   6.683   6.692   5.310
 2922SOL     OW 9664   4.435   0.197   2.649
 2922SOL    HW1 9665   4.387   0.187   2.736
 2922SOL    HW2 9666   4.403   0.279   2.602
 2923SOL     OW 9667   6.524   4.885   4.425
 2923SOL    HW1 9668   6.501   4.981   4.412
 2923SOL    HW2 9669   6.510   4.835   4.340
 2924SOL     OW 9670   6.917   1.461   4.850
 2924SOL    HW1 9671   6.835   1.510   4.879
 2924SOL    HW2 9672   6.929   1.471   4.751
 2925SOL     OW 9673   5.267   0.963   6.798
 2925SOL    HW1 9674   5.229   0.882   6.754
 2925SOL    HW2 9675   5.290   0.941   6.893
 2926SOL     OW 9676   0.136   1.869   5.273
 2926SOL    HW1 9677   0.107   1.926   5.197
 2926SOL    HW2 9678   0.235   1.879   5.287
 2927SOL     OW 9679   2.166   3.446   0.935
 2927SOL    HW1 9680   2.144   3.535   0.976
 2927SOL    HW2 9681   2.085   3.388   0.934
 2928SOL     OW 9682   6.359   1.319   0.412
 2928SOL    HW1 9683   6.424   1.395   0.417
 2928SOL    HW2 9684   6.266   1.356   0.409
 2929SOL     OW 9685   1.303   2.782   5.245
 2929SOL    HW1 9686   1.221   2.729   5.263
 2929SOL    HW2 9687   1.380   2.720   5.228
 2930SOL     OW 9688   5.985   5.686   5.855
 2930SOL    HW1 9689   6.018   5.665   5.947
 2930SOL    HW2 9690   5.966   5.601   5.806
 2931SOL     OW 9691   4.155   4.908   0.354
 2931SOL    HW1 9692   4.113   4.965   0.283
 2931SOL    HW2 9693   4.140   4.950   0.443
 2932SOL     OW 9694   6.871   5.579   2.502
 2932SOL    HW1 9695   6.798   5.536   2.449
 2932SOL    HW2 9696   6.847   5.580   2.599
 2933SOL     OW 9697   0.238   0.080   1.855
 2933SOL    HW1 9698   0.313   0.112   1.912
 2933SOL    HW2 9699   0.269   0.070   1.761
 2934SOL     OW 9700   4.256   3.002   1.107
 2934SOL    HW1 9701   4.165   3.038   1.084
 2934SOL    HW2 9702   4.252   2.902   1.107
 2935SOL     OW 9703   1.147   2.404   6.371
 2935SOL    HW1 9704   1.084   2.327   6.368
 2935SOL    HW2 9705   1.186   2.412   6.462
 2936SOL     OW 9706   4.657   0.227   0.601
 2936SOL    HW1 9707   4.569   0.197   0.637
 2936SOL    HW2 9708   4.650   0.238   0.502
 2937SOL     OW 9709   4.808   4.632   0.913
 2937SOL    HW1 9710   4.714   4.636   0.948
 2937SOL    HW2 9711   4.867   4.590   0.981
 2938SOL     OW 9712   6.333   5.586   0.165
 2938SOL    HW1 9713   6.410   5.635   0.206
 2938SOL    HW2 9714   6.337   5.490   0.191
 2939SOL     OW 9715   0.358   6.819   1.817
 2939SOL    HW1 9716   0.415   6.888   1.771
 2939SOL    HW2 9717   0.404   6.787   1.899
 2940SOL     OW 9718   5.734   5.888   4.425
 2940SOL    HW1 9719   5.701   5.795   4.444
 2940SOL    HW2 9720   5.668   5.935   4.367
 2941SOL     OW 9721   1.983   2.853   3.110
 2941SOL    HW1 9722   2.071   2.900   3.122
 2941SOL    HW2 9723   1.995   2.756   3.129
 2942SOL     OW 9724   2.997   2.591   0.184
 2942SOL    HW1 9725   2.936   2.538   0.126
 2942SOL    HW2 9726   2.948   2.672   0.217
 2943SOL     OW 9727   6.160   4.765   4.365
 2943SOL    HW1 9728   6.091   4.831   4.336
 2943SOL    HW2 9729   6.121   4.700   4.429
 2944SOL     OW 9730   2.847   6.096   3.882
 2944SOL    HW1 9731   2.896   6.021   3.839
 2944SOL    HW2 9732   2.753   6.099   3.847
 2945SOL     OW 9733   5.182   3.450   1.468
 2945SOL    HW1 9734   5.182   3.353   1.445
 2945SOL    HW2 9735   5.186   3.461   1.567
 2946SOL     OW 9736   2.622   4.375   5.827
 2946SOL    HW1 9737   2.552   4.309   5.799
 2946SOL    HW2 9738   2.616   4.456   5.769
 2947SOL     OW 9739   0.158   6.055   0.513
 2947SOL    HW1 9740   0.231   6.003   0.558
 2947SOL    HW2 9741   0.176   6.059   0.415
 2948SOL     OW 9742   5.769   4.823   3.383
 2948SOL    HW1 9743   5.848   4.766   3.359
 2948SOL    HW2 9744   5.688   4.765   3.391
 2949SOL     OW 9745   1.055   6.562   0.193
 2949SOL    HW1 9746   1.141   6.589   0.150
 2949SOL    HW2 9747   1.003   6.504   0.131
 2950SOL     OW 9748   5.700   4.701   2.788
 2950SOL    HW1 9749   5.741   4.786   2.756
 2950SOL    HW2 9750   5.739   4.624   2.738
 2951SOL     OW 9751   6.124   0.880   1.571
 2951SOL    HW1 9752   6.108   0.973   1.539
 2951SOL    HW2 9753   6.184   0.832   1.507
 2952SOL     OW 9754   6.172   0.799   5.397
 2952SOL    HW1 9755   6.102   0.746   5.444
 2952SOL    HW2 9756   6.129   0.867   5.338
 2953SOL     OW 9757   6.322   4.807   3.301
 2953SOL    HW1 9758   6.283   4.802   3.209
 2953SOL    HW2 9759   6.418   4.833   3.295
 2954SOL     OW 9760   0.689   4.803   6.764
 2954SOL    HW1 9761   0.668   4.725   6.704
 2954SOL    HW2 9762   0.607   4.857   6.778
 2955SOL     OW 9763   1.412   4.269   0.162
 2955SOL    HW1 9764   1.430   4.204   0.088
 2955SOL    HW2 9765   1.427   4.226   0.250
 2956SOL     OW 9766   6.771   5.322   4.160
 2956SOL    HW1 9767   6.846   5.277   4.208
 2956SOL    HW2 9768   6.794   5.418   4.143
 2957SOL     OW 9769   4.266   4.988   1.315
 2957SOL    HW1 9770   4.230   5.010   1.406
 2957SOL    HW2 9771   4.364   4.970   1.321
 2958SOL     OW 9772   2.152   5.380   3.339
 2958SOL    HW1 9773   2.215   5.302   3.337
 2958SOL    HW2 9774   2.194   5.458   3.294
 2959SOL     OW 9775   5.413   2.739   2.872
 2959SOL    HW1 9776   5.399   2.648   2.834
 2959SOL    HW2 9777   5.504   2.744   2.913
 2960SOL     OW 9778   3.302   0.920   0.024
 2960SOL    HW1 9779   3.327   0.873   0.108
 2960SOL    HW2 9780   3.320   0.860   6.967
 2961SOL     OW 9781   6.029   4.792   2.948
 2961SOL    HW1 9782   6.006   4.760   3.040
 2961SOL    HW2 9783   5.968   4.748   2.881
 2962SOL     OW 9784   5.067   6.730   3.881
 2962SOL    HW1 9785   5.156   6.695   3.852
 2962SOL    HW2 9786   5.070   6.748   3.979
 2963SOL     OW 9787   1.522   1.160   6.221
 2963SOL    HW1 9788   1.458   1.139   6.295
 2963SOL    HW2 9789   1.481   1.229   6.161
 2964SOL     OW 9790   0.579   2.778   6.824
 2964SOL    HW1 9791   0.488   2.737   6.831
 2964SOL    HW2 9792   0.640   2.737   6.892
 2965SOL     OW 9793   1.088   0.636   4.505
 2965SOL    HW1 9794   1.023   0.697   4.461
 2965SOL    HW2 9795   1.095   0.659   4.602
 2966SOL     OW 9796   4.716   5.841   4.070
 2966SOL    HW1 9797   4.638   5.903   4.070
 2966SOL    HW2 9798   4.797   5.890   4.101
 2967SOL     OW 9799   6.734   1.266   6.227
 2967SOL    HW1 9800   6.743   1.282   6.129
 2967SOL    HW2 9801   6.792   1.331   6.277
 2968SOL     OW 9802   2.352   3.249   0.958
 2968SOL    HW1 9803   2.294   3.185   0.910
 2968SOL    HW2 9804   2.299   3.329   0.986
 2969SOL     OW 9805   4.907   3.795   4.655
 2969SOL    HW1 9806   4.945   3.888   4.648
 2969SOL    HW2 9807   4.944   3.738   4.581
 2970SOL     OW 9808   2.904   2.656   5.443
 2970SOL    HW1 9809   2.876   2.744   5.405
 2970SOL    HW2 9810   2.994   2.631   5.407
 2971SOL     OW 9811   5.736   4.146   0.138
 2971SOL    HW1 9812   5.808   4.077   0.131
 2971SOL    HW2 9813   5.699   4.146   0.231
 2972SOL     OW 9814   5.523   5.076   0.226
 2972SOL    HW1 9815   5.623   5.067   0.222
 2972SOL    HW2 9816   5.500   5.168   0.260
 2973SOL     OW 9817   4.844   6.829   2.759
 2973SOL    HW1 9818   4.800   6.891   2.823
 2973SOL    HW2 9819   4.775   6.772   2.714
 2974SOL     OW 9820   5.997   4.196   3.281
 2974SOL    HW1 9821   6.086   4.175   3.240
 2974SOL    HW2 9822   5.932   4.217   3.208
 2975SOL     OW 9823   5.016   4.874   3.797
 2975SOL    HW1 9824   5.090   4.872   3.729
 2975SOL    HW2 9825   4.952   4.947   3.773
 2976SOL     OW 9826   4.587   1.721   3.083
 2976SOL    HW1 9827   4.493   1.753   3.093
 2976SOL    HW2 9828   4.588   1.639   3.026
 2977SOL     OW 9829   0.940   0.508   2.369
 2977SOL    HW1 9830   0.974   0.510   2.275
 2977SOL    HW2 9831   0.955   0.597   2.412
 2978SOL     OW 9832   4.145   3.977   6.794
 2978SOL    HW1 9833   4.136   3.909   6.867
 2978SOL    HW2 9834   4.167   4.066   6.834
 2979SOL     OW 9835   3.397   1.500   4.370
 2979SOL    HW1 9836   3.297   1.505   4.376
 2979SOL    HW2 9837   3.437   1.532   4.456
 2980SOL     OW 9838   2.903   4.832   6.144
 2980SOL    HW1 9839   2.859   4.756   6.193
 2980SOL    HW2 9840   2.894   4.916   6.197
 2981SOL     OW 9841   2.313   2.094   6.602
 2981SOL    HW1 9842   2.352   2.103   6.510
 2981SOL    HW2 9843   2.316   1.998   6.629
 2982SOL     OW 9844   2.097   6.420   2.465
 2982SOL    HW1 9845   2.022   6.357   2.483
 2982SOL    HW2 9846   2.060   6.510   2.439
 2983SOL     OW 9847   0.040   2.534   7.011
 2983SOL    HW1 9848   7.001   2.509   0.065
 2983SOL    HW2 9849   0.082   2.451   6.973
 2984SOL     OW 9850   6.559   4.700   6.916
 2984SOL    HW1 9851   6.499   4.685   6.837
 2984SOL    HW2 9852   6.569   4.799   6.932
 2985SOL     OW 9853   0.855   0.220   4.616
 2985SOL    HW1 9854   0.828   0.294   4.678
 2985SOL    HW2 9855   0.911   0.154   4.666
 2986SOL     OW 9856   3.052   3.924   2.198
 2986SOL    HW1 9857   2.991   3.999   2.224
 2986SOL    HW2 9858   3.122   3.912   2.269
 2987SOL     OW 9859   1.233   2.017   3.715
 2987SOL    HW1 9860   1.223   1.964   3.800
 2987SOL    HW2 9861   1.315   1.987   3.667
 2988SOL     OW 9862   0.988   0.377   1.488
 2988SOL    HW1 9863   0.960   0.451   1.427
 2988SOL    HW2 9864   1.007   0.294   1.435
 2989SOL     OW 9865   5.182   3.776   5.686
 2989SOL    HW1 9866   5.100   3.762   5.631
 2989SOL    HW2 9867   5.157   3.815   5.775
 2990SOL     OW 9868   5.544   2.185   4.299
 2990SOL    HW1 9869   5.531   2.097   4.345
 2990SOL    HW2 9870   5.471   2.199   4.233
 2991SOL     OW 9871   6.005   3.664   0.246
 2991SOL    HW1 9872   5.952   3.579   0.243
 2991SOL    HW2 9873   6.062   3.671   0.164
 2992SOL     OW 9874   0.649   4.406   4.490
 2992SOL    HW1 9875   0.687   4.320   4.523
 2992SOL    HW2 9876   0.682   4.423   4.397
 2993SOL     OW 9877   0.519   4.863   0.179
 2993SOL    HW1 9878   0.477   4.799   0.243
 2993SOL    HW2 9879   0.616   4.841   0.168
 2994SOL     OW 9880   4.694   6.492   6.944
 2994SOL    HW1 9881   4.740   6.430   7.009
 2994SOL    HW2 9882   4.701   6.586   6.978
 2995SOL     OW 9883   4.775   0.290   0.349
 2995SOL    HW1 9884   4.865   0.333   0.348
 2995SOL    HW2 9885   4.725   0.316   0.266
 2996SOL     OW 9886   1.476   2.213   4.751
 2996SOL    HW1 9887   1.573   2.226   4.769
 2996SOL    HW2 9888   1.458   2.116   4.733
 2997SOL     OW 9889   4.089   0.850   3.035
 2997SOL    HW1 9890   4.096   0.937   2.987
 2997SOL    HW2 9891   4.174   0.831   3.083
 2998SOL     OW 9892   3.089   0.668   3.966
 2998SOL    HW1 9893   2.994   0.676   3.937
 2998SOL    HW2 9894   3.139   0.608   3.903
 2999SOL     OW 9895   2.818   4.845   6.485
 2999SOL    HW1 9896   2.765   4.905   6.545
 2999SOL    HW2 9897   2.902   4.892   6.457
 3000SOL     OW 9898   2.788   3.602   5.621
 3000SOL    HW1 9899   2.813   3.543   5.698
 3000SOL    HW2 9900   2.694   3.634   5.632
 3001SOL     OW 9901   5.977   1.389   0.217
 3001SOL    HW1 9902   5.921   1.471   0.227
 3001SOL    HW2 9903   5.921   1.308   0.235
 3002SOL     OW 9904   3.013   1.408   1.056
 3002SOL    HW1 9905   2.961   1.361   1.128
 3002SOL    HW2 9906   3.060   1.340   0.999
 3003SOL     OW 9907   0.737   6.555   1.096
 3003SOL    HW1 9908   0.688   6.468   1.094
 3003SOL    HW2 9909   0.775   6.574   1.005
 3004SOL     OW 9910   1.853   4.279   4.259
 3004SOL    HW1 9911   1.923   4.274   4.187
 3004SOL    HW2 9912   1.794   4.357   4.243
 3005SOL     OW 9913   0.675   3.257   5.515
 3005SOL    HW1 9914   0.584   3.233   5.481
 3005SOL    HW2 9915   0.669   3.339   5.572
 3006SOL     OW 9916   5.416   2.141   5.542
 3006SOL    HW1 9917   5.455   2.080   5.473
 3006SOL    HW2 9918   5.488   2.202   5.576
 3007SOL     OW 9919   4.768   5.428   6.867
 3007SOL    HW1 9920   4.855   5.411   6.913
 3007SOL    HW2 9921   4.696   5.374   6.911
 3008SOL     OW 9922   4.030   2.302   6.066
 3008SOL    HW1 9923   3.945   2.291   6.013
 3008SOL    HW2 9924   4.084   2.377   6.026
 3009SOL     OW 9925   6.722   2.261   2.924
 3009SOL    HW1 9926   6.741   2.253   2.826
 3009SOL    HW2 9927   6.797   2.312   2.968
 3010SOL     OW 9928   3.583   5.775   5.711
 3010SOL    HW1 9929   3.632   5.709   5.768
 3010SOL    HW2 9930   3.588   5.746   5.615
 3011SOL     OW 9931   6.401   0.245   2.207
 3011SOL    HW1 9932   6.334   0.173   2.230
 3011SOL    HW2 9933   6.386   0.324   2.266
 3012SOL     OW 9934   2.651   3.369   6.795
 3012SOL    HW1 9935   2.732   3.352   6.739
 3012SOL    HW2 9936   2.580   3.302   6.772
 3013SOL     OW 9937   6.232   5.146   3.206
 3013SOL    HW1 9938   6.143   5.174   3.170
 3013SOL    HW2 9939   6.299   5.148   3.132
 3014SOL     OW 9940   5.111   1.209   6.483
 3014SOL    HW1 9941   5.189   1.264   6.514
 3014SOL    HW2 9942   5.056   1.183   6.562
 3015SOL     OW 9943   2.590   1.120   0.641
 3015SOL    HW1 9944   2.559   1.187   0.708
 3015SOL    HW2 9945   2.545   1.032   0.657
 3016SOL     OW 9946   3.271   6.941   4.116
 3016SOL    HW1 9947   3.349   6.884   4.090
 3016SOL    HW2 9948   3.300   7.010   4.182
 3017SOL     OW 9949   5.819   4.378   2.214
 3017SOL    HW1 9950   5.803   4.304   2.280
 3017SOL    HW2 9951   5.888   4.441   2.251
 3018SOL     OW 9952   3.837   6.929   6.957
 3018SOL    HW1 9953   3.776   6.967   6.888
 3018SOL    HW2 9954   3.783   6.888   0.009
 3019SOL     OW 9955   1.130   6.899   6.957
 3019SOL    HW1 9956   1.060   6.922   0.003
 3019SOL    HW2 9957   1.090   6.901   6.866
 3020SOL     OW 9958   4.946   3.506   6.841
 3020SOL    HW1 9959   4.969   3.533   6.934
 3020SOL    HW2 9960   5.025   3.460   6.799
 3021SOL     OW 9961   2.608   6.623   4.426
 3021SOL    HW1 9962   2.628   6.700   4.486
 3021SOL    HW2 9963   2.513   6.629   4.394
 3022SOL     OW 9964   3.900   5.903   4.063
 3022SOL    HW1 9965   3.880   5.867   3.972
 3022SOL    HW2 9966   3.818   5.944   4.102
 3023SOL     OW 9967   4.011   0.219   2.781
 3023SOL    HW1 9968   4.009   0.226   2.681
 3023SOL    HW2 9969   4.077   0.150   2.808
 3024SOL     OW 9970   6.177   5.906   5.365
 3024SOL    HW1 9971   6.255   5.916   5.303
 3024SOL    HW2 9972   6.196   5.952   5.451
 3025SOL     OW 9973   4.203   5.898   0.540
 3025SOL    HW1 9974   4.223   5.962   0.614
 3025SOL    HW2 9975   4.176   5.948   0.459
 3026SOL     OW 9976   6.724   1.170   0.203
 3026SOL    HW1 9977   6.803   1.215   0.162
 3026SOL    HW2 9978   6.725   1.184   0.302
 3027SOL     OW 9979   4.183   1.393   2.140
 3027SOL    HW1 9980   4.085   1.396   2.119
 3027SOL    HW2 9981   4.235   1.405   2.056
 3028SOL     OW 9982   1.781   4.169   6.502
 3028SOL    HW1 9983   1.849   4.191   6.432
 3028SOL    HW2 9984   1.690   4.188   6.467
 3029SOL     OW 9985   0.535   2.046   3.800
 3029SOL    HW1 9986   0.582   1.981   3.860
 3029SOL    HW2 9987   0.589   2.061   3.718
 3030SOL     OW 9988   1.419   4.231   1.004
 3030SOL    HW1 9989   1.486   4.180   0.949
 3030SOL    HW2 9990   1.372   4.297   0.946
 3031SOL     OW 9991   1.407   5.529   1.500
 3031SOL    HW1 9992   1.477   5.507   1.569
 3031SOL    HW2 9993   1.446   5.593   1.433
 3032SOL     OW 9994   1.727   6.333   3.455
 3032SOL    HW1 9995   1.800   6.378   3.404
 3032SOL    HW2 9996   1.765   6.261   3.512
 3033SOL     OW 9997   6.579   2.306   3.590
 3033SOL    HW1 9998   6.509   2.236   3.601
 3033SOL    HW2 9999   6.544   2.394   3.623
 3034SOL     OW10000   1.207   5.624   3.696
 3034SOL    HW110001   1.149   5.561   3.746
 3034SOL    HW210002   1.161   5.651   3.611
 3035SOL     OW10003   1.323   3.060   6.184
 3035SOL    HW110004   1.232   3.058   6.144
 3035SOL    HW210005   1.320   3.022   6.277
 3036SOL     OW10006   1.314   2.273   5.739
 3036SOL    HW110007   1.304   2.342   5.667
 3036SOL    HW210008   1.301   2.182   5.700
 3037SOL     OW10009   0.259   5.447   5.413
 3037SOL    HW110010   0.227   5.402   5.496
 3037SOL    HW210011   0.332   5.512   5.436
 3038SOL     OW10012   4.898   5.388   6.142
 3038SOL    HW110013   4.832   5.462   6.148
 3038SOL    HW210014   4.977   5.418   6.089
 3039SOL     OW10015   6.563   3.123   6.717
 3039SOL    HW110016   6.507   3.043   6.737
 3039SOL    HW210017   6.566   3.138   6.619
 3040SOL     OW10018   3.569   4.070   5.965
 3040SOL    HW110019   3.646   4.035   5.912
 3040SOL    HW210020   3.533   3.996   6.023
 3041SOL     OW10021   0.990   4.028   5.620
 3041SOL    HW110022   0.982   3.931   5.642
 3041SOL    HW210023   1.047   4.074   5.688
 3042SOL     OW10024   6.954   5.329   2.277
 3042SOL    HW110025   7.011   5.321   2.358
 3042SOL    HW210026   6.862   5.358   2.304
 3043SOL     OW10027   3.080   3.842   0.341
 3043SOL    HW110028   2.989   3.812   0.312
 3043SOL    HW210029   3.117   3.775   0.406
 3044SOL     OW10030   3.363   4.059   5.524
 3044SOL    HW110031   3.380   3.985   5.589
 3044SOL    HW210032   3.279   4.040   5.474
 3045SOL     OW10033   4.073   0.626   3.294
 3045SOL    HW110034   4.022   0.598   3.375
 3045SOL    HW210035   4.014   0.680   3.234
 3046SOL     OW10036   4.568   6.044   6.875
 3046SOL    HW110037   4.541   6.138   6.856
 3046SOL    HW210038   4.487   5.987   6.888
 3047SOL     OW10039   6.251   6.472   0.723
 3047SOL    HW110040   6.346   6.480   0.754
 3047SOL    HW210041   6.207   6.562   0.728
 3048SOL     OW10042   4.526   3.007   0.694
 3048SOL    HW110043   4.457   3.043   0.631
 3048SOL    HW210044   4.505   3.036   0.787
 3049SOL     OW10045   0.844   0.507   4.701
 3049SOL    HW110046   0.885   0.571   4.765
 3049SOL    HW210047   0.806   0.556   4.623
 3050SOL     OW10048   2.299   2.479   1.731
 3050SOL    HW110049   2.210   2.481   1.686
 3050SOL    HW210050   2.361   2.541   1.684
 3051SOL     OW10051   3.011   0.125   6.168
 3051SOL    HW110052   3.046   0.119   6.074
 3051SOL    HW210053   2.912   0.117   6.167
 3052SOL     OW10054   5.736   6.113   2.680
 3052SOL    HW110055   5.728   6.142   2.775
 3052SOL    HW210056   5.700   6.184   2.620
 3053SOL     OW10057   1.332   4.387   0.823
 3053SOL    HW110058   1.298   4.481   0.812
 3053SOL    HW210059   1.329   4.340   0.735
 3054SOL     OW10060   5.359   1.011   3.406
 3054SOL    HW110061   5.371   0.938   3.339
 3054SOL    HW210062   5.282   1.069   3.379
 3055SOL     OW10063   6.577   0.068   6.195
 3055SOL    HW110064   6.526   7.013   6.236
 3055SOL    HW210065   6.611   0.128   6.268
 3056SOL     OW10066   5.600   1.722   5.786
 3056SOL    HW110067   5.633   1.780   5.712
 3056SOL    HW210068   5.678   1.682   5.835
 3057SOL     OW10069   5.962   6.079   3.664
 3057SOL    HW110070   5.938   6.110   3.756
 3057SOL    HW210071   5.966   6.157   3.602
 3058SOL     OW10072   6.493   4.174   1.078
 3058SOL    HW110073   6.403   4.211   1.055
 3058SOL    HW210074   6.499   4.164   1.178
 3059SOL     OW10075   2.244   2.572   4.181
 3059SOL    HW110076   2.197   2.529   4.258
 3059SOL    HW210077   2.257   2.505   4.108
 3060SOL     OW10078   2.871   5.281   6.482
 3060SOL    HW110079   2.886   5.261   6.579
 3060SOL    HW210080   2.859   5.379   6.470
 3061SOL     OW10081   5.991   5.103   6.113
 3061SOL    HW110082   6.046   5.140   6.038
 3061SOL    HW210083   5.919   5.169   6.136
 3062SOL     OW10084   4.043   5.039   1.128
 3062SOL    HW110085   3.967   4.993   1.173
 3062SOL    HW210086   4.128   5.020   1.178
 3063SOL     OW10087   0.666   4.827   0.442
 3063SOL    HW110088   0.685   4.729   0.453
 3063SOL    HW210089   0.575   4.847   0.478
 3064SOL     OW10090   4.725   2.995   0.322
 3064SOL    HW110091   4.631   3.001   0.288
 3064SOL    HW210092   4.733   2.918   0.385
 3065SOL     OW10093   0.969   1.572   6.317
 3065SOL    HW110094   1.045   1.550   6.255
 3065SOL    HW210095   0.942   1.490   6.366
 3066SOL     OW10096   4.503   5.600   5.935
 3066SOL    HW110097   4.463   5.691   5.948
 3066SOL    HW210098   4.587   5.607   5.883
 3067SOL     OW10099   2.134   1.717   0.308
 3067SOL    HW110100   2.102   1.805   0.274
 3067SOL    HW210101   2.056   1.665   0.343
 3068SOL     OW10102   0.546   1.069   1.387
 3068SOL    HW110103   0.486   1.073   1.467
 3068SOL    HW210104   0.532   1.150   1.331
 3069SOL     OW10105   6.068   6.751   3.350
 3069SOL    HW110106   6.156   6.791   3.372
 3069SOL    HW210107   6.011   6.819   3.302
 3070SOL     OW10108   3.039   1.298   0.003
 3070SOL    HW110109   2.972   1.229   0.030
 3070SOL    HW210110   2.994   1.368   6.968
 3071SOL     OW10111   6.684   4.522   3.901
 3071SOL    HW110112   6.595   4.486   3.871
 3071SOL    HW210113   6.732   4.559   3.821
 3072SOL     OW10114   2.075   5.946   6.944
 3072SOL    HW110115   2.147   6.012   6.923
 3072SOL    HW210116   1.986   5.990   6.934
 3073SOL     OW10117   0.570   4.259   1.086
 3073SOL    HW110118   0.616   4.220   1.166
 3073SOL    HW210119   0.612   4.346   1.063
 3074SOL     OW10120   1.020   4.122   1.489
 3074SOL    HW110121   1.100   4.144   1.543
 3074SOL    HW210122   1.025   4.168   1.400
 3075SOL     OW10123   2.378   5.039   4.043
 3075SOL    HW110124   2.283   5.062   4.060
 3075SOL    HW210125   2.436   5.086   4.110
 3076SOL     OW10126   0.092   1.002   5.001
 3076SOL    HW110127   0.145   1.082   5.032
 3076SOL    HW210128   7.020   1.008   5.036
 3077SOL     OW10129   6.127   3.698   1.743
 3077SOL    HW110130   6.163   3.689   1.650
 3077SOL    HW210131   6.028   3.709   1.739
 3078SOL     OW10132   6.689   3.238   2.246
 3078SOL    HW110133   6.696   3.189   2.159
 3078SOL    HW210134   6.597   3.276   2.256
 3079SOL     OW10135   2.697   2.435   4.179
 3079SOL    HW110136   2.645   2.448   4.094
 3079SOL    HW210137   2.777   2.378   4.161
 3080SOL     OW10138   4.706   4.141   1.790
 3080SOL    HW110139   4.696   4.124   1.888
 3080SOL    HW210140   4.618   4.167   1.751
 3081SOL     OW10141   1.010   4.137   0.188
 3081SOL    HW110142   1.066   4.079   0.247
 3081SOL    HW210143   0.966   4.207   0.244
 3082SOL     OW10144   2.857   5.490   4.866
 3082SOL    HW110145   2.765   5.493   4.905
 3082SOL    HW210146   2.877   5.398   4.832
 3083SOL     OW10147   2.646   5.397   2.446
 3083SOL    HW110148   2.637   5.445   2.533
 3083SOL    HW210149   2.743   5.379   2.427
 3084SOL     OW10150   0.579   3.572   2.734
 3084SOL    HW110151   0.620   3.488   2.768
 3084SOL    HW210152   0.569   3.567   2.635
 3085SOL     OW10153   5.022   4.425   0.513
 3085SOL    HW110154   4.982   4.516   0.497
 3085SOL    HW210155   5.115   4.423   0.474
 3086SOL     OW10156   5.073   1.142   0.524
 3086SOL    HW110157   5.020   1.221   0.552
 3086SOL    HW210158   5.102   1.153   0.429
 3087SOL     OW10159   2.448   6.261   2.396
 3087SOL    HW110160   2.433   6.304   2.485
 3087SOL    HW210161   2.397   6.312   2.326
 3088SOL     OW10162   0.678   3.407   5.969
 3088SOL    HW110163   0.697   3.470   6.045
 3088SOL    HW210164   0.707   3.449   5.883
 3089SOL     OW10165   5.143   1.139   4.988
 3089SOL    HW110166   5.080   1.076   4.943
 3089SOL    HW210167   5.106   1.232   4.983
 3090SOL     OW10168   1.563   1.287   2.041
 3090SOL    HW110169   1.652   1.241   2.039
 3090SOL    HW210170   1.544   1.319   2.134
 3091SOL     OW10171   1.328   1.114   0.700
 3091SOL    HW110172   1.259   1.120   0.627
 3091SOL    HW210173   1.283   1.120   0.789
 3092SOL     OW10174   5.221   0.162   2.123
 3092SOL    HW110175   5.206   0.150   2.222
 3092SOL    HW210176   5.250   0.075   2.084
 3093SOL     OW10177   5.573   6.137   5.990
 3093SOL    HW110178   5.511   6.134   6.068
 3093SOL    HW210179   5.667   6.122   6.021
 3094SOL     OW10180   2.722   0.875   3.992
 3094SOL    HW110181   2.751   0.970   3.980
 3094SOL    HW210182   2.667   0.867   4.076
 3095SOL     OW10183   2.619   3.114   5.341
 3095SOL    HW110184   2.615   3.214   5.341
 3095SOL    HW210185   2.554   3.077   5.275
 3096SOL     OW10186   0.395   3.334   4.991
 3096SOL    HW110187   0.456   3.348   5.069
 3096SOL    HW210188   0.320   3.400   4.994
 3097SOL     OW10189   5.890   2.996   0.002
 3097SOL    HW110190   5.934   2.937   6.956
 3097SOL    HW210191   5.801   2.956   0.027
 3098SOL     OW10192   2.077   2.246   2.411
 3098SOL    HW110193   2.102   2.161   2.457
 3098SOL    HW210194   2.055   2.315   2.479
 3099SOL     OW10195   0.862   5.763   3.610
 3099SOL    HW110196   0.947   5.731   3.568
 3099SOL    HW210197   0.825   5.692   3.669
 3100SOL     OW10198   6.767   5.948   2.968
 3100SOL    HW110199   6.805   5.929   2.877
 3100SOL    HW210200   6.777   5.867   3.026
 3101SOL     OW10201   4.869   0.039   5.736
 3101SOL    HW110202   4.914   0.095   5.805
 3101SOL    HW210203   4.820   0.099   5.672
 3102SOL     OW10204   0.075   5.576   0.354
 3102SOL    HW110205   0.030   5.641   0.416
 3102SOL    HW210206   0.174   5.589   0.358
 3103SOL     OW10207   4.308   0.522   1.216
 3103SOL    HW110208   4.347   0.560   1.300
 3103SOL    HW210209   4.238   0.584   1.180
 3104SOL     OW10210   4.451   0.271   6.567
 3104SOL    HW110211   4.429   0.181   6.604
 3104SOL    HW210212   4.549   0.278   6.549
 3105SOL     OW10213   5.227   3.011   0.987
 3105SOL    HW110214   5.206   3.106   1.011
 3105SOL    HW210215   5.141   2.961   0.972
 3106SOL     OW10216   5.152   1.117   5.525
 3106SOL    HW110217   5.109   1.131   5.435
 3106SOL    HW210218   5.238   1.167   5.528
 3107SOL     OW10219   4.310   1.871   4.390
 3107SOL    HW110220   4.372   1.946   4.367
 3107SOL    HW210221   4.343   1.786   4.349
 3108SOL     OW10222   2.272   4.626   4.501
 3108SOL    HW110223   2.203   4.555   4.516
 3108SOL    HW210224   2.322   4.641   4.586
 3109SOL     OW10225   6.180   0.654   4.988
 3109SOL    HW110226   6.086   0.619   4.983
 3109SOL    HW210227   6.223   0.622   5.072
 3110SOL     OW10228   2.497   4.759   3.803
 3110SOL    HW110229   2.405   4.797   3.813
 3110SOL    HW210230   2.492   4.659   3.802
 3111SOL     OW10231   6.395   4.701   4.237
 3111SOL    HW110232   6.312   4.720   4.289
 3111SOL    HW210233   6.371   4.692   4.140
 3112SOL     OW10234   3.359   3.228   6.585
 3112SOL    HW110235   3.456   3.224   6.610
 3112SOL    HW210236   3.349   3.208   6.488
 3113SOL     OW10237   3.264   5.779   2.474
 3113SOL    HW110238   3.316   5.757   2.392
 3113SOL    HW210239   3.317   5.841   2.532
 3114SOL     OW10240   3.744   0.949   0.466
 3114SOL    HW110241   3.676   0.929   0.537
 3114SOL    HW210242   3.836   0.939   0.505
 3115SOL     OW10243   4.105   4.310   5.282
 3115SOL    HW110244   4.135   4.215   5.278
 3115SOL    HW210245   4.181   4.371   5.258
 3116SOL     OW10246   0.952   1.929   0.745
 3116SOL    HW110247   0.870   1.905   0.693
 3116SOL    HW210248   0.937   2.015   0.794
 3117SOL     OW10249   4.672   2.474   5.930
 3117SOL    HW110250   4.662   2.510   5.837
 3117SOL    HW210251   4.614   2.527   5.992
 3118SOL     OW10252   1.454   0.401   2.945
 3118SOL    HW110253   1.442   0.472   2.875
 3118SOL    HW210254   1.472   0.444   3.033
 3119SOL     OW10255   2.910   2.409   5.516
 3119SOL    HW110256   2.980   2.390   5.585
 3119SOL    HW210257   2.909   2.506   5.495
 3120SOL     OW10258   3.296   0.553   5.195
 3120SOL    HW110259   3.347   0.631   5.158
 3120SOL    HW210260   3.217   0.587   5.246
 3121SOL     OW10261   5.028   1.847   4.466
 3121SOL    HW110262   5.044   1.794   4.549
 3121SOL    HW210263   5.112   1.850   4.411
 3122SOL     OW10264   4.491   4.611   4.772
 3122SOL    HW110265   4.430   4.651   4.703
 3122SOL    HW210266   4.443   4.602   4.859
 3123SOL     OW10267   2.194   0.226   3.579
 3123SOL    HW110268   2.278   0.215   3.632
 3123SOL    HW210269   2.199   0.311   3.526
 3124SOL     OW10270   5.356   6.592   4.371
 3124SOL    HW110271   5.430   6.607   4.305
 3124SOL    HW210272   5.351   6.669   4.433
 3125SOL     OW10273   0.628   3.109   5.803
 3125SOL    HW110274   0.654   3.117   5.899
 3125SOL    HW210275   0.707   3.131   5.745
 3126SOL     OW10276   5.505   4.770   5.466
 3126SOL    HW110277   5.594   4.797   5.429
 3126SOL    HW210278   5.480   4.680   5.431
 3127SOL     OW10279   1.129   2.322   5.345
 3127SOL    HW110280   1.030   2.327   5.360
 3127SOL    HW210281   1.163   2.233   5.376
 3128SOL     OW10282   3.198   0.735   0.737
 3128SOL    HW110283   3.214   0.758   0.833
 3128SOL    HW210284   3.159   0.643   0.731
 3129SOL     OW10285   5.477   2.922   0.854
 3129SOL    HW110286   5.379   2.929   0.872
 3129SOL    HW210287   5.528   2.954   0.934
 3130SOL     OW10288   1.699   4.243   1.060
 3130SOL    HW110289   1.680   4.201   1.149
 3130SOL    HW210290   1.720   4.340   1.073
 3131SOL     OW10291   0.014   3.518   2.230
 3131SOL    HW110292   0.105   3.477   2.224
 3131SOL    HW210293   0.007   3.570   2.315
 3132SOL     OW10294   4.429   4.541   6.816
 3132SOL    HW110295   4.358   4.553   6.746
 3132SOL    HW210296   4.399   4.583   6.901
 3133SOL     OW10297   3.789   1.169   3.362
 3133SOL    HW110298   3.869   1.207   3.407
 3133SOL    HW210299   3.746   1.100   3.420
 3134SOL     OW10300   3.740   4.890   2.077
 3134SOL    HW110301   3.834   4.883   2.044
 3134SOL    HW210302   3.679   4.842   2.014
 3135SOL     OW10303   5.868   6.727   6.333
 3135SOL    HW110304   5.891   6.657   6.265
 3135SOL    HW210305   5.926   6.807   6.319
 3136SOL     OW10306   5.901   0.790   2.445
 3136SOL    HW110307   5.951   0.838   2.374
 3136SOL    HW210308   5.825   0.846   2.477
 3137SOL     OW10309   0.091   0.077   2.104
 3137SOL    HW110310   0.096   0.082   2.005
 3137SOL    HW210311   7.017   0.088   2.133
 3138SOL     OW10312   5.600   5.421   3.619
 3138SOL    HW110313   5.620   5.506   3.668
 3138SOL    HW210314   5.651   5.346   3.661
 3139SOL     OW10315   3.789   4.855   1.322
 3139SOL    HW110316   3.817   4.762   1.345
 3139SOL    HW210317   3.781   4.864   1.223
 3140SOL     OW10318   6.893   6.253   5.478
 3140SOL    HW110319   6.844   6.220   5.558
 3140SOL    HW210320   6.979   6.203   5.468
 3141SOL     OW10321   0.031   2.040   0.598
 3141SOL    HW110322   0.025   2.137   0.619
 3141SOL    HW210323   0.056   1.989   0.681
 3142SOL     OW10324   3.946   0.683   2.580
 3142SOL    HW110325   4.027   0.705   2.634
 3142SOL    HW210326   3.915   0.765   2.531
 3143SOL     OW10327   6.562   1.883   0.084
 3143SOL    HW110328   6.496   1.940   0.132
 3143SOL    HW210329   6.593   1.810   0.145
 3144SOL     OW10330   4.395   3.729   6.917
 3144SOL    HW110331   4.371   3.786   6.995
 3144SOL    HW210332   4.485   3.754   6.883
 3145SOL     OW10333   1.920   6.583   2.113
 3145SOL    HW110334   1.929   6.680   2.091
 3145SOL    HW210335   1.909   6.573   2.212
 3146SOL     OW10336   1.088   1.002   5.047
 3146SOL    HW110337   1.178   0.960   5.057
 3146SOL    HW210338   1.067   1.014   4.951
 3147SOL     OW10339   3.335   5.266   6.764
 3147SOL    HW110340   3.434   5.273   6.777
 3147SOL    HW210341   3.288   5.292   6.849
 3148SOL     OW10342   0.164   0.237   3.363
 3148SOL    HW110343   0.191   0.314   3.421
 3148SOL    HW210344   0.122   0.166   3.419
 3149SOL     OW10345   2.978   1.149   6.465
 3149SOL    HW110346   2.997   1.152   6.563
 3149SOL    HW210347   2.894   1.096   6.449
 3150SOL     OW10348   6.562   5.250   6.085
 3150SOL    HW110349   6.495   5.178   6.101
 3150SOL    HW210350   6.536   5.303   6.004
 3151SOL     OW10351   6.902   2.110   6.115
 3151SOL    HW110352   6.893   2.011   6.099
 3151SOL    HW210353   6.813   2.146   6.145
 3152SOL     OW10354   1.105   4.257   6.960
 3152SOL    HW110355   1.109   4.357   6.958
 3152SOL    HW210356   1.092   4.225   0.032
 3153SOL     OW10357   6.356   4.724   0.679
 3153SOL    HW110358   6.320   4.792   0.615
 3153SOL    HW210359   6.456   4.721   0.671
 3154SOL     OW10360   5.863   0.846   1.405
 3154SOL    HW110361   5.940   0.840   1.469
 3154SOL    HW210362   5.784   0.884   1.452
 3155SOL     OW10363   6.768   4.466   0.678
 3155SOL    HW110364   6.740   4.481   0.773
 3155SOL    HW210365   6.798   4.371   0.667
 3156SOL     OW10366   3.338   4.067   2.046
 3156SOL    HW110367   3.254   4.105   2.008
 3156SOL    HW210368   3.345   3.971   2.021
 3157SOL     OW10369   1.349   2.276   4.974
 3157SOL    HW110370   1.406   2.242   4.899
 3157SOL    HW210371   1.407   2.302   5.051
 3158SOL     OW10372   2.487   1.971   5.408
 3158SOL    HW110373   2.538   2.016   5.481
 3158SOL    HW210374   2.393   2.003   5.408
 3159SOL     OW10375   5.416   0.308   0.117
 3159SOL    HW110376   5.470   0.298   0.201
 3159SOL    HW210377   5.323   0.275   0.134
 3160SOL     OW10378   2.045   6.721   5.142
 3160SOL    HW110379   1.946   6.731   5.146
 3160SOL    HW210380   2.081   6.772   5.063
 3161SOL     OW10381   1.874   2.901   2.759
 3161SOL    HW110382   1.906   2.959   2.834
 3161SOL    HW210383   1.775   2.887   2.768
 3162SOL     OW10384   2.337   5.574   0.168
 3162SOL    HW110385   2.350   5.595   0.265
 3162SOL    HW210386   2.264   5.507   0.157
 3163SOL     OW10387   3.540   3.545   0.403
 3163SOL    HW110388   3.557   3.642   0.387
 3163SOL    HW210389   3.606   3.510   0.471
 3164SOL     OW10390   3.630   5.951   2.131
 3164SOL    HW110391   3.607   5.866   2.084
 3164SOL    HW210392   3.726   5.948   2.161
 3165SOL     OW10393   1.350   5.358   1.041
 3165SOL    HW110394   1.290   5.294   0.993
 3165SOL    HW210395   1.302   5.395   1.121
 3166SOL     OW10396   4.518   1.152   4.065
 3166SOL    HW110397   4.546   1.092   4.139
 3166SOL    HW210398   4.592   1.160   3.998
 3167SOL     OW10399   5.855   4.675   0.696
 3167SOL    HW110400   5.772   4.626   0.669
 3167SOL    HW210401   5.926   4.661   0.627
 3168SOL     OW10402   5.711   2.185   1.179
 3168SOL    HW110403   5.657   2.268   1.192
 3168SOL    HW210404   5.687   2.117   1.249
 3169SOL     OW10405   2.196   4.649   3.162
 3169SOL    HW110406   2.184   4.717   3.235
 3169SOL    HW210407   2.248   4.571   3.196
 3170SOL     OW10408   4.281   6.045   2.302
 3170SOL    HW110409   4.233   5.973   2.353
 3170SOL    HW210410   4.378   6.043   2.325
 3171SOL     OW10411   5.492   2.217   1.860
 3171SOL    HW110412   5.400   2.206   1.821
 3171SOL    HW210413   5.513   2.139   1.918
 3172SOL     OW10414   0.413   5.334   0.059
 3172SOL    HW110415   0.321   5.369   0.076
 3172SOL    HW210416   0.468   5.344   0.141
 3173SOL     OW10417   2.494   2.876   6.892
 3173SOL    HW110418   2.481   2.877   6.792
 3173SOL    HW210419   2.405   2.884   6.937
 3174SOL     OW10420   2.374   2.862   6.093
 3174SOL    HW110421   2.430   2.849   6.174
 3174SOL    HW210422   2.295   2.801   6.096
 3175SOL     OW10423   6.022   1.323   2.208
 3175SOL    HW110424   6.022   1.255   2.134
 3175SOL    HW210425   6.111   1.368   2.212
 3176SOL     OW10426   0.374   2.980   5.394
 3176SOL    HW110427   0.376   3.079   5.378
 3176SOL    HW210428   0.466   2.943   5.387
 3177SOL     OW10429   5.126   4.047   4.017
 3177SOL    HW110430   5.112   4.081   4.110
 3177SOL    HW210431   5.138   3.948   4.019
 3178SOL     OW10432   6.437   2.077   0.249
 3178SOL    HW110433   6.349   2.054   0.291
 3178SOL    HW210434   6.426   2.160   0.193
 3179SOL     OW10435   1.658   1.726   2.166
 3179SOL    HW110436   1.585   1.794   2.172
 3179SOL    HW210437   1.734   1.762   2.112
 3180SOL     OW10438   5.613   6.356   0.200
 3180SOL    HW110439   5.668   6.358   0.284
 3180SOL    HW210440   5.527   6.308   0.218
 3181SOL     OW10441   6.718   1.130   4.324
 3181SOL    HW110442   6.619   1.124   4.305
 3181SOL    HW210443   6.752   1.040   4.351
 3182SOL     OW10444   2.802   0.749   6.279
 3182SOL    HW110445   2.892   0.709   6.299
 3182SOL    HW210446   2.737   0.721   6.349
 3183SOL     OW10447   4.510   4.932   2.215
 3183SOL    HW110448   4.515   4.902   2.120
 3183SOL    HW210449   4.595   4.909   2.262
 3184SOL     OW10450   0.494   2.145   3.080
 3184SOL    HW110451   0.583   2.125   3.040
 3184SOL    HW210452   0.429   2.166   3.008
 3185SOL     OW10453   6.461   6.565   6.183
 3185SOL    HW110454   6.365   6.587   6.201
 3185SOL    HW210455   6.481   6.584   6.087
 3186SOL     OW10456   2.481   1.626   0.288
 3186SOL    HW110457   2.563   1.576   0.262
 3186SOL    HW210458   2.437   1.580   0.365
 3187SOL     OW10459   3.494   5.197   2.306
 3187SOL    HW110460   3.468   5.211   2.211
 3187SOL    HW210461   3.449   5.115   2.341
 3188SOL     OW10462   1.881   5.773   4.645
 3188SOL    HW110463   1.845   5.738   4.732
 3188SOL    HW210464   1.843   5.720   4.569
 3189SOL     OW10465   1.878   1.437   0.194
 3189SOL    HW110466   1.778   1.427   0.191
 3189SOL    HW210467   1.902   1.497   0.270
 3190SOL     OW10468   6.586   5.766   6.807
 3190SOL    HW110469   6.686   5.771   6.801
 3190SOL    HW210470   6.556   5.673   6.785
 3191SOL     OW10471   4.859   5.687   1.941
 3191SOL    HW110472   4.911   5.645   1.867
 3191SOL    HW210473   4.869   5.632   2.024
 3192SOL     OW10474   0.186   2.678   0.646
 3192SOL    HW110475   0.162   2.659   0.741
 3192SOL    HW210476   0.167   2.774   0.625
 3193SOL     OW10477   4.120   1.017   4.793
 3193SOL    HW110478   4.171   0.936   4.820
 3193SOL    HW210479   4.129   1.087   4.864
 3194SOL     OW10480   0.812   0.964   5.418
 3194SOL    HW110481   0.861   0.992   5.336
 3194SOL    HW210482   0.877   0.952   5.493
 3195SOL     OW10483   0.601   1.243   1.675
 3195SOL    HW110484   0.622   1.293   1.590
 3195SOL    HW210485   0.672   1.262   1.743
 3196SOL     OW10486   6.630   0.543   6.430
 3196SOL    HW110487   6.629   0.593   6.517
 3196SOL    HW210488   6.714   0.490   6.423
 3197SOL     OW10489   2.498   6.927   5.223
 3197SOL    HW110490   2.451   6.851   5.268
 3197SOL    HW210491   2.491   7.009   5.280
 3198SOL     OW10492   6.331   2.440   3.317
 3198SOL    HW110493   6.392   2.515   3.342
 3198SOL    HW210494   6.357   2.404   3.228
 3199SOL     OW10495   5.506   4.873   2.901
 3199SOL    HW110496   5.544   4.950   2.952
 3199SOL    HW210497   5.579   4.828   2.850
 3200SOL     OW10498   6.114   3.389   3.029
 3200SOL    HW110499   6.200   3.342   3.008
 3200SOL    HW210500   6.063   3.337   3.097
 3201SOL     OW10501   6.252   5.093   3.498
 3201SOL    HW110502   6.251   5.091   3.398
 3201SOL    HW210503   6.160   5.078   3.532
 3202SOL     OW10504   0.913   5.566   0.698
 3202SOL    HW110505   0.992   5.567   0.638
 3202SOL    HW210506   0.848   5.496   0.668
 3203SOL     OW10507   5.479   1.472   1.403
 3203SOL    HW110508   5.553   1.463   1.470
 3203SOL    HW210509   5.517   1.470   1.311
 3204SOL     OW10510   3.155   0.962   3.017
 3204SOL    HW110511   3.190   0.998   2.930
 3204SOL    HW210512   3.146   0.863   3.010
 3205SOL     OW10513   4.687   2.564   5.650
 3205SOL    HW110514   4.716   2.641   5.707
 3205SOL    HW210515   4.663   2.596   5.559
 3206SOL     OW10516   2.551   3.954   1.242
 3206SOL    HW110517   2.581   3.967   1.147
 3206SOL    HW210518   2.491   3.874   1.248
 3207SOL     OW10519   1.036   0.950   6.457
 3207SOL    HW110520   0.967   0.879   6.468
 3207SOL    HW210521   1.091   0.956   6.540
 3208SOL     OW10522   5.414   5.923   6.416
 3208SOL    HW110523   5.381   6.015   6.438
 3208SOL    HW210524   5.340   5.857   6.425
 3209SOL     OW10525   3.095   4.959   4.756
 3209SOL    HW110526   3.139   5.044   4.730
 3209SOL    HW210527   3.074   4.905   4.673
 3210SOL     OW10528   1.255   5.143   1.522
 3210SOL    HW110529   1.216   5.209   1.586
 3210SOL    HW210530   1.220   5.052   1.542
 3211SOL     OW10531   1.968   4.748   0.329
 3211SOL    HW110532   1.935   4.669   0.278
 3211SOL    HW210533   2.058   4.728   0.368
 3212SOL     OW10534   3.138   6.750   2.442
 3212SOL    HW110535   3.229   6.737   2.404
 3212SOL    HW210536   3.079   6.792   2.374
 3213SOL     OW10537   1.666   0.636   6.308
 3213SOL    HW110538   1.720   0.617   6.226
 3213SOL    HW210539   1.727   0.661   6.383
 3214SOL     OW10540   4.681   6.648   2.641
 3214SOL    HW110541   4.625   6.614   2.716
 3214SOL    HW210542   4.769   6.600   2.640
 3215SOL     OW10543   1.093   3.912   1.163
 3215SOL    HW110544   1.110   3.814   1.156
 3215SOL    HW210545   1.153   3.961   1.101
 3216SOL     OW10546   5.810   5.045   1.015
 3216SOL    HW110547   5.820   5.015   1.110
 3216SOL    HW210548   5.741   5.118   1.010
 3217SOL     OW10549   0.269   5.251   2.342
 3217SOL    HW110550   0.321   5.325   2.298
 3217SOL    HW210551   0.307   5.163   2.314
 3218SOL     OW10552   5.969   2.373   3.492
 3218SOL    HW110553   5.968   2.453   3.432
 3218SOL    HW210554   6.063   2.339   3.502
 3219SOL     OW10555   6.840   0.571   4.716
 3219SOL    HW110556   6.820   0.502   4.785
 3219SOL    HW210557   6.937   0.568   4.692
 3220SOL     OW10558   0.456   5.941   5.974
 3220SOL    HW110559   0.500   6.019   5.929
 3220SOL    HW210560   0.370   5.972   6.015
 3221SOL     OW10561   3.264   6.555   2.587
 3221SOL    HW110562   3.333   6.581   2.519
 3221SOL    HW210563   3.175   6.589   2.559
 3222SOL     OW10564   3.153   0.936   2.229
 3222SOL    HW110565   3.148   0.947   2.130
 3222SOL    HW210566   3.157   1.026   2.272
 3223SOL     OW10567   2.707   6.922   0.026
 3223SOL    HW110568   2.714   6.874   6.960
 3223SOL    HW210569   2.797   6.951   0.056
 3224SOL     OW10570   4.870   2.469   4.886
 3224SOL    HW110571   4.876   2.372   4.910
 3224SOL    HW210572   4.843   2.522   4.967
 3225SOL     OW10573   4.376   1.417   5.074
 3225SOL    HW110574   4.407   1.347   5.137
 3225SOL    HW210575   4.292   1.459   5.109
 3226SOL     OW10576   1.870   0.336   1.488
 3226SOL    HW110577   1.828   0.385   1.564
 3226SOL    HW210578   1.836   0.372   1.401
 3227SOL     OW10579   3.363   3.079   6.343
 3227SOL    HW110580   3.383   3.025   6.261
 3227SOL    HW210581   3.273   3.053   6.378
 3228SOL     OW10582   0.013   3.860   0.451
 3228SOL    HW110583   0.085   3.916   0.410
 3228SOL    HW210584   0.040   3.835   0.544
 3229SOL     OW10585   3.581   0.857   5.350
 3229SOL    HW110586   3.497   0.827   5.396
 3229SOL    HW210587   3.644   0.893   5.418
 3230SOL     OW10588   1.758   5.679   5.992
 3230SOL    HW110589   1.755   5.583   6.018
 3230SOL    HW210590   1.803   5.688   5.903
 3231SOL     OW10591   2.610   1.057   2.777
 3231SOL    HW110592   2.649   0.976   2.734
 3231SOL    HW210593   2.640   1.139   2.726
 3232SOL     OW10594   4.089   5.749   4.162
 3232SOL    HW110595   4.023   5.818   4.133
 3232SOL    HW210596   4.181   5.778   4.138
 3233SOL     OW10597   0.186   2.839   0.333
 3233SOL    HW110598   0.197   2.868   0.428
 3233SOL    HW210599   0.196   2.739   0.327
 3234SOL     OW10600   1.239   2.687   0.516
 3234SOL    HW110601   1.319   2.652   0.565
 3234SOL    HW210602   1.269   2.749   0.444
 3235SOL     OW10603   6.366   6.896   2.020
 3235SOL    HW110604   6.450   6.886   2.074
 3235SOL    HW210605   6.389   6.910   1.924
 3236SOL     OW10606   1.287   4.658   0.800
 3236SOL    HW110607   1.198   4.665   0.845
 3236SOL    HW210608   1.298   4.734   0.736
 3237SOL     OW10609   6.129   1.337   2.952
 3237SOL    HW110610   6.030   1.331   2.968
 3237SOL    HW210611   6.173   1.253   2.983
 3238SOL     OW10612   6.096   5.306   0.217
 3238SOL    HW110613   6.080   5.208   0.214
 3238SOL    HW210614   6.194   5.324   0.205
 3239SOL     OW10615   0.046   0.010   3.481
 3239SOL    HW110616   0.040   0.019   3.581
 3239SOL    HW210617   6.986   6.985   3.447
 3240SOL     OW10618   0.419   0.580   5.654
 3240SOL    HW110619   0.327   0.618   5.667
 3240SOL    HW210620   0.415   0.481   5.664
 3241SOL     OW10621   5.305   1.726   5.768
 3241SOL    HW110622   5.393   1.689   5.797
 3241SOL    HW210623   5.280   1.688   5.679
 3242SOL     OW10624   4.682   3.537   5.646
 3242SOL    HW110625   4.711   3.543   5.551
 3242SOL    HW210626   4.584   3.516   5.650
 3243SOL     OW10627   4.560   5.407   0.209
 3243SOL    HW110628   4.645   5.438   0.252
 3243SOL    HW210629   4.525   5.328   0.259
 3244SOL     OW10630   5.703   6.191   0.002
 3244SOL    HW110631   5.690   6.252   0.080
 3244SOL    HW210632   5.784   6.134   0.017
 3245SOL     OW10633   5.046   1.719   4.738
 3245SOL    HW110634   4.974   1.654   4.718
 3245SOL    HW210635   5.111   1.679   4.802
 3246SOL     OW10636   6.321   0.067   2.746
 3246SOL    HW110637   6.378   0.142   2.780
 3246SOL    HW210638   6.330   0.061   2.647
 3247SOL     OW10639   6.736   4.590   2.125
 3247SOL    HW110640   6.677   4.657   2.170
 3247SOL    HW210641   6.721   4.500   2.166
 3248SOL     OW10642   5.326   2.083   2.630
 3248SOL    HW110643   5.315   2.033   2.716
 3248SOL    HW210644   5.252   2.058   2.567
 3249SOL     OW10645   3.225   4.059   3.569
 3249SOL    HW110646   3.214   4.113   3.486
 3249SOL    HW210647   3.317   4.021   3.572
 3250SOL     OW10648   5.323   0.506   2.742
 3250SOL    HW110649   5.375   0.590   2.753
 3250SOL    HW210650   5.283   0.479   2.830
 3251SOL     OW10651   2.968   1.025   4.164
 3251SOL    HW110652   2.876   0.995   4.189
 3251SOL    HW210653   2.992   0.987   4.075
 3252SOL     OW10654   2.674   0.786   2.695
 3252SOL    HW110655   2.733   0.791   2.775
 3252SOL    HW210656   2.730   0.791   2.612
 3253SOL     OW10657   4.605   3.622   0.282
 3253SOL    HW110658   4.595   3.575   0.369
 3253SOL    HW210659   4.537   3.587   0.217
 3254SOL     OW10660   5.341   6.834   6.196
 3254SOL    HW110661   5.266   6.803   6.255
 3254SOL    HW210662   5.428   6.817   6.242
 3255SOL     OW10663   5.123   6.194   1.478
 3255SOL    HW110664   5.181   6.136   1.421
 3255SOL    HW210665   5.031   6.196   1.441
 3256SOL     OW10666   3.671   1.994   1.070
 3256SOL    HW110667   3.686   1.919   1.134
 3256SOL    HW210668   3.576   2.025   1.077
 3257SOL     OW10669   2.221   1.815   1.969
 3257SOL    HW110670   2.206   1.844   1.875
 3257SOL    HW210671   2.162   1.867   2.030
 3258SOL     OW10672   3.706   5.375   3.508
 3258SOL    HW110673   3.622   5.405   3.463
 3258SOL    HW210674   3.740   5.448   3.568
 3259SOL     OW10675   5.168   5.423   4.152
 3259SOL    HW110676   5.237   5.398   4.220
 3259SOL    HW210677   5.129   5.512   4.174
 3260SOL     OW10678   1.639   3.524   1.557
 3260SOL    HW110679   1.707   3.477   1.613
 3260SOL    HW210680   1.650   3.623   1.567
 3261SOL     OW10681   5.178   0.683   1.229
 3261SOL    HW110682   5.083   0.654   1.214
 3261SOL    HW210683   5.210   0.736   1.151
 3262SOL     OW10684   3.868   2.013   1.945
 3262SOL    HW110685   3.775   2.048   1.954
 3262SOL    HW210686   3.867   1.913   1.947
 3263SOL     OW10687   3.336   1.198   2.946
 3263SOL    HW110688   3.423   1.154   2.927
 3263SOL    HW210689   3.292   1.153   3.024
 3264SOL     OW10690   1.888   5.489   1.072
 3264SOL    HW110691   1.841   5.407   1.041
 3264SOL    HW210692   1.987   5.474   1.071
 3265SOL     OW10693   5.825   6.770   6.642
 3265SOL    HW110694   5.758   6.845   6.646
 3265SOL    HW210695   5.824   6.730   6.551
 3266SOL     OW10696   3.055   4.400   6.646
 3266SOL    HW110697   3.002   4.466   6.593
 3266SOL    HW210698   3.036   4.308   6.613
 3267SOL     OW10699   2.640   6.878   2.312
 3267SOL    HW110700   2.622   6.935   2.392
 3267SOL    HW210701   2.739   6.860   2.305
 3268SOL     OW10702   1.791   4.524   1.113
 3268SOL    HW110703   1.745   4.529   1.025
 3268SOL    HW210704   1.768   4.604   1.168
 3269SOL     OW10705   6.728   5.412   1.935
 3269SOL    HW110706   6.754   5.375   1.845
 3269SOL    HW210707   6.747   5.510   1.937
 3270SOL     OW10708   1.689   3.262   6.695
 3270SOL    HW110709   1.691   3.362   6.706
 3270SOL    HW210710   1.735   3.237   6.610
 3271SOL     OW10711   6.633   3.018   1.431
 3271SOL    HW110712   6.622   2.995   1.528
 3271SOL    HW210713   6.566   2.966   1.377
 3272SOL     OW10714   2.632   4.659   6.802
 3272SOL    HW110715   2.697   4.667   6.726
 3272SOL    HW210716   2.626   4.564   6.832
 3273SOL     OW10717   6.347   4.950   6.893
 3273SOL    HW110718   6.431   4.947   6.947
 3273SOL    HW210719   6.369   4.971   6.798
 3274SOL     OW10720   6.043   0.303   1.105
 3274SOL    HW110721   6.063   0.392   1.145
 3274SOL    HW210722   5.949   0.300   1.073
 3275SOL     OW10723   4.822   0.955   0.158
 3275SOL    HW110724   4.734   1.003   0.151
 3275SOL    HW210725   4.845   0.915   0.069
 3276SOL     OW10726   4.039   6.548   6.873
 3276SOL    HW110727   3.977   6.490   6.819
 3276SOL    HW210728   4.033   6.642   6.839
 3277SOL     OW10729   3.391   1.408   0.797
 3277SOL    HW110730   3.348   1.472   0.734
 3277SOL    HW210731   3.366   1.432   0.891
 3278SOL     OW10732   1.232   0.710   5.958
 3278SOL    HW110733   1.315   0.673   6.001
 3278SOL    HW210734   1.152   0.662   5.992
 3279SOL     OW10735   5.417   0.018   0.810
 3279SOL    HW110736   5.466   0.052   0.730
 3279SOL    HW210737   5.394   6.943   0.796
 3280SOL     OW10738   4.775   4.568   4.529
 3280SOL    HW110739   4.777   4.567   4.429
 3280SOL    HW210740   4.824   4.649   4.563
 3281SOL     OW10741   0.881   4.840   1.419
 3281SOL    HW110742   0.825   4.768   1.380
 3281SOL    HW210743   0.972   4.838   1.378
 3282SOL     OW10744   6.636   4.559   4.965
 3282SOL    HW110745   6.635   4.561   5.065
 3282SOL    HW210746   6.726   4.529   4.933
 3283SOL     OW10747   3.727   0.778   1.702
 3283SOL    HW110748   3.800   0.832   1.745
 3283SOL    HW210749   3.656   0.839   1.668
 3284SOL     OW10750   1.004   6.009   5.114
 3284SOL    HW110751   0.935   5.940   5.134
 3284SOL    HW210752   1.095   5.971   5.131
 3285SOL     OW10753   5.214   2.175   4.755
 3285SOL    HW110754   5.248   2.143   4.667
 3285SOL    HW210755   5.269   2.252   4.787
 3286SOL     OW10756   3.321   2.593   1.438
 3286SOL    HW110757   3.279   2.683   1.452
 3286SOL    HW210758   3.362   2.562   1.524
 3287SOL     OW10759   0.569   0.481   0.108
 3287SOL    HW110760   0.558   0.400   0.051
 3287SOL    HW210761   0.500   0.480   0.181
 3288SOL     OW10762   1.905   6.856   0.095
 3288SOL    HW110763   1.951   6.875   0.182
 3288SOL    HW210764   1.838   6.927   0.077
 3289SOL     OW10765   2.649   1.723   6.035
 3289SOL    HW110766   2.745   1.749   6.038
 3289SOL    HW210767   2.598   1.787   5.977
 3290SOL     OW10768   6.909   5.244   1.018
 3290SOL    HW110769   6.814   5.252   0.986
 3290SOL    HW210770   6.918   5.161   1.074
 3291SOL     OW10771   2.720   1.047   5.752
 3291SOL    HW110772   2.746   1.125   5.809
 3291SOL    HW210773   2.650   1.074   5.687
 3292SOL     OW10774   0.114   1.204   0.720
 3292SOL    HW110775   0.199   1.175   0.677
 3292SOL    HW210776   0.133   1.242   0.810
 3293SOL     OW10777   6.375   4.761   1.247
 3293SOL    HW110778   6.392   4.665   1.225
 3293SOL    HW210779   6.279   4.773   1.274
 3294SOL     OW10780   5.032   2.217   6.056
 3294SOL    HW110781   5.019   2.186   6.150
 3294SOL    HW210782   4.953   2.189   6.000
 3295SOL     OW10783   0.877   3.507   1.891
 3295SOL    HW110784   0.920   3.417   1.903
 3295SOL    HW210785   0.925   3.557   1.819
 3296SOL     OW10786   0.572   0.597   3.603
 3296SOL    HW110787   0.538   0.510   3.567
 3296SOL    HW210788   0.498   0.665   3.601
 3297SOL     OW10789   2.784   1.258   5.386
 3297SOL    HW110790   2.753   1.341   5.340
 3297SOL    HW210791   2.780   1.181   5.322
 3298SOL     OW10792   6.873   2.126   5.403
 3298SOL    HW110793   6.891   2.213   5.450
 3298SOL    HW210794   6.895   2.136   5.306
 3299SOL     OW10795   3.891   5.927   3.046
 3299SOL    HW110796   3.934   5.855   2.992
 3299SOL    HW210797   3.817   5.969   2.993
 3300SOL     OW10798   1.907   0.802   6.124
 3300SOL    HW110799   1.904   0.887   6.071
 3300SOL    HW210800   1.977   0.809   6.195
 3301SOL     OW10801   2.055   3.361   3.722
 3301SOL    HW110802   2.104   3.285   3.679
 3301SOL    HW210803   2.078   3.364   3.819
 3302SOL     OW10804   0.996   5.123   5.429
 3302SOL    HW110805   1.073   5.103   5.490
 3302SOL    HW210806   1.025   5.187   5.358
 3303SOL     OW10807   3.183   3.602   6.959
 3303SOL    HW110808   3.211   3.662   0.012
 3303SOL    HW210809   3.192   3.650   6.872
 3304SOL     OW10810   1.693   5.358   6.042
 3304SOL    HW110811   1.595   5.347   6.025
 3304SOL    HW210812   1.740   5.272   6.023
 3305SOL     OW10813   2.879   1.070   1.697
 3305SOL    HW110814   2.838   1.126   1.770
 3305SOL    HW210815   2.929   1.129   1.634
 3306SOL     OW10816   1.319   4.998   4.846
 3306SOL    HW110817   1.285   5.035   4.759
 3306SOL    HW210818   1.282   4.907   4.860
 3307SOL     OW10819   1.127   0.013   5.047
 3307SOL    HW110820   1.110   6.947   5.093
 3307SOL    HW210821   1.218   0.046   5.071
 3308SOL     OW10822   3.094   5.470   1.017
 3308SOL    HW110823   3.042   5.392   1.050
 3308SOL    HW210824   3.186   5.468   1.057
 3309SOL     OW10825   6.403   4.493   4.423
 3309SOL    HW110826   6.471   4.523   4.490
 3309SOL    HW210827   6.416   4.543   4.337
 3310SOL     OW10828   0.072   4.490   4.991
 3310SOL    HW110829   0.072   4.590   4.995
 3310SOL    HW210830   0.133   4.459   4.918
 3311SOL     OW10831   2.922   4.211   0.394
 3311SOL    HW110832   3.008   4.202   0.445
 3311SOL    HW210833   2.888   4.304   0.403
 3312SOL     OW10834   4.131   3.034   5.863
 3312SOL    HW110835   4.170   3.009   5.951
 3312SOL    HW210836   4.157   3.128   5.841
 3313SOL     OW10837   1.199   6.734   3.341
 3313SOL    HW110838   1.231   6.751   3.247
 3313SOL    HW210839   1.215   6.816   3.396
 3314SOL     OW10840   2.687   0.628   1.770
 3314SOL    HW110841   2.755   0.697   1.744
 3314SOL    HW210842   2.724   0.537   1.753
 3315SOL     OW10843   0.452   4.209   5.192
 3315SOL    HW110844   0.378   4.181   5.254
 3315SOL    HW210845   0.419   4.208   5.098
 3316SOL     OW10846   4.323   0.701   5.019
 3316SOL    HW110847   4.289   0.765   5.087
 3316SOL    HW210848   4.310   0.739   4.927
 3317SOL     OW10849   5.027   2.236   2.328
 3317SOL    HW110850   5.080   2.156   2.355
 3317SOL    HW210851   4.993   2.284   2.409
 3318SOL     OW10852   1.613   1.424   0.251
 3318SOL    HW110853   1.579   1.461   0.338
 3318SOL    HW210854   1.554   1.348   0.222
 3319SOL     OW10855   5.530   0.687   3.695
 3319SOL    HW110856   5.478   0.771   3.713
 3319SOL    HW210857   5.522   0.663   3.598
 3320SOL     OW10858   6.162   0.838   0.057
 3320SOL    HW110859   6.073   0.795   0.074
 3320SOL    HW210860   6.166   0.925   0.106
 3321SOL     OW10861   5.799   1.642   0.819
 3321SOL    HW110862   5.806   1.701   0.899
 3321SOL    HW210863   5.780   1.549   0.848
 3322SOL     OW10864   0.448   2.564   1.156
 3322SOL    HW110865   0.491   2.563   1.247
 3322SOL    HW210866   0.505   2.618   1.093
 3323SOL     OW10867   2.344   2.445   0.977
 3323SOL    HW110868   2.371   2.512   0.908
 3323SOL    HW210869   2.374   2.354   0.949
 3324SOL     OW10870   4.392   5.238   6.106
 3324SOL    HW110871   4.412   5.275   6.016
 3324SOL    HW210872   4.384   5.138   6.100
 3325SOL     OW10873   0.190   3.675   6.948
 3325SOL    HW110874   0.145   3.756   6.987
 3325SOL    HW210875   0.255   3.704   6.877
 3326SOL     OW10876   4.334   1.408   1.617
 3326SOL    HW110877   4.276   1.477   1.574
 3326SOL    HW210878   4.284   1.321   1.623
 3327SOL     OW10879   2.678   5.805   1.218
 3327SOL    HW110880   2.581   5.787   1.201
 3327SOL    HW210881   2.712   5.872   1.152
 3328SOL     OW10882   3.887   1.648   0.719
 3328SOL    HW110883   3.905   1.613   0.627
 3328SOL    HW210884   3.818   1.719   0.715
 3329SOL     OW10885   5.465   0.259   5.691
 3329SOL    HW110886   5.384   0.304   5.655
 3329SOL    HW210887   5.490   0.181   5.633
 3330SOL     OW10888   6.121   3.329   1.762
 3330SOL    HW110889   6.075   3.241   1.749
 3330SOL    HW210890   6.130   3.375   1.674
 3331SOL     OW10891   2.554   3.169   1.438
 3331SOL    HW110892   2.494   3.243   1.467
 3331SOL    HW210893   2.527   3.136   1.348
 3332SOL     OW10894   5.786   5.244   0.308
 3332SOL    HW110895   5.822   5.275   0.396
 3332SOL    HW210896   5.860   5.205   0.253
 3333SOL     OW10897   3.837   5.894   6.125
 3333SOL    HW110898   3.840   5.801   6.089
 3333SOL    HW210899   3.832   5.959   6.048
 3334SOL     OW10900   3.678   3.692   1.266
 3334SOL    HW110901   3.661   3.779   1.219
 3334SOL    HW210902   3.611   3.680   1.339
 3335SOL     OW10903   4.645   5.035   5.339
 3335SOL    HW110904   4.553   5.002   5.361
 3335SOL    HW210905   4.704   5.023   5.419
 3336SOL     OW10906   3.134   4.963   5.049
 3336SOL    HW110907   3.107   5.058   5.060
 3336SOL    HW210908   3.157   4.946   4.953
 3337SOL     OW10909   3.187   2.988   1.843
 3337SOL    HW110910   3.238   3.007   1.759
 3337SOL    HW210911   3.147   2.897   1.838
 3338SOL     OW10912   6.042   3.874   0.803
 3338SOL    HW110913   6.002   3.959   0.837
 3338SOL    HW210914   6.111   3.894   0.734
 3339SOL     OW10915   7.009   0.096   6.721
 3339SOL    HW110916   0.054   0.121   6.650
 3339SOL    HW210917   6.928   0.153   6.711
 3340SOL     OW10918   3.651   0.145   1.417
 3340SOL    HW110919   3.727   0.183   1.470
 3340SOL    HW210920   3.577   0.118   1.479
 3341SOL     OW10921   1.796   6.021   3.589
 3341SOL    HW110922   1.884   6.067   3.601
 3341SOL    HW210923   1.789   5.945   3.653
 3342SOL     OW10924   2.095   6.694   4.098
 3342SOL    HW110925   2.180   6.642   4.106
 3342SOL    HW210926   2.017   6.633   4.111
 3343SOL     OW10927   5.286   2.633   0.085
 3343SOL    HW110928   5.287   2.541   0.124
 3343SOL    HW210929   5.337   2.695   0.145
 3344SOL     OW10930   5.803   3.700   4.756
 3344SOL    HW110931   5.736   3.671   4.824
 3344SOL    HW210932   5.822   3.798   4.768
 3345SOL     OW10933   2.111   3.781   5.902
 3345SOL    HW110934   2.077   3.688   5.904
 3345SOL    HW210935   2.210   3.781   5.919
 3346SOL     OW10936   1.563   1.096   1.644
 3346SOL    HW110937   1.659   1.085   1.672
 3346SOL    HW210938   1.514   1.147   1.715
 3347SOL     OW10939   0.763   4.980   4.000
 3347SOL    HW110940   0.770   4.976   3.901
 3347SOL    HW210941   0.680   4.933   4.030
 3348SOL     OW10942   2.999   3.146   3.273
 3348SOL    HW110943   3.079   3.097   3.238
 3348SOL    HW210944   3.010   3.165   3.371
 3349SOL     OW10945   0.430   4.558   4.576
 3349SOL    HW110946   0.491   4.487   4.541
 3349SOL    HW210947   0.385   4.524   4.659
 3350SOL     OW10948   1.332   2.121   6.594
 3350SOL    HW110949   1.400   2.183   6.634
 3350SOL    HW210950   1.242   2.165   6.596
 3351SOL     OW10951   5.315   0.436   2.474
 3351SOL    HW110952   5.323   0.471   2.567
 3351SOL    HW210953   5.406   0.421   2.435
 3352SOL     OW10954   6.990   3.487   0.531
 3352SOL    HW110955   6.972   3.545   0.451
 3352SOL    HW210956   6.987   3.391   0.505
 3353SOL     OW10957   0.851   6.315   1.777
 3353SOL    HW110958   0.800   6.319   1.863
 3353SOL    HW210959   0.938   6.365   1.788
 3354SOL     OW10960   6.046   2.557   3.986
 3354SOL    HW110961   6.040   2.593   3.893
 3354SOL    HW210962   5.969   2.497   4.004
 3355SOL     OW10963   1.471   1.140   0.184
 3355SOL    HW110964   1.404   1.190   0.129
 3355SOL    HW210965   1.428   1.061   0.227
 3356SOL     OW10966   2.007   3.233   0.210
 3356SOL    HW110967   2.003   3.207   0.306
 3356SOL    HW210968   2.069   3.310   0.199
 3357SOL     OW10969   2.422   5.067   1.890
 3357SOL    HW110970   2.402   4.974   1.860
 3357SOL    HW210971   2.450   5.122   1.812
 3358SOL     OW10972   4.693   0.190   1.770
 3358SOL    HW110973   4.594   0.198   1.779
 3358SOL    HW210974   4.716   0.180   1.673
 3359SOL     OW10975   6.650   0.246   3.911
 3359SOL    HW110976   6.703   0.237   3.996
 3359SOL    HW210977   6.636   0.343   3.890
 3360SOL     OW10978   6.869   1.067   1.112
 3360SOL    HW110979   6.880   1.155   1.157
 3360SOL    HW210980   6.821   1.003   1.173
 3361SOL     OW10981   0.502   4.731   2.280
 3361SOL    HW110982   0.592   4.697   2.307
 3361SOL    HW210983   0.500   4.750   2.182
 3362SOL     OW10984   3.758   1.118   4.512
 3362SOL    HW110985   3.716   1.028   4.499
 3362SOL    HW210986   3.709   1.167   4.586
 3363SOL     OW10987   0.896   0.692   6.334
 3363SOL    HW110988   0.986   0.648   6.344
 3363SOL    HW210989   0.899   0.756   6.257
 3364SOL     OW10990   1.272   4.639   4.211
 3364SOL    HW110991   1.279   4.582   4.293
 3364SOL    HW210992   1.179   4.635   4.175
 3365SOL     OW10993   0.802   2.470   4.754
 3365SOL    HW110994   0.779   2.555   4.707
 3365SOL    HW210995   0.738   2.456   4.830
 3366SOL     OW10996   6.616   0.663   5.051
 3366SOL    HW110997   6.657   0.691   5.138
 3366SOL    HW210998   6.671   0.697   4.975
 3367SOL     OW10999   2.218   2.518   1.986
 3367SOL    HW111000   2.234   2.502   1.889
 3367SOL    HW211001   2.279   2.590   2.018
 3368SOL     OW11002   0.747   6.022   6.715
 3368SOL    HW111003   0.843   6.045   6.696
 3368SOL    HW211004   0.688   6.073   6.652
 3369SOL     OW11005   3.487   2.058   5.822
 3369SOL    HW111006   3.587   2.058   5.824
 3369SOL    HW211007   3.455   2.096   5.735
 3370SOL     OW11008   6.629   6.190   5.423
 3370SOL    HW111009   6.572   6.218   5.346
 3370SOL    HW211010   6.724   6.181   5.393
 3371SOL     OW11011   0.528   4.543   2.509
 3371SOL    HW111012   0.490   4.617   2.453
 3371SOL    HW211013   0.581   4.481   2.451
 3372SOL     OW11014   1.293   0.824   2.563
 3372SOL    HW111015   1.305   0.810   2.464
 3372SOL    HW211016   1.333   0.746   2.612
 3373SOL     OW11017   6.329   1.116   3.682
 3373SOL    HW111018   6.294   1.208   3.696
 3373SOL    HW211019   6.292   1.055   3.752
 3374SOL     OW11020   2.560   5.664   4.479
 3374SOL    HW111021   2.556   5.745   4.420
 3374SOL    HW211022   2.592   5.585   4.425
 3375SOL     OW11023   4.498   5.005   4.667
 3375SOL    HW111024   4.412   5.000   4.615
 3375SOL    HW211025   4.574   5.025   4.605
 3376SOL     OW11026   4.098   3.370   3.184
 3376SOL    HW111027   4.046   3.285   3.177
 3376SOL    HW211028   4.128   3.384   3.278
 3377SOL     OW11029   0.156   6.056   4.660
 3377SOL    HW111030   0.186   6.147   4.632
 3377SOL    HW211031   0.229   5.990   4.642
 3378SOL     OW11032   6.464   0.582   1.229
 3378SOL    HW111033   6.410   0.499   1.216
 3378SOL    HW211034   6.490   0.590   1.325
 3379SOL     OW11035   6.890   5.102   6.529
 3379SOL    HW111036   6.911   5.190   6.486
 3379SOL    HW211037   6.793   5.082   6.520
 3380SOL     OW11038   5.851   6.060   5.930
 3380SOL    HW111039   5.882   6.010   5.849
 3380SOL    HW211040   5.894   6.022   6.011
 3381SOL     OW11041   2.256   2.142   0.510
 3381SOL    HW111042   2.317   2.220   0.499
 3381SOL    HW211043   2.292   2.065   0.457
 3382SOL     OW11044   0.976   1.355   0.511
 3382SOL    HW111045   0.956   1.403   0.596
 3382SOL    HW211046   0.988   1.257   0.530
 3383SOL     OW11047   5.161   5.221   2.981
 3383SOL    HW111048   5.219   5.273   3.044
 3383SOL    HW211049   5.089   5.175   3.033
 3384SOL     OW11050   3.073   3.176   4.861
 3384SOL    HW111051   3.081   3.116   4.941
 3384SOL    HW211052   3.125   3.138   4.785
 3385SOL     OW11053   0.139   3.580   4.142
 3385SOL    HW111054   0.120   3.518   4.218
 3385SOL    HW211055   0.132   3.675   4.173
 3386SOL     OW11056   6.145   2.871   5.254
 3386SOL    HW111057   6.194   2.957   5.270
 3386SOL    HW211058   6.143   2.818   5.338
 3387SOL     OW11059   2.469   0.615   2.699
 3387SOL    HW111060   2.564   0.642   2.682
 3387SOL    HW211061   2.415   0.697   2.718
 3388SOL     OW11062   6.303   3.162   1.439
 3388SOL    HW111063   6.340   3.088   1.383
 3388SOL    HW211064   6.299   3.246   1.385
 3389SOL     OW11065   4.519   5.070   4.925
 3389SOL    HW111066   4.603   5.121   4.944
 3389SOL    HW211067   4.522   5.033   4.832
 3390SOL     OW11068   5.298   4.536   5.687
 3390SOL    HW111069   5.305   4.568   5.781
 3390SOL    HW211070   5.365   4.583   5.630
 3391SOL     OW11071   6.007   2.337   4.603
 3391SOL    HW111072   5.928   2.292   4.563
 3391SOL    HW211073   6.089   2.312   4.552
 3392SOL     OW11074   2.756   1.027   3.464
 3392SOL    HW111075   2.701   0.953   3.503
 3392SOL    HW211076   2.697   1.105   3.443
 3393SOL     OW11077   0.018   6.281   0.569
 3393SOL    HW111078   0.089   6.212   0.563
 3393SOL    HW211079   0.016   6.335   0.485
 3394SOL     OW11080   6.054   3.627   0.928
 3394SOL    HW111081   6.057   3.722   0.898
 3394SOL    HW211082   6.044   3.624   1.027
 3395SOL     OW11083   6.651   3.640   3.798
 3395SOL    HW111084   6.661   3.720   3.858
 3395SOL    HW211085   6.556   3.608   3.800
 3396SOL     OW11086   6.957   1.982   3.377
 3396SOL    HW111087   6.926   2.075   3.399
 3396SOL    HW211088   6.969   1.930   3.461
 3397SOL     OW11089   3.023   1.226   5.523
 3397SOL    HW111090   3.072   1.304   5.561
 3397SOL    HW211091   2.944   1.258   5.471
 3398SOL     OW11092   0.821   6.861   4.120
 3398SOL    HW111093   0.767   6.798   4.065
 3398SOL    HW211094   0.877   6.919   4.061
 3399SOL     OW11095   4.743   4.379   4.296
 3399SOL    HW111096   4.746   4.320   4.377
 3399SOL    HW211097   4.809   4.345   4.229
 3400SOL     OW11098   4.042   1.222   5.011
 3400SOL    HW111099   4.099   1.195   5.088
 3400SOL    HW211100   3.968   1.282   5.043
 3401SOL     OW11101   0.011   3.301   1.096
 3401SOL    HW111102   0.023   3.315   1.195
 3401SOL    HW211103   0.018   3.203   1.076
 3402SOL     OW11104   4.097   6.284   0.680
 3402SOL    HW111105   4.179   6.340   0.666
 3402SOL    HW211106   4.106   6.234   0.766
 3403SOL     OW11107   3.448   0.505   4.652
 3403SOL    HW111108   3.358   0.491   4.610
 3403SOL    HW211109   3.457   0.446   4.732
 3404SOL     OW11110   4.667   1.316   0.081
 3404SOL    HW111111   4.747   1.313   0.021
 3404SOL    HW211112   4.695   1.342   0.173
 3405SOL     OW11113   6.290   3.659   4.165
 3405SOL    HW111114   6.205   3.677   4.214
 3405SOL    HW211115   6.289   3.566   4.130
 3406SOL     OW11116   1.226   4.169   1.687
 3406SOL    HW111117   1.295   4.115   1.736
 3406SOL    HW211118   1.158   4.202   1.752
 3407SOL     OW11119   1.627   5.277   0.073
 3407SOL    HW111120   1.685   5.338   0.019
 3407SOL    HW211121   1.646   5.182   0.048
 3408SOL     OW11122   5.331   4.454   4.808
 3408SOL    HW111123   5.282   4.373   4.776
 3408SOL    HW211124   5.275   4.503   4.874
 3409SOL     OW11125   3.349   6.401   5.823
 3409SOL    HW111126   3.281   6.341   5.867
 3409SOL    HW211127   3.306   6.489   5.801
 3410SOL     OW11128   5.931   5.842   0.350
 3410SOL    HW111129   5.911   5.810   0.258
 3410SOL    HW211130   5.905   5.773   0.417
 3411SOL     OW11131   0.188   2.723   1.802
 3411SOL    HW111132   0.201   2.818   1.774
 3411SOL    HW211133   0.235   2.707   1.889
 3412SOL     OW11134   4.541   2.619   6.996
 3412SOL    HW111135   4.564   2.682   6.921
 3412SOL    HW211136   4.561   2.525   6.968
 3413SOL     OW11137   5.011   1.098   2.984
 3413SOL    HW111138   4.983   1.190   3.011
 3413SOL    HW211139   4.981   1.081   2.890
 3414SOL     OW11140   2.078   1.731   5.524
 3414SOL    HW111141   2.042   1.639   5.533
 3414SOL    HW211142   2.130   1.755   5.606
 3415SOL     OW11143   2.313   4.293   4.283
 3415SOL    HW111144   2.260   4.267   4.202
 3415SOL    HW211145   2.288   4.234   4.360
 3416SOL     OW11146   6.793   5.587   0.291
 3416SOL    HW111147   6.748   5.509   0.335
 3416SOL    HW211148   6.840   5.642   0.360
 3417SOL     OW11149   6.589   5.855   3.599
 3417SOL    HW111150   6.543   5.768   3.583
 3417SOL    HW211151   6.629   5.855   3.691
 3418SOL     OW11152   3.975   6.976   4.777
 3418SOL    HW111153   4.069   6.998   4.802
 3418SOL    HW211154   3.919   0.037   4.781
 3419SOL     OW11155   3.447   5.322   5.271
 3419SOL    HW111156   3.375   5.379   5.231
 3419SOL    HW211157   3.410   5.233   5.296
 3420SOL     OW11158   5.242   2.765   3.129
 3420SOL    HW111159   5.318   2.784   3.067
 3420SOL    HW211160   5.187   2.691   3.092
 3421SOL     OW11161   6.208   0.554   6.121
 3421SOL    HW111162   6.237   0.625   6.185
 3421SOL    HW211163   6.197   0.468   6.171
 3422SOL     OW11164   2.235   6.527   1.067
 3422SOL    HW111165   2.229   6.467   0.987
 3422SOL    HW211166   2.238   6.622   1.036
 3423SOL     OW11167   2.034   0.112   0.674
 3423SOL    HW111168   2.023   0.206   0.641
 3423SOL    HW211169   1.947   0.063   0.668
 3424SOL     OW11170   2.776   6.642   2.586
 3424SOL    HW111171   2.739   6.600   2.504
 3424SOL    HW211172   2.862   6.597   2.610
 3425SOL     OW11173   5.085   3.877   1.742
 3425SOL    HW111174   5.069   3.831   1.655
 3425SOL    HW211175   5.034   3.830   1.814
 3426SOL     OW11176   2.779   2.878   6.872
 3426SOL    HW111177   2.790   2.811   6.798
 3426SOL    HW211178   2.681   2.895   6.887
 3427SOL     OW11179   6.888   0.109   6.411
 3427SOL    HW111180   6.980   0.088   6.445
 3427SOL    HW211181   6.872   0.207   6.414
 3428SOL     OW11182   3.526   4.987   1.357
 3428SOL    HW111183   3.625   4.970   1.356
 3428SOL    HW211184   3.508   5.074   1.403
 3429SOL     OW11185   0.872   1.464   6.718
 3429SOL    HW111186   0.957   1.484   6.670
 3429SOL    HW211187   0.842   1.371   6.697
 3430SOL     OW11188   0.178   6.816   5.181
 3430SOL    HW111189   0.176   6.860   5.091
 3430SOL    HW211190   0.254   6.751   5.183
 3431SOL     OW11191   2.116   0.247   1.094
 3431SOL    HW111192   2.208   0.212   1.112
 3431SOL    HW211193   2.114   0.346   1.107
 3432SOL     OW11194   2.523   2.838   6.315
 3432SOL    HW111195   2.623   2.847   6.321
 3432SOL    HW211196   2.493   2.764   6.376
 3433SOL     OW11197   1.559   7.000   6.242
 3433SOL    HW111198   1.562   6.968   6.337
 3433SOL    HW211199   1.472   0.026   6.227
 3434SOL     OW11200   3.671   2.566   0.991
 3434SOL    HW111201   3.661   2.659   0.958
 3434SOL    HW211202   3.624   2.556   1.079
 3435SOL     OW11203   1.020   2.074   1.472
 3435SOL    HW111204   1.012   2.040   1.566
 3435SOL    HW211205   0.995   2.001   1.408
 3436SOL     OW11206   3.812   6.515   5.587
 3436SOL    HW111207   3.870   6.567   5.525
 3436SOL    HW211208   3.812   6.558   5.677
 3437SOL     OW11209   3.818   0.341   6.434
 3437SOL    HW111210   3.886   0.389   6.490
 3437SOL    HW211211   3.854   0.252   6.407
 3438SOL     OW11212   1.246   2.526   0.041
 3438SOL    HW111213   1.320   2.593   0.042
 3438SOL    HW211214   1.228   2.497   6.969
 3439SOL     OW11215   2.208   6.937   5.849
 3439SOL    HW111216   2.269   6.903   5.921
 3439SOL    HW211217   2.263   6.963   5.769
 3440SOL     OW11218   4.357   3.237   1.563
 3440SOL    HW111219   4.336   3.242   1.465
 3440SOL    HW211220   4.278   3.203   1.613
 3441SOL     OW11221   5.025   0.497   3.949
 3441SOL    HW111222   4.932   0.476   3.918
 3441SOL    HW211223   5.043   0.451   4.036
 3442SOL     OW11224   3.188   4.945   2.516
 3442SOL    HW111225   3.098   4.928   2.477
 3442SOL    HW211226   3.192   4.912   2.610
 3443SOL     OW11227   5.523   0.928   2.329
 3443SOL    HW111228   5.498   0.837   2.364
 3443SOL    HW211229   5.443   0.987   2.328
 3444SOL     OW11230   4.978   4.917   6.853
 3444SOL    HW111231   5.008   5.007   6.885
 3444SOL    HW211232   4.973   4.917   6.753
 3445SOL     OW11233   5.584   5.226   4.372
 3445SOL    HW111234   5.676   5.261   4.387
 3445SOL    HW211235   5.575   5.134   4.410
 3446SOL     OW11236   6.121   1.072   3.291
 3446SOL    HW111237   6.035   1.030   3.322
 3446SOL    HW211238   6.129   1.164   3.330
 3447SOL     OW11239   5.583   4.352   0.827
 3447SOL    HW111240   5.648   4.276   0.822
 3447SOL    HW211241   5.631   4.435   0.853
 3448SOL     OW11242   2.924   0.270   1.030
 3448SOL    HW111243   2.986   0.349   1.030
 3448SOL    HW211244   2.859   0.280   0.954
 3449SOL     OW11245   5.966   6.536   3.943
 3449SOL    HW111246   5.941   6.487   4.027
 3449SOL    HW211247   5.990   6.630   3.964
 3450SOL     OW11248   0.667   2.460   0.177
 3450SOL    HW111249   0.764   2.436   0.177
 3450SOL    HW211250   0.627   2.442   0.087
 3451SOL     OW11251   1.201   5.363   3.092
 3451SOL    HW111252   1.212   5.263   3.088
 3451SOL    HW211253   1.261   5.400   3.163
 3452SOL     OW11254   5.554   1.901   6.976
 3452SOL    HW111255   5.507   1.856   6.900
 3452SOL    HW211256   5.540   1.849   0.038
 3453SOL     OW11257   6.823   5.916   6.111
 3453SOL    HW111258   6.817   5.879   6.204
 3453SOL    HW211259   6.888   5.991   6.109
 3454SOL     OW11260   1.791   1.086   6.304
 3454SOL    HW111261   1.793   1.003   6.360
 3454SOL    HW211262   1.699   1.099   6.266
 3455SOL     OW11263   1.974   2.856   4.563
 3455SOL    HW111264   2.056   2.812   4.527
 3455SOL    HW211265   2.000   2.939   4.614
 3456SOL     OW11266   5.598   6.493   2.562
 3456SOL    HW111267   5.608   6.583   2.605
 3456SOL    HW211268   5.671   6.481   2.495
 3457SOL     OW11269   2.371   5.501   4.121
 3457SOL    HW111270   2.449   5.461   4.073
 3457SOL    HW211271   2.360   5.596   4.092
 3458SOL     OW11272   5.298   6.964   0.513
 3458SOL    HW111273   5.321   6.906   0.591
 3458SOL    HW211274   5.379   6.976   0.456
 3459SOL     OW11275   5.982   3.987   3.020
 3459SOL    HW111276   5.897   4.036   3.036
 3459SOL    HW211277   6.014   3.948   3.107
 3460SOL     OW11278   2.876   3.780   0.194
 3460SOL    HW111279   2.779   3.806   0.195
 3460SOL    HW211280   2.887   3.700   0.135
 3461SOL     OW11281   4.508   5.869   4.509
 3461SOL    HW111282   4.464   5.884   4.421
 3461SOL    HW211283   4.518   5.771   4.525
 3462SOL     OW11284   6.956   3.685   2.409
 3462SOL    HW111285   0.030   3.701   2.434
 3462SOL    HW211286   6.896   3.738   2.467
 3463SOL     OW11287   0.839   3.361   3.107
 3463SOL    HW111288   0.836   3.365   3.007
 3463SOL    HW211289   0.933   3.349   3.137
 3464SOL     OW11290   6.591   2.266   6.870
 3464SOL    HW111291   6.596   2.302   6.777
 3464SOL    HW211292   6.655   2.317   6.929
 3465SOL     OW11293   0.654   3.079   1.923
 3465SOL    HW111294   0.571   3.103   1.871
 3465SOL    HW211295   0.636   2.997   1.977
 3466SOL     OW11296   6.810   4.421   6.421
 3466SOL    HW111297   6.798   4.334   6.467
 3466SOL    HW211298   6.867   4.481   6.478
 3467SOL     OW11299   2.224   1.853   0.709
 3467SOL    HW111300   2.243   1.816   0.800
 3467SOL    HW211301   2.249   1.949   0.706
 3468SOL     OW11302   5.161   1.160   3.302
 3468SOL    HW111303   5.068   1.179   3.271
 3468SOL    HW211304   5.225   1.218   3.252
 3469SOL     OW11305   4.351   0.420   4.309
 3469SOL    HW111306   4.387   0.395   4.399
 3469SOL    HW211307   4.321   0.337   4.261
 3470SOL     OW11308   0.540   2.091   1.884
 3470SOL    HW111309   0.495   2.160   1.941
 3470SOL    HW211310   0.558   2.130   1.794
 3471SOL     OW11311   4.530   4.410   3.643
 3471SOL    HW111312   4.442   4.457   3.631
 3471SOL    HW211313   4.547   4.394   3.740
 3472SOL     OW11314   2.613   0.976   1.641
 3472SOL    HW111315   2.703   0.962   1.681
 3472SOL    HW211316   2.598   0.909   1.568
 3473SOL     OW11317   6.587   3.090   2.782
 3473SOL    HW111318   6.550   3.157   2.719
 3473SOL    HW211319   6.612   3.135   2.868
 3474SOL     OW11320   0.240   4.538   2.548
 3474SOL    HW111321   0.296   4.465   2.508
 3474SOL    HW211322   0.235   4.614   2.484
 3475SOL     OW11323   0.995   4.568   4.335
 3475SOL    HW111324   1.029   4.541   4.424
 3475SOL    HW211325   0.903   4.532   4.322
 3476SOL     OW11326   2.423   2.034   2.668
 3476SOL    HW111327   2.442   2.034   2.766
 3476SOL    HW211328   2.469   1.957   2.625
 3477SOL     OW11329   1.712   4.873   0.863
 3477SOL    HW111330   1.695   4.916   0.952
 3477SOL    HW211331   1.703   4.773   0.873
 3478SOL     OW11332   2.061   5.714   6.362
 3478SOL    HW111333   2.151   5.753   6.342
 3478SOL    HW211334   2.031   5.658   6.284
 3479SOL     OW11335   0.719   0.742   3.294
 3479SOL    HW111336   0.710   0.650   3.333
 3479SOL    HW211337   0.629   0.779   3.274
 3480SOL     OW11338   6.910   5.895   4.981
 3480SOL    HW111339   6.933   5.984   4.943
 3480SOL    HW211340   6.907   5.901   5.081
 3481SOL     OW11341   5.120   0.761   0.402
 3481SOL    HW111342   5.168   0.724   0.481
 3481SOL    HW211343   5.023   0.773   0.425
 3482SOL     OW11344   6.692   0.947   2.031
 3482SOL    HW111345   6.663   0.957   2.127
 3482SOL    HW211346   6.776   0.893   2.028
 3483SOL     OW11347   5.178   2.007   1.961
 3483SOL    HW111348   5.261   1.993   2.014
 3483SOL    HW211349   5.197   1.990   1.864
 3484SOL     OW11350   0.988   2.716   0.661
 3484SOL    HW111351   0.899   2.671   0.666
 3484SOL    HW211352   1.052   2.659   0.609
 3485SOL     OW11353   2.062   1.464   4.468
 3485SOL    HW111354   2.028   1.554   4.493
 3485SOL    HW211355   2.160   1.460   4.483
 3486SOL     OW11356   2.552   0.430   3.147
 3486SOL    HW111357   2.603   0.400   3.067
 3486SOL    HW211358   2.466   0.379   3.153
 3487SOL     OW11359   0.286   1.948   0.804
 3487SOL    HW111360   0.195   1.949   0.845
 3487SOL    HW211361   0.291   1.876   0.735
 3488SOL     OW11362   5.989   1.015   5.344
 3488SOL    HW111363   5.923   1.020   5.420
 3488SOL    HW211364   5.939   1.009   5.258
 3489SOL     OW11365   3.810   0.179   2.155
 3489SOL    HW111366   3.769   0.178   2.246
 3489SOL    HW211367   3.750   0.226   2.091
 3490SOL     OW11368   4.024   4.322   1.175
 3490SOL    HW111369   4.111   4.363   1.203
 3490SOL    HW211370   3.970   4.299   1.256
 3491SOL     OW11371   4.572   2.062   5.982
 3491SOL    HW111372   4.584   2.051   5.883
 3491SOL    HW211373   4.624   2.142   6.012
 3492SOL     OW11374   6.712   4.161   0.917
 3492SOL    HW111375   6.708   4.082   0.856
 3492SOL    HW211376   6.620   4.182   0.950
 3493SOL     OW11377   4.819   3.888   4.104
 3493SOL    HW111378   4.795   3.959   4.037
 3493SOL    HW211379   4.841   3.931   4.191
 3494SOL     OW11380   2.481   1.182   1.461
 3494SOL    HW111381   2.545   1.140   1.525
 3494SOL    HW211382   2.477   1.281   1.477
 3495SOL     OW11383   6.046   4.667   1.805
 3495SOL    HW111384   6.001   4.589   1.762
 3495SOL    HW211385   6.132   4.685   1.757
 3496SOL     OW11386   6.145   4.961   1.065
 3496SOL    HW111387   6.204   4.911   1.002
 3496SOL    HW211388   6.175   4.944   1.159
 3497SOL     OW11389   2.858   1.815   3.527
 3497SOL    HW111390   2.956   1.817   3.545
 3497SOL    HW211391   2.811   1.767   3.600
 3498SOL     OW11392   3.297   1.587   1.396
 3498SOL    HW111393   3.247   1.667   1.362
 3498SOL    HW211394   3.231   1.518   1.425
 3499SOL     OW11395   5.695   4.087   4.048
 3499SOL    HW111396   5.767   4.154   4.032
 3499SOL    HW211397   5.736   3.997   4.063
 3500SOL     OW11398   1.807   3.335   3.591
 3500SOL    HW111399   1.804   3.372   3.498
 3500SOL    HW211400   1.901   3.342   3.626
 3501SOL     OW11401   3.012   5.941   5.806
 3501SOL    HW111402   2.994   5.929   5.903
 3501SOL    HW211403   3.110   5.955   5.791
 3502SOL     OW11404   6.723   2.012   1.166
 3502SOL    HW111405   6.664   1.981   1.241
 3502SOL    HW211406   6.683   1.985   1.078
 3503SOL     OW11407   6.172   5.756   5.033
 3503SOL    HW111408   6.246   5.720   5.090
 3503SOL    HW211409   6.087   5.759   5.086
 3504SOL     OW11410   2.357   0.257   1.763
 3504SOL    HW111411   2.303   0.312   1.826
 3504SOL    HW211412   2.414   0.193   1.815
 3505SOL     OW11413   5.275   4.497   5.967
 3505SOL    HW111414   5.229   4.416   6.003
 3505SOL    HW211415   5.280   4.566   6.039
 3506SOL     OW11416   5.220   5.121   5.282
 3506SOL    HW111417   5.127   5.146   5.254
 3506SOL    HW211418   5.257   5.053   5.220
 3507SOL     OW11419   2.888   0.653   1.072
 3507SOL    HW111420   2.972   0.604   1.048
 3507SOL    HW211421   2.901   0.751   1.056
 3508SOL     OW11422   1.944   2.236   5.950
 3508SOL    HW111423   1.985   2.328   5.954
 3508SOL    HW211424   2.012   2.172   5.913
 3509SOL     OW11425   5.069   0.271   0.243
 3509SOL    HW111426   5.131   0.195   0.226
 3509SOL    HW211427   5.018   0.292   0.159
 3510SOL     OW11428   1.355   0.867   1.995
 3510SOL    HW111429   1.314   0.858   2.086
 3510SOL    HW211430   1.427   0.799   1.983
 3511SOL     OW11431   1.877   4.225   1.595
 3511SOL    HW111432   1.781   4.217   1.569
 3511SOL    HW211433   1.903   4.144   1.648
 3512SOL     OW11434   0.406   4.901   0.547
 3512SOL    HW111435   0.385   4.950   0.631
 3512SOL    HW211436   0.321   4.882   0.497
 3513SOL     OW11437   5.698   2.046   0.593
 3513SOL    HW111438   5.682   2.144   0.576
 3513SOL    HW211439   5.718   2.000   0.506
 3514SOL     OW11440   0.285   0.933   1.849
 3514SOL    HW111441   0.193   0.961   1.875
 3514SOL    HW211442   0.318   0.864   1.914
 3515SOL     OW11443   4.575   6.204   2.781
 3515SOL    HW111444   4.644   6.143   2.821
 3515SOL    HW211445   4.610   6.243   2.696
 3516SOL     OW11446   5.029   6.817   0.965
 3516SOL    HW111447   4.946   6.789   0.916
 3516SOL    HW211448   5.070   6.737   1.009
 3517SOL     OW11449   0.650   1.840   1.468
 3517SOL    HW111450   0.733   1.854   1.414
 3517SOL    HW211451   0.673   1.791   1.552
 3518SOL     OW11452   5.071   3.029   4.895
 3518SOL    HW111453   5.135   2.995   4.826
 3518SOL    HW211454   5.093   2.989   4.983
 3519SOL     OW11455   1.671   0.882   5.906
 3519SOL    HW111456   1.637   0.810   5.846
 3519SOL    HW211457   1.645   0.861   6.000
 3520SOL     OW11458   3.351   5.826   0.033
 3520SOL    HW111459   3.289   5.767   7.004
 3520SOL    HW211460   3.432   5.846   6.998
 3521SOL     OW11461   4.998   2.552   0.273
 3521SOL    HW111462   4.940   2.471   0.280
 3521SOL    HW211463   5.094   2.526   0.281
 3522SOL     OW11464   0.640   4.929   0.763
 3522SOL    HW111465   0.601   4.841   0.738
 3522SOL    HW211466   0.700   4.962   0.690
 3523SOL     OW11467   1.247   4.398   5.418
 3523SOL    HW111468   1.250   4.414   5.517
 3523SOL    HW211469   1.335   4.361   5.387
 3524SOL     OW11470   4.856   1.398   1.806
 3524SOL    HW111471   4.898   1.312   1.777
 3524SOL    HW211472   4.758   1.394   1.790
 3525SOL     OW11473   6.610   4.776   3.654
 3525SOL    HW111474   6.575   4.836   3.725
 3525SOL    HW211475   6.614   4.826   3.567
 3526SOL     OW11476   2.471   6.841   4.121
 3526SOL    HW111477   2.470   6.741   4.128
 3526SOL    HW211478   2.555   6.877   4.161
 3527SOL     OW11479   5.568   3.054   6.064
 3527SOL    HW111480   5.539   2.969   6.107
 3527SOL    HW211481   5.489   3.113   6.049
 3528SOL     OW11482   1.257   6.588   5.242
 3528SOL    HW111483   1.201   6.570   5.324
 3528SOL    HW211484   1.204   6.641   5.177
 3529SOL     OW11485   4.162   0.304   0.407
 3529SOL    HW111486   4.251   0.350   0.409
 3529SOL    HW211487   4.148   0.255   0.493
 3530SOL     OW11488   6.270   5.926   2.025
 3530SOL    HW111489   6.334   5.990   1.982
 3530SOL    HW211490   6.321   5.848   2.061
 3531SOL     OW11491   5.302   2.619   0.940
 3531SOL    HW111492   5.235   2.622   0.866
 3531SOL    HW211493   5.314   2.710   0.979
 3532SOL     OW11494   2.570   6.714   1.879
 3532SOL    HW111495   2.479   6.705   1.920
 3532SOL    HW211496   2.636   6.664   1.935
 3533SOL     OW11497   0.881   1.720   2.780
 3533SOL    HW111498   0.941   1.790   2.741
 3533SOL    HW211499   0.934   1.662   2.843
 3534SOL     OW11500   0.032   1.979   0.892
 3534SOL    HW111501   0.010   1.942   0.982
 3534SOL    HW211502   0.053   2.076   0.900
 3535SOL     OW11503   1.942   5.419   6.481
 3535SOL    HW111504   1.892   5.505   6.494
 3535SOL    HW211505   1.942   5.394   6.384
 3536SOL     OW11506   3.631   1.858   2.900
 3536SOL    HW111507   3.559   1.924   2.879
 3536SOL    HW211508   3.719   1.894   2.871
 3537SOL     OW11509   2.817   5.823   2.491
 3537SOL    HW111510   2.799   5.919   2.472
 3537SOL    HW211511   2.872   5.816   2.575
 3538SOL     OW11512   2.365   6.861   6.061
 3538SOL    HW111513   2.407   6.779   6.099
 3538SOL    HW211514   2.303   6.901   6.128
 3539SOL     OW11515   3.711   2.914   5.527
 3539SOL    HW111516   3.722   2.859   5.610
 3539SOL    HW211517   3.784   2.891   5.463
 3540SOL     OW11518   1.751   2.683   5.254
 3540SOL    HW111519   1.769   2.593   5.293
 3540SOL    HW211520   1.659   2.685   5.215
 3541SOL     OW11521   1.748   2.864   6.064
 3541SOL    HW111522   1.774   2.957   6.037
 3541SOL    HW211523   1.717   2.814   5.983
 3542SOL     OW11524   1.698   5.432   3.361
 3542SOL    HW111525   1.792   5.402   3.351
 3542SOL    HW211526   1.684   5.473   3.451
 3543SOL     OW11527   0.768   2.214   4.680
 3543SOL    HW111528   0.704   2.160   4.735
 3543SOL    HW211529   0.789   2.299   4.728
 3544SOL     OW11530   1.953   4.471   5.978
 3544SOL    HW111531   2.053   4.479   5.967
 3544SOL    HW211532   1.929   4.375   5.991
 3545SOL     OW11533   3.901   5.341   0.551
 3545SOL    HW111534   3.861   5.431   0.570
 3545SOL    HW211535   3.828   5.271   0.554
 3546SOL     OW11536   1.667   3.882   4.155
 3546SOL    HW111537   1.707   3.953   4.213
 3546SOL    HW211538   1.569   3.874   4.175
 3547SOL     OW11539   6.848   4.694   3.761
 3547SOL    HW111540   6.760   4.741   3.750
 3547SOL    HW211541   6.861   4.631   3.684
 3548SOL     OW11542   5.625   1.989   5.974
 3548SOL    HW111543   5.600   2.073   6.023
 3548SOL    HW211544   5.546   1.955   5.923
 3549SOL     OW11545   6.331   5.035   6.478
 3549SOL    HW111546   6.299   4.983   6.399
 3549SOL    HW211547   6.281   5.005   6.560
 3550SOL     OW11548   6.010   2.443   2.351
 3550SOL    HW111549   6.040   2.358   2.395
 3550SOL    HW211550   5.910   2.444   2.347
 3551SOL     OW11551   3.482   0.066   2.395
 3551SOL    HW111552   3.552   0.132   2.370
 3551SOL    HW211553   3.420   0.106   2.462
 3552SOL     OW11554   5.677   6.229   2.052
 3552SOL    HW111555   5.645   6.200   2.143
 3552SOL    HW211556   5.598   6.256   1.996
 3553SOL     OW11557   5.388   3.785   1.178
 3553SOL    HW111558   5.316   3.750   1.118
 3553SOL    HW211559   5.360   3.771   1.273
 3554SOL     OW11560   4.056   2.234   1.116
 3554SOL    HW111561   3.980   2.173   1.094
 3554SOL    HW211562   4.021   2.316   1.162
 3555SOL     OW11563   1.015   3.969   3.766
 3555SOL    HW111564   1.055   3.877   3.767
 3555SOL    HW211565   1.008   4.002   3.672
 3556SOL     OW11566   4.900   1.171   3.257
 3556SOL    HW111567   4.847   1.101   3.305
 3556SOL    HW211568   4.869   1.177   3.162
 3557SOL     OW11569   1.068   0.205   3.936
 3557SOL    HW111570   1.028   0.215   3.845
 3557SOL    HW211571   1.083   0.295   3.976
 3558SOL     OW11572   1.098   6.443   1.218
 3558SOL    HW111573   1.008   6.485   1.231
 3558SOL    HW211574   1.091   6.368   1.152
 3559SOL     OW11575   0.541   6.216   4.694
 3559SOL    HW111576   0.591   6.237   4.610
 3559SOL    HW211577   0.443   6.214   4.675
 3560SOL     OW11578   0.994   5.901   1.392
 3560SOL    HW111579   1.075   5.847   1.371
 3560SOL    HW211580   0.974   5.895   1.490
 3561SOL     OW11581   4.302   4.698   5.347
 3561SOL    HW111582   4.295   4.673   5.443
 3561SOL    HW211583   4.215   4.681   5.301
 3562SOL     OW11584   5.155   1.017   3.812
 3562SOL    HW111585   5.153   1.116   3.798
 3562SOL    HW211586   5.110   0.995   3.899
 3563SOL     OW11587   5.854   1.125   0.800
 3563SOL    HW111588   5.946   1.097   0.773
 3563SOL    HW211589   5.847   1.225   0.797
 3564SOL     OW11590   1.535   4.439   4.192
 3564SOL    HW111591   1.585   4.415   4.108
 3564SOL    HW211592   1.437   4.434   4.175
 3565SOL     OW11593   3.686   5.605   5.497
 3565SOL    HW111594   3.772   5.613   5.447
 3565SOL    HW211595   3.614   5.574   5.435
 3566SOL     OW11596   6.621   3.631   6.149
 3566SOL    HW111597   6.578   3.601   6.064
 3566SOL    HW211598   6.671   3.554   6.190
 3567SOL     OW11599   1.360   3.174   0.181
 3567SOL    HW111600   1.292   3.141   0.116
 3567SOL    HW211601   1.342   3.270   0.201
 3568SOL     OW11602   4.962   5.960   4.099
 3568SOL    HW111603   5.002   5.901   4.028
 3568SOL    HW211604   5.034   6.016   4.139
 3569SOL     OW11605   3.046   2.635   5.912
 3569SOL    HW111606   3.029   2.686   5.828
 3569SOL    HW211607   2.968   2.645   5.974
 3570SOL     OW11608   5.045   0.019   4.850
 3570SOL    HW111609   5.111   0.084   4.813
 3570SOL    HW211610   4.988   0.064   4.919
 3571SOL     OW11611   1.973   0.804   4.981
 3571SOL    HW111612   1.910   0.747   4.927
 3571SOL    HW211613   2.034   0.854   4.919
 3572SOL     OW11614   5.619   3.581   2.455
 3572SOL    HW111615   5.657   3.510   2.514
 3572SOL    HW211616   5.519   3.574   2.454
 3573SOL     OW11617   6.118   4.156   2.483
 3573SOL    HW111618   6.199   4.147   2.541
 3573SOL    HW211619   6.048   4.207   2.532
 3574SOL     OW11620   1.363   3.236   0.620
 3574SOL    HW111621   1.409   3.147   0.627
 3574SOL    HW211622   1.427   3.304   0.586
 3575SOL     OW11623   4.894   5.499   2.366
 3575SOL    HW111624   4.962   5.572   2.379
 3575SOL    HW211625   4.816   5.516   2.427
 3576SOL     OW11626   0.516   1.885   0.163
 3576SOL    HW111627   0.426   1.910   0.198
 3576SOL    HW211628   0.506   1.817   0.091
 3577SOL     OW11629   1.756   3.022   6.593
 3577SOL    HW111630   1.724   3.035   6.687
 3577SOL    HW211631   1.838   2.966   6.593
 3578SOL     OW11632   5.167   1.657   1.042
 3578SOL    HW111633   5.085   1.689   0.993
 3578SOL    HW211634   5.155   1.561   1.067
 3579SOL     OW11635   6.790   2.379   2.561
 3579SOL    HW111636   6.849   2.300   2.576
 3579SOL    HW211637   6.806   2.447   2.632
 3580SOL     OW11638   6.362   2.784   0.133
 3580SOL    HW111639   6.462   2.784   0.132
 3580SOL    HW211640   6.328   2.692   0.117
 3581SOL     OW11641   0.607   5.607   3.198
 3581SOL    HW111642   0.630   5.635   3.291
 3581SOL    HW211643   0.642   5.675   3.134
 3582SOL     OW11644   2.139   4.430   5.742
 3582SOL    HW111645   2.214   4.416   5.677
 3582SOL    HW211646   2.057   4.458   5.692
 3583SOL     OW11647   1.601   4.864   0.252
 3583SOL    HW111648   1.660   4.819   0.185
 3583SOL    HW211649   1.562   4.947   0.212
 3584SOL     OW11650   5.465   4.505   5.406
 3584SOL    HW111651   5.447   4.462   5.318
 3584SOL    HW211652   5.541   4.457   5.451
 3585SOL     OW11653   2.603   2.479   4.868
 3585SOL    HW111654   2.654   2.552   4.824
 3585SOL    HW211655   2.593   2.498   4.966
 3586SOL     OW11656   6.672   1.575   4.836
 3586SOL    HW111657   6.631   1.586   4.745
 3586SOL    HW211658   6.604   1.537   4.899
 3587SOL     OW11659   2.216   5.703   6.086
 3587SOL    HW111660   2.183   5.622   6.039
 3587SOL    HW211661   2.141   5.769   6.096
 3588SOL     OW11662   6.990   2.876   5.061
 3588SOL    HW111663   0.028   2.796   5.069
 3588SOL    HW211664   0.025   2.958   5.050
 3589SOL     OW11665   5.927   0.444   6.819
 3589SOL    HW111666   5.985   0.414   6.896
 3589SOL    HW211667   5.939   0.542   6.804
 3590SOL     OW11668   0.211   3.701   0.269
 3590SOL    HW111669   0.206   3.618   0.325
 3590SOL    HW211670   0.217   3.675   0.172
 3591SOL     OW11671   5.699   3.839   0.128
 3591SOL    HW111672   5.684   3.927   0.083
 3591SOL    HW211673   5.786   3.800   0.098
 3592SOL     OW11674   0.363   6.988   3.182
 3592SOL    HW111675   0.362   7.008   3.280
 3592SOL    HW211676   0.389   0.048   3.131
 3593SOL     OW11677   0.471   4.333   6.278
 3593SOL    HW111678   0.499   4.357   6.371
 3593SOL    HW211679   0.374   4.356   6.266
 3594SOL     OW11680   4.595   0.251   4.231
 3594SOL    HW111681   4.551   0.173   4.277
 3594SOL    HW211682   4.678   0.276   4.281
 3595SOL     OW11683   5.215   5.697   6.295
 3595SOL    HW111684   5.171   5.751   6.223
 3595SOL    HW211685   5.149   5.632   6.333
 3596SOL     OW11686   5.202   2.793   3.648
 3596SOL    HW111687   5.192   2.889   3.673
 3596SOL    HW211688   5.217   2.786   3.549
 3597SOL     OW11689   1.819   2.849   5.444
 3597SOL    HW111690   1.916   2.830   5.455
 3597SOL    HW211691   1.785   2.806   5.360
 3598SOL     OW11692   1.989   6.531   5.811
 3598SOL    HW111693   1.926   6.509   5.736
 3598SOL    HW211694   1.974   6.467   5.886
 3599SOL     OW11695   4.552   2.091   0.812
 3599SOL    HW111696   4.589   2.045   0.893
 3599SOL    HW211697   4.615   2.081   0.736
 3600SOL     OW11698   0.432   3.153   2.214
 3600SOL    HW111699   0.485   3.072   2.188
 3600SOL    HW211700   0.463   3.231   2.159
 3601SOL     OW11701   5.547   2.812   5.865
 3601SOL    HW111702   5.519   2.893   5.814
 3601SOL    HW211703   5.550   2.833   5.962
 3602SOL     OW11704   1.345   3.742   1.147
 3602SOL    HW111705   1.338   3.672   1.075
 3602SOL    HW211706   1.332   3.699   1.236
 3603SOL     OW11707   3.428   1.184   4.463
 3603SOL    HW111708   3.433   1.273   4.418
 3603SOL    HW211709   3.429   1.197   4.563
 3604SOL     OW11710   6.508   6.996   3.936
 3604SOL    HW111711   6.587   0.023   3.972
 3604SOL    HW211712   6.513   6.900   3.962
 3605SOL     OW11713   1.001   4.509   3.990
 3605SOL    HW111714   0.984   4.456   3.907
 3605SOL    HW211715   1.010   4.446   4.068
 3606SOL     OW11716   1.067   6.482   3.315
 3606SOL    HW111717   1.070   6.579   3.342
 3606SOL    HW211718   1.157   6.441   3.330
 3607SOL     OW11719   5.381   3.854   1.752
 3607SOL    HW111720   5.423   3.912   1.821
 3607SOL    HW211721   5.282   3.868   1.752
 3608SOL     OW11722   4.884   1.229   4.418
 3608SOL    HW111723   4.805   1.279   4.452
 3608SOL    HW211724   4.894   1.246   4.320
 3609SOL     OW11725   2.344   0.121   4.202
 3609SOL    HW111726   2.377   0.069   4.281
 3609SOL    HW211727   2.273   0.069   4.156
 3610SOL     OW11728   1.617   1.153   5.827
 3610SOL    HW111729   1.575   1.093   5.895
 3610SOL    HW211730   1.717   1.142   5.832
 3611SOL     OW11731   3.998   4.878   3.750
 3611SOL    HW111732   4.024   4.865   3.655
 3611SOL    HW211733   4.056   4.822   3.809
 3612SOL     OW11734   0.168   0.907   6.458
 3612SOL    HW111735   0.155   0.902   6.359
 3612SOL    HW211736   0.090   0.954   6.500
 3613SOL     OW11737   5.031   4.549   1.933
 3613SOL    HW111738   5.067   4.455   1.935
 3613SOL    HW211739   4.973   4.564   2.013
 3614SOL     OW11740   2.989   4.078   0.153
 3614SOL    HW111741   2.955   4.122   0.236
 3614SOL    HW211742   3.014   3.983   0.174
 3615SOL     OW11743   5.774   2.390   6.018
 3615SOL    HW111744   5.834   2.405   5.939
 3615SOL    HW211745   5.828   2.392   6.102
 3616SOL     OW11746   0.961   0.218   6.417
 3616SOL    HW111747   0.943   0.121   6.398
 3616SOL    HW211748   1.051   0.242   6.381
 3617SOL     OW11749   4.456   0.640   5.480
 3617SOL    HW111750   4.414   0.728   5.461
 3617SOL    HW211751   4.556   0.648   5.471
 3618SOL     OW11752   2.568   3.376   5.317
 3618SOL    HW111753   2.479   3.420   5.326
 3618SOL    HW211754   2.640   3.445   5.323
 3619SOL     OW11755   5.607   3.530   6.453
 3619SOL    HW111756   5.591   3.486   6.541
 3619SOL    HW211757   5.657   3.467   6.393
 3620SOL     OW11758   5.727   5.377   5.945
 3620SOL    HW111759   5.671   5.461   5.948
 3620SOL    HW211760   5.772   5.365   6.034
 3621SOL     OW11761   3.676   3.528   4.619
 3621SOL    HW111762   3.598   3.469   4.596
 3621SOL    HW211763   3.671   3.612   4.565
 3622SOL     OW11764   2.423   0.873   0.631
 3622SOL    HW111765   2.369   0.878   0.547
 3622SOL    HW211766   2.363   0.854   0.708
 3623SOL     OW11767   6.706   5.617   4.589
 3623SOL    HW111768   6.687   5.526   4.626
 3623SOL    HW211769   6.622   5.672   4.592
 3624SOL     OW11770   1.316   6.866   2.277
 3624SOL    HW111771   1.255   6.813   2.217
 3624SOL    HW211772   1.372   6.803   2.331
 3625SOL     OW11773   0.277   3.427   6.423
 3625SOL    HW111774   0.212   3.402   6.351
 3625SOL    HW211775   0.317   3.516   6.402
 3626SOL     OW11776   0.514   3.038   4.910
 3626SOL    HW111777   0.492   3.013   4.816
 3626SOL    HW211778   0.518   3.138   4.918
 3627SOL     OW11779   4.623   3.198   1.640
 3627SOL    HW111780   4.528   3.216   1.616
 3627SOL    HW211781   4.627   3.137   1.719
 3628SOL     OW11782   1.433   1.118   1.873
 3628SOL    HW111783   1.427   1.029   1.919
 3628SOL    HW211784   1.477   1.184   1.935
 3629SOL     OW11785   0.934   0.442   5.152
 3629SOL    HW111786   0.900   0.464   5.243
 3629SOL    HW211787   1.004   0.509   5.125
 3630SOL     OW11788   6.419   2.968   3.467
 3630SOL    HW111789   6.489   2.926   3.525
 3630SOL    HW211790   6.461   3.038   3.410
 3631SOL     OW11791   1.584   6.888   3.448
 3631SOL    HW111792   1.621   6.795   3.454
 3631SOL    HW211793   1.614   6.930   3.362
 3632SOL     OW11794   4.798   4.541   0.272
 3632SOL    HW111795   4.788   4.455   0.221
 3632SOL    HW211796   4.890   4.547   0.310
 3633SOL     OW11797   4.445   2.960   5.939
 3633SOL    HW111798   4.493   2.985   5.855
 3633SOL    HW211799   4.415   3.043   5.986
 3634SOL     OW11800   1.933   6.171   6.270
 3634SOL    HW111801   1.946   6.172   6.369
 3634SOL    HW211802   1.909   6.078   6.241
 3635SOL     OW11803   2.510   1.575   0.912
 3635SOL    HW111804   2.592   1.565   0.856
 3635SOL    HW211805   2.531   1.549   1.006
 3636SOL     OW11806   6.540   5.612   1.453
 3636SOL    HW111807   6.479   5.641   1.526
 3636SOL    HW211808   6.544   5.683   1.383
 3637SOL     OW11809   0.877   2.751   1.195
 3637SOL    HW111810   0.824   2.835   1.203
 3637SOL    HW211811   0.957   2.768   1.137
 3638SOL     OW11812   6.773   4.196   2.844
 3638SOL    HW111813   6.684   4.200   2.889
 3638SOL    HW211814   6.767   4.240   2.754
 3639SOL     OW11815   3.705   4.995   6.448
 3639SOL    HW111816   3.782   5.038   6.495
 3639SOL    HW211817   3.734   4.963   6.358
 3640SOL     OW11818   5.232   2.011   0.761
 3640SOL    HW111819   5.212   2.016   0.859
 3640SOL    HW211820   5.185   2.085   0.713
 3641SOL     OW11821   5.637   3.720   1.199
 3641SOL    HW111822   5.651   3.621   1.204
 3641SOL    HW211823   5.546   3.739   1.164
 3642SOL     OW11824   4.855   2.159   6.585
 3642SOL    HW111825   4.844   2.070   6.542
 3642SOL    HW211826   4.950   2.171   6.614
 3643SOL     OW11827   3.887   6.251   6.002
 3643SOL    HW111828   3.858   6.347   6.005
 3643SOL    HW211829   3.954   6.235   6.075
 3644SOL     OW11830   2.431   0.525   1.677
 3644SOL    HW111831   2.424   0.428   1.702
 3644SOL    HW211832   2.485   0.573   1.746
 3645SOL     OW11833   1.027   3.827   4.170
 3645SOL    HW111834   0.990   3.763   4.102
 3645SOL    HW211835   0.976   3.817   4.255
 3646SOL     OW11836   1.551   4.272   4.972
 3646SOL    HW111837   1.645   4.305   4.959
 3646SOL    HW211838   1.531   4.201   4.905
 3647SOL     OW11839   2.473   6.245   6.715
 3647SOL    HW111840   2.500   6.341   6.710
 3647SOL    HW211841   2.435   6.226   6.806
 3648SOL     OW11842   5.131   6.073   2.917
 3648SOL    HW111843   5.225   6.075   2.949
 3648SOL    HW211844   5.108   6.161   2.876
 3649SOL     OW11845   6.560   3.508   0.143
 3649SOL    HW111846   6.497   3.430   0.146
 3649SOL    HW211847   6.653   3.476   0.161
 3650SOL     OW11848   6.102   4.247   0.487
 3650SOL    HW111849   6.177   4.310   0.507
 3650SOL    HW211850   6.056   4.222   0.572
 3651SOL     OW11851   1.735   0.731   4.357
 3651SOL    HW111852   1.771   0.647   4.317
 3651SOL    HW211853   1.645   0.750   4.319
 3652SOL     OW11854   5.674   6.799   3.170
 3652SOL    HW111855   5.592   6.832   3.216
 3652SOL    HW211856   5.697   6.708   3.205
 3653SOL     OW11857   1.649   1.062   3.271
 3653SOL    HW111858   1.584   1.127   3.230
 3653SOL    HW211859   1.664   1.087   3.366
 3654SOL     OW11860   4.819   6.004   0.298
 3654SOL    HW111861   4.747   6.023   0.365
 3654SOL    HW211862   4.796   6.047   0.211
 3655SOL     OW11863   2.989   1.238   3.882
 3655SOL    HW111864   3.000   1.139   3.893
 3655SOL    HW211865   3.013   1.264   3.788
 3656SOL     OW11866   1.256   5.719   1.628
 3656SOL    HW111867   1.301   5.644   1.580
 3656SOL    HW211868   1.273   5.805   1.580
 3657SOL     OW11869   4.765   5.841   5.276
 3657SOL    HW111870   4.713   5.916   5.235
 3657SOL    HW211871   4.751   5.758   5.223
 3658SOL     OW11872   1.697   5.184   6.483
 3658SOL    HW111873   1.609   5.181   6.531
 3658SOL    HW211874   1.702   5.266   6.425
 3659SOL     OW11875   0.741   1.889   6.625
 3659SOL    HW111876   0.714   1.897   6.529
 3659SOL    HW211877   0.738   1.980   6.668
 3660SOL     OW11878   5.961   5.584   4.745
 3660SOL    HW111879   6.002   5.670   4.716
 3660SOL    HW211880   6.032   5.523   4.780
 3661SOL     OW11881   0.424   0.391   4.524
 3661SOL    HW111882   0.470   0.321   4.471
 3661SOL    HW211883   0.481   0.473   4.528
 3662SOL     OW11884   4.208   0.845   4.283
 3662SOL    HW111885   4.274   0.799   4.343
 3662SOL    HW211886   4.180   0.932   4.324
 3663SOL     OW11887   1.813   2.770   6.963
 3663SOL    HW111888   1.745   2.843   6.957
 3663SOL    HW211889   1.893   2.795   6.909
 3664SOL     OW11890   3.890   1.717   1.852
 3664SOL    HW111891   3.968   1.720   1.790
 3664SOL    HW211892   3.921   1.719   1.947
 3665SOL     OW11893   0.819   5.647   5.827
 3665SOL    HW111894   0.824   5.586   5.748
 3665SOL    HW211895   0.907   5.692   5.841
 3666SOL     OW11896   0.837   3.077   3.198
 3666SOL    HW111897   0.821   3.172   3.171
 3666SOL    HW211898   0.911   3.075   3.266
 3667SOL     OW11899   0.812   1.191   3.888
 3667SOL    HW111900   0.745   1.238   3.830
 3667SOL    HW211901   0.853   1.115   3.836
 3668SOL     OW11902   1.378   0.688   1.193
 3668SOL    HW111903   1.348   0.783   1.201
 3668SOL    HW211904   1.422   0.675   1.104
 3669SOL     OW11905   5.367   1.747   3.858
 3669SOL    HW111906   5.407   1.757   3.767
 3669SOL    HW211907   5.413   1.809   3.922
 3670SOL     OW11908   3.184   5.099   0.764
 3670SOL    HW111909   3.268   5.075   0.716
 3670SOL    HW211910   3.134   5.016   0.789
 3671SOL     OW11911   6.712   0.867   3.641
 3671SOL    HW111912   6.688   0.809   3.563
 3671SOL    HW211913   6.812   0.869   3.651
 3672SOL     OW11914   4.610   1.737   2.622
 3672SOL    HW111915   4.627   1.662   2.559
 3672SOL    HW211916   4.523   1.724   2.669
 3673SOL     OW11917   3.803   5.479   6.701
 3673SOL    HW111918   3.820   5.468   6.799
 3673SOL    HW211919   3.887   5.507   6.656
 3674SOL     OW11920   1.314   5.889   5.463
 3674SOL    HW111921   1.252   5.852   5.393
 3674SOL    HW211922   1.408   5.890   5.427
 3675SOL     OW11923   0.710   2.469   3.962
 3675SOL    HW111924   0.690   2.439   4.056
 3675SOL    HW211925   0.653   2.418   3.899
 3676SOL     OW11926   5.693   2.986   2.706
 3676SOL    HW111927   5.682   2.948   2.798
 3676SOL    HW211928   5.690   3.086   2.712
 3677SOL     OW11929   2.320   0.840   5.318
 3677SOL    HW111930   2.346   0.791   5.401
 3677SOL    HW211931   2.395   0.837   5.252
 3678SOL     OW11932   1.696   1.469   4.144
 3678SOL    HW111933   1.658   1.547   4.094
 3678SOL    HW211934   1.727   1.500   4.234
 3679SOL     OW11935   6.392   0.239   3.778
 3679SOL    HW111936   6.301   0.236   3.820
 3679SOL    HW211937   6.461   0.221   3.848
 3680SOL     OW11938   4.549   2.521   4.315
 3680SOL    HW111939   4.492   2.513   4.396
 3680SOL    HW211940   4.583   2.430   4.290
 3681SOL     OW11941   0.835   0.866   6.122
 3681SOL    HW111942   0.897   0.939   6.152
 3681SOL    HW211943   0.823   0.872   6.023
 3682SOL     OW11944   5.658   2.631   0.365
 3682SOL    HW111945   5.680   2.663   0.457
 3682SOL    HW211946   5.682   2.535   0.355
 3683SOL     OW11947   0.628   1.182   4.682
 3683SOL    HW111948   0.573   1.107   4.644
 3683SOL    HW211949   0.718   1.181   4.638
 3684SOL     OW11950   1.324   5.997   0.061
 3684SOL    HW111951   1.372   6.038   0.138
 3684SOL    HW211952   1.391   5.968   7.014
 3685SOL     OW11953   2.712   6.355   5.065
 3685SOL    HW111954   2.657   6.439   5.072
 3685SOL    HW211955   2.668   6.282   5.117
 3686SOL     OW11956   6.766   4.352   4.132
 3686SOL    HW111957   6.862   4.327   4.139
 3686SOL    HW211958   6.751   4.405   4.049
 3687SOL     OW11959   4.703   6.600   3.463
 3687SOL    HW111960   4.674   6.512   3.501
 3687SOL    HW211961   4.771   6.641   3.522
 3688SOL     OW11962   6.295   3.359   6.652
 3688SOL    HW111963   6.226   3.418   6.609
 3688SOL    HW211964   6.298   3.377   6.750
 3689SOL     OW11965   2.231   2.116   5.441
 3689SOL    HW111966   2.273   2.186   5.384
 3689SOL    HW211967   2.171   2.059   5.386
 3690SOL     OW11968   4.814   5.936   1.049
 3690SOL    HW111969   4.741   6.003   1.059
 3690SOL    HW211970   4.831   5.919   0.952
 3691SOL     OW11971   2.587   1.940   5.862
 3691SOL    HW111972   2.612   1.998   5.785
 3691SOL    HW211973   2.511   1.981   5.911
 3692SOL     OW11974   6.581   4.384   6.260
 3692SOL    HW111975   6.666   4.386   6.313
 3692SOL    HW211976   6.562   4.290   6.231
 3693SOL     OW11977   2.224   2.100   2.991
 3693SOL    HW111978   2.163   2.100   3.070
 3693SOL    HW211979   2.170   2.110   2.907
 3694SOL     OW11980   1.168   6.671   1.708
 3694SOL    HW111981   1.265   6.689   1.725
 3694SOL    HW211982   1.118   6.757   1.702
 3695SOL     OW11983   6.373   2.039   1.823
 3695SOL    HW111984   6.432   1.964   1.793
 3695SOL    HW211985   6.429   2.110   1.867
 3696SOL     OW11986   4.342   0.160   5.591
 3696SOL    HW111987   4.293   0.140   5.506
 3696SOL    HW211988   4.430   0.113   5.591
 3697SOL     OW11989   6.607   6.260   3.232
 3697SOL    HW111990   6.661   6.193   3.182
 3697SOL    HW211991   6.513   6.259   3.197
 3698SOL     OW11992   2.020   1.345   3.568
 3698SOL    HW111993   2.030   1.436   3.607
 3698SOL    HW211994   1.971   1.350   3.481
 3699SOL     OW11995   2.087   2.024   3.561
 3699SOL    HW111996   2.063   1.995   3.654
 3699SOL    HW211997   2.174   2.072   3.562
 3700SOL     OW11998   1.310   5.489   4.803
 3700SOL    HW111999   1.228   5.432   4.808
 3700SOL    HW212000   1.388   5.436   4.836
 3701SOL     OW12001   0.784   6.720   2.676
 3701SOL    HW112002   0.748   6.808   2.708
 3701SOL    HW212003   0.718   6.648   2.696
 3702SOL     OW12004   5.427   6.538   3.553
 3702SOL    HW112005   5.516   6.573   3.523
 3702SOL    HW212006   5.405   6.455   3.501
 3703SOL     OW12007   0.659   0.613   6.429
 3703SOL    HW112008   0.744   0.647   6.389
 3703SOL    HW212009   0.672   0.594   6.526
 3704SOL     OW12010   5.645   2.968   1.075
 3704SOL    HW112011   5.697   3.039   1.122
 3704SOL    HW212012   5.653   2.882   1.125
 3705SOL     OW12013   4.501   4.888   3.636
 3705SOL    HW112014   4.431   4.872   3.566
 3705SOL    HW212015   4.542   4.978   3.620
 3706SOL     OW12016   0.735   4.061   0.089
 3706SOL    HW112017   0.726   3.982   0.029
 3706SOL    HW212018   0.831   4.079   0.107
 3707SOL     OW12019   4.341   5.773   4.091
 3707SOL    HW112020   4.367   5.733   4.003
 3707SOL    HW212021   4.377   5.716   4.165
 3708SOL     OW12022   4.747   6.913   1.144
 3708SOL    HW112023   4.834   6.897   1.191
 3708SOL    HW212024   4.722   6.832   1.091
 3709SOL     OW12025   2.448   6.977   1.515
 3709SOL    HW112026   2.448   6.963   1.614
 3709SOL    HW212027   2.481   6.894   1.469
 3710SOL     OW12028   0.618   5.823   5.011
 3710SOL    HW112029   0.565   5.750   5.053
 3710SOL    HW212030   0.565   5.908   5.012
 3711SOL     OW12031   1.155   6.254   4.903
 3711SOL    HW112032   1.059   6.239   4.926
 3711SOL    HW212033   1.213   6.211   4.972
 3712SOL     OW12034   1.506   6.165   6.658
 3712SOL    HW112035   1.498   6.066   6.662
 3712SOL    HW212036   1.538   6.200   6.746
 3713SOL     OW12037   0.723   0.377   4.904
 3713SOL    HW112038   0.793   0.359   4.972
 3713SOL    HW212039   0.764   0.425   4.826
 3714SOL     OW12040   6.829   5.124   0.156
 3714SOL    HW112041   6.808   5.027   0.142
 3714SOL    HW212042   6.786   5.156   0.241
 3715SOL     OW12043   0.410   5.027   2.628
 3715SOL    HW112044   0.368   4.938   2.646
 3715SOL    HW212045   0.507   5.024   2.649
 3716SOL     OW12046   5.871   5.225   4.636
 3716SOL    HW112047   5.826   5.291   4.697
 3716SOL    HW212048   5.860   5.133   4.672
 3717SOL     OW12049   6.338   1.187   1.036
 3717SOL    HW112050   6.406   1.118   1.010
 3717SOL    HW212051   6.346   1.267   0.976
 3718SOL     OW12052   6.878   0.515   6.790
 3718SOL    HW112053   6.971   0.519   6.827
 3718SOL    HW212054   6.813   0.508   6.865
 3719SOL     OW12055   4.165   3.329   6.378
 3719SOL    HW112056   4.069   3.341   6.351
 3719SOL    HW212057   4.193   3.405   6.436
 3720SOL     OW12058   5.519   3.595   0.422
 3720SOL    HW112059   5.604   3.581   0.472
 3720SOL    HW212060   5.534   3.577   0.324
 3721SOL     OW12061   6.767   4.983   0.618
 3721SOL    HW112062   6.816   5.002   0.703
 3721SOL    HW212063   6.671   4.965   0.639
 3722SOL     OW12064   5.312   6.488   1.792
 3722SOL    HW112065   5.255   6.477   1.711
 3722SOL    HW212066   5.341   6.397   1.825
 3723SOL     OW12067   4.667   5.041   0.089
 3723SOL    HW112068   4.619   5.122   0.056
 3723SOL    HW212069   4.724   5.066   0.167
 3724SOL     OW12070   1.841   4.727   5.201
 3724SOL    HW112071   1.830   4.659   5.274
 3724SOL    HW212072   1.770   4.796   5.210
 3725SOL     OW12073   0.643   6.430   6.994
 3725SOL    HW112074   0.621   6.335   6.969
 3725SOL    HW212075   0.577   6.492   6.951
 3726SOL     OW12076   5.661   3.547   5.578
 3726SOL    HW112077   5.613   3.497   5.506
 3726SOL    HW212078   5.646   3.645   5.565
 3727SOL     OW12079   6.774   3.216   4.892
 3727SOL    HW112080   6.718   3.188   4.970
 3727SOL    HW212081   6.843   3.282   4.922
 3728SOL     OW12082   2.229   4.035   6.617
 3728SOL    HW112083   2.141   4.077   6.640
 3728SOL    HW212084   2.219   3.980   6.535
 3729SOL     OW12085   0.780   0.350   3.903
 3729SOL    HW112086   0.695   0.315   3.942
 3729SOL    HW212087   0.802   0.439   3.944
 3730SOL     OW12088   3.672   6.046   5.640
 3730SOL    HW112089   3.640   5.952   5.645
 3730SOL    HW212090   3.665   6.078   5.545
 3731SOL     OW12091   0.374   1.565   0.083
 3731SOL    HW112092   0.365   1.648   0.026
 3731SOL    HW212093   0.432   1.585   0.161
 3732SOL     OW12094   1.961   1.902   0.582
 3732SOL    HW112095   1.923   1.937   0.496
 3732SOL    HW212096   2.056   1.875   0.568
 3733SOL     OW12097   1.779   2.727   3.715
 3733SOL    HW112098   1.690   2.748   3.675
 3733SOL    HW212099   1.817   2.810   3.757
 3734SOL     OW12100   4.384   0.787   1.680
 3734SOL    HW112101   4.481   0.805   1.698
 3734SOL    HW212102   4.349   0.723   1.749
 3735SOL     OW12103   4.021   0.445   2.593
 3735SOL    HW112104   3.955   0.384   2.550
 3735SOL    HW212105   3.984   0.538   2.596
 3736SOL     OW12106   6.922   1.293   1.483
 3736SOL    HW112107   7.013   1.251   1.483
 3736SOL    HW212108   6.879   1.280   1.393
 3737SOL     OW12109   6.431   2.088   3.687
 3737SOL    HW112110   6.499   2.035   3.737
 3737SOL    HW212111   6.339   2.063   3.719
 3738SOL     OW12112   6.647   6.221   1.102
 3738SOL    HW112113   6.609   6.230   1.194
 3738SOL    HW212114   6.678   6.128   1.087
 3739SOL     OW12115   3.042   4.696   1.791
 3739SOL    HW112116   2.965   4.756   1.811
 3739SOL    HW212117   3.022   4.604   1.824
 3740SOL     OW12118   5.870   5.667   0.545
 3740SOL    HW112119   5.816   5.587   0.518
 3740SOL    HW212120   5.927   5.644   0.624
 3741SOL     OW12121   4.084   2.933   6.506
 3741SOL    HW112122   4.181   2.944   6.528
 3741SOL    HW212123   4.034   3.014   6.535
 3742SOL     OW12124   4.386   0.186   0.676
 3742SOL    HW112125   4.367   0.178   0.773
 3742SOL    HW212126   4.334   0.117   0.626
 3743SOL     OW12127   5.165   4.136   1.808
 3743SOL    HW112128   5.124   4.048   1.784
 3743SOL    HW212129   5.232   4.162   1.739
 3744SOL     OW12130   0.837   6.434   2.405
 3744SOL    HW112131   0.877   6.526   2.408
 3744SOL    HW212132   0.739   6.439   2.427
 3745SOL     OW12133   5.216   3.868   2.272
 3745SOL    HW112134   5.223   3.790   2.333
 3745SOL    HW212135   5.225   3.837   2.177
 3746SOL     OW12136   5.874   0.292   3.436
 3746SOL    HW112137   5.776   0.272   3.436
 3746SOL    HW212138   5.923   0.218   3.390
 3747SOL     OW12139   4.847   6.551   5.527
 3747SOL    HW112140   4.820   6.616   5.598
 3747SOL    HW212141   4.822   6.588   5.437
 3748SOL     OW12142   5.148   0.530   2.237
 3748SOL    HW112143   5.200   0.480   2.306
 3748SOL    HW212144   5.210   0.587   2.183
 3749SOL     OW12145   2.200   4.853   3.378
 3749SOL    HW112146   2.285   4.814   3.413
 3749SOL    HW212147   2.217   4.946   3.345
 3750SOL     OW12148   5.993   4.204   0.733
 3750SOL    HW112149   6.009   4.269   0.807
 3750SOL    HW212150   5.905   4.159   0.748
 3751SOL     OW12151   0.751   2.559   0.897
 3751SOL    HW112152   0.752   2.525   0.991
 3751SOL    HW212153   0.728   2.657   0.897
 3752SOL     OW12154   0.709   6.862   0.313
 3752SOL    HW112155   0.653   6.938   0.280
 3752SOL    HW212156   0.651   6.782   0.327
 3753SOL     OW12157   0.140   6.865   4.072
 3753SOL    HW112158   0.226   6.915   4.081
 3753SOL    HW212159   0.154   6.783   4.016
 3754SOL     OW12160   4.606   6.091   1.753
 3754SOL    HW112161   4.626   5.998   1.783
 3754SOL    HW212162   4.514   6.117   1.781
 3755SOL     OW12163   5.403   5.735   5.004
 3755SOL    HW112164   5.306   5.759   5.007
 3755SOL    HW212165   5.454   5.800   5.061
 3756SOL     OW12166   1.302   0.798   6.389
 3756SOL    HW112167   1.231   0.728   6.400
 3756SOL    HW212168   1.303   0.829   6.294
 3757SOL     OW12169   3.580   5.962   6.944
 3757SOL    HW112170   3.599   5.948   6.847
 3757SOL    HW212171   3.539   6.052   6.957
 3758SOL     OW12172   1.401   1.331   4.293
 3758SOL    HW112173   1.403   1.262   4.220
 3758SOL    HW212174   1.327   1.309   4.356
 3759SOL     OW12175   4.040   4.509   5.463
 3759SOL    HW112176   3.946   4.524   5.433
 3759SOL    HW212177   4.084   4.442   5.403
 3760SOL     OW12178   0.627   3.970   4.828
 3760SOL    HW112179   0.610   3.965   4.926
 3760SOL    HW212180   0.553   3.922   4.780
 3761SOL     OW12181   0.620   6.745   5.083
 3761SOL    HW112182   0.560   6.820   5.111
 3761SOL    HW212183   0.594   6.715   4.991
 3762SOL     OW12184   0.772   5.283   6.849
 3762SOL    HW112185   0.831   5.350   6.893
 3762SOL    HW212186   0.681   5.323   6.834
 3763SOL     OW12187   6.377   4.996   0.378
 3763SOL    HW112188   6.387   5.086   0.336
 3763SOL    HW212189   6.426   4.928   0.324
 3764SOL     OW12190   2.114   0.370   3.921
 3764SOL    HW112191   2.206   0.361   3.958
 3764SOL    HW212192   2.103   0.461   3.881
 3765SOL     OW12193   5.194   1.479   2.003
 3765SOL    HW112194   5.098   1.493   2.024
 3765SOL    HW212195   5.250   1.546   2.053
 3766SOL     OW12196   0.781   0.930   4.832
 3766SOL    HW112197   0.754   1.018   4.870
 3766SOL    HW212198   0.699   0.874   4.816
 3767SOL     OW12199   2.435   5.528   0.693
 3767SOL    HW112200   2.360   5.506   0.755
 3767SOL    HW212201   2.496   5.449   0.686
 3768SOL     OW12202   2.397   5.922   5.783
 3768SOL    HW112203   2.439   5.855   5.723
 3768SOL    HW212204   2.464   5.954   5.850
 3769SOL     OW12205   5.476   5.402   5.737
 3769SOL    HW112206   5.526   5.343   5.673
 3769SOL    HW212207   5.539   5.468   5.777
 3770SOL     OW12208   1.366   0.585   6.662
 3770SOL    HW112209   1.427   0.574   6.583
 3770SOL    HW212210   1.351   0.496   6.705
 3771SOL     OW12211   5.819   1.898   0.348
 3771SOL    HW112212   5.864   1.971   0.296
 3771SOL    HW212213   5.825   1.812   0.296
 3772SOL     OW12214   6.724   1.610   0.948
 3772SOL    HW112215   6.703   1.646   1.039
 3772SOL    HW212216   6.745   1.686   0.886
 3773SOL     OW12217   5.801   2.743   6.169
 3773SOL    HW112218   5.759   2.810   6.231
 3773SOL    HW212219   5.899   2.739   6.188
 3774SOL     OW12220   0.829   6.736   6.849
 3774SOL    HW112221   0.744   6.700   6.812
 3774SOL    HW212222   0.838   6.707   6.945
 3775SOL     OW12223   5.077   4.286   2.005
 3775SOL    HW112224   5.134   4.281   2.086
 3775SOL    HW212225   5.112   4.224   1.935
 3776SOL     OW12226   3.092   1.209   0.905
 3776SOL    HW112227   3.019   1.142   0.916
 3776SOL    HW212228   3.098   1.235   0.808
 3777SOL     OW12229   2.995   4.843   4.172
 3777SOL    HW112230   2.974   4.940   4.184
 3777SOL    HW212231   2.911   4.792   4.156
 3778SOL     OW12232   2.724   5.929   2.829
 3778SOL    HW112233   2.654   5.950   2.897
 3778SOL    HW212234   2.769   6.014   2.800
 3779SOL     OW12235   2.108   4.634   0.846
 3779SOL    HW112236   2.080   4.625   0.941
 3779SOL    HW212237   2.096   4.547   0.798
 3780SOL     OW12238   4.457   4.901   5.483
 3780SOL    HW112239   4.396   4.981   5.485
 3780SOL    HW212240   4.402   4.818   5.483
 3781SOL     OW12241   1.472   6.125   4.478
 3781SOL    HW112242   1.392   6.131   4.537
 3781SOL    HW212243   1.525   6.044   4.502
 3782SOL     OW12244   2.775   2.250   4.558
 3782SOL    HW112245   2.794   2.166   4.609
 3782SOL    HW212246   2.857   2.279   4.509
 3783SOL     OW12247   5.665   6.582   5.308
 3783SOL    HW112248   5.655   6.493   5.265
 3783SOL    HW212249   5.597   6.591   5.382
 3784SOL     OW12250   4.912   1.889   3.623
 3784SOL    HW112251   4.859   1.953   3.569
 3784SOL    HW212252   5.006   1.886   3.589
 3785SOL     OW12253   1.868   1.312   6.971
 3785SOL    HW112254   1.928   1.365   6.911
 3785SOL    HW212255   1.881   1.343   0.044
 3786SOL     OW12256   2.955   6.489   3.320
 3786SOL    HW112257   2.949   6.588   3.307
 3786SOL    HW212258   2.923   6.465   3.412
 3787SOL     OW12259   6.259   6.102   3.680
 3787SOL    HW112260   6.176   6.114   3.626
 3787SOL    HW212261   6.302   6.191   3.696
 3788SOL     OW12262   0.473   2.810   3.433
 3788SOL    HW112263   0.519   2.795   3.520
 3788SOL    HW212264   0.541   2.810   3.359
 3789SOL     OW12265   1.350   3.173   4.220
 3789SOL    HW112266   1.355   3.242   4.293
 3789SOL    HW212267   1.394   3.209   4.137
 3790SOL     OW12268   1.455   3.854   5.327
 3790SOL    HW112269   1.413   3.777   5.376
 3790SOL    HW212270   1.541   3.824   5.285
 3791SOL     OW12271   6.464   0.092   0.991
 3791SOL    HW112272   6.531   0.087   1.065
 3791SOL    HW212273   6.379   0.131   1.026
 3792SOL     OW12274   7.011   0.745   4.183
 3792SOL    HW112275   6.961   0.659   4.173
 3792SOL    HW212276   6.957   0.819   4.143
 3793SOL     OW12277   3.549   6.923   2.662
 3793SOL    HW112278   3.644   6.947   2.685
 3793SOL    HW212279   3.533   6.945   2.566
 3794SOL     OW12280   3.450   4.728   1.290
 3794SOL    HW112281   3.351   4.737   1.286
 3794SOL    HW212282   3.492   4.817   1.307
 3795SOL     OW12283   3.866   6.520   0.237
 3795SOL    HW112284   3.906   6.456   0.172
 3795SOL    HW212285   3.829   6.469   0.315
 3796SOL     OW12286   2.464   2.484   1.495
 3796SOL    HW112287   2.445   2.442   1.407
 3796SOL    HW212288   2.481   2.413   1.563
 3797SOL     OW12289   6.839   4.861   2.500
 3797SOL    HW112290   6.857   4.847   2.403
 3797SOL    HW212291   6.774   4.793   2.533
 3798SOL     OW12292   3.474   5.496   3.401
 3798SOL    HW112293   3.411   5.494   3.323
 3798SOL    HW212294   3.457   5.578   3.456
 3799SOL     OW12295   0.496   2.559   4.504
 3799SOL    HW112296   0.479   2.640   4.448
 3799SOL    HW212297   0.441   2.483   4.470
 3800SOL     OW12298   5.264   2.913   4.737
 3800SOL    HW112299   5.313   2.860   4.806
 3800SOL    HW212300   5.311   2.906   4.649
 3801SOL     OW12301   7.009   6.483   4.349
 3801SOL    HW112302   6.927   6.451   4.396
 3801SOL    HW212303   0.001   6.580   4.366
 3802SOL     OW12304   0.037   1.898   4.323
 3802SOL    HW112305   0.019   1.814   4.271
 3802SOL    HW212306   7.006   1.896   4.408
 3803SOL     OW12307   3.784   1.367   1.918
 3803SOL    HW112308   3.712   1.417   1.869
 3803SOL    HW212309   3.830   1.429   1.981
 3804SOL     OW12310   5.225   2.021   4.098
 3804SOL    HW112311   5.132   2.052   4.118
 3804SOL    HW212312   5.285   2.100   4.089
 3805SOL     OW12313   2.658   3.783   1.638
 3805SOL    HW112314   2.749   3.783   1.680
 3805SOL    HW212315   2.644   3.868   1.588
 3806SOL     OW12316   2.309   3.615   0.075
 3806SOL    HW112317   2.384   3.607   0.009
 3806SOL    HW212318   2.255   3.697   0.055
 3807SOL     OW12319   2.201   1.064   3.879
 3807SOL    HW112320   2.220   1.161   3.863
 3807SOL    HW212321   2.255   1.009   3.816
 3808SOL     OW12322   3.344   1.258   1.279
 3808SOL    HW112323   3.433   1.301   1.296
 3808SOL    HW212324   3.304   1.231   1.366
 3809SOL     OW12325   6.421   2.442   0.620
 3809SOL    HW112326   6.489   2.411   0.686
 3809SOL    HW212327   6.453   2.526   0.577
 3810SOL     OW12328   4.340   2.573   5.343
 3810SOL    HW112329   4.290   2.640   5.397
 3810SOL    HW212330   4.280   2.534   5.273
 3811SOL     OW12331   0.738   4.877   4.755
 3811SOL    HW112332   0.710   4.840   4.843
 3811SOL    HW212333   0.741   4.802   4.688
 3812SOL     OW12334   5.696   1.433   5.412
 3812SOL    HW112335   5.722   1.416   5.317
 3812SOL    HW212336   5.617   1.494   5.414
 3813SOL     OW12337   4.391   4.047   0.835
 3813SOL    HW112338   4.445   3.979   0.785
 3813SOL    HW212339   4.362   4.008   0.923
 3814SOL     OW12340   6.509   6.471   1.591
 3814SOL    HW112341   6.587   6.524   1.555
 3814SOL    HW212342   6.426   6.526   1.584
 3815SOL     OW12343   5.062   2.226   0.315
 3815SOL    HW112344   5.095   2.176   0.395
 3815SOL    HW212345   4.962   2.237   0.321
 3816SOL     OW12346   6.565   6.097   0.606
 3816SOL    HW112347   6.627   6.045   0.665
 3816SOL    HW212348   6.482   6.044   0.590
 3817SOL     OW12349   4.976   3.097   4.017
 3817SOL    HW112350   4.895   3.133   4.063
 3817SOL    HW212351   4.948   3.037   3.942
 3818SOL     OW12352   5.335   6.793   1.255
 3818SOL    HW112353   5.347   6.843   1.340
 3818SOL    HW212354   5.411   6.813   1.194
 3819SOL     OW12355   5.332   5.072   0.553
 3819SOL    HW112356   5.325   4.997   0.487
 3819SOL    HW212357   5.402   5.051   0.621
 3820SOL     OW12358   6.652   6.868   4.177
 3820SOL    HW112359   6.694   6.891   4.265
 3820SOL    HW212360   6.723   6.839   4.113
 3821SOL     OW12361   1.778   3.139   1.931
 3821SOL    HW112362   1.755   3.066   1.867
 3821SOL    HW212363   1.801   3.099   2.020
 3822SOL     OW12364   1.214   5.542   2.712
 3822SOL    HW112365   1.165   5.528   2.798
 3822SOL    HW212366   1.214   5.639   2.690
 3823SOL     OW12367   4.075   2.251   5.609
 3823SOL    HW112368   4.047   2.339   5.647
 3823SOL    HW212369   4.097   2.188   5.683
 3824SOL     OW12370   5.721   1.535   5.936
 3824SOL    HW112371   5.780   1.469   5.983
 3824SOL    HW212372   5.695   1.499   5.846
 3825SOL     OW12373   0.372   0.472   0.523
 3825SOL    HW112374   0.330   0.453   0.435
 3825SOL    HW212375   0.338   0.560   0.558
 3826SOL     OW12376   0.687   3.488   6.539
 3826SOL    HW112377   0.786   3.483   6.553
 3826SOL    HW212378   0.642   3.516   6.624
 3827SOL     OW12379   3.411   3.865   0.564
 3827SOL    HW112380   3.465   3.856   0.480
 3827SOL    HW212381   3.352   3.945   0.556
 3828SOL     OW12382   4.469   2.180   1.478
 3828SOL    HW112383   4.444   2.247   1.409
 3828SOL    HW212384   4.527   2.110   1.436
 3829SOL     OW12385   2.057   4.834   4.193
 3829SOL    HW112386   2.084   4.815   4.287
 3829SOL    HW212387   1.958   4.848   4.188
 3830SOL     OW12388   0.622   0.174   4.457
 3830SOL    HW112389   0.657   0.098   4.401
 3830SOL    HW212390   0.695   0.208   4.516
 3831SOL     OW12391   4.394   1.852   2.371
 3831SOL    HW112392   4.361   1.779   2.431
 3831SOL    HW212393   4.430   1.811   2.287
 3832SOL     OW12394   6.236   0.532   2.181
 3832SOL    HW112395   6.243   0.474   2.262
 3832SOL    HW212396   6.141   0.540   2.153
 3833SOL     OW12397   0.757   5.981   6.018
 3833SOL    HW112398   0.686   5.914   5.996
 3833SOL    HW212399   0.714   6.060   6.061
 3834SOL     OW12400   3.480   2.794   0.107
 3834SOL    HW112401   3.420   2.792   0.027
 3834SOL    HW212402   3.441   2.735   0.179
 3835SOL     OW12403   3.258   4.668   5.273
 3835SOL    HW112404   3.264   4.728   5.352
 3835SOL    HW212405   3.188   4.598   5.290
 3836SOL     OW12406   2.057   3.572   5.043
 3836SOL    HW112407   2.100   3.515   5.113
 3836SOL    HW212408   2.087   3.541   4.952
 3837SOL     OW12409   4.757   3.262   6.608
 3837SOL    HW112410   4.694   3.281   6.533
 3837SOL    HW212411   4.775   3.164   6.613
 3838SOL     OW12412   6.327   4.060   4.150
 3838SOL    HW112413   6.367   4.126   4.086
 3838SOL    HW212414   6.329   3.969   4.108
 3839SOL     OW12415   4.317   6.919   4.177
 3839SOL    HW112416   4.299   6.993   4.242
 3839SOL    HW212417   4.326   6.833   4.226
 3840SOL     OW12418   1.730   1.274   5.377
 3840SOL    HW112419   1.639   1.275   5.336
 3840SOL    HW212420   1.760   1.179   5.389
 3841SOL     OW12421   0.337   3.831   5.305
 3841SOL    HW112422   0.268   3.821   5.376
 3841SOL    HW212423   0.423   3.792   5.336
 3842SOL     OW12424   1.533   5.244   0.510
 3842SOL    HW112425   1.558   5.192   0.429
 3842SOL    HW212426   1.561   5.194   0.592
 3843SOL     OW12427   6.553   3.493   1.306
 3843SOL    HW112428   6.630   3.553   1.328
 3843SOL    HW212429   6.566   3.404   1.350
 3844SOL     OW12430   6.876   4.614   5.306
 3844SOL    HW112431   6.944   4.543   5.291
 3844SOL    HW212432   6.913   4.702   5.277
 3845SOL     OW12433   3.459   2.923   2.810
 3845SOL    HW112434   3.400   2.996   2.844
 3845SOL    HW212435   3.554   2.940   2.839
 3846SOL     OW12436   0.283   4.417   4.252
 3846SOL    HW112437   0.261   4.514   4.247
 3846SOL    HW212438   0.363   4.398   4.194
 3847SOL     OW12439   6.219   1.554   6.118
 3847SOL    HW112440   6.145   1.529   6.055
 3847SOL    HW212441   6.296   1.492   6.104
 3848SOL     OW12442   2.558   5.617   2.985
 3848SOL    HW112443   2.563   5.679   2.907
 3848SOL    HW212444   2.567   5.668   3.070
 3849SOL     OW12445   0.511   1.372   5.619
 3849SOL    HW112446   0.431   1.339   5.670
 3849SOL    HW212447   0.519   1.320   5.534
 3850SOL     OW12448   2.398   3.705   1.691
 3850SOL    HW112449   2.496   3.723   1.679
 3850SOL    HW212450   2.386   3.623   1.747
 3851SOL     OW12451   1.493   4.029   2.732
 3851SOL    HW112452   1.541   4.091   2.795
 3851SOL    HW212453   1.397   4.057   2.726
 3852SOL     OW12454   4.862   6.806   4.828
 3852SOL    HW112455   4.924   6.880   4.852
 3852SOL    HW212456   4.889   6.722   4.876
 3853SOL     OW12457   1.435   3.579   2.901
 3853SOL    HW112458   1.425   3.608   2.806
 3853SOL    HW212459   1.362   3.515   2.925
 3854SOL     OW12460   0.535   3.609   3.251
 3854SOL    HW112461   0.491   3.691   3.288
 3854SOL    HW212462   0.540   3.617   3.151
 3855SOL     OW12463   5.505   5.573   6.880
 3855SOL    HW112464   5.566   5.586   6.802
 3855SOL    HW212465   5.462   5.660   6.904
 3856SOL     OW12466   0.183   6.918   4.928
 3856SOL    HW112467   0.271   6.902   4.883
 3856SOL    HW212468   0.177   7.013   4.958
 3857SOL     OW12469   1.268   6.853   4.870
 3857SOL    HW112470   1.304   6.942   4.899
 3857SOL    HW212471   1.323   6.818   4.795
 3858SOL     OW12472   1.100   5.993   6.163
 3858SOL    HW112473   1.172   5.930   6.192
 3858SOL    HW212474   1.012   5.945   6.159
 3859SOL     OW12475   6.818   1.520   3.136
 3859SOL    HW112476   6.825   1.442   3.197
 3859SOL    HW212477   6.722   1.548   3.127
 3860SOL     OW12478   2.200   6.368   4.374
 3860SOL    HW112479   2.268   6.316   4.424
 3860SOL    HW212480   2.148   6.307   4.314
 3861SOL     OW12481   5.894   4.347   1.258
 3861SOL    HW112482   5.820   4.340   1.324
 3861SOL    HW212483   5.957   4.270   1.270
 3862SOL     OW12484   6.955   0.028   5.771
 3862SOL    HW112485   6.982   0.123   5.757
 3862SOL    HW212486   6.923   7.011   5.684
 3863SOL     OW12487   3.612   4.167   0.114
 3863SOL    HW112488   3.691   4.178   0.054
 3863SOL    HW212489   3.642   4.173   0.210
 3864SOL     OW12490   4.325   2.097   6.047
 3864SOL    HW112491   4.326   2.166   6.119
 3864SOL    HW212492   4.417   2.061   6.034
 3865SOL     OW12493   3.902   0.511   1.585
 3865SOL    HW112494   3.845   0.592   1.599
 3865SOL    HW212495   3.903   0.457   1.669
 3866SOL     OW12496   4.089   0.720   0.492
 3866SOL    HW112497   4.050   0.636   0.527
 3866SOL    HW212498   4.166   0.699   0.432
 3867SOL     OW12499   2.155   3.561   3.361
 3867SOL    HW112500   2.140   3.568   3.459
 3867SOL    HW212501   2.202   3.643   3.328
 3868SOL     OW12502   2.472   5.987   1.993
 3868SOL    HW112503   2.479   5.937   1.907
 3868SOL    HW212504   2.379   6.022   2.005
 3869SOL     OW12505   0.065   2.538   3.775
 3869SOL    HW112506   0.070   2.508   3.870
 3869SOL    HW212507   0.098   2.632   3.767
 3870SOL     OW12508   3.142   5.096   6.963
 3870SOL    HW112509   3.098   5.075   0.029
 3870SOL    HW212510   3.171   5.011   6.920
 3871SOL     OW12511   3.320   0.483   2.216
 3871SOL    HW112512   3.246   0.419   2.233
 3871SOL    HW212513   3.297   0.572   2.255
 3872SOL     OW12514   4.011   3.095   1.002
 3872SOL    HW112515   4.013   3.129   0.908
 3872SOL    HW212516   3.928   3.040   1.016
 3873SOL     OW12517   5.928   5.436   1.517
 3873SOL    HW112518   5.946   5.387   1.602
 3873SOL    HW212519   5.997   5.506   1.502
 3874SOL     OW12520   4.166   6.937   0.245
 3874SOL    HW112521   4.170   0.014   0.228
 3874SOL    HW212522   4.160   6.889   0.157
 3875SOL     OW12523   1.114   3.851   2.956
 3875SOL    HW112524   1.067   3.772   2.916
 3875SOL    HW212525   1.211   3.847   2.931
 3876SOL     OW12526   4.730   5.595   6.196
 3876SOL    HW112527   4.661   5.528   6.168
 3876SOL    HW212528   4.708   5.630   6.287
 3877SOL     OW12529   6.920   1.549   1.498
 3877SOL    HW112530   6.906   1.452   1.481
 3877SOL    HW212531   6.935   1.596   1.410
 3878SOL     OW12532   2.904   6.272   5.782
 3878SOL    HW112533   2.900   6.197   5.715
 3878SOL    HW212534   2.989   6.264   5.835
 3879SOL     OW12535   4.633   5.808   0.795
 3879SOL    HW112536   4.667   5.714   0.791
 3879SOL    HW212537   4.616   5.841   0.702
 3880SOL     OW12538   5.995   4.092   2.240
 3880SOL    HW112539   6.060   4.096   2.164
 3880SOL    HW212540   6.045   4.103   2.326
 3881SOL     OW12541   1.493   5.631   0.436
 3881SOL    HW112542   1.535   5.585   0.358
 3881SOL    HW212543   1.556   5.632   0.513
 3882SOL     OW12544   6.367   1.326   6.151
 3882SOL    HW112545   6.463   1.344   6.173
 3882SOL    HW212546   6.351   1.227   6.151
 3883SOL     OW12547   4.603   1.276   4.364
 3883SOL    HW112548   4.563   1.201   4.311
 3883SOL    HW212549   4.652   1.337   4.302
 3884SOL     OW12550   1.220   6.134   4.595
 3884SOL    HW112551   1.151   6.099   4.532
 3884SOL    HW212552   1.180   6.147   4.685
 3885SOL     OW12553   6.561   1.479   4.319
 3885SOL    HW112554   6.615   1.459   4.401
 3885SOL    HW212555   6.592   1.421   4.244
 3886SOL     OW12556   6.671   0.359   5.468
 3886SOL    HW112557   6.697   0.430   5.403
 3886SOL    HW212558   6.674   0.397   5.561
 3887SOL     OW12559   4.356   1.535   5.475
 3887SOL    HW112560   4.285   1.578   5.530
 3887SOL    HW212561   4.381   1.447   5.516
 3888SOL     OW12562   6.761   1.432   0.329
 3888SOL    HW112563   6.716   1.441   0.241
 3888SOL    HW212564   6.733   1.346   0.373
 3889SOL     OW12565   0.516   5.514   6.245
 3889SOL    HW112566   0.537   5.528   6.341
 3889SOL    HW212567   0.541   5.595   6.193
 3890SOL     OW12568   5.737   6.132   3.395
 3890SOL    HW112569   5.799   6.204   3.426
 3890SOL    HW212570   5.713   6.073   3.473
 3891SOL     OW12571   5.261   5.359   4.834
 3891SOL    HW112572   5.181   5.315   4.875
 3891SOL    HW212573   5.342   5.335   4.887
 3892SOL     OW12574   0.224   6.954   2.806
 3892SOL    HW112575   0.232   0.013   2.748
 3892SOL    HW212576   0.129   6.941   2.832
 3893SOL     OW12577   3.993   5.633   3.737
 3893SOL    HW112578   4.016   5.569   3.810
 3893SOL    HW212579   3.896   5.624   3.715
 3894SOL     OW12580   3.951   2.608   0.400
 3894SOL    HW112581   3.945   2.705   0.421
 3894SOL    HW212582   3.963   2.556   0.484
 3895SOL     OW12583   1.569   1.627   5.290
 3895SOL    HW112584   1.618   1.587   5.212
 3895SOL    HW212585   1.610   1.715   5.313
 3896SOL     OW12586   0.276   1.904   6.049
 3896SOL    HW112587   0.262   1.818   6.097
 3896SOL    HW212588   0.225   1.977   6.096
 3897SOL     OW12589   2.479   6.482   2.191
 3897SOL    HW112590   2.390   6.437   2.200
 3897SOL    HW212591   2.541   6.449   2.262
 3898SOL     OW12592   3.487   3.281   4.175
 3898SOL    HW112593   3.390   3.268   4.198
 3898SOL    HW212594   3.503   3.248   4.082
 3899SOL     OW12595   4.865   1.409   5.260
 3899SOL    HW112596   4.864   1.507   5.279
 3899SOL    HW212597   4.791   1.364   5.311
 3900SOL     OW12598   6.559   2.695   3.400
 3900SOL    HW112599   6.586   2.609   3.357
 3900SOL    HW212600   6.640   2.748   3.424
 3901SOL     OW12601   0.899   6.551   4.554
 3901SOL    HW112602   0.965   6.526   4.625
 3901SOL    HW212603   0.932   6.630   4.503
 3902SOL     OW12604   5.504   4.774   1.565
 3902SOL    HW112605   5.585   4.831   1.578
 3902SOL    HW212606   5.531   4.678   1.562
 3903SOL     OW12607   4.248   2.154   0.233
 3903SOL    HW112608   4.297   2.080   0.186
 3903SOL    HW212609   4.150   2.134   0.234
 3904SOL     OW12610   0.966   0.039   0.069
 3904SOL    HW112611   0.960   0.136   0.092
 3904SOL    HW212612   0.875   0.005   0.045
 3905SOL     OW12613   6.825   6.877   6.215
 3905SOL    HW112614   6.777   6.849   6.132
 3905SOL    HW212615   6.779   6.956   6.256
 3906SOL     OW12616   1.621   4.658   4.342
 3906SOL    HW112617   1.559   4.669   4.419
 3906SOL    HW212618   1.592   4.579   4.287
 3907SOL     OW12619   6.795   0.877   4.373
 3907SOL    HW112620   6.752   0.865   4.462
 3907SOL    HW212621   6.793   0.791   4.323
 3908SOL     OW12622   1.583   0.857   5.347
 3908SOL    HW112623   1.673   0.832   5.312
 3908SOL    HW212624   1.594   0.908   5.433
 3909SOL     OW12625   5.129   2.748   5.649
 3909SOL    HW112626   5.134   2.804   5.731
 3909SOL    HW212627   5.089   2.659   5.672
 3910SOL     OW12628   3.428   3.234   1.795
 3910SOL    HW112629   3.464   3.151   1.752
 3910SOL    HW212630   3.429   3.309   1.729
 3911SOL     OW12631   5.682   0.608   1.718
 3911SOL    HW112632   5.612   0.623   1.648
 3911SOL    HW212633   5.753   0.677   1.710
 3912SOL     OW12634   3.357   2.253   6.825
 3912SOL    HW112635   3.402   2.197   6.895
 3912SOL    HW212636   3.396   2.346   6.827
 3913SOL     OW12637   4.113   6.167   0.412
 3913SOL    HW112638   4.074   6.171   0.505
 3913SOL    HW212639   4.188   6.233   0.406
 3914SOL     OW12640   5.860   1.393   0.975
 3914SOL    HW112641   5.877   1.442   1.061
 3914SOL    HW212642   5.767   1.355   0.977
 3915SOL     OW12643   4.782   5.456   0.354
 3915SOL    HW112644   4.800   5.408   0.440
 3915SOL    HW212645   4.859   5.443   0.292
 3916SOL     OW12646   2.493   0.690   3.066
 3916SOL    HW112647   2.499   0.601   3.111
 3916SOL    HW212648   2.582   0.736   3.071
 3917SOL     OW12649   2.510   5.480   1.049
 3917SOL    HW112650   2.475   5.401   1.000
 3917SOL    HW212651   2.597   5.508   1.010
 3918SOL     OW12652   5.699   0.816   0.824
 3918SOL    HW112653   5.744   0.891   0.873
 3918SOL    HW212654   5.603   0.811   0.851
 3919SOL     OW12655   4.711   1.034   1.143
 3919SOL    HW112656   4.637   1.100   1.160
 3919SOL    HW212657   4.680   0.966   1.075
 3920SOL     OW12658   3.127   1.090   6.254
 3920SOL    HW112659   3.070   1.048   6.184
 3920SOL    HW212660   3.072   1.112   6.334
 3921SOL     OW12661   0.692   2.824   6.084
 3921SOL    HW112662   0.664   2.783   6.171
 3921SOL    HW212663   0.679   2.923   6.088
 3922SOL     OW12664   4.988   4.644   1.663
 3922SOL    HW112665   4.968   4.567   1.603
 3922SOL    HW212666   4.978   4.615   1.759
 3923SOL     OW12667   5.574   1.074   1.820
 3923SOL    HW112668   5.504   1.129   1.866
 3923SOL    HW212669   5.593   0.992   1.874
 3924SOL     OW12670   0.022   4.524   4.602
 3924SOL    HW112671   0.099   4.578   4.635
 3924SOL    HW212672   6.995   4.574   4.530
 3925SOL     OW12673   4.954   3.561   0.378
 3925SOL    HW112674   4.948   3.461   0.378
 3925SOL    HW212675   5.048   3.588   0.399
 3926SOL     OW12676   1.410   0.639   6.149
 3926SOL    HW112677   1.371   0.606   6.235
 3926SOL    HW212678   1.439   0.734   6.160
 3927SOL     OW12679   0.498   2.495   5.165
 3927SOL    HW112680   0.551   2.579   5.179
 3927SOL    HW212681   0.538   2.421   5.218
 3928SOL     OW12682   1.916   6.846   3.177
 3928SOL    HW112683   1.941   6.842   3.274
 3928SOL    HW212684   1.949   6.765   3.130
 3929SOL     OW12685   0.079   1.982   5.004
 3929SOL    HW112686   0.110   1.888   4.991
 3929SOL    HW212687   0.091   2.033   4.919
 3930SOL     OW12688   1.204   3.495   3.870
 3930SOL    HW112689   1.186   3.437   3.949
 3930SOL    HW212690   1.276   3.561   3.893
 3931SOL     OW12691   1.522   2.837   1.868
 3931SOL    HW112692   1.595   2.776   1.899
 3931SOL    HW212693   1.499   2.815   1.773
 3932SOL     OW12694   1.918   6.073   4.037
 3932SOL    HW112695   1.887   6.131   3.961
 3932SOL    HW212696   1.848   6.072   4.109
 3933SOL     OW12697   2.155   5.117   0.457
 3933SOL    HW112698   2.063   5.080   0.470
 3933SOL    HW212699   2.192   5.083   0.370
 3934SOL     OW12700   0.688   1.538   2.715
 3934SOL    HW112701   0.748   1.616   2.732
 3934SOL    HW212702   0.725   1.457   2.759
 3935SOL     OW12703   6.146   3.330   6.375
 3935SOL    HW112704   6.239   3.292   6.370
 3935SOL    HW212705   6.098   3.313   6.290
 3936SOL     OW12706   6.602   5.366   5.403
 3936SOL    HW112707   6.559   5.278   5.421
 3936SOL    HW212708   6.572   5.400   5.314
 3937SOL     OW12709   0.084   6.057   2.642
 3937SOL    HW112710   0.099   6.045   2.740
 3937SOL    HW212711   0.057   5.970   2.602
 3938SOL     OW12712   6.601   3.962   3.565
 3938SOL    HW112713   6.665   3.946   3.489
 3938SOL    HW212714   6.606   3.885   3.629
 3939SOL     OW12715   0.708   1.152   2.506
 3939SOL    HW112716   0.800   1.139   2.468
 3939SOL    HW212717   0.644   1.094   2.455
 3940SOL     OW12718   3.217   4.919   1.804
 3940SOL    HW112719   3.313   4.901   1.782
 3940SOL    HW212720   3.164   4.835   1.796
 3941SOL     OW12721   5.838   6.611   4.339
 3941SOL    HW112722   5.909   6.541   4.341
 3941SOL    HW212723   5.872   6.693   4.293
 3942SOL     OW12724   1.113   6.410   6.446
 3942SOL    HW112725   1.171   6.432   6.368
 3942SOL    HW212726   1.094   6.493   6.498
 3943SOL     OW12727   1.516   3.236   1.668
 3943SOL    HW112728   1.479   3.312   1.722
 3943SOL    HW212729   1.511   3.258   1.571
 3944SOL     OW12730   6.621   2.364   6.535
 3944SOL    HW112731   6.659   2.452   6.506
 3944SOL    HW212732   6.572   2.322   6.459
 3945SOL     OW12733   0.821   1.079   2.998
 3945SOL    HW112734   0.900   1.126   3.038
 3945SOL    HW212735   0.851   1.021   2.923
 3946SOL     OW12736   0.656   2.907   0.542
 3946SOL    HW112737   0.642   2.810   0.562
 3946SOL    HW212738   0.649   2.922   0.444
 3947SOL     OW12739   5.941   5.908   1.106
 3947SOL    HW112740   5.896   5.877   1.189
 3947SOL    HW212741   5.995   5.834   1.067
 3948SOL     OW12742   1.730   2.338   5.764
 3948SOL    HW112743   1.660   2.300   5.824
 3948SOL    HW212744   1.819   2.331   5.808
 3949SOL     OW12745   6.117   6.550   2.177
 3949SOL    HW112746   6.109   6.649   2.167
 3949SOL    HW212747   6.074   6.504   2.099
 3950SOL     OW12748   3.745   4.414   1.245
 3950SOL    HW112749   3.827   4.424   1.188
 3950SOL    HW212750   3.667   4.456   1.198
 3951SOL     OW12751   0.396   1.625   5.538
 3951SOL    HW112752   0.462   1.695   5.511
 3951SOL    HW212753   0.411   1.600   5.634
 3952SOL     OW12754   6.384   2.559   5.423
 3952SOL    HW112755   6.385   2.609   5.510
 3952SOL    HW212756   6.293   2.521   5.407
 3953SOL     OW12757   3.794   4.652   6.322
 3953SOL    HW112758   3.770   4.601   6.239
 3953SOL    HW212759   3.719   4.714   6.345
 3954SOL     OW12760   0.554   3.677   5.076
 3954SOL    HW112761   0.541   3.776   5.075
 3954SOL    HW212762   0.485   3.634   5.135
 3955SOL     OW12763   5.215   5.504   6.801
 3955SOL    HW112764   5.303   5.548   6.783
 3955SOL    HW212765   5.212   5.416   6.753
 3956SOL     OW12766   0.233   2.629   6.027
 3956SOL    HW112767   0.193   2.556   6.083
 3956SOL    HW212768   0.297   2.682   6.081
 3957SOL     OW12769   2.122   6.846   4.361
 3957SOL    HW112770   2.131   6.814   4.266
 3957SOL    HW212771   2.156   6.776   4.423
 3958SOL     OW12772   6.427   6.250   6.157
 3958SOL    HW112773   6.475   6.336   6.173
 3958SOL    HW212774   6.467   6.205   6.077
 3959SOL     OW12775   3.401   4.991   6.830
 3959SOL    HW112776   3.444   4.997   6.920
 3959SOL    HW212777   3.385   5.083   6.794
 3960SOL     OW12778   3.768   3.121   0.141
 3960SOL    HW112779   3.817   3.035   0.158
 3960SOL    HW212780   3.669   3.103   0.144
 3961SOL     OW12781   4.994   1.159   1.692
 3961SOL    HW112782   4.950   1.181   1.605
 3961SOL    HW212783   5.031   1.067   1.689
 3962SOL     OW12784   0.653   6.851   6.573
 3962SOL    HW112785   0.651   6.751   6.572
 3962SOL    HW212786   0.602   6.884   6.652
 3963SOL     OW12787   5.040   5.694   4.231
 3963SOL    HW112788   4.996   5.672   4.319
 3963SOL    HW212789   4.978   5.752   4.177
 3964SOL     OW12790   5.001   5.993   5.693
 3964SOL    HW112791   5.049   5.906   5.686
 3964SOL    HW212792   4.915   5.987   5.643
 3965SOL     OW12793   3.312   4.113   6.856
 3965SOL    HW112794   3.301   4.178   6.931
 3965SOL    HW212795   3.401   4.069   6.864
 3966SOL     OW12796   6.637   4.550   5.236
 3966SOL    HW112797   6.623   4.454   5.261
 3966SOL    HW212798   6.722   4.583   5.277
 3967SOL     OW12799   0.566   6.130   5.827
 3967SOL    HW112800   0.584   6.229   5.833
 3967SOL    HW212801   0.634   6.087   5.767
 3968SOL     OW12802   5.216   0.913   2.736
 3968SOL    HW112803   5.231   0.837   2.799
 3968SOL    HW212804   5.123   0.948   2.747
 3969SOL     OW12805   0.866   4.991   2.854
 3969SOL    HW112806   0.827   5.083   2.861
 3969SOL    HW212807   0.855   4.944   2.942
 3970SOL     OW12808   4.642   4.809   3.357
 3970SOL    HW112809   4.569   4.748   3.389
 3970SOL    HW212810   4.710   4.756   3.307
 3971SOL     OW12811   2.142   5.984   3.423
 3971SOL    HW112812   2.087   6.055   3.380
 3971SOL    HW212813   2.196   6.023   3.497
 3972SOL     OW12814   0.277   6.597   0.762
 3972SOL    HW112815   0.315   6.688   0.779
 3972SOL    HW212816   0.200   6.581   0.824
 3973SOL     OW12817   3.325   4.166   4.152
 3973SOL    HW112818   3.389   4.090   4.139
 3973SOL    HW212819   3.278   4.185   4.066
 3974SOL     OW12820   6.595   0.968   6.273
 3974SOL    HW112821   6.563   0.995   6.182
 3974SOL    HW212822   6.584   0.870   6.284
 3975SOL     OW12823   6.465   1.784   6.313
 3975SOL    HW112824   6.501   1.859   6.368
 3975SOL    HW212825   6.365   1.784   6.317
 3976SOL     OW12826   1.560   4.060   0.806
 3976SOL    HW112827   1.568   3.974   0.857
 3976SOL    HW212828   1.649   4.106   0.804
 3977SOL     OW12829   2.758   6.106   6.434
 3977SOL    HW112830   2.854   6.117   6.407
 3977SOL    HW212831   2.752   6.108   6.534
 3978SOL     OW12832   6.060   1.986   5.626
 3978SOL    HW112833   6.133   1.992   5.558
 3978SOL    HW212834   6.038   2.078   5.659
 3979SOL     OW12835   0.983   0.135   2.212
 3979SOL    HW112836   1.065   0.086   2.241
 3979SOL    HW212837   0.903   0.076   2.223
 3980SOL     OW12838   5.007   3.045   4.429
 3980SOL    HW112839   4.971   3.138   4.417
 3980SOL    HW212840   4.939   2.990   4.477
 3981SOL     OW12841   6.615   2.103   0.748
 3981SOL    HW112842   6.611   2.102   0.648
 3981SOL    HW212843   6.669   2.181   0.779
 3982SOL     OW12844   2.723   2.092   3.980
 3982SOL    HW112845   2.795   2.068   3.915
 3982SOL    HW212846   2.719   2.025   4.053
 3983SOL     OW12847   3.071   6.733   3.999
 3983SOL    HW112848   3.058   6.832   3.993
 3983SOL    HW212849   3.149   6.713   4.059
 3984SOL     OW12850   1.408   6.571   1.953
 3984SOL    HW112851   1.441   6.662   1.926
 3984SOL    HW212852   1.485   6.515   1.982
 3985SOL     OW12853   2.082   3.633   0.287
 3985SOL    HW112854   2.071   3.672   0.196
 3985SOL    HW212855   2.136   3.549   0.281
 3986SOL     OW12856   6.843   2.076   1.539
 3986SOL    HW112857   6.867   2.124   1.454
 3986SOL    HW212858   6.926   2.043   1.583
 3987SOL     OW12859   1.973   5.090   6.220
 3987SOL    HW112860   1.964   5.072   6.122
 3987SOL    HW212861   1.904   5.157   6.248
 3988SOL     OW12862   4.142   2.656   0.219
 3988SOL    HW112863   4.091   2.716   0.157
 3988SOL    HW212864   4.086   2.635   0.299
 3989SOL     OW12865   5.937   6.856   7.002
 3989SOL    HW112866   6.000   6.840   6.926
 3989SOL    HW212867   5.893   6.945   6.990
 3990SOL     OW12868   0.715   3.008   4.260
 3990SOL    HW112869   0.751   3.083   4.204
 3990SOL    HW212870   0.685   2.934   4.200
 3991SOL     OW12871   0.823   2.290   3.603
 3991SOL    HW112872   0.738   2.248   3.635
 3991SOL    HW212873   0.882   2.310   3.681
 3992SOL     OW12874   4.201   3.544   6.541
 3992SOL    HW112875   4.261   3.612   6.499
 3992SOL    HW212876   4.169   3.579   6.629
 3993SOL     OW12877   3.174   2.166   2.850
 3993SOL    HW112878   3.268   2.135   2.861
 3993SOL    HW212879   3.145   2.154   2.755
 3994SOL     OW12880   2.377   2.724   3.971
 3994SOL    HW112881   2.424   2.788   4.031
 3994SOL    HW212882   2.325   2.659   4.026
 3995SOL     OW12883   2.397   4.340   3.576
 3995SOL    HW112884   2.475   4.322   3.517
 3995SOL    HW212885   2.349   4.254   3.596
 3996SOL     OW12886   0.908   0.665   3.902
 3996SOL    HW112887   0.889   0.721   3.821
 3996SOL    HW212888   0.834   0.677   3.968
 3997SOL     OW12889   4.949   3.868   3.030
 3997SOL    HW112890   4.888   3.796   2.996
 3997SOL    HW212891   5.039   3.858   2.988
 3998SOL     OW12892   6.614   2.015   2.869
 3998SOL    HW112893   6.667   2.090   2.909
 3998SOL    HW212894   6.667   1.972   2.795
 3999SOL     OW12895   5.937   3.892   2.512
 3999SOL    HW112896   5.994   3.931   2.584
 3999SOL    HW212897   5.851   3.941   2.507
 4000SOL     OW12898   2.673   5.465   2.715
 4000SOL    HW112899   2.657   5.371   2.745
 4000SOL    HW212900   2.764   5.494   2.746
 4001SOL     OW12901   2.839   3.894   5.562
 4001SOL    HW112902   2.805   3.803   5.586
 4001SOL    HW212903   2.768   3.962   5.584
 4002SOL     OW12904   3.787   3.560   4.879
 4002SOL    HW112905   3.738   3.546   4.793
 4002SOL    HW212906   3.885   3.544   4.864
 4003SOL     OW12907   2.984   1.359   6.231
 4003SOL    HW112908   3.071   1.369   6.183
 4003SOL    HW212909   2.992   1.286   6.300
 4004SOL     OW12910   6.697   3.453   3.027
 4004SOL    HW112911   6.760   3.380   3.049
 4004SOL    HW212912   6.655   3.488   3.111
 4005SOL     OW12913   4.251   3.628   0.624
 4005SOL    HW112914   4.340   3.638   0.667
 4005SOL    HW212915   4.198   3.712   0.636
 4006SOL     OW12916   5.228   5.432   2.233
 4006SOL    HW112917   5.131   5.419   2.212
 4006SOL    HW212918   5.253   5.374   2.311
 4007SOL     OW12919   0.889   2.060   2.990
 4007SOL    HW112920   0.871   2.157   2.971
 4007SOL    HW212921   0.863   2.039   3.084
 4008SOL     OW12922   2.903   0.267   0.154
 4008SOL    HW112923   2.923   0.169   0.148
 4008SOL    HW212924   2.947   0.305   0.236
 4009SOL     OW12925   4.866   1.566   1.230
 4009SOL    HW112926   4.868   1.466   1.240
 4009SOL    HW212927   4.784   1.602   1.275
 4010SOL     OW12928   3.829   4.839   1.054
 4010SOL    HW112929   3.804   4.855   0.959
 4010SOL    HW212930   3.918   4.792   1.057
 4011SOL     OW12931   6.742   5.990   0.831
 4011SOL    HW112932   6.819   6.025   0.777
 4011SOL    HW212933   6.752   5.891   0.841
 4012SOL     OW12934   4.453   6.917   2.143
 4012SOL    HW112935   4.524   6.962   2.196
 4012SOL    HW212936   4.493   6.875   2.062
 4013SOL     OW12937   1.504   0.327   0.542
 4013SOL    HW112938   1.419   0.275   0.535
 4013SOL    HW212939   1.548   0.307   0.629
 4014SOL     OW12940   3.454   6.067   3.717
 4014SOL    HW112941   3.440   6.121   3.634
 4014SOL    HW212942   3.368   6.061   3.767
 4015SOL     OW12943   4.444   4.969   6.092
 4015SOL    HW112944   4.450   4.966   5.993
 4015SOL    HW212945   4.409   4.882   6.127
 4016SOL     OW12946   3.061   5.191   0.191
 4016SOL    HW112947   3.073   5.269   0.253
 4016SOL    HW212948   3.067   5.106   0.244
 4017SOL     OW12949   0.136   5.066   5.304
 4017SOL    HW112950   0.083   5.091   5.223
 4017SOL    HW212951   0.221   5.120   5.307
 4018SOL     OW12952   4.341   6.507   2.112
 4018SOL    HW112953   4.434   6.529   2.143
 4018SOL    HW212954   4.304   6.432   2.167
 4019SOL     OW12955   5.125   3.273   2.008
 4019SOL    HW112956   5.083   3.197   1.959
 4019SOL    HW212957   5.201   3.310   1.954
 4020SOL     OW12958   6.728   3.846   4.944
 4020SOL    HW112959   6.733   3.913   4.870
 4020SOL    HW212960   6.785   3.767   4.921
 4021SOL     OW12961   3.295   3.677   5.538
 4021SOL    HW112962   3.327   3.663   5.444
 4021SOL    HW212963   3.233   3.602   5.563
 4022SOL     OW12964   3.895   6.783   0.573
 4022SOL    HW112965   3.830   6.857   0.552
 4022SOL    HW212966   3.988   6.817   0.561
 4023SOL     OW12967   0.053   1.196   5.449
 4023SOL    HW112968   0.146   1.173   5.421
 4023SOL    HW212969   7.013   1.189   5.370
 4024SOL     OW12970   1.534   5.167   4.471
 4024SOL    HW112971   1.569   5.261   4.469
 4024SOL    HW212972   1.511   5.142   4.566
 4025SOL     OW12973   0.942   6.025   4.369
 4025SOL    HW112974   0.936   6.101   4.434
 4025SOL    HW212975   0.933   6.060   4.276
 4026SOL     OW12976   6.072   6.397   5.031
 4026SOL    HW112977   5.975   6.373   5.043
 4026SOL    HW212978   6.099   6.463   5.101
 4027SOL     OW12979   2.619   1.754   6.678
 4027SOL    HW112980   2.645   1.707   6.762
 4027SOL    HW212981   2.520   1.766   6.676
 4028SOL     OW12982   4.484   1.229   3.563
 4028SOL    HW112983   4.566   1.268   3.521
 4028SOL    HW212984   4.434   1.176   3.494
 4029SOL     OW12985   2.680   4.111   5.970
 4029SOL    HW112986   2.754   4.089   5.906
 4029SOL    HW212987   2.661   4.209   5.967
 4030SOL     OW12988   6.939   0.948   1.518
 4030SOL    HW112989   6.903   1.008   1.590
 4030SOL    HW212990   6.863   0.902   1.472
 4031SOL     OW12991   5.288   6.745   3.180
 4031SOL    HW112992   5.342   6.796   3.247
 4031SOL    HW212993   5.346   6.716   3.104
 4032SOL     OW12994   0.090   0.212   2.661
 4032SOL    HW112995   0.111   0.214   2.759
 4032SOL    HW212996   7.022   0.252   2.646
 4033SOL     OW12997   2.184   2.015   2.511
 4033SOL    HW112998   2.252   2.037   2.581
 4033SOL    HW212999   2.125   1.942   2.544
 4034SOL     OW13000   6.290   2.078   5.499
 4034SOL    HW113001   6.264   2.122   5.412
 4034SOL    HW213002   6.373   2.120   5.534
 4035SOL     OW13003   6.521   1.346   1.592
 4035SOL    HW113004   6.541   1.339   1.690
 4035SOL    HW213005   6.427   1.378   1.580
 4036SOL     OW13006   4.127   4.920   2.180
 4036SOL    HW113007   4.065   4.940   2.256
 4036SOL    HW213008   4.201   4.987   2.178
 4037SOL     OW13009   2.237   1.615   6.107
 4037SOL    HW113010   2.315   1.651   6.158
 4037SOL    HW213011   2.268   1.582   6.018
 4038SOL     OW13012   4.877   2.885   0.108
 4038SOL    HW113013   4.816   2.901   0.186
 4038SOL    HW213014   4.911   2.791   0.113
 4039SOL     OW13015   4.596   5.619   1.617
 4039SOL    HW113016   4.497   5.608   1.621
 4039SOL    HW213017   4.624   5.692   1.680
 4040SOL     OW13018   2.796   6.188   4.641
 4040SOL    HW113019   2.726   6.223   4.579
 4040SOL    HW213020   2.856   6.126   4.591
 4041SOL     OW13021   2.084   6.336   1.187
 4041SOL    HW113022   2.124   6.402   1.123
 4041SOL    HW213023   2.145   6.326   1.266
 4042SOL     OW13024   5.719   6.412   3.801
 4042SOL    HW113025   5.739   6.370   3.889
 4042SOL    HW213026   5.734   6.511   3.807
 4043SOL     OW13027   6.995   2.155   6.529
 4043SOL    HW113028   6.979   2.072   6.582
 4043SOL    HW213029   6.952   2.233   6.575
 4044SOL     OW13030   5.406   5.619   2.942
 4044SOL    HW113031   5.474   5.567   2.890
 4044SOL    HW213032   5.392   5.577   3.031
 4045SOL     OW13033   3.892   6.264   5.671
 4045SOL    HW113034   3.849   6.351   5.649
 4045SOL    HW213035   3.822   6.192   5.675
 4046SOL     OW13036   0.892   2.109   2.499
 4046SOL    HW113037   0.858   2.167   2.572
 4046SOL    HW213038   0.886   2.158   2.412
 4047SOL     OW13039   2.359   2.543   6.729
 4047SOL    HW113040   2.263   2.529   6.750
 4047SOL    HW213041   2.412   2.465   6.762
 4048SOL     OW13042   5.419   1.240   1.985
 4048SOL    HW113043   5.346   1.310   1.985
 4048SOL    HW213044   5.463   1.238   2.075
 4049SOL     OW13045   4.721   5.751   6.407
 4049SOL    HW113046   4.818   5.770   6.423
 4049SOL    HW213047   4.669   5.775   6.488
 4050SOL     OW13048   0.706   6.144   1.634
 4050SOL    HW113049   0.663   6.220   1.586
 4050SOL    HW213050   0.748   6.177   1.718
 4051SOL     OW13051   4.578   1.378   6.316
 4051SOL    HW113052   4.613   1.380   6.223
 4051SOL    HW213053   4.489   1.332   6.317
 4052SOL     OW13054   5.649   2.297   3.145
 4052SOL    HW113055   5.622   2.343   3.061
 4052SOL    HW213056   5.739   2.254   3.131
 4053SOL     OW13057   2.375   6.224   4.566
 4053SOL    HW113058   2.306   6.279   4.613
 4053SOL    HW213059   2.464   6.268   4.574
 4054SOL     OW13060   5.319   3.866   0.812
 4054SOL    HW113061   5.262   3.789   0.843
 4054SOL    HW213062   5.378   3.836   0.738
 4055SOL     OW13063   2.561   4.596   1.064
 4055SOL    HW113064   2.601   4.622   1.152
 4055SOL    HW213065   2.493   4.665   1.037
 4056SOL     OW13066   5.595   3.447   1.195
 4056SOL    HW113067   5.603   3.425   1.097
 4056SOL    HW213068   5.498   3.446   1.221
 4057SOL     OW13069   0.255   3.002   0.069
 4057SOL    HW113070   0.225   2.942   7.016
 4057SOL    HW213071   0.274   2.946   0.150
 4058SOL     OW13072   3.174   6.491   4.824
 4058SOL    HW113073   3.106   6.552   4.785
 4058SOL    HW213074   3.192   6.517   4.919
 4059SOL     OW13075   6.830   1.955   3.032
 4059SOL    HW113076   6.743   1.935   2.988
 4059SOL    HW213077   6.847   1.888   3.105
 4060SOL     OW13078   5.572   4.708   5.712
 4060SOL    HW113079   5.554   4.730   5.616
 4060SOL    HW213080   5.545   4.784   5.770
 4061SOL     OW13081   2.651   4.818   2.506
 4061SOL    HW113082   2.669   4.783   2.414
 4061SOL    HW213083   2.552   4.817   2.523
 4062SOL     OW13084   2.285   0.292   2.291
 4062SOL    HW113085   2.304   0.266   2.386
 4062SOL    HW213086   2.301   0.390   2.281
 4063SOL     OW13087   6.048   0.119   0.666
 4063SOL    HW113088   6.035   0.023   0.645
 4063SOL    HW213089   6.088   0.166   0.587
 4064SOL     OW13090   2.810   1.722   4.384
 4064SOL    HW113091   2.732   1.763   4.433
 4064SOL    HW213092   2.895   1.758   4.422
 4065SOL     OW13093   0.960   6.857   1.600
 4065SOL    HW113094   0.996   6.779   1.548
 4065SOL    HW213095   0.874   6.887   1.560
 4066SOL     OW13096   6.636   4.430   2.783
 4066SOL    HW113097   6.571   4.358   2.810
 4066SOL    HW213098   6.696   4.450   2.860
 4067SOL     OW13099   5.746   4.073   3.149
 4067SOL    HW113100   5.689   4.153   3.166
 4067SOL    HW213101   5.691   3.990   3.157
 4068SOL     OW13102   2.062   2.051   4.363
 4068SOL    HW113103   2.008   2.098   4.292
 4068SOL    HW213104   2.127   2.116   4.403
 4069SOL     OW13105   4.011   5.213   6.835
 4069SOL    HW113106   4.044   5.123   6.809
 4069SOL    HW213107   4.085   5.280   6.825
 4070SOL     OW13108   0.456   2.746   2.710
 4070SOL    HW113109   0.427   2.837   2.680
 4070SOL    HW213110   0.539   2.755   2.764
 4071SOL     OW13111   1.233   1.361   4.796
 4071SOL    HW113112   1.231   1.426   4.720
 4071SOL    HW213113   1.142   1.322   4.807
 4072SOL     OW13114   0.726   5.648   4.659
 4072SOL    HW113115   0.707   5.650   4.561
 4072SOL    HW213116   0.721   5.741   4.696
 4073SOL     OW13117   2.557   5.972   6.314
 4073SOL    HW113118   2.598   5.931   6.233
 4073SOL    HW213119   2.625   6.028   6.362
 4074SOL     OW13120   0.539   4.729   1.482
 4074SOL    HW113121   0.595   4.779   1.548
 4074SOL    HW213122   0.553   4.769   1.391
 4075SOL     OW13123   4.905   1.905   1.160
 4075SOL    HW113124   4.881   1.870   1.251
 4075SOL    HW213125   4.936   2.000   1.168
 4076SOL     OW13126   2.132   3.343   6.590
 4076SOL    HW113127   2.109   3.370   6.497
 4076SOL    HW213128   2.129   3.423   6.650
 4077SOL     OW13129   4.026   2.014   0.260
 4077SOL    HW113130   3.988   1.971   0.178
 4077SOL    HW213131   3.961   2.004   0.336
 4078SOL     OW13132   2.200   5.347   2.285
 4078SOL    HW113133   2.146   5.268   2.255
 4078SOL    HW213134   2.236   5.394   2.205
 4079SOL     OW13135   2.117   1.068   3.224
 4079SOL    HW113136   2.041   1.133   3.235
 4079SOL    HW213137   2.135   1.054   3.127
 4080SOL     OW13138   4.867   2.657   6.329
 4080SOL    HW113139   4.913   2.684   6.244
 4080SOL    HW213140   4.921   2.685   6.408
 4081SOL     OW13141   1.419   3.020   3.735
 4081SOL    HW113142   1.504   2.984   3.697
 4081SOL    HW213143   1.436   3.110   3.775
 4082SOL     OW13144   1.021   4.416   0.628
 4082SOL    HW113145   0.958   4.352   0.584
 4082SOL    HW213146   1.114   4.379   0.626
 4083SOL     OW13147   6.654   3.397   2.585
 4083SOL    HW113148   6.561   3.409   2.621
 4083SOL    HW213149   6.672   3.467   2.517
 4084SOL     OW13150   5.928   2.299   3.880
 4084SOL    HW113151   5.956   2.273   3.788
 4084SOL    HW213152   5.982   2.247   3.947
 4085SOL     OW13153   3.433   5.438   1.256
 4085SOL    HW113154   3.465   5.482   1.340
 4085SOL    HW213155   3.462   5.493   1.177
 4086SOL     OW13156   2.011   5.614   1.713
 4086SOL    HW113157   2.111   5.610   1.701
 4086SOL    HW213158   1.975   5.521   1.720
 4087SOL     OW13159   3.011   2.076   3.360
 4087SOL    HW113160   3.016   2.129   3.275
 4087SOL    HW213161   2.922   2.032   3.366
 4088SOL     OW13162   0.551   1.959   0.817
 4088SOL    HW113163   0.452   1.965   0.805
 4088SOL    HW213164   0.586   2.046   0.853
 4089SOL     OW13165   6.066   6.380   3.747
 4089SOL    HW113166   6.037   6.441   3.820
 4089SOL    HW213167   6.129   6.428   3.686
 4090SOL     OW13168   1.569   4.157   6.074
 4090SOL    HW113169   1.498   4.110   6.126
 4090SOL    HW213170   1.575   4.252   6.102
 4091SOL     OW13171   6.648   6.292   0.432
 4091SOL    HW113172   6.584   6.285   0.356
 4091SOL    HW213173   6.608   6.250   0.514
 4092SOL     OW13174   6.683   2.922   5.030
 4092SOL    HW113175   6.776   2.906   5.063
 4092SOL    HW213176   6.619   2.919   5.107
 4093SOL     OW13177   4.537   0.435   3.155
 4093SOL    HW113178   4.467   0.395   3.214
 4093SOL    HW213179   4.628   0.415   3.193
 4094SOL     OW13180   2.167   5.782   4.641
 4094SOL    HW113181   2.067   5.779   4.633
 4094SOL    HW213182   2.207   5.747   4.556
 4095SOL     OW13183   0.750   3.658   0.137
 4095SOL    HW113184   0.746   3.566   0.097
 4095SOL    HW213185   0.747   3.726   0.064
 4096SOL     OW13186   4.530   5.541   0.594
 4096SOL    HW113187   4.610   5.555   0.652
 4096SOL    HW213188   4.529   5.609   0.521
 4097SOL     OW13189   3.729   4.204   6.146
 4097SOL    HW113190   3.720   4.303   6.139
 4097SOL    HW213191   3.676   4.161   6.073
 4098SOL     OW13192   0.866   3.291   1.520
 4098SOL    HW113193   0.932   3.253   1.585
 4098SOL    HW213194   0.794   3.224   1.503
 4099SOL     OW13195   2.852   4.813   1.081
 4099SOL    HW113196   2.906   4.731   1.061
 4099SOL    HW213197   2.825   4.812   1.177
 4100SOL     OW13198   6.509   5.517   5.193
 4100SOL    HW113199   6.425   5.539   5.243
 4100SOL    HW213200   6.532   5.593   5.132
 4101SOL     OW13201   6.032   1.036   0.433
 4101SOL    HW113202   6.065   1.082   0.515
 4101SOL    HW213203   5.974   0.959   0.459
 4102SOL     OW13204   6.503   0.592   0.663
 4102SOL    HW113205   6.488   0.528   0.738
 4102SOL    HW213206   6.535   0.542   0.583
 4103SOL     OW13207   0.490   0.862   0.508
 4103SOL    HW113208   0.545   0.790   0.465
 4103SOL    HW213209   0.401   0.824   0.534
 4104SOL     OW13210   0.894   5.079   2.537
 4104SOL    HW113211   0.969   5.139   2.510
 4104SOL    HW213212   0.860   5.107   2.627
 4105SOL     OW13213   3.833   5.953   1.467
 4105SOL    HW113214   3.925   5.944   1.505
 4105SOL    HW213215   3.837   5.998   1.378
 4106SOL     OW13216   6.673   1.874   4.418
 4106SOL    HW113217   6.696   1.809   4.346
 4106SOL    HW213218   6.755   1.925   4.444
 4107SOL     OW13219   1.610   6.287   1.139
 4107SOL    HW113220   1.557   6.202   1.135
 4107SOL    HW213221   1.707   6.265   1.145
 4108SOL     OW13222   0.092   4.268   5.896
 4108SOL    HW113223   0.044   4.312   5.972
 4108SOL    HW213224   0.182   4.311   5.885
 4109SOL     OW13225   4.498   6.351   5.013
 4109SOL    HW113226   4.587   6.319   5.044
 4109SOL    HW213227   4.497   6.357   4.913
 4110SOL     OW13228   4.146   2.570   6.631
 4110SOL    HW113229   4.161   2.511   6.552
 4110SOL    HW213230   4.075   2.638   6.609
 4111SOL     OW13231   3.620   3.271   6.616
 4111SOL    HW113232   3.672   3.261   6.701
 4111SOL    HW213233   3.684   3.277   6.539
 4112SOL     OW13234   4.770   0.333   5.328
 4112SOL    HW113235   4.733   0.329   5.235
 4112SOL    HW213236   4.770   0.427   5.360
 4113SOL     OW13237   4.828   6.433   4.418
 4113SOL    HW113238   4.777   6.363   4.368
 4113SOL    HW213239   4.780   6.455   4.503
 4114SOL     OW13240   3.442   2.077   4.467
 4114SOL    HW113241   3.541   2.065   4.474
 4114SOL    HW213242   3.411   2.057   4.374
 4115SOL     OW13243   4.017   5.680   2.276
 4115SOL    HW113244   4.074   5.687   2.195
 4115SOL    HW213245   3.936   5.624   2.256
 4116SOL     OW13246   3.760   2.133   1.683
 4116SOL    HW113247   3.725   2.213   1.731
 4116SOL    HW213248   3.849   2.107   1.722
 4117SOL     OW13249   0.736   5.268   2.125
 4117SOL    HW113250   0.644   5.288   2.160
 4117SOL    HW213251   0.754   5.170   2.133
 4118SOL     OW13252   2.692   6.546   0.230
 4118SOL    HW113253   2.695   6.633   0.280
 4118SOL    HW213254   2.771   6.540   0.170
 4119SOL     OW13255   3.969   2.216   3.864
 4119SOL    HW113256   3.938   2.148   3.798
 4119SOL    HW213257   4.036   2.277   3.820
 4120SOL     OW13258   4.414   0.444   0.528
 4120SOL    HW113259   4.511   0.463   0.548
 4120SOL    HW213260   4.387   0.359   0.572
 4121SOL     OW13261   5.753   1.407   5.162
 4121SOL    HW113262   5.699   1.390   5.080
 4121SOL    HW213263   5.847   1.376   5.147
 4122SOL     OW13264   1.026   5.737   5.380
 4122SOL    HW113265   0.965   5.797   5.328
 4122SOL    HW213266   1.013   5.643   5.350
 4123SOL     OW13267   4.437   4.661   5.816
 4123SOL    HW113268   4.441   4.760   5.801
 4123SOL    HW213269   4.370   4.640   5.887
 4124SOL     OW13270   6.296   5.273   6.329
 4124SOL    HW113271   6.369   5.337   6.307
 4124SOL    HW213272   6.330   5.205   6.395
 4125SOL     OW13273   4.672   1.547   2.315
 4125SOL    HW113274   4.767   1.550   2.346
 4125SOL    HW213275   4.662   1.607   2.235
 4126SOL     OW13276   1.167   3.733   3.718
 4126SOL    HW113277   1.211   3.646   3.740
 4126SOL    HW213278   1.148   3.736   3.620
 4127SOL     OW13279   4.673   4.414   4.725
 4127SOL    HW113280   4.599   4.476   4.752
 4127SOL    HW213281   4.701   4.435   4.631
 4128SOL     OW13282   1.424   3.607   1.952
 4128SOL    HW113283   1.351   3.617   2.020
 4128SOL    HW213284   1.450   3.511   1.945
 4129SOL     OW13285   4.921   1.299   6.866
 4129SOL    HW113286   4.962   1.213   6.836
 4129SOL    HW213287   4.984   1.374   6.847
 4130SOL     OW13288   6.971   2.752   5.666
 4130SOL    HW113289   6.989   2.833   5.723
 4130SOL    HW213290   6.965   2.779   5.570
 4131SOL     OW13291   1.334   6.057   3.948
 4131SOL    HW113292   1.256   6.018   3.996
 4131SOL    HW213293   1.324   6.041   3.849
 4132SOL     OW13294   5.010   4.300   3.640
 4132SOL    HW113295   4.916   4.267   3.633
 4132SOL    HW213296   5.011   4.400   3.636
 4133SOL     OW13297   2.884   0.021   1.665
 4133SOL    HW113298   2.878   0.066   1.754
 4133SOL    HW213299   2.830   6.958   1.666
 4134SOL     OW13300   2.032   2.541   0.211
 4134SOL    HW113301   2.002   2.635   0.231
 4134SOL    HW213302   2.030   2.488   0.296
 4135SOL     OW13303   2.100   1.146   2.503
 4135SOL    HW113304   2.184   1.191   2.472
 4135SOL    HW213305   2.103   1.135   2.602
 4136SOL     OW13306   1.726   1.908   2.690
 4136SOL    HW113307   1.719   1.812   2.666
 4136SOL    HW213308   1.780   1.918   2.774
 4137SOL     OW13309   1.437   4.475   1.213
 4137SOL    HW113310   1.426   4.380   1.243
 4137SOL    HW213311   1.475   4.477   1.121
 4138SOL     OW13312   3.695   5.286   3.092
 4138SOL    HW113313   3.654   5.195   3.103
 4138SOL    HW213314   3.791   5.282   3.120
 4139SOL     OW13315   2.446   2.656   4.555
 4139SOL    HW113316   2.462   2.629   4.650
 4139SOL    HW213317   2.484   2.587   4.494
 4140SOL     OW13318   3.040   0.835   5.149
 4140SOL    HW113319   3.099   0.808   5.073
 4140SOL    HW213320   2.970   0.898   5.115
 4141SOL     OW13321   5.254   6.754   1.807
 4141SOL    HW113322   5.280   6.657   1.804
 4141SOL    HW213323   5.166   6.762   1.855
 4142SOL     OW13324   6.462   5.707   0.733
 4142SOL    HW113325   6.530   5.734   0.801
 4142SOL    HW213326   6.417   5.788   0.696
 4143SOL     OW13327   0.528   2.742   0.137
 4143SOL    HW113328   0.434   2.734   0.101
 4143SOL    HW213329   0.576   2.656   0.120
 4144SOL     OW13330   4.959   3.342   6.444
 4144SOL    HW113331   4.866   3.337   6.480
 4144SOL    HW213332   5.000   3.251   6.442
 4145SOL     OW13333   6.762   5.733   1.666
 4145SOL    HW113334   6.704   5.666   1.621
 4145SOL    HW213335   6.707   5.812   1.695
 4146SOL     OW13336   0.289   1.047   5.531
 4146SOL    HW113337   0.261   0.957   5.497
 4146SOL    HW213338   0.306   1.041   5.629
 4147SOL     OW13339   4.458   2.406   5.647
 4147SOL    HW113340   4.452   2.388   5.549
 4147SOL    HW213341   4.547   2.448   5.668
 4148SOL     OW13342   1.058   0.010   4.148
 4148SOL    HW113343   1.060   0.063   4.233
 4148SOL    HW213344   1.064   0.073   4.070
 4149SOL     OW13345   0.354   2.470   0.537
 4149SOL    HW113346   0.358   2.412   0.619
 4149SOL    HW213347   0.308   2.556   0.559
 4150SOL     OW13348   0.164   0.835   5.417
 4150SOL    HW113349   0.080   0.821   5.364
 4150SOL    HW213350   0.241   0.791   5.369
 4151SOL     OW13351   4.210   6.584   6.058
 4151SOL    HW113352   4.264   6.545   5.984
 4151SOL    HW213353   4.254   6.564   6.146
 4152SOL     OW13354   2.994   6.325   0.791
 4152SOL    HW113355   3.035   6.270   0.717
 4152SOL    HW213356   3.044   6.411   0.800
 4153SOL     OW13357   4.383   4.942   6.888
 4153SOL    HW113358   4.472   4.922   6.846
 4153SOL    HW213359   4.398   4.980   6.979
 4154SOL     OW13360   0.298   4.435   4.802
 4154SOL    HW113361   0.307   4.344   4.761
 4154SOL    HW213362   0.371   4.449   4.869
 4155SOL     OW13363   6.355   2.163   3.155
 4155SOL    HW113364   6.381   2.085   3.212
 4155SOL    HW213365   6.296   2.130   3.080
 4156SOL     OW13366   5.298   6.486   4.684
 4156SOL    HW113367   5.335   6.551   4.617
 4156SOL    HW213368   5.219   6.439   4.644
 4157SOL     OW13369   4.280   6.504   3.894
 4157SOL    HW113370   4.279   6.579   3.828
 4157SOL    HW213371   4.279   6.541   3.987
 4158SOL     OW13372   1.741   5.481   4.287
 4158SOL    HW113373   1.650   5.449   4.311
 4158SOL    HW213374   1.764   5.561   4.344
 4159SOL     OW13375   1.927   2.957   3.760
 4159SOL    HW113376   1.991   3.012   3.707
 4159SOL    HW213377   1.871   3.016   3.817
 4160SOL     OW13378   6.996   0.806   0.928
 4160SOL    HW113379   0.008   0.716   0.953
 4160SOL    HW213380   7.012   0.870   1.004
 4161SOL     OW13381   1.755   6.996   6.056
 4161SOL    HW113382   1.676   6.998   6.116
 4161SOL    HW213383   1.796   0.066   6.051
 4162SOL     OW13384   6.034   6.568   5.460
 4162SOL    HW113385   6.067   6.489   5.511
 4162SOL    HW213386   5.956   6.609   5.508
 4163SOL     OW13387   6.054   0.088   3.361
 4163SOL    HW113388   6.104   0.164   3.319
 4163SOL    HW213389   6.057   0.008   3.300
 4164SOL     OW13390   1.136   6.649   6.018
 4164SOL    HW113391   1.105   6.563   6.057
 4164SOL    HW213392   1.182   6.703   6.089
 4165SOL     OW13393   4.468   0.330   0.107
 4165SOL    HW113394   4.533   0.402   0.128
 4165SOL    HW213395   4.428   0.347   0.017
 4166SOL     OW13396   5.946   3.454   1.163
 4166SOL    HW113397   5.872   3.511   1.199
 4166SOL    HW213398   6.007   3.428   1.238
 4167SOL     OW13399   1.706   4.235   0.512
 4167SOL    HW113400   1.772   4.229   0.587
 4167SOL    HW213401   1.728   4.313   0.454
 4168SOL     OW13402   0.210   5.302   1.173
 4168SOL    HW113403   0.241   5.238   1.103
 4168SOL    HW213404   0.169   5.382   1.129
 4169SOL     OW13405   5.622   3.567   3.257
 4169SOL    HW113406   5.643   3.664   3.240
 4169SOL    HW213407   5.524   3.557   3.272
 4170SOL     OW13408   2.864   3.230   5.203
 4170SOL    HW113409   2.928   3.181   5.144
 4170SOL    HW213410   2.774   3.185   5.201
 4171SOL     OW13411   5.557   4.507   1.528
 4171SOL    HW113412   5.461   4.489   1.508
 4171SOL    HW213413   5.615   4.452   1.469
 4172SOL     OW13414   0.275   1.863   6.367
 4172SOL    HW113415   0.236   1.943   6.322
 4172SOL    HW213416   0.201   1.799   6.390
 4173SOL     OW13417   5.812   3.421   5.016
 4173SOL    HW113418   5.757   3.482   4.959
 4173SOL    HW213419   5.752   3.362   5.070
 4174SOL     OW13420   5.166   0.548   4.458
 4174SOL    HW113421   5.239   0.525   4.394
 4174SOL    HW213422   5.089   0.589   4.409
 4175SOL     OW13423   2.888   5.807   4.427
 4175SOL    HW113424   2.917   5.887   4.479
 4175SOL    HW213425   2.958   5.783   4.360
 4176SOL     OW13426   2.781   6.574   2.104
 4176SOL    HW113427   2.747   6.490   2.061
 4176SOL    HW213428   2.803   6.555   2.200
 4177SOL     OW13429   6.878   4.456   4.800
 4177SOL    HW113430   6.947   4.463   4.872
 4177SOL    HW213431   6.919   4.478   4.712
 4178SOL     OW13432   4.427   0.671   4.210
 4178SOL    HW113433   4.417   0.579   4.248
 4178SOL    HW213434   4.343   0.697   4.163
 4179SOL     OW13435   5.517   3.023   3.852
 4179SOL    HW113436   5.523   3.054   3.757
 4179SOL    HW213437   5.432   3.056   3.893
 4180SOL     OW13438   5.425   3.297   1.905
 4180SOL    HW113439   5.388   3.253   1.823
 4180SOL    HW213440   5.459   3.388   1.881
 4181SOL     OW13441   2.136   2.438   5.914
 4181SOL    HW113442   2.207   2.498   5.877
 4181SOL    HW213443   2.139   2.439   6.014
 4182SOL     OW13444   0.577   6.268   2.669
 4182SOL    HW113445   0.604   6.356   2.631
 4182SOL    HW213446   0.644   6.240   2.739
 4183SOL     OW13447   3.927   0.939   1.140
 4183SOL    HW113448   3.849   0.943   1.077
 4183SOL    HW213449   4.005   0.987   1.100
 4184SOL     OW13450   4.808   5.053   1.198
 4184SOL    HW113451   4.792   5.042   1.099
 4184SOL    HW213452   4.878   4.988   1.228
 4185SOL     OW13453   0.800   5.600   2.954
 4185SOL    HW113454   0.768   5.669   2.889
 4185SOL    HW213455   0.753   5.514   2.938
 4186SOL     OW13456   1.480   4.516   0.478
 4186SOL    HW113457   1.570   4.481   0.451
 4186SOL    HW213458   1.491   4.609   0.515
 4187SOL     OW13459   3.804   3.195   5.867
 4187SOL    HW113460   3.757   3.271   5.822
 4187SOL    HW213461   3.879   3.164   5.809
 4188SOL     OW13462   4.827   6.718   3.681
 4188SOL    HW113463   4.875   6.806   3.682
 4188SOL    HW213464   4.853   6.664   3.760
 4189SOL     OW13465   3.061   1.182   4.498
 4189SOL    HW113466   3.122   1.216   4.570
 4189SOL    HW213467   3.095   1.211   4.409
 4190SOL     OW13468   1.928   7.006   6.544
 4190SOL    HW113469   1.969   0.071   6.571
 4190SOL    HW213470   1.998   6.947   6.503
 4191SOL     OW13471   5.587   3.661   2.755
 4191SOL    HW113472   5.503   3.633   2.803
 4191SOL    HW213473   5.568   3.741   2.699
 4192SOL     OW13474   6.561   0.890   3.851
 4192SOL    HW113475   6.630   0.872   3.780
 4192SOL    HW213476   6.471   0.899   3.808
 4193SOL     OW13477   1.963   6.709   1.576
 4193SOL    HW113478   1.968   6.668   1.667
 4193SOL    HW213479   1.918   6.646   1.513
 4194SOL     OW13480   6.636   1.500   5.595
 4194SOL    HW113481   6.539   1.521   5.588
 4194SOL    HW213482   6.690   1.576   5.559
 4195SOL     OW13483   3.304   0.401   1.492
 4195SOL    HW113484   3.267   0.309   1.506
 4195SOL    HW213485   3.247   0.450   1.426
 4196SOL     OW13486   6.449   1.751   3.728
 4196SOL    HW113487   6.515   1.719   3.660
 4196SOL    HW213488   6.468   1.709   3.816
 4197SOL     OW13489   4.556   4.842   4.388
 4197SOL    HW113490   4.619   4.772   4.353
 4197SOL    HW213491   4.608   4.920   4.422
 4198SOL     OW13492   6.042   3.630   6.680
 4198SOL    HW113493   5.991   3.710   6.650
 4198SOL    HW213494   6.097   3.596   6.603
 4199SOL     OW13495   1.702   3.531   6.173
 4199SOL    HW113496   1.787   3.524   6.225
 4199SOL    HW213497   1.717   3.497   6.080
 4200SOL     OW13498   2.940   6.888   4.901
 4200SOL    HW113499   2.881   6.874   4.981
 4200SOL    HW213500   3.035   6.868   4.925
 4201SOL     OW13501   5.559   6.628   4.195
 4201SOL    HW113502   5.553   6.609   4.096
 4201SOL    HW213503   5.632   6.574   4.235
 4202SOL     OW13504   3.972   5.348   5.925
 4202SOL    HW113505   3.885   5.315   5.888
 4202SOL    HW213506   3.974   5.333   6.024
 4203SOL     OW13507   4.306   5.704   2.304
 4203SOL    HW113508   4.296   5.754   2.218
 4203SOL    HW213509   4.224   5.717   2.360
 4204SOL     OW13510   3.646   2.828   2.083
 4204SOL    HW113511   3.670   2.739   2.122
 4204SOL    HW213512   3.583   2.875   2.143
 4205SOL     OW13513   3.369   5.281   4.426
 4205SOL    HW113514   3.382   5.342   4.348
 4205SOL    HW213515   3.411   5.193   4.407
 4206SOL     OW13516   5.414   1.016   5.896
 4206SOL    HW113517   5.349   1.086   5.923
 4206SOL    HW213518   5.502   1.032   5.941
 4207SOL     OW13519   2.160   1.843   1.668
 4207SOL    HW113520   2.066   1.846   1.634
 4207SOL    HW213521   2.207   1.764   1.629
 4208SOL     OW13522   1.486   2.328   0.424
 4208SOL    HW113523   1.527   2.239   0.448
 4208SOL    HW213524   1.436   2.319   0.338
 4209SOL     OW13525   0.933   1.275   4.707
 4209SOL    HW113526   0.927   1.244   4.612
 4209SOL    HW213527   0.876   1.356   4.720
 4210SOL     OW13528   3.210   3.385   1.971
 4210SOL    HW113529   3.265   3.338   1.902
 4210SOL    HW213530   3.202   3.482   1.948
 4211SOL     OW13531   4.833   6.155   6.103
 4211SOL    HW113532   4.839   6.138   6.201
 4211SOL    HW213533   4.743   6.192   6.080
 4212SOL     OW13534   6.215   2.239   2.182
 4212SOL    HW113535   6.244   2.196   2.267
 4212SOL    HW213536   6.238   2.336   2.184
 4213SOL     OW13537   2.319   1.193   2.710
 4213SOL    HW113538   2.340   1.290   2.702
 4213SOL    HW213539   2.404   1.140   2.705
 4214SOL     OW13540   6.569   4.064   5.857
 4214SOL    HW113541   6.661   4.083   5.893
 4214SOL    HW213542   6.511   4.029   5.931
 4215SOL     OW13543   6.803   5.917   5.242
 4215SOL    HW113544   6.722   5.884   5.291
 4215SOL    HW213545   6.794   6.015   5.225
 4216SOL     OW13546   1.652   2.055   3.133
 4216SOL    HW113547   1.555   2.044   3.110
 4216SOL    HW213548   1.666   2.032   3.229
 4217SOL     OW13549   5.910   0.434   3.125
 4217SOL    HW113550   5.973   0.475   3.191
 4217SOL    HW213551   5.823   0.483   3.128
 4218SOL     OW13552   5.105   0.134   1.584
 4218SOL    HW113553   5.074   0.206   1.646
 4218SOL    HW213554   5.198   0.107   1.608
 4219SOL     OW13555   2.790   5.077   5.126
 4219SOL    HW113556   2.783   4.983   5.092
 4219SOL    HW213557   2.834   5.076   5.217
 4220SOL     OW13558   6.450   3.271   3.261
 4220SOL    HW113559   6.523   3.323   3.217
 4220SOL    HW213560   6.443   3.181   3.219
 4221SOL     OW13561   6.572   5.895   6.414
 4221SOL    HW113562   6.506   5.926   6.482
 4221SOL    HW213563   6.639   5.967   6.397
 4222SOL     OW13564   6.000   2.199   2.014
 4222SOL    HW113565   6.023   2.227   1.921
 4222SOL    HW213566   6.076   2.220   2.075
 4223SOL     OW13567   3.320   2.938   4.401
 4223SOL    HW113568   3.384   3.005   4.438
 4223SOL    HW213569   3.287   2.879   4.475
 4224SOL     OW13570   5.139   3.021   4.211
 4224SOL    HW113571   5.083   3.007   4.129
 4224SOL    HW213572   5.080   3.042   4.289
 4225SOL     OW13573   4.988   0.835   5.263
 4225SOL    HW113574   5.006   0.933   5.265
 4225SOL    HW213575   5.070   0.786   5.294
 4226SOL     OW13576   2.367   0.227   3.198
 4226SOL    HW113577   2.287   0.169   3.187
 4226SOL    HW213578   2.446   0.172   3.225
 4227SOL     OW13579   3.315   4.402   6.415
 4227SOL    HW113580   3.295   4.306   6.437
 4227SOL    HW213581   3.332   4.452   6.500
 4228SOL     OW13582   6.040   4.928   3.648
 4228SOL    HW113583   6.059   5.001   3.714
 4228SOL    HW213584   5.958   4.952   3.595
 4229SOL     OW13585   4.022   4.872   6.277
 4229SOL    HW113586   4.028   4.937   6.200
 4229SOL    HW213587   3.945   4.810   6.262
 4230SOL     OW13588   2.477   0.475   5.074
 4230SOL    HW113589   2.482   0.575   5.072
 4230SOL    HW213590   2.397   0.447   5.128
 4231SOL     OW13591   5.234   6.113   4.886
 4231SOL    HW113592   5.197   6.140   4.797
 4231SOL    HW213593   5.212   6.183   4.953
 4232SOL     OW13594   0.479   5.084   2.015
 4232SOL    HW113595   0.489   4.985   2.021
 4232SOL    HW213596   0.538   5.120   1.943
 4233SOL     OW13597   6.732   0.199   0.401
 4233SOL    HW113598   6.671   0.181   0.324
 4233SOL    HW213599   6.764   0.112   0.439
 4234SOL     OW13600   1.738   6.376   5.372
 4234SOL    HW113601   1.761   6.401   5.466
 4234SOL    HW213602   1.763   6.280   5.355
 4235SOL     OW13603   5.759   4.301   5.214
 4235SOL    HW113604   5.807   4.223   5.254
 4235SOL    HW213605   5.726   4.361   5.286
 4236SOL     OW13606   6.831   2.925   2.796
 4236SOL    HW113607   6.871   2.904   2.885
 4236SOL    HW213608   6.760   2.994   2.807
 4237SOL     OW13609   6.489   4.358   4.177
 4237SOL    HW113610   6.584   4.390   4.180
 4237SOL    HW213611   6.453   4.355   4.271
 4238SOL     OW13612   4.172   4.724   3.915
 4238SOL    HW113613   4.141   4.643   3.966
 4238SOL    HW213614   4.241   4.772   3.969
 4239SOL     OW13615   5.356   0.086   4.425
 4239SOL    HW113616   5.437   0.045   4.466
 4239SOL    HW213617   5.361   0.079   4.326
 4240SOL     OW13618   2.308   5.810   6.312
 4240SOL    HW113619   2.383   5.876   6.313
 4240SOL    HW213620   2.297   5.772   6.220
 4241SOL     OW13621   6.183   0.120   0.962
 4241SOL    HW113622   6.141   0.195   1.013
 4241SOL    HW213623   6.136   0.110   0.874
 4242SOL     OW13624   2.198   7.013   3.195
 4242SOL    HW113625   2.104   6.998   3.224
 4242SOL    HW213626   2.201   0.005   3.096
 4243SOL     OW13627   0.987   3.635   2.850
 4243SOL    HW113628   0.909   3.578   2.876
 4243SOL    HW213629   1.046   3.584   2.787
 4244SOL     OW13630   4.920   5.807   1.270
 4244SOL    HW113631   4.880   5.719   1.297
 4244SOL    HW213632   4.854   5.859   1.216
 4245SOL     OW13633   6.916   2.402   0.217
 4245SOL    HW113634   7.010   2.376   0.238
 4245SOL    HW213635   6.881   2.461   0.290
 4246SOL     OW13636   5.210   3.373   3.008
 4246SOL    HW113637   5.222   3.332   2.917
 4246SOL    HW213638   5.113   3.391   3.024
 4247SOL     OW13639   2.348   5.065   4.489
 4247SOL    HW113640   2.355   5.022   4.579
 4247SOL    HW213641   2.254   5.098   4.475
 4248SOL     OW13642   1.526   0.599   3.318
 4248SOL    HW113643   1.612   0.592   3.369
 4248SOL    HW213644   1.544   0.640   3.229
 4249SOL     OW13645   6.984   1.750   3.533
 4249SOL    HW113646   0.007   1.762   3.622
 4249SOL    HW213647   6.946   1.658   3.527
 4250SOL     OW13648   0.163   5.799   4.304
 4250SOL    HW113649   0.232   5.871   4.315
 4250SOL    HW213650   0.126   5.774   4.393
 4251SOL     OW13651   6.070   2.580   6.484
 4251SOL    HW113652   6.090   2.638   6.563
 4251SOL    HW213653   6.002   2.511   6.508
 4252SOL     OW13654   6.005   5.739   6.305
 4252SOL    HW113655   6.029   5.768   6.212
 4252SOL    HW213656   5.953   5.811   6.350
 4253SOL     OW13657   3.609   6.256   2.529
 4253SOL    HW113658   3.575   6.349   2.516
 4253SOL    HW213659   3.617   6.238   2.627
 4254SOL     OW13660   2.201   4.645   1.808
 4254SOL    HW113661   2.122   4.705   1.800
 4254SOL    HW213662   2.179   4.556   1.767
 4255SOL     OW13663   0.044   3.192   4.107
 4255SOL    HW113664   0.115   3.230   4.048
 4255SOL    HW213665   6.985   3.251   4.105
 4256SOL     OW13666   0.827   5.695   2.149
 4256SOL    HW113667   0.879   5.610   2.161
 4256SOL    HW213668   0.735   5.674   2.118
 4257SOL     OW13669   6.500   1.180   4.564
 4257SOL    HW113670   6.542   1.090   4.555
 4257SOL    HW213671   6.570   1.251   4.556
 4258SOL     OW13672   3.434   5.829   1.319
 4258SOL    HW113673   3.423   5.787   1.409
 4258SOL    HW213674   3.499   5.776   1.265
 4259SOL     OW13675   1.812   6.753   0.979
 4259SOL    HW113676   1.777   6.836   1.022
 4259SOL    HW213677   1.888   6.717   1.032
 4260SOL     OW13678   5.101   0.124   4.105
 4260SOL    HW113679   5.190   0.096   4.069
 4260SOL    HW213680   5.090   0.087   4.198
 4261SOL     OW13681   1.984   6.913   3.782
 4261SOL    HW113682   1.906   6.939   3.724
 4261SOL    HW213683   2.002   6.985   3.849
 4262SOL     OW13684   1.856   4.620   5.746
 4262SOL    HW113685   1.914   4.585   5.819
 4262SOL    HW213686   1.778   4.668   5.786
 4263SOL     OW13687   2.905   1.735   3.238
 4263SOL    HW113688   2.944   1.643   3.236
 4263SOL    HW213689   2.863   1.751   3.328
 4264SOL     OW13690   5.947   1.330   4.441
 4264SOL    HW113691   5.906   1.417   4.469
 4264SOL    HW213692   5.903   1.297   4.357
 4265SOL     OW13693   3.225   0.242   0.583
 4265SOL    HW113694   3.310   0.211   0.540
 4265SOL    HW213695   3.212   0.192   0.669
 4266SOL     OW13696   1.720   0.048   0.081
 4266SOL    HW113697   1.674   0.078   0.165
 4266SOL    HW213698   1.753   0.127   0.031
 4267SOL     OW13699   2.149   3.890   3.715
 4267SOL    HW113700   2.144   3.873   3.814
 4267SOL    HW213701   2.186   3.810   3.669
 4268SOL     OW13702   1.890   5.196   6.649
 4268SOL    HW113703   1.953   5.266   6.614
 4268SOL    HW213704   1.822   5.176   6.579
 4269SOL     OW13705   3.398   1.794   3.808
 4269SOL    HW113706   3.445   1.739   3.877
 4269SOL    HW213707   3.342   1.735   3.750
 4270SOL     OW13708   3.986   3.303   1.384
 4270SOL    HW113709   4.029   3.351   1.460
 4270SOL    HW213710   4.026   3.211   1.376
 4271SOL     OW13711   6.525   0.838   0.250
 4271SOL    HW113712   6.623   0.848   0.232
 4271SOL    HW213713   6.496   0.904   0.319
 4272SOL     OW13714   6.773   3.370   5.836
 4272SOL    HW113715   6.853   3.430   5.835
 4272SOL    HW213716   6.699   3.414   5.887
 4273SOL     OW13717   4.894   6.097   5.129
 4273SOL    HW113718   4.806   6.120   5.171
 4273SOL    HW213719   4.968   6.132   5.186
 4274SOL     OW13720   0.694   6.769   2.132
 4274SOL    HW113721   0.659   6.793   2.222
 4274SOL    HW213722   0.636   6.697   2.092
 4275SOL     OW13723   0.251   2.078   4.264
 4275SOL    HW113724   0.261   2.126   4.177
 4275SOL    HW213725   0.185   2.003   4.253
 4276SOL     OW13726   3.126   5.125   3.033
 4276SOL    HW113727   3.033   5.161   3.018
 4276SOL    HW213728   3.181   5.140   2.951
 4277SOL     OW13729   6.961   5.041   3.664
 4277SOL    HW113730   6.869   5.030   3.701
 4277SOL    HW213731   0.002   4.979   3.711
 4278SOL     OW13732   6.644   6.461   4.024
 4278SOL    HW113733   6.716   6.502   4.081
 4278SOL    HW213734   6.647   6.362   4.033
 4279SOL     OW13735   1.631   0.760   2.328
 4279SOL    HW113736   1.687   0.833   2.368
 4279SOL    HW213737   1.667   0.735   2.238
 4280SOL     OW13738   6.042   6.912   6.245
 4280SOL    HW113739   6.091   6.853   6.181
 4280SOL    HW213740   6.016   6.997   6.200
 4281SOL     OW13741   4.689   5.222   4.117
 4281SOL    HW113742   4.593   5.197   4.129
 4281SOL    HW213743   4.698   5.290   4.044
 4282SOL     OW13744   3.550   4.230   0.590
 4282SOL    HW113745   3.534   4.326   0.570
 4282SOL    HW213746   3.602   4.189   0.514
 4283SOL     OW13747   5.077   1.178   3.566
 4283SOL    HW113748   5.114   1.112   3.500
 4283SOL    HW213749   5.098   1.271   3.536
 4284SOL     OW13750   3.896   5.507   6.979
 4284SOL    HW113751   3.989   5.484   7.008
 4284SOL    HW213752   3.845   5.543   0.036
 4285SOL     OW13753   3.294   0.685   6.221
 4285SOL    HW113754   3.317   0.665   6.125
 4285SOL    HW213755   3.323   0.779   6.242
 4286SOL     OW13756   6.994   0.722   6.590
 4286SOL    HW113757   0.030   0.721   6.508
 4286SOL    HW213758   6.917   0.785   6.576
 4287SOL     OW13759   4.801   1.266   6.507
 4287SOL    HW113760   4.795   1.337   6.437
 4287SOL    HW213761   4.764   1.301   6.593
 4288SOL     OW13762   6.783   5.908   2.426
 4288SOL    HW113763   6.791   5.820   2.380
 4288SOL    HW213764   6.818   5.980   2.365
 4289SOL     OW13765   0.722   2.320   5.277
 4289SOL    HW113766   0.764   2.410   5.280
 4289SOL    HW213767   0.775   2.260   5.217
 4290SOL     OW13768   0.035   6.434   3.777
 4290SOL    HW113769   0.005   6.366   3.710
 4290SOL    HW213770   0.045   6.390   3.866
 4291SOL     OW13771   4.831   2.980   6.606
 4291SOL    HW113772   4.930   2.987   6.620
 4291SOL    HW213773   4.813   2.963   6.509
 4292SOL     OW13774   5.932   2.562   0.134
 4292SOL    HW113775   5.866   2.635   0.152
 4292SOL    HW213776   5.934   2.543   0.036
 4293SOL     OW13777   4.672   3.486   6.755
 4293SOL    HW113778   4.708   3.413   6.696
 4293SOL    HW213779   4.748   3.536   6.795
 4294SOL     OW13780   2.450   2.283   6.110
 4294SOL    HW113781   2.545   2.258   6.091
 4294SOL    HW213782   2.389   2.217   6.065
 4295SOL     OW13783   4.089   6.293   2.928
 4295SOL    HW113784   4.103   6.375   2.983
 4295SOL    HW213785   4.047   6.317   2.840
 4296SOL     OW13786   3.208   6.847   0.875
 4296SOL    HW113787   3.127   6.869   0.929
 4296SOL    HW213788   3.285   6.903   0.906
 4297SOL     OW13789   6.598   5.906   1.798
 4297SOL    HW113790   6.605   6.006   1.796
 4297SOL    HW213791   6.573   5.876   1.890
 4298SOL     OW13792   3.675   6.373   1.401
 4298SOL    HW113793   3.692   6.471   1.387
 4298SOL    HW213794   3.577   6.358   1.413
 4299SOL     OW13795   0.565   3.181   0.196
 4299SOL    HW113796   0.635   3.239   0.153
 4299SOL    HW213797   0.476   3.200   0.154
 4300SOL     OW13798   2.807   0.521   1.325
 4300SOL    HW113799   2.708   0.517   1.338
 4300SOL    HW213800   2.828   0.577   1.245
 4301SOL     OW13801   2.725   6.853   1.596
 4301SOL    HW113802   2.632   6.818   1.600
 4301SOL    HW213803   2.753   6.864   1.500
 4302SOL     OW13804   6.708   0.042   6.875
 4302SOL    HW113805   6.765   0.055   6.956
 4302SOL    HW213806   6.665   0.129   6.850
 4303SOL     OW13807   0.221   4.719   3.433
 4303SOL    HW113808   0.198   4.703   3.529
 4303SOL    HW213809   0.145   4.690   3.375
 4304SOL     OW13810   3.655   4.173   1.814
 4304SOL    HW113811   3.721   4.101   1.835
 4304SOL    HW213812   3.603   4.196   1.896
 4305SOL     OW13813   0.422   6.841   4.834
 4305SOL    HW113814   0.458   6.752   4.807
 4305SOL    HW213815   0.496   6.908   4.834
 4306SOL     OW13816   4.764   4.324   4.966
 4306SOL    HW113817   4.765   4.226   4.948
 4306SOL    HW213818   4.709   4.371   4.897
 4307SOL     OW13819   5.563   2.892   5.571
 4307SOL    HW113820   5.514   2.813   5.533
 4307SOL    HW213821   5.653   2.862   5.604
 4308SOL     OW13822   5.422   5.044   1.679
 4308SOL    HW113823   5.461   5.112   1.617
 4308SOL    HW213824   5.424   4.954   1.634
 4309SOL     OW13825   1.217   3.376   6.868
 4309SOL    HW113826   1.177   3.316   6.937
 4309SOL    HW213827   1.305   3.340   6.839
 4310SOL     OW13828   1.244   2.760   1.910
 4310SOL    HW113829   1.343   2.755   1.909
 4310SOL    HW213830   1.208   2.736   1.820
 4311SOL     OW13831   1.202   6.696   2.117
 4311SOL    HW113832   1.267   6.625   2.088
 4311SOL    HW213833   1.171   6.747   2.037
 4312SOL     OW13834   1.053   5.321   2.652
 4312SOL    HW113835   1.092   5.411   2.671
 4312SOL    HW213836   1.110   5.251   2.694
 4313SOL     OW13837   3.743   2.103   0.011
 4313SOL    HW113838   3.793   2.182   0.047
 4313SOL    HW213839   3.768   2.090   6.936
 4314SOL     OW13840   6.339   1.824   5.404
 4314SOL    HW113841   6.247   1.790   5.384
 4314SOL    HW213842   6.333   1.913   5.448
 4315SOL     OW13843   1.977   1.692   3.928
 4315SOL    HW113844   2.005   1.617   3.988
 4315SOL    HW213845   1.878   1.704   3.932
 4316SOL     OW13846   5.095   6.718   2.776
 4316SOL    HW113847   5.009   6.768   2.765
 4316SOL    HW213848   5.075   6.624   2.803
 4317SOL     OW13849   4.374   0.892   5.453
 4317SOL    HW113850   4.413   0.887   5.545
 4317SOL    HW213851   4.404   0.976   5.408
 4318SOL     OW13852   0.374   0.613   4.348
 4318SOL    HW113853   0.404   0.550   4.277
 4318SOL    HW213854   0.425   0.595   4.432
 4319SOL     OW13855   1.892   1.898   1.512
 4319SOL    HW113856   1.864   1.802   1.520
 4319SOL    HW213857   1.921   1.917   1.418
 4320SOL     OW13858   3.635   6.100   0.521
 4320SOL    HW113859   3.685   6.165   0.577
 4320SOL    HW213860   3.686   6.014   0.517
 4321SOL     OW13861   6.905   5.099   3.405
 4321SOL    HW113862   6.953   5.080   3.491
 4321SOL    HW213863   6.889   5.198   3.398
 4322SOL     OW13864   7.015   3.216   5.496
 4322SOL    HW113865   0.031   3.196   5.405
 4322SOL    HW213866   0.012   3.311   5.520
 4323SOL     OW13867   4.072   5.366   0.134
 4323SOL    HW113868   4.087   5.267   0.137
 4323SOL    HW213869   4.159   5.413   0.123
 4324SOL     OW13870   6.800   3.031   5.574
 4324SOL    HW113871   6.826   2.938   5.546
 4324SOL    HW213872   6.880   3.091   5.569
 4325SOL     OW13873   2.572   1.772   2.225
 4325SOL    HW113874   2.585   1.684   2.270
 4325SOL    HW213875   2.491   1.769   2.167
 4326SOL     OW13876   5.393   2.917   2.437
 4326SOL    HW113877   5.485   2.892   2.409
 4326SOL    HW213878   5.344   2.958   2.359
 4327SOL     OW13879   4.057   5.723   3.030
 4327SOL    HW113880   4.156   5.728   3.044
 4327SOL    HW213881   4.015   5.676   3.108
 4328SOL     OW13882   6.656   4.491   4.648
 4328SOL    HW113883   6.652   4.418   4.580
 4328SOL    HW213884   6.728   4.471   4.714
 4329SOL     OW13885   5.499   3.354   5.438
 4329SOL    HW113886   5.569   3.286   5.461
 4329SOL    HW213887   5.532   3.411   5.362
 4330SOL     OW13888   2.088   6.612   4.826
 4330SOL    HW113889   2.078   6.640   4.730
 4330SOL    HW213890   2.119   6.517   4.830
 4331SOL     OW13891   0.287   0.131   1.533
 4331SOL    HW113892   0.196   0.160   1.566
 4331SOL    HW213893   0.330   0.207   1.485
 4332SOL     OW13894   5.931   3.614   2.624
 4332SOL    HW113895   5.969   3.700   2.590
 4332SOL    HW213896   5.839   3.631   2.660
 4333SOL     OW13897   4.888   2.184   4.932
 4333SOL    HW113898   4.920   2.123   4.859
 4333SOL    HW213899   4.932   2.158   5.018
 4334SOL     OW13900   1.347   3.092   2.387
 4334SOL    HW113901   1.335   3.108   2.289
 4334SOL    HW213902   1.311   3.002   2.411
 4335SOL     OW13903   3.331   3.085   0.958
 4335SOL    HW113904   3.390   3.159   0.992
 4335SOL    HW213905   3.379   3.034   0.887
 4336SOL     OW13906   2.444   4.671   5.366
 4336SOL    HW113907   2.392   4.612   5.428
 4336SOL    HW213908   2.523   4.620   5.330
 4337SOL     OW13909   1.166   6.106   2.435
 4337SOL    HW113910   1.253   6.069   2.402
 4337SOL    HW213911   1.116   6.035   2.485
 4338SOL     OW13912   6.272   0.211   6.036
 4338SOL    HW113913   6.334   0.139   6.068
 4338SOL    HW213914   6.218   0.245   6.113
 4339SOL     OW13915   4.110   2.277   6.545
 4339SOL    HW113916   4.023   2.248   6.503
 4339SOL    HW213917   4.096   2.291   6.643
 4340SOL     OW13918   6.056   3.045   1.159
 4340SOL    HW113919   6.039   3.063   1.256
 4340SOL    HW213920   6.061   3.131   1.109
 4341SOL     OW13921   1.213   5.574   2.108
 4341SOL    HW113922   1.212   5.637   2.031
 4341SOL    HW213923   1.120   5.560   2.141
 4342SOL     OW13924   4.940   3.470   2.962
 4342SOL    HW113925   4.942   3.396   2.895
 4342SOL    HW213926   4.952   3.558   2.915
 4343SOL     OW13927   3.506   6.997   6.197
 4343SOL    HW113928   3.475   0.018   6.283
 4343SOL    HW213929   3.461   6.909   6.187
 4344SOL     OW13930   0.369   2.516   3.174
 4344SOL    HW113931   0.361   2.465   3.260
 4344SOL    HW213932   0.358   2.614   3.192
 4345SOL     OW13933   2.995   3.299   2.740
 4345SOL    HW113934   2.944   3.357   2.804
 4345SOL    HW213935   3.085   3.339   2.723
 4346SOL     OW13936   2.002   2.646   2.791
 4346SOL    HW113937   1.945   2.727   2.777
 4346SOL    HW213938   2.036   2.644   2.885
 4347SOL     OW13939   6.425   6.141   1.949
 4347SOL    HW113940   6.427   6.202   2.027
 4347SOL    HW213941   6.443   6.193   1.865
 4348SOL     OW13942   6.824   5.827   4.086
 4348SOL    HW113943   6.895   5.896   4.103
 4348SOL    HW213944   6.770   5.813   4.169
 4349SOL     OW13945   0.181   3.280   3.531
 4349SOL    HW113946   0.100   3.235   3.569
 4349SOL    HW213947   0.248   3.211   3.503
 4350SOL     OW13948   5.533   1.991   4.822
 4350SOL    HW113949   5.612   1.959   4.874
 4350SOL    HW213950   5.559   2.002   4.726
 4351SOL     OW13951   1.280   5.972   1.534
 4351SOL    HW113952   1.362   5.992   1.481
 4351SOL    HW213953   1.207   6.035   1.508
 4352SOL     OW13954   5.407   3.420   0.833
 4352SOL    HW113955   5.497   3.423   0.877
 4352SOL    HW213956   5.404   3.346   0.767
 4353SOL     OW13957   3.105   2.949   6.377
 4353SOL    HW113958   3.096   2.924   6.280
 4353SOL    HW213959   3.024   2.998   6.407
 4354SOL     OW13960   0.908   0.655   5.664
 4354SOL    HW113961   0.823   0.645   5.715
 4354SOL    HW213962   0.920   0.751   5.638
 4355SOL     OW13963   1.321   6.512   3.118
 4355SOL    HW113964   1.277   6.422   3.127
 4355SOL    HW213965   1.420   6.501   3.118
 4356SOL     OW13966   4.498   3.202   5.812
 4356SOL    HW113967   4.407   3.234   5.785
 4356SOL    HW213968   4.554   3.191   5.730
 4357SOL     OW13969   0.364   1.217   1.835
 4357SOL    HW113970   0.436   1.216   1.766
 4357SOL    HW213971   0.333   1.124   1.853
 4358SOL     OW13972   0.343   1.165   6.651
 4358SOL    HW113973   0.328   1.103   6.728
 4358SOL    HW213974   0.416   1.229   6.672
 4359SOL     OW13975   2.038   0.732   6.743
 4359SOL    HW113976   1.972   0.768   6.676
 4359SOL    HW213977   2.074   0.808   6.798
 4360SOL     OW13978   1.174   2.445   3.522
 4360SOL    HW113979   1.274   2.450   3.515
 4360SOL    HW213980   1.148   2.444   3.619
 4361SOL     OW13981   2.288   2.903   1.170
 4361SOL    HW113982   2.318   2.830   1.232
 4361SOL    HW213983   2.219   2.867   1.107
 4362SOL     OW13984   0.707   6.272   3.760
 4362SOL    HW113985   0.758   6.187   3.771
 4362SOL    HW213986   0.768   6.350   3.770
 4363SOL     OW13987   4.267   0.394   2.460
 4363SOL    HW113988   4.249   0.310   2.409
 4363SOL    HW213989   4.182   0.426   2.501
 4364SOL     OW13990   2.926   3.580   2.614
 4364SOL    HW113991   2.900   3.642   2.687
 4364SOL    HW213992   2.898   3.486   2.638
 4365SOL     OW13993   3.111   2.034   1.586
 4365SOL    HW113994   3.106   2.116   1.643
 4365SOL    HW213995   3.191   1.979   1.614
 4366SOL     OW13996   6.408   5.740   5.822
 4366SOL    HW113997   6.335   5.763   5.758
 4366SOL    HW213998   6.440   5.647   5.803
 4367SOL     OW13999   3.140   5.393   2.664
 4367SOL    HW114000   3.195   5.334   2.724
 4367SOL    HW214001   3.187   5.404   2.577
 4368SOL     OW14002   3.866   5.785   2.756
 4368SOL    HW114003   3.960   5.794   2.789
 4368SOL    HW214004   3.847   5.688   2.737
 4369SOL     OW14005   5.093   5.646   2.919
 4369SOL    HW114006   5.021   5.603   2.973
 4369SOL    HW214007   5.161   5.578   2.894
 4370SOL     OW14008   3.865   3.973   1.600
 4370SOL    HW114009   3.931   3.934   1.536
 4370SOL    HW214010   3.777   3.925   1.592
 4371SOL     OW14011   2.637   0.705   2.342
 4371SOL    HW114012   2.567   0.772   2.365
 4371SOL    HW214013   2.657   0.709   2.244
 4372SOL     OW14014   1.673   3.445   4.472
 4372SOL    HW114015   1.736   3.374   4.438
 4372SOL    HW214016   1.675   3.523   4.410
 4373SOL     OW14017   4.739   0.883   5.916
 4373SOL    HW114018   4.707   0.791   5.940
 4373SOL    HW214019   4.827   0.877   5.869
 4374SOL     OW14020   2.935   2.166   1.424
 4374SOL    HW114021   2.970   2.253   1.391
 4374SOL    HW214022   3.001   2.126   1.488
 4375SOL     OW14023   3.669   0.000   3.485
 4375SOL    HW114024   3.736   6.985   3.421
 4375SOL    HW214025   3.602   0.055   3.435
 4376SOL     OW14026   6.414   0.513   1.966
 4376SOL    HW114027   6.512   0.521   1.983
 4376SOL    HW214028   6.364   0.521   2.052
 4377SOL     OW14029   6.934   5.736   0.509
 4377SOL    HW114030   6.925   5.680   0.591
 4377SOL    HW214031   6.870   5.812   0.512
 4378SOL     OW14032   1.793   4.902   2.067
 4378SOL    HW114033   1.804   4.802   2.069
 4378SOL    HW214034   1.883   4.944   2.054
 4379SOL     OW14035   2.436   0.599   2.031
 4379SOL    HW114036   2.518   0.655   2.029
 4379SOL    HW214037   2.364   0.642   1.977
 4380SOL     OW14038   2.389   5.492   5.211
 4380SOL    HW114039   2.330   5.434   5.155
 4380SOL    HW214040   2.397   5.583   5.169
 4381SOL     OW14041   2.948   4.825   4.515
 4381SOL    HW114042   2.883   4.766   4.563
 4381SOL    HW214043   2.900   4.875   4.443
 4382SOL     OW14044   5.183   4.608   4.988
 4382SOL    HW114045   5.123   4.545   5.038
 4382SOL    HW214046   5.268   4.620   5.038
 4383SOL     OW14047   1.043   1.646   4.941
 4383SOL    HW114048   1.081   1.644   5.033
 4383SOL    HW214049   0.957   1.594   4.940
 4384SOL     OW14050   5.183   0.005   0.984
 4384SOL    HW114051   5.265   7.010   0.928
 4384SOL    HW214052   5.115   6.956   0.965
 4385SOL     OW14053   6.827   1.667   3.768
 4385SOL    HW114054   6.759   1.732   3.733
 4385SOL    HW214055   6.847   1.599   3.698
 4386SOL     OW14056   0.941   4.450   6.327
 4386SOL    HW114057   0.959   4.352   6.318
 4386SOL    HW214058   1.025   4.498   6.353
 4387SOL     OW14059   0.046   1.896   2.019
 4387SOL    HW114060   0.106   1.975   2.032
 4387SOL    HW214061   6.996   1.896   2.088
 4388SOL     OW14062   4.028   1.190   6.415
 4388SOL    HW114063   4.064   1.211   6.506
 4388SOL    HW214064   3.978   1.104   6.418
 4389SOL     OW14065   5.629   1.754   1.474
 4389SOL    HW114066   5.648   1.656   1.463
 4389SOL    HW214067   5.598   1.772   1.567
 4390SOL     OW14068   4.008   2.318   1.819
 4390SOL    HW114069   4.088   2.263   1.843
 4390SOL    HW214070   3.991   2.385   1.891
 4391SOL     OW14071   0.869   6.284   6.616
 4391SOL    HW114072   0.775   6.314   6.602
 4391SOL    HW214073   0.927   6.318   6.542
 4392SOL     OW14074   5.478   4.180   5.265
 4392SOL    HW114075   5.524   4.142   5.345
 4392SOL    HW214076   5.400   4.121   5.241
 4393SOL     OW14077   4.811   6.905   3.166
 4393SOL    HW114078   4.906   6.907   3.136
 4393SOL    HW214079   4.772   6.815   3.146
 4394SOL     OW14080   5.987   5.066   2.515
 4394SOL    HW114081   6.064   5.124   2.542
 4394SOL    HW214082   5.902   5.107   2.547
 4395SOL     OW14083   4.144   2.258   0.566
 4395SOL    HW114084   4.090   2.184   0.527
 4395SOL    HW214085   4.213   2.220   0.628
 4396SOL     OW14086   2.502   1.852   4.125
 4396SOL    HW114087   2.594   1.880   4.154
 4396SOL    HW214088   2.436   1.873   4.197
 4397SOL     OW14089   0.513   1.464   3.958
 4397SOL    HW114090   0.553   1.523   4.028
 4397SOL    HW214091   0.565   1.473   3.873
 4398SOL     OW14092   1.279   4.414   4.437
 4398SOL    HW114093   1.251   4.357   4.361
 4398SOL    HW214094   1.372   4.390   4.465
 4399SOL     OW14095   2.763   0.570   0.819
 4399SOL    HW114096   2.663   0.570   0.809
 4399SOL    HW214097   2.787   0.580   0.915
 4400SOL     OW14098   2.266   6.332   5.061
 4400SOL    HW114099   2.307   6.276   4.990
 4400SOL    HW214100   2.295   6.427   5.050
 4401SOL     OW14101   6.362   5.404   5.960
 4401SOL    HW114102   6.349   5.465   6.038
 4401SOL    HW214103   6.395   5.457   5.881
 4402SOL     OW14104   1.442   6.352   2.665
 4402SOL    HW114105   1.409   6.286   2.733
 4402SOL    HW214106   1.439   6.444   2.705
 4403SOL     OW14107   6.420   6.982   3.666
 4403SOL    HW114108   6.436   0.036   3.730
 4403SOL    HW214109   6.391   6.901   3.716
 4404SOL     OW14110   1.239   3.703   4.412
 4404SOL    HW114111   1.251   3.773   4.482
 4404SOL    HW214112   1.176   3.632   4.445
 4405SOL     OW14113   3.093   4.445   6.260
 4405SOL    HW114114   3.181   4.433   6.305
 4405SOL    HW214115   3.099   4.412   6.166
 4406SOL     OW14116   5.128   4.050   0.780
 4406SOL    HW114117   5.115   4.056   0.681
 4406SOL    HW214118   5.196   3.979   0.800
 4407SOL     OW14119   0.209   5.789   0.655
 4407SOL    HW114120   0.133   5.784   0.590
 4407SOL    HW214121   0.205   5.710   0.716
 4408SOL     OW14122   5.121   0.727   0.699
 4408SOL    HW114123   5.110   0.628   0.691
 4408SOL    HW214124   5.082   0.759   0.785
 4409SOL     OW14125   3.718   0.567   1.869
 4409SOL    HW114126   3.716   0.639   1.799
 4409SOL    HW214127   3.675   0.601   1.953
 4410SOL     OW14128   1.942   4.593   7.008
 4410SOL    HW114129   2.030   4.609   6.962
 4410SOL    HW214130   1.868   4.627   6.950
 4411SOL     OW14131   3.519   2.899   3.305
 4411SOL    HW114132   3.501   2.804   3.332
 4411SOL    HW214133   3.575   2.900   3.222
 4412SOL     OW14134   4.240   1.942   5.112
 4412SOL    HW114135   4.291   1.920   5.029
 4412SOL    HW214136   4.283   1.898   5.191
 4413SOL     OW14137   5.114   6.170   5.339
 4413SOL    HW114138   5.113   6.070   5.344
 4413SOL    HW214139   5.049   6.208   5.405
 4414SOL     OW14140   4.862   4.827   2.160
 4414SOL    HW114141   4.849   4.880   2.244
 4414SOL    HW214142   4.843   4.731   2.178
 4415SOL     OW14143   4.916   3.645   6.314
 4415SOL    HW114144   4.832   3.651   6.369
 4415SOL    HW214145   4.995   3.643   6.375
 4416SOL     OW14146   2.868   1.518   3.829
 4416SOL    HW114147   2.921   1.436   3.850
 4416SOL    HW214148   2.903   1.595   3.882
 4417SOL     OW14149   0.017   4.151   2.959
 4417SOL    HW114150   6.955   4.192   2.922
 4417SOL    HW214151   0.041   4.069   2.906
 4418SOL     OW14152   4.603   6.357   3.884
 4418SOL    HW114153   4.622   6.270   3.928
 4418SOL    HW214154   4.549   6.415   3.945
 4419SOL     OW14155   5.393   5.506   0.425
 4419SOL    HW114156   5.294   5.504   0.441
 4419SOL    HW214157   5.422   5.601   0.415
 4420SOL     OW14158   4.643   1.491   0.759
 4420SOL    HW114159   4.594   1.404   0.748
 4420SOL    HW214160   4.728   1.475   0.808
 4421SOL     OW14161   1.782   1.624   3.656
 4421SOL    HW114162   1.881   1.613   3.668
 4421SOL    HW214163   1.756   1.594   3.565
 4422SOL     OW14164   2.652   3.486   5.889
 4422SOL    HW114165   2.588   3.427   5.840
 4422SOL    HW214166   2.689   3.435   5.967
 4423SOL     OW14167   0.722   3.099   6.081
 4423SOL    HW114168   0.714   3.120   6.178
 4423SOL    HW214169   0.814   3.122   6.049
 4424SOL     OW14170   5.412   0.064   3.688
 4424SOL    HW114171   5.374   0.154   3.711
 4424SOL    HW214172   5.337   0.000   3.669
 4425SOL     OW14173   3.264   5.789   6.232
 4425SOL    HW114174   3.250   5.772   6.134
 4425SOL    HW214175   3.346   5.740   6.263
 4426SOL     OW14176   6.753   0.970   5.033
 4426SOL    HW114177   6.787   1.038   4.967
 4426SOL    HW214178   6.764   1.006   5.126
 4427SOL     OW14179   6.596   0.805   2.584
 4427SOL    HW114180   6.694   0.789   2.597
 4427SOL    HW214181   6.565   0.876   2.647
 4428SOL     OW14182   2.982   4.919   3.443
 4428SOL    HW114183   3.073   4.903   3.480
 4428SOL    HW214184   2.920   4.943   3.518
 4429SOL     OW14185   2.953   0.320   4.005
 4429SOL    HW114186   2.908   0.301   4.092
 4429SOL    HW214187   3.025   0.253   3.989
 4430SOL     OW14188   4.853   2.904   3.841
 4430SOL    HW114189   4.891   2.830   3.785
 4430SOL    HW214190   4.755   2.890   3.852
 4431SOL     OW14191   2.257   1.484   2.254
 4431SOL    HW114192   2.162   1.505   2.232
 4431SOL    HW214193   2.313   1.490   2.172
 4432SOL     OW14194   3.031   3.131   3.967
 4432SOL    HW114195   3.016   3.178   3.880
 4432SOL    HW214196   3.027   3.196   4.042
 4433SOL     OW14197   6.517   6.823   4.530
 4433SOL    HW114198   6.519   6.871   4.618
 4433SOL    HW214199   6.455   6.871   4.468
 4434SOL     OW14200   4.760   1.472   4.218
 4434SOL    HW114201   4.708   1.506   4.139
 4434SOL    HW214202   4.845   1.525   4.226
 4435SOL     OW14203   4.060   3.823   0.658
 4435SOL    HW114204   3.993   3.751   0.640
 4435SOL    HW214205   4.018   3.897   0.709
 4436SOL     OW14206   3.040   2.101   0.429
 4436SOL    HW114207   2.994   2.025   0.475
 4436SOL    HW214208   3.137   2.081   0.420
 4437SOL     OW14209   5.170   1.091   4.157
 4437SOL    HW114210   5.102   1.163   4.173
 4437SOL    HW214211   5.132   1.022   4.096
 4438SOL     OW14212   4.146   1.956   6.669
 4438SOL    HW114213   4.225   1.912   6.714
 4438SOL    HW214214   4.171   1.980   6.575
 4439SOL     OW14215   0.651   5.330   1.608
 4439SOL    HW114216   0.664   5.368   1.700
 4439SOL    HW214217   0.731   5.349   1.552
 4440SOL     OW14218   1.475   5.225   6.663
 4440SOL    HW114219   1.383   5.261   6.646
 4440SOL    HW214220   1.534   5.298   6.697
 4441SOL     OW14221   6.360   1.707   1.674
 4441SOL    HW114222   6.369   1.742   1.767
 4441SOL    HW214223   6.356   1.607   1.675
 4442SOL     OW14224   3.207   6.169   3.824
 4442SOL    HW114225   3.229   6.264   3.801
 4442SOL    HW214226   3.107   6.158   3.825
 4443SOL     OW14227   1.127   2.420   6.807
 4443SOL    HW114228   1.077   2.343   6.766
 4443SOL    HW214229   1.198   2.451   6.743
 4444SOL     OW14230   3.837   6.335   6.458
 4444SOL    HW114231   3.776   6.386   6.398
 4444SOL    HW214232   3.858   6.390   6.539
 4445SOL     OW14233   1.025   0.529   6.642
 4445SOL    HW114234   0.980   0.618   6.649
 4445SOL    HW214235   0.972   0.460   6.692
 4446SOL     OW14236   5.563   1.177   1.237
 4446SOL    HW114237   5.505   1.254   1.209
 4446SOL    HW214238   5.602   1.134   1.156
 4447SOL     OW14239   5.158   3.345   5.374
 4447SOL    HW114240   5.061   3.321   5.375
 4447SOL    HW214241   5.200   3.308   5.292
 4448SOL     OW14242   2.974   4.198   0.793
 4448SOL    HW114243   2.885   4.235   0.816
 4448SOL    HW214244   3.002   4.131   0.861
 4449SOL     OW14245   3.716   0.339   5.958
 4449SOL    HW114246   3.639   0.388   6.001
 4449SOL    HW214247   3.742   0.262   6.015
 4450SOL     OW14248   3.823   2.988   3.441
 4450SOL    HW114249   3.732   2.951   3.422
 4450SOL    HW214250   3.852   2.961   3.533
 4451SOL     OW14251   5.731   4.136   2.331
 4451SOL    HW114252   5.816   4.107   2.287
 4451SOL    HW214253   5.661   4.153   2.262
 4452SOL     OW14254   5.806   6.363   5.072
 4452SOL    HW114255   5.787   6.458   5.046
 4452SOL    HW214256   5.754   6.340   5.155
 4453SOL     OW14257   6.621   2.871   6.920
 4453SOL    HW114258   6.533   2.909   6.890
 4453SOL    HW214259   6.632   2.779   6.881
 4454SOL     OW14260   5.161   2.282   0.686
 4454SOL    HW114261   5.245   2.322   0.650
 4454SOL    HW214262   5.087   2.349   0.683
 4455SOL     OW14263   3.047   6.651   0.432
 4455SOL    HW114264   3.023   6.555   0.438
 4455SOL    HW214265   2.964   6.706   0.416
 4456SOL     OW14266   2.386   4.799   2.599
 4456SOL    HW114267   2.288   4.819   2.602
 4456SOL    HW214268   2.408   4.727   2.664
 4457SOL     OW14269   4.140   2.858   6.806
 4457SOL    HW114270   4.143   2.827   6.711
 4457SOL    HW214271   4.228   2.898   6.831
 4458SOL     OW14272   1.563   3.764   6.524
 4458SOL    HW114273   1.546   3.863   6.527
 4458SOL    HW214274   1.542   3.724   6.613
 4459SOL     OW14275   5.490   0.301   4.200
 4459SOL    HW114276   5.461   0.301   4.105
 4459SOL    HW214277   5.424   0.350   4.256
 4460SOL     OW14278   2.698   2.851   5.734
 4460SOL    HW114279   2.657   2.920   5.674
 4460SOL    HW214280   2.796   2.843   5.713
 4461SOL     OW14281   0.995   0.520   3.086
 4461SOL    HW114282   0.969   0.460   3.010
 4461SOL    HW214283   1.017   0.464   3.166
 4462SOL     OW14284   6.520   3.878   1.192
 4462SOL    HW114285   6.549   3.969   1.222
 4462SOL    HW214286   6.481   3.884   1.100
 4463SOL     OW14287   2.284   2.628   0.317
 4463SOL    HW114288   2.353   2.566   0.282
 4463SOL    HW214289   2.197   2.613   0.269
 4464SOL     OW14290   5.630   5.356   0.767
 4464SOL    HW114291   5.562   5.374   0.695
 4464SOL    HW214292   5.656   5.442   0.811
 4465SOL     OW14293   1.667   6.158   3.031
 4465SOL    HW114294   1.762   6.131   3.042
 4465SOL    HW214295   1.645   6.165   2.933
 4466SOL     OW14296   1.395   0.742   2.995
 4466SOL    HW114297   1.477   0.775   3.042
 4466SOL    HW214298   1.316   0.753   3.055
 4467SOL     OW14299   0.861   6.556   3.681
 4467SOL    HW114300   0.867   6.656   3.679
 4467SOL    HW214301   0.820   6.524   3.595
 4468SOL     OW14302   0.722   1.845   0.626
 4468SOL    HW114303   0.653   1.873   0.692
 4468SOL    HW214304   0.690   1.864   0.534
 4469SOL     OW14305   2.974   6.961   1.389
 4469SOL    HW114306   3.045   6.919   1.445
 4469SOL    HW214307   3.011   0.019   1.341
 4470SOL     OW14308   5.803   3.443   1.716
 4470SOL    HW114309   5.808   3.413   1.811
 4470SOL    HW214310   5.756   3.373   1.662
 4471SOL     OW14311   0.319   2.713   6.912
 4471SOL    HW114312   0.238   2.757   6.951
 4471SOL    HW214313   0.306   2.614   6.912
 4472SOL     OW14314   1.375   3.847   2.935
 4472SOL    HW114315   1.395   3.749   2.944
 4472SOL    HW214316   1.437   3.887   2.868
 4473SOL     OW14317   0.402   1.020   4.600
 4473SOL    HW114318   0.390   0.921   4.599
 4473SOL    HW214319   0.341   1.061   4.667
 4474SOL     OW14320   3.651   1.005   2.281
 4474SOL    HW114321   3.619   0.976   2.190
 4474SOL    HW214322   3.703   1.090   2.272
 4475SOL     OW14323   1.812   4.503   1.804
 4475SOL    HW114324   1.724   4.465   1.836
 4475SOL    HW214325   1.799   4.598   1.777
 4476SOL     OW14326   5.506   6.114   3.948
 4476SOL    HW114327   5.494   6.149   3.855
 4476SOL    HW214328   5.603   6.101   3.967
 4477SOL     OW14329   1.709   0.341   6.372
 4477SOL    HW114330   1.734   0.297   6.286
 4477SOL    HW214331   1.726   0.439   6.366
 4478SOL     OW14332   2.436   6.532   2.600
 4478SOL    HW114333   2.367   6.597   2.569
 4478SOL    HW214334   2.394   6.466   2.662
 4479SOL     OW14335   0.932   1.108   6.903
 4479SOL    HW114336   0.964   1.022   6.865
 4479SOL    HW214337   0.971   1.122   6.993
 4480SOL     OW14338   1.956   3.821   4.902
 4480SOL    HW114339   1.967   3.905   4.954
 4480SOL    HW214340   1.967   3.742   4.963
 4481SOL     OW14341   2.143   0.076   4.489
 4481SOL    HW114342   2.113   0.017   4.414
 4481SOL    HW214343   2.242   0.067   4.501
 4482SOL     OW14344   0.309   3.362   4.083
 4482SOL    HW114345   0.400   3.403   4.077
 4482SOL    HW214346   0.244   3.430   4.118
 4483SOL     OW14347   6.372   2.941   1.233
 4483SOL    HW114348   6.313   2.861   1.226
 4483SOL    HW214349   6.354   3.003   1.157
 4484SOL     OW14350   3.293   1.655   5.274
 4484SOL    HW114351   3.212   1.691   5.321
 4484SOL    HW214352   3.337   1.728   5.222
 4485SOL     OW14353   5.574   2.580   6.175
 4485SOL    HW114354   5.613   2.550   6.088
 4485SOL    HW214355   5.648   2.610   6.236
 4486SOL     OW14356   6.101   3.409   4.346
 4486SOL    HW114357   6.159   3.393   4.266
 4486SOL    HW214358   6.157   3.402   4.429
 4487SOL     OW14359   2.265   3.752   6.762
 4487SOL    HW114360   2.197   3.680   6.744
 4487SOL    HW214361   2.318   3.769   6.679
 4488SOL     OW14362   5.328   2.594   5.908
 4488SOL    HW114363   5.377   2.509   5.892
 4488SOL    HW214364   5.382   2.671   5.872
 4489SOL     OW14365   5.292   6.067   4.369
 4489SOL    HW114366   5.197   6.052   4.394
 4489SOL    HW214367   5.314   6.165   4.379
 4490SOL     OW14368   5.413   1.963   2.106
 4490SOL    HW114369   5.505   1.978   2.071
 4490SOL    HW214370   5.413   1.972   2.205
 4491SOL     OW14371   0.871   2.902   3.009
 4491SOL    HW114372   0.893   2.813   3.047
 4491SOL    HW214373   0.869   2.971   3.082
 4492SOL     OW14374   5.164   3.234   0.624
 4492SOL    HW114375   5.132   3.321   0.663
 4492SOL    HW214376   5.261   3.224   0.642
 4493SOL     OW14377   4.722   5.247   4.967
 4493SOL    HW114378   4.803   5.227   4.913
 4493SOL    HW214379   4.744   5.238   5.065
 4494SOL     OW14380   6.910   2.481   6.290
 4494SOL    HW114381   6.922   2.575   6.258
 4494SOL    HW214382   6.979   2.423   6.246
 4495SOL     OW14383   5.446   6.870   3.346
 4495SOL    HW114384   5.493   6.829   3.424
 4495SOL    HW214385   5.460   6.969   3.347
 4496SOL     OW14386   5.265   5.879   0.594
 4496SOL    HW114387   5.245   5.875   0.692
 4496SOL    HW214388   5.244   5.971   0.560
 4497SOL     OW14389   4.374   6.683   6.552
 4497SOL    HW114390   4.405   6.703   6.645
 4497SOL    HW214391   4.427   6.607   6.515
 4498SOL     OW14392   0.447   3.133   6.520
 4498SOL    HW114393   0.422   3.230   6.523
 4498SOL    HW214394   0.423   3.095   6.431
 4499SOL     OW14395   6.930   2.946   4.052
 4499SOL    HW114396   6.991   3.025   4.057
 4499SOL    HW214397   6.982   2.866   4.022
 4500SOL     OW14398   3.123   3.563   3.316
 4500SOL    HW114399   3.041   3.524   3.357
 4500SOL    HW214400   3.140   3.654   3.354
 4501SOL     OW14401   0.320   3.606   5.895
 4501SOL    HW114402   0.248   3.606   5.965
 4501SOL    HW214403   0.327   3.697   5.855
 4502SOL     OW14404   2.053   3.099   6.240
 4502SOL    HW114405   1.970   3.104   6.297
 4502SOL    HW214406   2.132   3.127   6.294
 4503SOL     OW14407   2.703   0.334   2.958
 4503SOL    HW114408   2.763   0.303   3.032
 4503SOL    HW214409   2.757   0.381   2.888
 4504SOL     OW14410   6.233   1.495   5.212
 4504SOL    HW114411   6.219   1.569   5.146
 4504SOL    HW214412   6.247   1.533   5.303
 4505SOL     OW14413   6.434   5.672   4.546
 4505SOL    HW114414   6.346   5.624   4.542
 4505SOL    HW214415   6.418   5.770   4.537
 4506SOL     OW14416   4.464   2.508   4.572
 4506SOL    HW114417   4.422   2.495   4.662
 4506SOL    HW214418   4.555   2.546   4.583
 4507SOL     OW14419   5.277   4.073   1.362
 4507SOL    HW114420   5.180   4.066   1.337
 4507SOL    HW214421   5.332   4.082   1.280
 4508SOL     OW14422   0.806   4.560   6.883
 4508SOL    HW114423   0.906   4.560   6.891
 4508SOL    HW214424   0.779   4.521   6.795
 4509SOL     OW14425   4.707   2.324   4.209
 4509SOL    HW114426   4.756   2.357   4.129
 4509SOL    HW214427   4.639   2.256   4.181
 4510SOL     OW14428   5.504   6.959   5.135
 4510SOL    HW114429   5.527   0.034   5.143
 4510SOL    HW214430   5.562   6.917   5.065
 4511SOL     OW14431   0.257   3.295   5.984
 4511SOL    HW114432   0.286   3.250   5.900
 4511SOL    HW214433   0.338   3.319   6.038
 4512SOL     OW14434   2.593   6.883   5.627
 4512SOL    HW114435   2.565   6.807   5.686
 4512SOL    HW214436   2.691   6.873   5.605
 4513SOL     OW14437   4.889   6.637   0.681
 4513SOL    HW114438   4.950   6.585   0.741
 4513SOL    HW214439   4.844   6.574   0.618
 4514SOL     OW14440   4.335   0.449   4.801
 4514SOL    HW114441   4.247   0.498   4.793
 4514SOL    HW214442   4.337   0.398   4.886
 4515SOL     OW14443   6.609   4.144   6.159
 4515SOL    HW114444   6.658   4.063   6.190
 4515SOL    HW214445   6.516   4.119   6.134
 4516SOL     OW14446   1.046   1.883   5.905
 4516SOL    HW114447   1.015   1.957   5.965
 4516SOL    HW214448   1.011   1.795   5.939
 4517SOL     OW14449   2.908   7.003   5.935
 4517SOL    HW114450   2.880   0.027   5.850
 4517SOL    HW214451   2.878   6.908   5.934
 4518SOL     OW14452   6.657   1.804   3.519
 4518SOL    HW114453   6.747   1.848   3.508
 4518SOL    HW214454   6.585   1.871   3.500
 4519SOL     OW14455   6.330   1.200   1.964
 4519SOL    HW114456   6.352   1.143   1.885
 4519SOL    HW214457   6.258   1.264   1.939
 4520SOL     OW14458   5.565   5.518   2.655
 4520SOL    HW114459   5.538   5.429   2.692
 4520SOL    HW214460   5.613   5.505   2.569
 4521SOL     OW14461   4.884   1.861   5.598
 4521SOL    HW114462   4.977   1.854   5.562
 4521SOL    HW214463   4.858   1.774   5.640
 4522SOL     OW14464   5.437   0.280   3.949
 4522SOL    HW114465   5.351   0.265   3.902
 4522SOL    HW214466   5.484   0.359   3.908
 4523SOL     OW14467   1.169   4.040   0.393
 4523SOL    HW114468   1.241   4.054   0.460
 4523SOL    HW214469   1.192   3.962   0.335
 4524SOL     OW14470   5.163   2.207   5.783
 4524SOL    HW114471   5.077   2.156   5.791
 4524SOL    HW214472   5.237   2.154   5.823
 4525SOL     OW14473   6.557   1.537   3.437
 4525SOL    HW114474   6.614   1.619   3.447
 4525SOL    HW214475   6.575   1.494   3.349
 4526SOL     OW14476   5.380   0.132   1.188
 4526SOL    HW114477   5.367   0.168   1.280
 4526SOL    HW214478   5.294   0.094   1.155
 4527SOL     OW14479   4.377   1.541   4.001
 4527SOL    HW114480   4.456   1.486   3.973
 4527SOL    HW214481   4.371   1.622   3.943
 4528SOL     OW14482   5.122   6.686   0.485
 4528SOL    HW114483   5.177   6.614   0.526
 4528SOL    HW214484   5.167   6.774   0.499
 4529SOL     OW14485   3.004   1.456   3.196
 4529SOL    HW114486   2.971   1.444   3.102
 4529SOL    HW214487   2.981   1.375   3.250
 4530SOL     OW14488   0.173   3.885   5.532
 4530SOL    HW114489   0.120   3.966   5.556
 4530SOL    HW214490   0.112   3.814   5.498
 4531SOL     OW14491   0.340   3.105   3.396
 4531SOL    HW114492   0.278   3.132   3.322
 4531SOL    HW214493   0.394   3.026   3.366
 4532SOL     OW14494   0.550   1.355   2.277
 4532SOL    HW114495   0.545   1.444   2.323
 4532SOL    HW214496   0.564   1.283   2.344
 4533SOL     OW14497   1.740   0.085   3.946
 4533SOL    HW114498   1.725   0.035   3.861
 4533SOL    HW214499   1.835   0.115   3.951
 4534SOL     OW14500   6.363   3.500   4.550
 4534SOL    HW114501   6.365   3.569   4.622
 4534SOL    HW214502   6.367   3.409   4.592
 4535SOL     OW14503   4.548   2.018   2.537
 4535SOL    HW114504   4.486   1.957   2.488
 4535SOL    HW214505   4.602   1.966   2.603
 4536SOL     OW14506   4.875   1.515   4.752
 4536SOL    HW114507   4.829   1.433   4.787
 4536SOL    HW214508   4.860   1.522   4.653
 4537SOL     OW14509   3.398   3.522   6.184
 4537SOL    HW114510   3.447   3.547   6.268
 4537SOL    HW214511   3.409   3.594   6.116
 4538SOL     OW14512   3.081   2.027   4.191
 4538SOL    HW114513   3.055   1.953   4.253
 4538SOL    HW214514   3.133   1.990   4.114
 4539SOL     OW14515   2.488   1.739   3.882
 4539SOL    HW114516   2.525   1.761   3.973
 4539SOL    HW214517   2.437   1.817   3.847
 4540SOL     OW14518   3.445   3.411   3.691
 4540SOL    HW114519   3.491   3.445   3.773
 4540SOL    HW214520   3.508   3.414   3.614
 4541SOL     OW14521   5.846   1.161   0.268
 4541SOL    HW114522   5.759   1.118   0.293
 4541SOL    HW214523   5.919   1.124   0.325
 4542SOL     OW14524   5.830   6.544   1.849
 4542SOL    HW114525   5.851   6.641   1.856
 4542SOL    HW214526   5.763   6.519   1.919
 4543SOL     OW14527   4.267   1.745   6.826
 4543SOL    HW114528   4.250   1.730   6.924
 4543SOL    HW214529   4.233   1.668   6.774
 4544SOL     OW14530   2.633   6.036   5.865
 4544SOL    HW114531   2.634   5.977   5.785
 4544SOL    HW214532   2.693   6.114   5.851
 4545SOL     OW14533   5.495   2.450   5.020
 4545SOL    HW114534   5.581   2.404   5.001
 4545SOL    HW214535   5.438   2.451   4.938
 4546SOL     OW14536   1.427   0.520   6.393
 4546SOL    HW114537   1.450   0.426   6.418
 4546SOL    HW214538   1.509   0.568   6.361
 4547SOL     OW14539   6.266   2.474   2.275
 4547SOL    HW114540   6.176   2.474   2.317
 4547SOL    HW214541   6.324   2.542   2.320
 4548SOL     OW14542   0.689   4.135   4.552
 4548SOL    HW114543   0.603   4.084   4.555
 4548SOL    HW214544   0.751   4.101   4.623
 4549SOL     OW14545   6.039   3.925   2.751
 4549SOL    HW114546   6.019   3.944   2.847
 4549SOL    HW214547   6.135   3.899   2.741
 4550SOL     OW14548   0.315   5.942   3.421
 4550SOL    HW114549   0.224   5.946   3.462
 4550SOL    HW214550   0.336   5.848   3.396
 4551SOL     OW14551   0.122   1.676   5.499
 4551SOL    HW114552   0.112   1.744   5.426
 4551SOL    HW214553   0.220   1.659   5.515
 4552SOL     OW14554   6.929   2.725   6.199
 4552SOL    HW114555   6.958   2.726   6.104
 4552SOL    HW214556   6.870   2.803   6.217
 4553SOL     OW14557   3.427   4.361   0.111
 4553SOL    HW114558   3.341   4.319   0.081
 4553SOL    HW214559   3.502   4.296   0.098
 4554SOL     OW14560   3.965   0.419   1.854
 4554SOL    HW114561   4.015   0.371   1.926
 4554SOL    HW214562   3.891   0.472   1.895
 4555SOL     OW14563   4.271   1.287   5.974
 4555SOL    HW114564   4.183   1.246   5.952
 4555SOL    HW214565   4.344   1.219   5.964
 4556SOL     OW14566   4.594   2.209   3.939
 4556SOL    HW114567   4.528   2.168   3.876
 4556SOL    HW214568   4.686   2.197   3.903
 4557SOL     OW14569   4.981   6.527   4.872
 4557SOL    HW114570   5.055   6.539   4.938
 4557SOL    HW214571   4.994   6.441   4.822
 4558SOL     OW14572   6.562   3.695   5.552
 4558SOL    HW114573   6.603   3.604   5.561
 4558SOL    HW214574   6.545   3.733   5.642
 4559SOL     OW14575   1.305   6.174   1.823
 4559SOL    HW114576   1.213   6.158   1.788
 4559SOL    HW214577   1.305   6.169   1.923
 4560SOL     OW14578   5.205   4.578   3.340
 4560SOL    HW114579   5.139   4.538   3.277
 4560SOL    HW214580   5.216   4.518   3.419
 4561SOL     OW14581   2.619   0.797   1.429
 4561SOL    HW114582   2.716   0.774   1.419
 4561SOL    HW214583   2.567   0.715   1.450
 4562SOL     OW14584   2.818   5.549   5.172
 4562SOL    HW114585   2.743   5.590   5.224
 4562SOL    HW214586   2.796   5.454   5.151
 4563SOL     OW14587   6.215   4.045   0.064
 4563SOL    HW114588   6.290   3.988   0.097
 4563SOL    HW214589   6.192   4.113   0.134
 4564SOL     OW14590   1.046   6.024   0.848
 4564SOL    HW114591   0.953   6.007   0.815
 4564SOL    HW214592   1.112   5.998   0.778
 4565SOL     OW14593   0.647   1.140   4.969
 4565SOL    HW114594   0.655   1.217   5.032
 4565SOL    HW214595   0.643   1.173   4.875
 4566SOL     OW14596   0.170   0.603   0.871
 4566SOL    HW114597   0.252   0.612   0.928
 4566SOL    HW214598   0.156   0.506   0.849
 4567SOL     OW14599   0.380   1.151   0.255
 4567SOL    HW114600   0.473   1.164   0.288
 4567SOL    HW214601   0.318   1.213   0.303
 4568SOL     OW14602   1.829   4.265   5.294
 4568SOL    HW114603   1.775   4.189   5.257
 4568SOL    HW214604   1.883   4.306   5.221
 4569SOL     OW14605   2.070   1.932   3.827
 4569SOL    HW114606   2.017   1.852   3.856
 4569SOL    HW214607   2.052   2.008   3.889
 4570SOL     OW14608   0.183   5.315   3.395
 4570SOL    HW114609   0.247   5.383   3.360
 4570SOL    HW214610   0.095   5.359   3.414
 4571SOL     OW14611   3.335   3.895   5.200
 4571SOL    HW114612   3.236   3.902   5.182
 4571SOL    HW214613   3.355   3.805   5.238
 4572SOL     OW14614   0.079   6.296   0.039
 4572SOL    HW114615   7.018   6.351   0.037
 4572SOL    HW214616   0.081   6.235   6.981
 4573SOL     OW14617   5.931   6.418   0.844
 4573SOL    HW114618   5.987   6.423   0.927
 4573SOL    HW214619   5.935   6.325   0.807
 4574SOL     OW14620   6.904   4.571   1.189
 4574SOL    HW114621   6.894   4.472   1.201
 4574SOL    HW214622   6.980   4.604   1.247
 4575SOL     OW14623   6.953   2.486   0.847
 4575SOL    HW114624   6.887   2.499   0.921
 4575SOL    HW214625   6.910   2.435   0.773
 4576SOL     OW14626   2.391   5.517   6.188
 4576SOL    HW114627   2.324   5.587   6.164
 4576SOL    HW214628   2.353   5.456   6.258
 4577SOL     OW14629   0.005   3.138   2.969
 4577SOL    HW114630   0.028   3.047   2.936
 4577SOL    HW214631   0.003   3.202   2.893
 4578SOL     OW14632   0.072   3.759   3.546
 4578SOL    HW114633   0.096   3.855   3.534
 4578SOL    HW214634   0.065   3.737   3.643
 4579SOL     OW14635   4.984   1.892   3.219
 4579SOL    HW114636   5.067   1.861   3.265
 4579SOL    HW214637   4.979   1.851   3.128
 4580SOL     OW14638   5.274   5.572   0.155
 4580SOL    HW114639   5.249   5.622   0.238
 4580SOL    HW214640   5.355   5.615   0.115
 4581SOL     OW14641   3.272   5.453   2.421
 4581SOL    HW114642   3.367   5.454   2.389
 4581SOL    HW214643   3.228   5.541   2.398
 4582SOL     OW14644   5.903   6.511   4.785
 4582SOL    HW114645   5.951   6.431   4.821
 4582SOL    HW214646   5.967   6.567   4.733
 4583SOL     OW14647   2.784   2.035   4.740
 4583SOL    HW114648   2.797   1.936   4.732
 4583SOL    HW214649   2.870   2.078   4.766
 4584SOL     OW14650   0.328   6.089   5.690
 4584SOL    HW114651   0.415   6.113   5.733
 4584SOL    HW214652   0.274   6.033   5.754
 4585SOL     OW14653   3.297   6.235   2.814
 4585SOL    HW114654   3.198   6.247   2.817
 4585SOL    HW214655   3.322   6.186   2.730
 4586SOL     OW14656   4.248   4.471   1.199
 4586SOL    HW114657   4.295   4.445   1.284
 4586SOL    HW214658   4.310   4.458   1.122
 4587SOL     OW14659   4.234   3.755   1.791
 4587SOL    HW114660   4.281   3.687   1.736
 4587SOL    HW214661   4.142   3.724   1.812
 4588SOL     OW14662   4.051   3.669   4.994
 4588SOL    HW114663   4.062   3.698   4.899
 4588SOL    HW214664   3.973   3.715   5.034
 4589SOL     OW14665   5.856   1.604   2.613
 4589SOL    HW114666   5.947   1.569   2.633
 4589SOL    HW214667   5.798   1.531   2.577
 4590SOL     OW14668   4.460   5.988   1.438
 4590SOL    HW114669   4.440   6.029   1.527
 4590SOL    HW214670   4.543   6.030   1.401
 4591SOL     OW14671   0.196   6.412   5.370
 4591SOL    HW114672   0.286   6.443   5.341
 4591SOL    HW214673   0.197   6.313   5.385
 4592SOL     OW14674   4.207   2.971   1.655
 4592SOL    HW114675   4.140   2.899   1.673
 4592SOL    HW214676   4.299   2.935   1.667
 4593SOL     OW14677   4.283   5.404   3.679
 4593SOL    HW114678   4.290   5.498   3.713
 4593SOL    HW214679   4.188   5.373   3.686
 4594SOL     OW14680   3.369   2.223   1.316
 4594SOL    HW114681   3.416   2.198   1.400
 4594SOL    HW214682   3.284   2.271   1.338
 4595SOL     OW14683   3.719   2.778   5.768
 4595SOL    HW114684   3.678   2.854   5.818
 4595SOL    HW214685   3.793   2.739   5.823
 4596SOL     OW14686   5.721   6.140   1.775
 4596SOL    HW114687   5.717   6.106   1.869
 4596SOL    HW214688   5.797   6.203   1.765
 4597SOL     OW14689   4.811   4.580   6.734
 4597SOL    HW114690   4.816   4.675   6.704
 4597SOL    HW214691   4.756   4.528   6.670
 4598SOL     OW14692   1.143   5.026   6.710
 4598SOL    HW114693   1.192   4.945   6.681
 4598SOL    HW214694   1.045   5.015   6.692
 4599SOL     OW14695   1.655   4.131   1.309
 4599SOL    HW114696   1.556   4.125   1.296
 4599SOL    HW214697   1.674   4.147   1.406
 4600SOL     OW14698   2.648   5.544   5.553
 4600SOL    HW114699   2.561   5.566   5.597
 4600SOL    HW214700   2.689   5.465   5.599
 4601SOL     OW14701   1.843   0.918   5.212
 4601SOL    HW114702   1.899   0.870   5.145
 4601SOL    HW214703   1.895   0.996   5.248
 4602SOL     OW14704   0.967   6.187   0.554
 4602SOL    HW114705   0.958   6.208   0.457
 4602SOL    HW214706   1.046   6.236   0.592
 4603SOL     OW14707   3.718   6.632   1.363
 4603SOL    HW114708   3.689   6.655   1.270
 4603SOL    HW214709   3.709   6.713   1.422
 4604SOL     OW14710   4.474   0.721   1.406
 4604SOL    HW114711   4.436   0.705   1.497
 4604SOL    HW214712   4.574   0.716   1.410
 4605SOL     OW14713   4.989   0.783   3.652
 4605SOL    HW114714   5.025   0.859   3.707
 4605SOL    HW214715   4.891   0.775   3.669
 4606SOL     OW14716   6.843   6.998   2.130
 4606SOL    HW114717   6.808   6.907   2.105
 4606SOL    HW214718   6.790   0.012   2.207
 4607SOL     OW14719   2.703   2.630   0.589
 4607SOL    HW114720   2.731   2.534   0.584
 4607SOL    HW214721   2.629   2.639   0.656
 4608SOL     OW14722   1.349   5.749   4.522
 4608SOL    HW114723   1.289   5.694   4.464
 4608SOL    HW214724   1.308   5.757   4.613
 4609SOL     OW14725   4.157   5.297   6.241
 4609SOL    HW114726   4.164   5.221   6.306
 4609SOL    HW214727   4.236   5.297   6.180
 4610SOL     OW14728   6.903   2.489   0.472
 4610SOL    HW114729   6.967   2.470   0.546
 4610SOL    HW214730   6.876   2.585   0.475
 4611SOL     OW14731   6.360   4.863   5.527
 4611SOL    HW114732   6.456   4.876   5.502
 4611SOL    HW214733   6.355   4.806   5.609
 4612SOL     OW14734   1.600   6.492   7.014
 4612SOL    HW114735   1.678   6.523   0.045
 4612SOL    HW214736   1.536   6.567   7.001
 4613SOL     OW14737   2.550   5.714   2.704
 4613SOL    HW114738   2.602   5.757   2.630
 4613SOL    HW214739   2.577   5.618   2.711
 4614SOL     OW14740   1.251   4.894   5.890
 4614SOL    HW114741   1.290   4.960   5.955
 4614SOL    HW214742   1.284   4.915   5.798
 4615SOL     OW14743   1.965   1.075   6.835
 4615SOL    HW114744   2.053   1.051   6.795
 4615SOL    HW214745   1.955   1.175   6.835
 4616SOL     OW14746   0.134   0.395   5.879
 4616SOL    HW114747   0.169   0.486   5.859
 4616SOL    HW214748   0.081   0.361   5.800
 4617SOL     OW14749   1.556   2.274   2.753
 4617SOL    HW114750   1.587   2.188   2.713
 4617SOL    HW214751   1.457   2.271   2.768
 4618SOL     OW14752   1.689   3.039   5.049
 4618SOL    HW114753   1.757   2.969   5.068
 4618SOL    HW214754   1.734   3.128   5.037
 4619SOL     OW14755   5.058   6.451   3.512
 4619SOL    HW114756   5.010   6.399   3.441
 4619SOL    HW214757   5.076   6.544   3.478
 4620SOL     OW14758   3.189   3.682   6.690
 4620SOL    HW114759   3.150   3.769   6.660
 4620SOL    HW214760   3.219   3.630   6.610
 4621SOL     OW14761   5.717   2.397   3.666
 4621SOL    HW114762   5.776   2.450   3.727
 4621SOL    HW214763   5.773   2.356   3.594
 4622SOL     OW14764   1.084   3.091   1.033
 4622SOL    HW114765   1.156   3.156   1.057
 4622SOL    HW214766   1.009   3.140   0.988
 4623SOL     OW14767   0.005   5.681   1.091
 4623SOL    HW114768   0.039   5.746   1.159
 4623SOL    HW214769   6.928   5.670   1.102
 4624SOL     OW14770   4.402   0.029   3.261
 4624SOL    HW114771   4.463   0.068   3.192
 4624SOL    HW214772   4.315   0.005   3.217
 4625SOL     OW14773   1.402   4.112   6.937
 4625SOL    HW114774   1.313   4.128   6.894
 4625SOL    HW214775   1.475   4.136   6.873
 4626SOL     OW14776   5.676   4.769   1.294
 4626SOL    HW114777   5.638   4.762   1.202
 4626SOL    HW214778   5.761   4.821   1.292
 4627SOL     OW14779   3.233   5.498   5.196
 4627SOL    HW114780   3.168   5.546   5.255
 4627SOL    HW214781   3.189   5.478   5.108
 4628SOL     OW14782   5.973   4.451   3.330
 4628SOL    HW114783   5.984   4.352   3.317
 4628SOL    HW214784   5.878   4.472   3.352
 4629SOL     OW14785   1.955   4.967   5.934
 4629SOL    HW114786   1.985   4.886   5.985
 4629SOL    HW214787   2.015   4.979   5.854
 4630SOL     OW14788   3.648   5.809   3.533
 4630SOL    HW114789   3.715   5.825   3.605
 4630SOL    HW214790   3.690   5.824   3.444
 4631SOL     OW14791   2.727   6.864   3.517
 4631SOL    HW114792   2.740   6.864   3.616
 4631SOL    HW214793   2.644   6.813   3.494
 4632SOL     OW14794   4.296   5.068   2.941
 4632SOL    HW114795   4.300   5.036   3.036
 4632SOL    HW214796   4.223   5.136   2.932
 4633SOL     OW14797   6.234   2.069   3.990
 4633SOL    HW114798   6.296   2.148   3.995
 4633SOL    HW214799   6.240   2.017   4.075
 4634SOL     OW14800   2.443   4.404   6.601
 4634SOL    HW114801   2.519   4.418   6.538
 4634SOL    HW214802   2.443   4.308   6.632
 4635SOL     OW14803   6.208   4.079   2.091
 4635SOL    HW114804   6.275   4.147   2.122
 4635SOL    HW214805   6.253   3.990   2.081
 4636SOL     OW14806   2.177   5.040   6.985
 4636SOL    HW114807   2.179   5.002   6.893
 4636SOL    HW214808   2.184   5.139   6.981
 4637SOL     OW14809   1.860   0.818   0.253
 4637SOL    HW114810   1.921   0.857   0.184
 4637SOL    HW214811   1.911   0.756   0.312
 4638SOL     OW14812   3.602   2.705   6.239
 4638SOL    HW114813   3.641   2.795   6.257
 4638SOL    HW214814   3.577   2.697   6.143
 4639SOL     OW14815   2.146   4.659   5.442
 4639SOL    HW114816   2.088   4.588   5.482
 4639SOL    HW214817   2.224   4.676   5.502
 4640SOL     OW14818   4.260   5.268   3.191
 4640SOL    HW114819   4.345   5.236   3.148
 4640SOL    HW214820   4.222   5.195   3.247
 4641SOL     OW14821   2.690   5.093   4.020
 4641SOL    HW114822   2.769   5.099   4.082
 4641SOL    HW214823   2.700   5.013   3.961
 4642SOL     OW14824   0.462   6.577   5.517
 4642SOL    HW114825   0.474   6.556   5.420
 4642SOL    HW214826   0.367   6.558   5.544
 4643SOL     OW14827   4.976   2.493   0.692
 4643SOL    HW114828   4.916   2.486   0.612
 4643SOL    HW214829   5.010   2.586   0.700
 4644SOL     OW14830   1.450   4.522   4.806
 4644SOL    HW114831   1.510   4.461   4.857
 4644SOL    HW214832   1.360   4.525   4.849
 4645SOL     OW14833   1.698   0.327   4.485
 4645SOL    HW114834   1.731   0.419   4.504
 4645SOL    HW214835   1.599   0.328   4.474
 4646SOL     OW14836   2.145   6.531   2.722
 4646SOL    HW114837   2.132   6.451   2.781
 4646SOL    HW214838   2.117   6.508   2.629
 4647SOL     OW14839   0.413   6.468   3.358
 4647SOL    HW114840   0.381   6.381   3.321
 4647SOL    HW214841   0.368   6.486   3.445
 4648SOL     OW14842   4.074   0.120   1.166
 4648SOL    HW114843   3.999   0.153   1.109
 4648SOL    HW214844   4.054   0.027   1.196
 4649SOL     OW14845   5.069   0.014   6.052
 4649SOL    HW114846   5.147   6.976   6.033
 4649SOL    HW214847   5.096   0.083   6.119
 4650SOL     OW14848   4.031   6.075   3.547
 4650SOL    HW114849   4.083   6.047   3.467
 4650SOL    HW214850   3.994   6.167   3.533
 4651SOL     OW14851   0.157   2.017   1.329
 4651SOL    HW114852   0.224   2.086   1.302
 4651SOL    HW214853   0.064   2.054   1.319
 4652SOL     OW14854   0.758   0.133   3.228
 4652SOL    HW114855   0.843   0.116   3.178
 4652SOL    HW214856   0.716   0.046   3.254
 4653SOL     OW14857   6.724   5.197   0.437
 4653SOL    HW114858   6.789   5.272   0.450
 4653SOL    HW214859   6.744   5.125   0.503
 4654SOL     OW14860   0.587   0.274   6.903
 4654SOL    HW114861   0.654   0.257   6.831
 4654SOL    HW214862   0.495   0.278   6.863
 4655SOL     OW14863   0.006   4.992   1.924
 4655SOL    HW114864   0.051   5.019   1.839
 4655SOL    HW214865   0.030   5.057   1.996
 4656SOL     OW14866   0.966   6.873   3.142
 4656SOL    HW114867   0.903   6.809   3.186
 4656SOL    HW214868   1.038   6.822   3.094
 4657SOL     OW14869   5.065   0.006   1.837
 4657SOL    HW114870   5.032   0.091   1.797
 4657SOL    HW214871   5.160   7.012   1.809
 4658SOL     OW14872   3.387   0.455   2.510
 4658SOL    HW114873   3.347   0.453   2.419
 4658SOL    HW214874   3.370   0.367   2.555
 4659SOL     OW14875   2.549   3.710   5.632
 4659SOL    HW114876   2.504   3.782   5.579
 4659SOL    HW214877   2.495   3.626   5.627
 4660SOL     OW14878   1.220   2.637   4.821
 4660SOL    HW114879   1.283   2.560   4.820
 4660SOL    HW214880   1.269   2.720   4.847
 4661SOL     OW14881   4.320   4.298   5.524
 4661SOL    HW114882   4.361   4.246   5.449
 4661SOL    HW214883   4.233   4.255   5.550
 4662SOL     OW14884   4.860   0.140   5.014
 4662SOL    HW114885   4.808   0.210   4.965
 4662SOL    HW214886   4.804   0.102   5.088
 4663SOL     OW14887   0.212   1.261   2.507
 4663SOL    HW114888   0.306   1.230   2.527
 4663SOL    HW214889   0.205   1.285   2.410
 4664SOL     OW14890   1.928   2.645   6.485
 4664SOL    HW114891   1.895   2.695   6.405
 4664SOL    HW214892   1.852   2.630   6.548
 4665SOL     OW14893   4.440   0.062   0.046
 4665SOL    HW114894   4.488   0.144   0.078
 4665SOL    HW214895   4.492   7.002   0.074
 4666SOL     OW14896   2.345   1.770   6.677
 4666SOL    HW114897   2.348   1.700   6.605
 4666SOL    HW214898   2.257   1.766   6.724
 4667SOL     OW14899   6.489   5.011   0.642
 4667SOL    HW114900   6.439   4.938   0.688
 4667SOL    HW214901   6.451   5.026   0.551
 4668SOL     OW14902   6.940   1.681   4.003
 4668SOL    HW114903   7.015   1.745   3.984
 4668SOL    HW214904   6.888   1.664   3.919
 4669SOL     OW14905   3.735   6.634   0.824
 4669SOL    HW114906   3.795   6.652   0.746
 4669SOL    HW214907   3.693   6.719   0.855
 4670SOL     OW14908   3.473   1.488   4.942
 4670SOL    HW114909   3.509   1.557   5.004
 4670SOL    HW214910   3.427   1.416   4.995
 4671SOL     OW14911   6.211   2.794   2.049
 4671SOL    HW114912   6.149   2.778   2.126
 4671SOL    HW214913   6.184   2.735   1.973
 4672SOL     OW14914   2.810   4.517   5.934
 4672SOL    HW114915   2.732   4.455   5.926
 4672SOL    HW214916   2.791   4.602   5.886
 4673SOL     OW14917   5.022   6.876   1.235
 4673SOL    HW114918   5.025   6.869   1.135
 4673SOL    HW214919   5.079   6.953   1.265
 4674SOL     OW14920   5.393   6.159   6.182
 4674SOL    HW114921   5.302   6.169   6.221
 4674SOL    HW214922   5.460   6.147   6.256
 4675SOL     OW14923   0.733   3.374   0.575
 4675SOL    HW114924   0.781   3.300   0.527
 4675SOL    HW214925   0.649   3.396   0.526
 4676SOL     OW14926   0.754   5.831   3.972
 4676SOL    HW114927   0.787   5.783   3.891
 4676SOL    HW214928   0.707   5.766   4.032
 4677SOL     OW14929   2.015   2.168   0.951
 4677SOL    HW114930   1.945   2.184   0.882
 4677SOL    HW214931   2.036   2.254   0.997
 4678SOL     OW14932   2.643   4.707   2.830
 4678SOL    HW114933   2.716   4.743   2.888
 4678SOL    HW214934   2.657   4.737   2.736
 4679SOL     OW14935   4.065   6.840   2.266
 4679SOL    HW114936   4.147   6.803   2.308
 4679SOL    HW214937   4.002   6.871   2.337
 4680SOL     OW14938   3.918   1.602   0.443
 4680SOL    HW114939   3.941   1.613   0.346
 4680SOL    HW214940   3.819   1.589   0.453
 4681SOL     OW14941   4.668   4.978   6.779
 4681SOL    HW114942   4.713   5.006   6.695
 4681SOL    HW214943   4.687   5.045   6.851
 4682SOL     OW14944   5.279   3.758   6.189
 4682SOL    HW114945   5.352   3.749   6.121
 4682SOL    HW214946   5.275   3.676   6.245
 4683SOL     OW14947   5.773   5.442   2.127
 4683SOL    HW114948   5.831   5.524   2.130
 4683SOL    HW214949   5.763   5.405   2.220
 4684SOL     OW14950   4.366   6.491   5.858
 4684SOL    HW114951   4.341   6.445   5.773
 4684SOL    HW214952   4.464   6.481   5.874
 4685SOL     OW14953   2.042   4.780   6.145
 4685SOL    HW114954   2.091   4.853   6.191
 4685SOL    HW214955   2.081   4.692   6.172
 4686SOL     OW14956   4.405   5.300   0.648
 4686SOL    HW114957   4.458   5.385   0.654
 4686SOL    HW214958   4.468   5.222   0.646
 4687SOL     OW14959   4.907   2.445   4.392
 4687SOL    HW114960   4.843   2.382   4.349
 4687SOL    HW214961   5.001   2.416   4.373
 4688SOL     OW14962   5.576   3.030   5.234
 4688SOL    HW114963   5.495   3.023   5.176
 4688SOL    HW214964   5.587   2.945   5.286
 4689SOL     OW14965   5.892   0.921   1.111
 4689SOL    HW114966   5.893   0.905   1.209
 4689SOL    HW214967   5.957   0.859   1.067
 4690SOL     OW14968   1.600   1.487   0.544
 4690SOL    HW114969   1.530   1.557   0.557
 4690SOL    HW214970   1.557   1.396   0.544
 4691SOL     OW14971   3.951   3.880   0.007
 4691SOL    HW114972   3.948   3.781   0.017
 4691SOL    HW214973   3.885   3.908   6.960
 4692SOL     OW14974   5.814   5.025   3.210
 4692SOL    HW114975   5.787   4.961   3.281
 4692SOL    HW214976   5.747   5.022   3.135
 4693SOL     OW14977   0.899   0.972   3.743
 4693SOL    HW114978   0.938   1.031   3.673
 4693SOL    HW214979   0.869   0.886   3.702
 4694SOL     OW14980   2.463   2.622   0.802
 4694SOL    HW114981   2.485   2.697   0.864
 4694SOL    HW214982   2.436   2.660   0.713
 4695SOL     OW14983   1.599   6.099   0.777
 4695SOL    HW114984   1.651   6.178   0.744
 4695SOL    HW214985   1.504   6.127   0.794
 4696SOL     OW14986   0.575   5.790   6.529
 4696SOL    HW114987   0.490   5.747   6.498
 4696SOL    HW214988   0.572   5.802   6.628
 4697SOL     OW14989   0.953   3.891   2.399
 4697SOL    HW114990   0.944   3.990   2.392
 4697SOL    HW214991   1.045   3.868   2.431
 4698SOL     OW14992   3.816   6.786   3.118
 4698SOL    HW114993   3.909   6.754   3.134
 4698SOL    HW214994   3.790   6.851   3.189
 4699SOL     OW14995   0.610   6.548   2.743
 4699SOL    HW114996   0.515   6.581   2.751
 4699SOL    HW214997   0.642   6.517   2.833
 4700SOL     OW14998   6.390   1.143   2.275
 4700SOL    HW114999   6.399   1.241   2.264
 4700SOL    HW215000   6.420   1.096   2.192
 4701SOL     OW15001   3.452   1.941   0.814
 4701SOL    HW115002   3.469   2.019   0.874
 4701SOL    HW215003   3.429   1.860   0.868
 4702SOL     OW15004   4.588   4.485   0.434
 4702SOL    HW115005   4.570   4.562   0.495
 4702SOL    HW215006   4.642   4.515   0.356
 4703SOL     OW15007   0.860   5.912   2.887
 4703SOL    HW115008   0.942   5.887   2.938
 4703SOL    HW215009   0.779   5.890   2.942
 4704SOL     OW15010   0.093   5.971   6.121
 4704SOL    HW115011   0.108   5.873   6.128
 4704SOL    HW215012   0.095   5.998   6.024
 4705SOL     OW15013   3.184   2.572   0.620
 4705SOL    HW115014   3.154   2.631   0.695
 4705SOL    HW215015   3.128   2.489   0.620
 4706SOL     OW15016   1.019   0.574   0.490
 4706SOL    HW115017   1.033   0.497   0.429
 4706SOL    HW215018   1.106   0.600   0.533
 4707SOL     OW15019   0.889   6.151   1.311
 4707SOL    HW115020   0.903   6.057   1.341
 4707SOL    HW215021   0.863   6.152   1.214
 4708SOL     OW15022   0.829   2.064   5.757
 4708SOL    HW115023   0.809   2.042   5.662
 4708SOL    HW215024   0.894   2.139   5.762
 4709SOL     OW15025   4.680   5.091   4.501
 4709SOL    HW115026   4.650   5.186   4.516
 4709SOL    HW215027   4.773   5.091   4.466
 4710SOL     OW15028   5.771   7.002   5.902
 4710SOL    HW115029   5.820   6.991   5.815
 4710SOL    HW215030   5.721   6.918   5.922
 4711SOL     OW15031   6.679   1.849   2.427
 4711SOL    HW115032   6.714   1.881   2.515
 4711SOL    HW215033   6.649   1.927   2.373
 4712SOL     OW15034   3.869   4.771   6.620
 4712SOL    HW115035   3.862   4.777   6.520
 4712SOL    HW215036   3.829   4.852   6.662
 4713SOL     OW15037   5.011   5.691   0.766
 4713SOL    HW115038   4.922   5.646   0.769
 4713SOL    HW215039   5.080   5.632   0.808
 4714SOL     OW15040   0.482   1.375   6.283
 4714SOL    HW115041   0.578   1.374   6.310
 4714SOL    HW215042   0.444   1.283   6.294
 4715SOL     OW15043   6.035   2.786   1.463
 4715SOL    HW115044   5.957   2.737   1.424
 4715SOL    HW215045   6.115   2.726   1.465
 4716SOL     OW15046   4.907   6.287   5.457
 4716SOL    HW115047   4.850   6.228   5.515
 4716SOL    HW215048   4.881   6.383   5.472
 4717SOL     OW15049   2.032   4.976   5.060
 4717SOL    HW115050   2.033   4.922   5.144
 4717SOL    HW215051   2.079   5.063   5.075
 4718SOL     OW15052   5.224   2.473   1.177
 4718SOL    HW115053   5.239   2.385   1.131
 4718SOL    HW215054   5.161   2.529   1.123
 4719SOL     OW15055   4.877   3.960   2.742
 4719SOL    HW115056   4.905   4.023   2.814
 4719SOL    HW215057   4.829   4.010   2.670
 4720SOL     OW15058   1.811   4.687   6.292
 4720SOL    HW115059   1.819   4.756   6.364
 4720SOL    HW215060   1.850   4.723   6.207
 4721SOL     OW15061   5.953   2.315   1.763
 4721SOL    HW115062   5.955   2.415   1.768
 4721SOL    HW215063   5.866   2.285   1.725
 4722SOL     OW15064   0.910   6.400   0.033
 4722SOL    HW115065   0.934   6.323   6.996
 4722SOL    HW215066   0.819   6.434   0.008
 4723SOL     OW15067   3.609   3.846   5.157
 4723SOL    HW115068   3.520   3.877   5.190
 4723SOL    HW215069   3.677   3.918   5.169
 4724SOL     OW15070   6.920   0.046   4.052
 4724SOL    HW115071   6.839   0.080   4.101
 4724SOL    HW215072   6.943   6.976   4.086
 4725SOL     OW15073   5.750   4.944   7.008
 4725SOL    HW115074   5.696   5.028   7.002
 4725SOL    HW215075   5.791   4.937   0.077
 4726SOL     OW15076   1.144   3.263   5.894
 4726SOL    HW115077   1.144   3.197   5.970
 4726SOL    HW215078   1.171   3.353   5.929
 4727SOL     OW15079   0.033   5.969   1.259
 4727SOL    HW115080   0.042   6.060   1.299
 4727SOL    HW215081   0.104   5.909   1.295
 4728SOL     OW15082   6.843   1.139   2.891
 4728SOL    HW115083   6.916   1.173   2.951
 4728SOL    HW215084   6.782   1.215   2.868
 4729SOL     OW15085   5.069   0.463   0.699
 4729SOL    HW115086   5.105   0.436   0.610
 4729SOL    HW215087   5.094   0.394   0.767
 4730SOL     OW15088   3.942   5.851   5.548
 4730SOL    HW115089   4.003   5.882   5.475
 4730SOL    HW215090   3.848   5.876   5.526
 4731SOL     OW15091   2.804   0.763   0.578
 4731SOL    HW115092   2.847   0.714   0.502
 4731SOL    HW215093   2.828   0.717   0.664
 4732SOL     OW15094   0.139   3.520   5.591
 4732SOL    HW115095   0.221   3.476   5.629
 4732SOL    HW215096   0.158   3.549   5.497
 4733SOL     OW15097   1.065   4.093   2.885
 4733SOL    HW115098   1.076   3.996   2.908
 4733SOL    HW215099   1.149   4.127   2.843
 4734SOL     OW15100   5.324   3.299   0.238
 4734SOL    HW115101   5.392   3.242   0.284
 4734SOL    HW215102   5.336   3.293   0.139
 4735SOL     OW15103   6.224   5.270   4.361
 4735SOL    HW115104   6.210   5.345   4.426
 4735SOL    HW215105   6.173   5.189   4.393
 4736SOL     OW15106   5.710   1.756   3.944
 4736SOL    HW115107   5.714   1.728   4.039
 4736SOL    HW215108   5.639   1.826   3.932
 4737SOL     OW15109   2.304   4.316   0.726
 4737SOL    HW115110   2.403   4.313   0.739
 4737SOL    HW215111   2.260   4.340   0.812
 4738SOL     OW15112   3.276   6.463   3.745
 4738SOL    HW115113   3.178   6.459   3.764
 4738SOL    HW215114   3.291   6.507   3.656
 4739SOL     OW15115   5.928   1.955   3.638
 4739SOL    HW115116   5.930   1.874   3.580
 4739SOL    HW215117   5.849   1.951   3.699
 4740SOL     OW15118   0.760   0.680   0.488
 4740SOL    HW115119   0.755   0.727   0.400
 4740SOL    HW215120   0.850   0.637   0.498
 4741SOL     OW15121   4.678   3.999   1.119
 4741SOL    HW115122   4.752   4.041   1.066
 4741SOL    HW215123   4.653   3.911   1.077
 4742SOL     OW15124   3.588   6.123   1.788
 4742SOL    HW115125   3.597   6.023   1.787
 4742SOL    HW215126   3.663   6.164   1.736
 4743SOL     OW15127   1.592   1.967   5.894
 4743SOL    HW115128   1.620   1.933   5.984
 4743SOL    HW215129   1.566   2.063   5.902
 4744SOL     OW15130   2.540   3.243   5.659
 4744SOL    HW115131   2.638   3.242   5.679
 4744SOL    HW215132   2.509   3.150   5.644
 4745SOL     OW15133   2.455   5.077   5.096
 4745SOL    HW115134   2.446   5.017   5.016
 4745SOL    HW215135   2.534   5.137   5.083
 4746SOL     OW15136   5.976   6.275   1.375
 4746SOL    HW115137   5.945   6.368   1.392
 4746SOL    HW215138   5.913   6.210   1.418
 4747SOL     OW15139   1.214   3.498   6.074
 4747SOL    HW115140   1.226   3.516   6.172
 4747SOL    HW215141   1.302   3.504   6.028
 4748SOL     OW15142   1.663   5.819   1.234
 4748SOL    HW115143   1.752   5.805   1.276
 4748SOL    HW215144   1.644   5.745   1.170
 4749SOL     OW15145   2.958   6.465   5.495
 4749SOL    HW115146   3.045   6.511   5.512
 4749SOL    HW215147   2.974   6.372   5.464
 4750SOL     OW15148   0.118   1.895   3.884
 4750SOL    HW115149   0.122   1.950   3.800
 4750SOL    HW215150   0.154   1.803   3.865
 4751SOL     OW15151   2.211   3.890   0.109
 4751SOL    HW115152   2.281   3.897   0.179
 4751SOL    HW215153   2.138   3.955   0.126
 4752SOL     OW15154   2.826   0.059   0.448
 4752SOL    HW115155   2.917   0.028   0.421
 4752SOL    HW215156   2.834   0.123   0.525
 4753SOL     OW15157   5.001   0.437   4.199
 4753SOL    HW115158   4.925   0.443   4.263
 4753SOL    HW215159   5.016   0.341   4.174
 4754SOL     OW15160   5.814   0.725   5.439
 4754SOL    HW115161   5.784   0.819   5.456
 4754SOL    HW215162   5.875   0.695   5.512
 4755SOL     OW15163   2.489   0.946   6.950
 4755SOL    HW115164   2.546   0.907   0.001
 4755SOL    HW215165   2.415   0.999   6.991
 4756SOL     OW15166   5.686   2.015   1.382
 4756SOL    HW115167   5.710   2.063   1.467
 4756SOL    HW215168   5.651   1.924   1.404
 4757SOL     OW15169   1.428   1.691   2.601
 4757SOL    HW115170   1.421   1.757   2.527
 4757SOL    HW215171   1.372   1.722   2.679
 4758SOL     OW15172   3.579   5.451   4.902
 4758SOL    HW115173   3.679   5.459   4.898
 4758SOL    HW215174   3.542   5.446   4.810
 4759SOL     OW15175   5.756   5.579   5.463
 4759SOL    HW115176   5.694   5.657   5.458
 4759SOL    HW215177   5.728   5.511   5.395
 4760SOL     OW15178   3.169   2.347   0.971
 4760SOL    HW115179   3.092   2.410   0.959
 4760SOL    HW215180   3.134   2.255   0.984
 4761SOL     OW15181   6.929   1.002   6.516
 4761SOL    HW115182   6.959   1.083   6.567
 4761SOL    HW215183   6.846   1.024   6.465
 4762SOL     OW15184   2.853   5.184   3.050
 4762SOL    HW115185   2.813   5.206   2.961
 4762SOL    HW215186   2.785   5.138   3.107
 4763SOL     OW15187   5.877   6.314   3.539
 4763SOL    HW115188   5.956   6.365   3.504
 4763SOL    HW215189   5.840   6.361   3.619
 4764SOL     OW15190   4.949   3.738   5.532
 4764SOL    HW115191   4.912   3.675   5.463
 4764SOL    HW215192   4.888   3.817   5.541
 4765SOL     OW15193   5.166   6.781   4.170
 4765SOL    HW115194   5.148   6.773   4.268
 4765SOL    HW215195   5.194   6.692   4.134
 4766SOL     OW15196   3.949   0.521   3.530
 4766SOL    HW115197   3.850   0.539   3.530
 4766SOL    HW215198   3.969   0.448   3.596
 4767SOL     OW15199   4.208   5.728   6.438
 4767SOL    HW115200   4.275   5.662   6.403
 4767SOL    HW215201   4.247   5.820   6.435
 4768SOL     OW15202   5.139   1.931   5.530
 4768SOL    HW115203   5.197   1.980   5.596
 4768SOL    HW215204   5.156   1.968   5.438
 4769SOL     OW15205   4.687   5.069   0.941
 4769SOL    HW115206   4.730   5.009   0.872
 4769SOL    HW215207   4.594   5.090   0.913
 4770SOL     OW15208   1.666   6.932   3.712
 4770SOL    HW115209   1.643   6.953   3.617
 4770SOL    HW215210   1.594   6.876   3.752
 4771SOL     OW15211   3.429   5.481   6.076
 4771SOL    HW115212   3.417   5.406   6.141
 4771SOL    HW215213   3.485   5.553   6.117
 4772SOL     OW15214   2.186   5.736   2.270
 4772SOL    HW115215   2.150   5.668   2.334
 4772SOL    HW215216   2.110   5.791   2.234
 4773SOL     OW15217   6.743   5.052   5.100
 4773SOL    HW115218   6.746   5.029   5.197
 4773SOL    HW215219   6.670   5.118   5.084
 4774SOL     OW15220   1.105   2.235   1.776
 4774SOL    HW115221   1.171   2.160   1.777
 4774SOL    HW215222   1.118   2.290   1.858
 4775SOL     OW15223   5.416   0.404   3.175
 4775SOL    HW115224   5.506   0.363   3.189
 4775SOL    HW215225   5.387   0.450   3.258
 4776SOL     OW15226   1.678   6.551   4.140
 4776SOL    HW115227   1.638   6.609   4.212
 4776SOL    HW215228   1.612   6.540   4.066
 4777SOL     OW15229   3.136   5.038   1.489
 4777SOL    HW115230   3.164   4.943   1.499
 4777SOL    HW215231   3.077   5.064   1.565
 4778SOL     OW15232   4.950   2.046   2.128
 4778SOL    HW115233   5.024   2.026   2.064
 4778SOL    HW215234   4.968   2.134   2.172
 4779SOL     OW15235   6.959   6.381   2.347
 4779SOL    HW115236   6.985   6.293   2.308
 4779SOL    HW215237   6.931   6.368   2.442
 4780SOL     OW15238   6.916   0.055   0.062
 4780SOL    HW115239   6.983   0.111   0.111
 4780SOL    HW215240   6.930   6.981   0.086
 4781SOL     OW15241   2.609   6.035   0.781
 4781SOL    HW115242   2.654   6.114   0.823
 4781SOL    HW215243   2.538   6.066   0.719
 4782SOL     OW15244   4.466   6.662   0.025
 4782SOL    HW115245   4.422   6.578   7.016
 4782SOL    HW215246   4.417   6.698   0.105
 4783SOL     OW15247   5.059   3.991   0.097
 4783SOL    HW115248   5.094   4.047   0.172
 4783SOL    HW215249   5.089   3.897   0.108
 4784SOL     OW15250   6.633   3.711   7.002
 4784SOL    HW115251   6.716   3.698   6.948
 4784SOL    HW215252   6.623   3.637   0.046
 4785SOL     OW15253   6.857   5.687   1.935
 4785SOL    HW115254   6.841   5.721   1.843
 4785SOL    HW215255   6.938   5.732   1.974
 4786SOL     OW15256   2.476   2.061   1.946
 4786SOL    HW115257   2.528   2.061   2.032
 4786SOL    HW215258   2.461   1.967   1.916
 4787SOL     OW15259   3.461   2.018   3.357
 4787SOL    HW115260   3.402   2.030   3.277
 4787SOL    HW215261   3.488   1.922   3.364
 4788SOL     OW15262   1.366   5.573   6.258
 4788SOL    HW115263   1.414   5.632   6.193
 4788SOL    HW215264   1.352   5.483   6.217
 4789SOL     OW15265   5.369   0.629   0.464
 4789SOL    HW115266   5.433   0.663   0.395
 4789SOL    HW215267   5.420   0.590   0.541
 4790SOL     OW15268   6.624   3.256   6.082
 4790SOL    HW115269   6.722   3.238   6.082
 4790SOL    HW215270   6.582   3.215   6.002
 4791SOL     OW15271   5.644   2.059   2.027
 4791SOL    HW115272   5.687   1.969   2.036
 4791SOL    HW215273   5.683   2.121   2.095
 4792SOL     OW15274   1.728   3.294   2.572
 4792SOL    HW115275   1.818   3.249   2.572
 4792SOL    HW215276   1.740   3.392   2.556
 4793SOL     OW15277   0.961   2.818   6.128
 4793SOL    HW115278   0.862   2.823   6.117
 4793SOL    HW215279   0.984   2.744   6.192
 4794SOL     OW15280   4.079   0.999   3.634
 4794SOL    HW115281   4.152   0.933   3.651
 4794SOL    HW215282   4.018   0.963   3.564
 4795SOL     OW15283   6.291   1.480   3.501
 4795SOL    HW115284   6.385   1.507   3.482
 4795SOL    HW215285   6.278   1.470   3.600
 4796SOL     OW15286   5.093   2.295   6.481
 4796SOL    HW115287   5.071   2.220   6.419
 4796SOL    HW215288   5.136   2.370   6.430
 4797SOL     OW15289   1.346   6.402   4.797
 4797SOL    HW115290   1.288   6.332   4.836
 4797SOL    HW215291   1.392   6.452   4.870
 4798SOL     OW15292   0.060   3.203   5.242
 4798SOL    HW115293   6.992   3.162   5.226
 4798SOL    HW215294   0.110   3.208   5.156
 4799SOL     OW15295   5.028   2.077   6.331
 4799SOL    HW115296   4.963   2.022   6.383
 4799SOL    HW215297   5.089   2.017   6.279
 4800SOL     OW15298   2.784   3.186   5.700
 4800SOL    HW115299   2.815   3.246   5.626
 4800SOL    HW215300   2.860   3.131   5.732
 4801SOL     OW15301   2.116   2.476   6.834
 4801SOL    HW115302   2.182   2.420   6.884
 4801SOL    HW215303   2.035   2.490   6.891
 4802SOL     OW15304   0.909   6.887   2.226
 4802SOL    HW115305   0.834   6.842   2.178
 4802SOL    HW215306   0.964   6.819   2.274
 4803SOL     OW15307   1.231   6.931   0.429
 4803SOL    HW115308   1.149   6.886   0.465
 4803SOL    HW215309   1.206   7.020   0.390
 4804SOL     OW15310   4.740   5.314   6.403
 4804SOL    HW115311   4.754   5.359   6.491
 4804SOL    HW215312   4.819   5.333   6.344
 4805SOL     OW15313   6.350   6.739   1.484
 4805SOL    HW115314   6.440   6.781   1.482
 4805SOL    HW215315   6.334   6.689   1.398
 4806SOL     OW15316   0.236   4.182   3.308
 4806SOL    HW115317   0.308   4.178   3.239
 4806SOL    HW215318   0.250   4.262   3.366
 4807SOL     OW15319   1.338   5.493   0.600
 4807SOL    HW115320   1.277   5.538   0.666
 4807SOL    HW215321   1.400   5.560   0.561
 4808SOL     OW15322   6.612   3.859   6.661
 4808SOL    HW115323   6.566   3.782   6.618
 4808SOL    HW215324   6.547   3.909   6.719
 4809SOL     OW15325   3.542   3.793   6.626
 4809SOL    HW115326   3.468   3.830   6.682
 4809SOL    HW215327   3.621   3.853   6.632
 4810SOL     OW15328   1.402   4.730   2.628
 4810SOL    HW115329   1.328   4.792   2.600
 4810SOL    HW215330   1.396   4.714   2.726
 4811SOL     OW15331   2.171   4.875   2.198
 4811SOL    HW115332   2.108   4.799   2.212
 4811SOL    HW215333   2.261   4.839   2.171
 4812SOL     OW15334   0.315   5.002   5.551
 4812SOL    HW115335   0.353   4.971   5.464
 4812SOL    HW215336   0.233   4.948   5.572
 4813SOL     OW15337   5.150   1.732   1.308
 4813SOL    HW115338   5.089   1.655   1.326
 4813SOL    HW215339   5.165   1.739   1.209
 4814SOL     OW15340   5.667   4.390   0.396
 4814SOL    HW115341   5.659   4.290   0.401
 4814SOL    HW215342   5.762   4.415   0.377
 4815SOL     OW15343   5.443   4.355   2.529
 4815SOL    HW115344   5.402   4.446   2.541
 4815SOL    HW215345   5.371   4.286   2.532
 4816SOL     OW15346   6.431   5.136   3.004
 4816SOL    HW115347   6.441   5.187   2.919
 4816SOL    HW215348   6.476   5.186   3.079
 4817SOL     OW15349   0.584   2.208   6.252
 4817SOL    HW115350   0.566   2.181   6.157
 4817SOL    HW215351   0.506   2.262   6.285
 4818SOL     OW15352   0.767   0.091   4.216
 4818SOL    HW115353   0.788   7.017   4.192
 4818SOL    HW215354   0.850   0.146   4.207
 4819SOL     OW15355   1.678   2.682   0.643
 4819SOL    HW115356   1.725   2.632   0.717
 4819SOL    HW215357   1.594   2.634   0.619
 4820SOL     OW15358   6.986   2.835   1.606
 4820SOL    HW115359   6.907   2.837   1.545
 4820SOL    HW215360   6.981   2.754   1.664
 4821SOL     OW15361   0.808   6.184   2.836
 4821SOL    HW115362   0.827   6.094   2.876
 4821SOL    HW215363   0.859   6.254   2.886
 4822SOL     OW15364   1.285   3.398   4.689
 4822SOL    HW115365   1.355   3.464   4.718
 4822SOL    HW215366   1.325   3.334   4.624
 4823SOL     OW15367   1.717   1.906   3.626
 4823SOL    HW115368   1.738   1.822   3.677
 4823SOL    HW215369   1.763   1.903   3.537
 4824SOL     OW15370   5.390   2.415   5.307
 4824SOL    HW115371   5.410   2.384   5.214
 4824SOL    HW215372   5.320   2.486   5.304
 4825SOL     OW15373   1.481   2.099   4.397
 4825SOL    HW115374   1.420   2.161   4.446
 4825SOL    HW215375   1.559   2.150   4.361
 4826SOL     OW15376   5.760   0.562   0.755
 4826SOL    HW115377   5.859   0.549   0.749
 4826SOL    HW215378   5.740   0.659   0.765
 4827SOL     OW15379   6.402   2.208   1.028
 4827SOL    HW115380   6.414   2.302   0.995
 4827SOL    HW215381   6.385   2.209   1.126
 4828SOL     OW15382   5.320   0.880   1.052
 4828SOL    HW115383   5.313   0.832   0.965
 4828SOL    HW215384   5.410   0.861   1.093
 4829SOL     OW15385   3.903   0.111   6.379
 4829SOL    HW115386   3.997   0.103   6.344
 4829SOL    HW215387   3.892   0.049   6.457
 4830SOL     OW15388   3.726   5.564   3.963
 4830SOL    HW115389   3.824   5.553   3.977
 4830SOL    HW215390   3.687   5.619   4.037
 4831SOL     OW15391   2.290   5.289   4.801
 4831SOL    HW115392   2.260   5.384   4.787
 4831SOL    HW215393   2.386   5.281   4.776
 4832SOL     OW15394   2.939   3.709   3.884
 4832SOL    HW115395   2.977   3.756   3.805
 4832SOL    HW215396   2.917   3.775   3.956
 4833SOL     OW15397   5.675   1.776   2.773
 4833SOL    HW115398   5.669   1.874   2.759
 4833SOL    HW215399   5.720   1.733   2.694
 4834SOL     OW15400   1.953   5.893   2.180
 4834SOL    HW115401   1.982   5.982   2.217
 4834SOL    HW215402   1.947   5.898   2.080
 4835SOL     OW15403   6.111   2.818   5.952
 4835SOL    HW115404   6.186   2.870   5.993
 4835SOL    HW215405   6.044   2.882   5.914
 4836SOL     OW15406   5.636   1.381   4.673
 4836SOL    HW115407   5.683   1.337   4.750
 4836SOL    HW215408   5.594   1.466   4.704
 4837SOL     OW15409   6.588   3.758   3.081
 4837SOL    HW115410   6.664   3.822   3.094
 4837SOL    HW215411   6.602   3.678   3.140
 4838SOL     OW15412   2.508   5.842   0.006
 4838SOL    HW115413   2.524   5.845   6.929
 4838SOL    HW215414   2.437   5.908   0.030
 4839SOL     OW15415   1.606   3.285   0.389
 4839SOL    HW115416   1.663   3.329   0.319
 4839SOL    HW215417   1.573   3.354   0.454
 4840SOL     OW15418   6.047   3.930   5.844
 4840SOL    HW115419   6.009   4.016   5.810
 4840SOL    HW215420   5.972   3.867   5.864
 4841SOL     OW15421   2.871   5.479   3.024
 4841SOL    HW115422   2.776   5.510   3.014
 4841SOL    HW215423   2.917   5.484   2.936
 4842SOL     OW15424   2.937   5.171   3.305
 4842SOL    HW115425   2.903   5.160   3.212
 4842SOL    HW215426   2.941   5.082   3.350
 4843SOL     OW15427   6.696   2.006   2.059
 4843SOL    HW115428   6.730   1.940   1.992
 4843SOL    HW215429   6.645   2.078   2.012
 4844SOL     OW15430   0.289   4.097   5.363
 4844SOL    HW115431   0.342   4.016   5.335
 4844SOL    HW215432   0.240   4.077   5.448
 4845SOL     OW15433   4.346   5.183   5.532
 4845SOL    HW115434   4.320   5.193   5.436
 4845SOL    HW215435   4.267   5.205   5.589
 4846SOL     OW15436   0.253   1.646   3.449
 4846SOL    HW115437   0.177   1.663   3.511
 4846SOL    HW215438   0.248   1.709   3.371
 4847SOL     OW15439   2.378   1.363   5.287
 4847SOL    HW115440   2.376   1.411   5.375
 4847SOL    HW215441   2.302   1.393   5.230
 4848SOL     OW15442   2.576   1.331   4.126
 4848SOL    HW115443   2.623   1.392   4.189
 4848SOL    HW215444   2.616   1.339   4.035
 4849SOL     OW15445   1.933   6.756   0.559
 4849SOL    HW115446   1.840   6.751   0.522
 4849SOL    HW215447   1.957   6.669   0.603
 4850SOL     OW15448   4.905   0.616   1.214
 4850SOL    HW115449   4.904   0.557   1.133
 4850SOL    HW215450   4.839   0.583   1.281
 4851SOL     OW15451   4.055   5.514   6.583
 4851SOL    HW115452   4.155   5.504   6.591
 4851SOL    HW215453   4.030   5.525   6.487
 4852SOL     OW15454   2.787   5.717   4.664
 4852SOL    HW115455   2.783   5.687   4.569
 4852SOL    HW215456   2.807   5.639   4.723
 4853SOL     OW15457   4.188   1.334   3.339
 4853SOL    HW115458   4.140   1.299   3.419
 4853SOL    HW215459   4.188   1.434   3.342
 4854SOL     OW15460   5.029   6.766   1.964
 4854SOL    HW115461   5.038   6.864   1.949
 4854SOL    HW215462   4.940   6.735   1.929
 4855SOL     OW15463   6.463   3.539   5.314
 4855SOL    HW115464   6.421   3.531   5.224
 4855SOL    HW215465   6.426   3.619   5.361
 4856SOL     OW15466   0.730   2.696   2.775
 4856SOL    HW115467   0.763   2.707   2.869
 4856SOL    HW215468   0.808   2.698   2.712
 4857SOL     OW15469   3.516   1.749   3.362
 4857SOL    HW115470   3.517   1.661   3.410
 4857SOL    HW215471   3.589   1.751   3.294
 4858SOL     OW15472   0.647   6.997   4.838
 4858SOL    HW115473   0.679   6.977   4.746
 4858SOL    HW215474   0.723   0.010   4.893
 4859SOL     OW15475   1.195   5.071   1.911
 4859SOL    HW115476   1.234   5.152   1.955
 4859SOL    HW215477   1.096   5.082   1.904
 4860SOL     OW15478   4.449   4.258   0.246
 4860SOL    HW115479   4.452   4.286   0.150
 4860SOL    HW215480   4.467   4.336   0.305
 4861SOL     OW15481   6.029   5.553   6.539
 4861SOL    HW115482   6.015   5.622   6.468
 4861SOL    HW215483   6.124   5.555   6.569
 4862SOL     OW15484   2.625   4.706   4.613
 4862SOL    HW115485   2.562   4.683   4.687
 4862SOL    HW215486   2.581   4.685   4.525
 4863SOL     OW15487   4.921   3.334   2.721
 4863SOL    HW115488   4.903   3.237   2.741
 4863SOL    HW215489   4.893   3.354   2.627
 4864SOL     OW15490   3.238   1.613   1.700
 4864SOL    HW115491   3.151   1.662   1.696
 4864SOL    HW215492   3.259   1.591   1.796
 4865SOL     OW15493   2.540   5.255   5.400
 4865SOL    HW115494   2.453   5.299   5.422
 4865SOL    HW215495   2.532   5.157   5.416
 4866SOL     OW15496   6.115   4.816   1.336
 4866SOL    HW115497   6.079   4.806   1.428
 4866SOL    HW215498   6.058   4.765   1.272
 4867SOL     OW15499   4.321   5.645   3.802
 4867SOL    HW115500   4.267   5.698   3.737
 4867SOL    HW215501   4.411   5.688   3.812
 4868SOL     OW15502   0.713   5.667   1.733
 4868SOL    HW115503   0.738   5.606   1.658
 4868SOL    HW215504   0.650   5.619   1.795
 4869SOL     OW15505   6.803   2.482   1.077
 4869SOL    HW115506   6.741   2.550   1.115
 4869SOL    HW215507   6.872   2.458   1.145
 4870SOL     OW15508   4.855   4.988   1.675
 4870SOL    HW115509   4.847   5.061   1.744
 4870SOL    HW215510   4.767   4.974   1.631
 4871SOL     OW15511   1.119   0.508   3.968
 4871SOL    HW115512   1.166   0.540   4.051
 4871SOL    HW215513   1.023   0.536   3.972
 4872SOL     OW15514   0.988   0.109   3.124
 4872SOL    HW115515   1.078   0.146   3.150
 4872SOL    HW215516   0.989   0.009   3.135
 4873SOL     OW15517   0.223   5.011   4.448
 4873SOL    HW115518   0.124   4.994   4.442
 4873SOL    HW215519   0.271   4.925   4.466
 4874SOL     OW15520   5.768   3.845   2.162
 4874SOL    HW115521   5.743   3.855   2.065
 4874SOL    HW215522   5.859   3.805   2.169
 4875SOL     OW15523   5.962   2.315   1.007
 4875SOL    HW115524   5.955   2.257   0.927
 4875SOL    HW215525   5.876   2.312   1.059
 4876SOL     OW15526   5.630   0.781   5.236
 4876SOL    HW115527   5.666   0.851   5.174
 4876SOL    HW215528   5.698   0.760   5.306
 4877SOL     OW15529   6.992   1.310   1.206
 4877SOL    HW115530   0.043   1.318   1.274
 4877SOL    HW215531   6.943   1.397   1.200
 4878SOL     OW15532   6.866   1.606   2.119
 4878SOL    HW115533   6.881   1.682   2.056
 4878SOL    HW215534   6.954   1.578   2.159
 4879SOL     OW15535   4.497   4.475   2.835
 4879SOL    HW115536   4.416   4.534   2.835
 4879SOL    HW215537   4.513   4.440   2.743
 4880SOL     OW15538   5.655   2.228   6.733
 4880SOL    HW115539   5.626   2.313   6.689
 4880SOL    HW215540   5.590   2.155   6.711
 4881SOL     OW15541   2.351   5.820   6.597
 4881SOL    HW115542   2.339   5.788   6.503
 4881SOL    HW215543   2.287   5.772   6.657
 4882SOL     OW15544   6.138   1.509   5.523
 4882SOL    HW115545   6.090   1.427   5.493
 4882SOL    HW215546   6.083   1.557   5.591
 4883SOL     OW15547   4.832   5.010   2.356
 4883SOL    HW115548   4.882   5.096   2.360
 4883SOL    HW215549   4.864   4.950   2.430
 4884SOL     OW15550   4.688   0.016   1.468
 4884SOL    HW115551   4.589   0.023   1.454
 4884SOL    HW215552   4.736   0.064   1.395
 4885SOL     OW15553   2.241   6.398   2.228
 4885SOL    HW115554   2.196   6.414   2.315
 4885SOL    HW215555   2.172   6.393   2.155
 4886SOL     OW15556   0.640   6.787   6.003
 4886SOL    HW115557   0.595   6.731   6.072
 4886SOL    HW215558   0.583   6.792   5.921
 4887SOL     OW15559   6.946   1.772   3.207
 4887SOL    HW115560   6.947   1.837   3.283
 4887SOL    HW215561   6.889   1.694   3.232
 4888SOL     OW15562   1.632   6.585   3.744
 4888SOL    HW115563   1.578   6.660   3.782
 4888SOL    HW215564   1.725   6.589   3.781
 4889SOL     OW15565   0.304   1.769   0.596
 4889SOL    HW115566   0.351   1.683   0.578
 4889SOL    HW215567   0.216   1.769   0.548
 4890SOL     OW15568   0.549   1.667   4.175
 4890SOL    HW115569   0.598   1.620   4.248
 4890SOL    HW215570   0.450   1.660   4.191
 4891SOL     OW15571   0.616   5.500   0.277
 4891SOL    HW115572   0.680   5.569   0.245
 4891SOL    HW215573   0.666   5.423   0.316
 4892SOL     OW15574   1.613   5.673   2.904
 4892SOL    HW115575   1.527   5.675   2.954
 4892SOL    HW215576   1.667   5.753   2.927
 4893SOL     OW15577   6.745   4.187   6.604
 4893SOL    HW115578   6.745   4.102   6.552
 4893SOL    HW215579   6.749   4.167   6.702
 4894SOL     OW15580   2.423   0.010   2.737
 4894SOL    HW115581   2.479   6.956   2.702
 4894SOL    HW215582   2.374   0.052   2.661
 4895SOL     OW15583   1.020   4.293   1.201
 4895SOL    HW115584   1.053   4.388   1.196
 4895SOL    HW215585   1.021   4.254   1.109
 4896SOL     OW15586   3.317   5.241   2.835
 4896SOL    HW115587   3.373   5.314   2.875
 4896SOL    HW215588   3.376   5.177   2.787
 4897SOL     OW15589   3.141   5.218   5.740
 4897SOL    HW115590   3.070   5.240   5.673
 4897SOL    HW215591   3.161   5.120   5.736
 4898SOL     OW15592   5.584   2.707   5.106
 4898SOL    HW115593   5.659   2.707   5.172
 4898SOL    HW215594   5.552   2.614   5.092
 4899SOL     OW15595   6.434   4.568   2.980
 4899SOL    HW115596   6.392   4.657   3.000
 4899SOL    HW215597   6.516   4.557   3.036
 4900SOL     OW15598   1.064   6.472   5.436
 4900SOL    HW115599   1.131   6.410   5.477
 4900SOL    HW215600   1.039   6.542   5.503
 4901SOL     OW15601   2.106   6.624   4.551
 4901SOL    HW115602   2.015   6.619   4.510
 4901SOL    HW215603   2.146   6.533   4.554
 4902SOL     OW15604   1.508   3.448   3.232
 4902SOL    HW115605   1.533   3.356   3.202
 4902SOL    HW215606   1.509   3.510   3.154
 4903SOL     OW15607   3.646   6.431   6.883
 4903SOL    HW115608   3.597   6.512   6.914
 4903SOL    HW215609   3.674   6.376   6.962
 4904SOL     OW15610   1.896   6.304   4.307
 4904SOL    HW115611   1.921   6.344   4.396
 4904SOL    HW215612   1.840   6.223   4.322
 4905SOL     OW15613   4.605   2.214   1.947
 4905SOL    HW115614   4.650   2.277   2.010
 4905SOL    HW215615   4.540   2.157   1.997
 4906SOL     OW15616   3.734   0.054   0.231
 4906SOL    HW115617   3.689   6.991   0.259
 4906SOL    HW215618   3.831   0.051   0.256
 4907SOL     OW15619   3.960   6.356   2.695
 4907SOL    HW115620   3.860   6.346   2.690
 4907SOL    HW215621   3.987   6.442   2.652
 4908SOL     OW15622   4.155   5.703   6.856
 4908SOL    HW115623   4.167   5.604   6.859
 4908SOL    HW215624   4.080   5.726   6.793
 4909SOL     OW15625   6.085   0.864   6.577
 4909SOL    HW115626   6.159   0.838   6.515
 4909SOL    HW215627   6.119   0.863   6.671
 4910SOL     OW15628   5.057   0.209   5.842
 4910SOL    HW115629   5.087   0.126   5.889
 4910SOL    HW215630   5.075   0.288   5.901
 4911SOL     OW15631   0.127   2.137   5.853
 4911SOL    HW115632   0.041   2.187   5.853
 4911SOL    HW215633   0.110   2.039   5.848
 4912SOL     OW15634   5.183   1.385   1.737
 4912SOL    HW115635   5.191   1.426   1.828
 4912SOL    HW215636   5.144   1.293   1.745
 4913SOL     OW15637   3.487   3.930   3.902
 4913SOL    HW115638   3.540   3.882   3.831
 4913SOL    HW215639   3.543   3.940   3.984
 4914SOL     OW15640   2.537   0.905   4.554
 4914SOL    HW115641   2.605   0.977   4.567
 4914SOL    HW215642   2.534   0.878   4.458
 4915SOL     OW15643   4.452   6.704   4.595
 4915SOL    HW115644   4.401   6.659   4.668
 4915SOL    HW215645   4.536   6.653   4.577
 4916SOL     OW15646   2.494   2.024   2.943
 4916SOL    HW115647   2.405   2.057   2.971
 4916SOL    HW215648   2.522   1.948   3.003
 4917SOL     OW15649   1.213   4.008   0.830
 4917SOL    HW115650   1.258   4.095   0.806
 4917SOL    HW215651   1.261   3.933   0.785
 4918SOL     OW15652   3.179   0.249   2.970
 4918SOL    HW115653   3.101   0.195   3.003
 4918SOL    HW215654   3.245   0.188   2.925
 4919SOL     OW15655   1.803   2.265   2.977
 4919SOL    HW115656   1.774   2.348   2.928
 4919SOL    HW215657   1.728   2.234   3.036
 4920SOL     OW15658   4.197   0.617   6.934
 4920SOL    HW115659   4.119   0.668   6.971
 4920SOL    HW215660   4.227   0.657   6.848
 4921SOL     OW15661   2.334   4.221   2.011
 4921SOL    HW115662   2.279   4.304   2.023
 4921SOL    HW215663   2.411   4.241   1.951
 4922SOL     OW15664   1.096   3.458   5.367
 4922SOL    HW115665   1.125   3.377   5.417
 4922SOL    HW215666   0.997   3.471   5.379
 4923SOL     OW15667   4.755   0.424   1.868
 4923SOL    HW115668   4.686   0.425   1.941
 4923SOL    HW215669   4.764   0.332   1.831
 4924SOL     OW15670   2.345   3.578   5.346
 4924SOL    HW115671   2.304   3.651   5.291
 4924SOL    HW215672   2.347   3.606   5.442
 4925SOL     OW15673   5.569   6.081   0.756
 4925SOL    HW115674   5.612   6.008   0.703
 4925SOL    HW215675   5.636   6.120   0.819
 4926SOL     OW15676   4.611   2.646   1.743
 4926SOL    HW115677   4.662   2.566   1.713
 4926SOL    HW215678   4.670   2.727   1.738
 4927SOL     OW15679   3.737   2.950   3.145
 4927SOL    HW115680   3.730   2.914   3.052
 4927SOL    HW215681   3.833   2.966   3.167
 4928SOL     OW15682   0.120   0.176   6.510
 4928SOL    HW115683   0.158   0.159   6.419
 4928SOL    HW215684   0.107   0.274   6.523
 4929SOL     OW15685   1.006   4.204   5.401
 4929SOL    HW115686   1.013   4.154   5.487
 4929SOL    HW215687   0.993   4.301   5.419
 4930SOL     OW15688   0.556   1.401   6.990
 4930SOL    HW115689   0.539   1.396   6.892
 4930SOL    HW215690   0.482   1.451   0.013
 4931SOL     OW15691   0.847   0.247   6.656
 4931SOL    HW115692   0.889   0.181   6.718
 4931SOL    HW215693   0.876   0.229   6.563
 4932SOL     OW15694   2.166   3.435   1.665
 4932SOL    HW115695   2.234   3.454   1.736
 4932SOL    HW215696   2.136   3.340   1.671
 4933SOL     OW15697   2.036   0.826   4.001
 4933SOL    HW115698   1.959   0.882   4.030
 4933SOL    HW215699   2.106   0.825   4.073
 4934SOL     OW15700   0.942   5.074   4.364
 4934SOL    HW115701   1.010   5.001   4.357
 4934SOL    HW215702   0.923   5.111   4.273
 4935SOL     OW15703   1.602   0.980   7.009
 4935SOL    HW115704   1.588   0.881   7.014
 4935SOL    HW215705   1.580   1.022   0.076
 4936SOL     OW15706   2.288   6.177   1.805
 4936SOL    HW115707   2.297   6.141   1.712
 4936SOL    HW215708   2.252   6.105   1.865
 4937SOL     OW15709   0.999   4.254   6.060
 4937SOL    HW115710   1.005   4.239   6.158
 4937SOL    HW215711   0.945   4.181   6.018
 4938SOL     OW15712   3.367   4.914   2.038
 4938SOL    HW115713   3.444   4.859   2.004
 4938SOL    HW215714   3.290   4.905   1.975
 4939SOL     OW15715   1.211   2.321   2.035
 4939SOL    HW115716   1.237   2.231   2.071
 4939SOL    HW215717   1.290   2.365   1.993
 4940SOL     OW15718   0.074   1.710   4.943
 4940SOL    HW115719   7.000   1.738   4.936
 4940SOL    HW215720   0.117   1.717   4.853
 4941SOL     OW15721   3.989   2.576   5.373
 4941SOL    HW115722   3.944   2.659   5.338
 4941SOL    HW215723   4.033   2.528   5.297
 4942SOL     OW15724   5.515   3.246   3.391
 4942SOL    HW115725   5.477   3.323   3.339
 4942SOL    HW215726   5.556   3.180   3.328
 4943SOL     OW15727   5.370   4.082   6.196
 4943SOL    HW115728   5.417   4.136   6.267
 4943SOL    HW215729   5.369   3.986   6.222
 4944SOL     OW15730   2.074   4.614   1.122
 4944SOL    HW115731   1.984   4.573   1.133
 4944SOL    HW215732   2.142   4.559   1.171
 4945SOL     OW15733   1.149   0.763   4.744
 4945SOL    HW115734   1.213   0.767   4.821
 4945SOL    HW215735   1.141   0.854   4.702
 4946SOL     OW15736   1.200   4.716   0.147
 4946SOL    HW115737   1.211   4.809   0.110
 4946SOL    HW215738   1.290   4.679   0.171
 4947SOL     OW15739   2.751   1.075   1.954
 4947SOL    HW115740   2.780   1.122   2.037
 4947SOL    HW215741   2.802   0.990   1.943
 4948SOL     OW15742   1.645   2.497   2.899
 4948SOL    HW115743   1.623   2.413   2.850
 4948SOL    HW215744   1.657   2.571   2.833
 4949SOL     OW15745   6.268   3.811   5.926
 4949SOL    HW115746   6.186   3.858   5.894
 4949SOL    HW215747   6.242   3.726   5.971
 4950SOL     OW15748   1.970   4.052   5.405
 4950SOL    HW115749   2.063   4.053   5.368
 4950SOL    HW215750   1.921   4.133   5.372
 4951SOL     OW15751   6.214   6.191   4.695
 4951SOL    HW115752   6.270   6.258   4.743
 4951SOL    HW215753   6.222   6.102   4.741
 4952SOL     OW15754   0.107   0.448   6.580
 4952SOL    HW115755   0.057   0.511   6.639
 4952SOL    HW215756   0.205   0.457   6.598
 4953SOL     OW15757   2.178   1.471   4.094
 4953SOL    HW115758   2.085   1.440   4.076
 4953SOL    HW215759   2.200   1.455   4.190
 4954SOL     OW15760   2.174   3.972   6.273
 4954SOL    HW115761   2.098   3.954   6.211
 4954SOL    HW215762   2.247   4.020   6.224
 4955SOL     OW15763   3.449   5.691   0.276
 4955SOL    HW115764   3.410   5.749   0.205
 4955SOL    HW215765   3.508   5.622   0.234
 4956SOL     OW15766   3.121   0.594   5.825
 4956SOL    HW115767   3.097   0.516   5.883
 4956SOL    HW215768   3.040   0.651   5.811
 4957SOL     OW15769   6.197   3.318   7.016
 4957SOL    HW115770   6.111   3.281   6.982
 4957SOL    HW215771   6.194   3.418   7.012
 4958SOL     OW15772   2.032   6.167   5.814
 4958SOL    HW115773   1.963   6.094   5.803
 4958SOL    HW215774   1.991   6.244   5.862
 4959SOL     OW15775   6.473   1.720   1.426
 4959SOL    HW115776   6.445   1.718   1.522
 4959SOL    HW215777   6.405   1.769   1.372
 4960SOL     OW15778   4.079   4.816   3.490
 4960SOL    HW115779   3.993   4.824   3.439
 4960SOL    HW215780   4.143   4.757   3.440
 4961SOL     OW15781   3.433   0.620   6.505
 4961SOL    HW115782   3.524   0.589   6.532
 4961SOL    HW215783   3.423   0.613   6.406
 4962SOL     OW15784   5.761   2.575   0.947
 4962SOL    HW115785   5.682   2.514   0.944
 4962SOL    HW215786   5.740   2.654   1.006
 4963SOL     OW15787   1.562   5.570   1.082
 4963SOL    HW115788   1.634   5.583   1.013
 4963SOL    HW215789   1.487   5.517   1.042
 4964SOL     OW15790   1.998   6.359   5.160
 4964SOL    HW115791   1.933   6.356   5.085
 4964SOL    HW215792   2.091   6.344   5.125
 4965SOL     OW15793   0.680   6.910   2.828
 4965SOL    HW115794   0.647   6.895   2.921
 4965SOL    HW215795   0.766   6.962   2.831
 4966SOL     OW15796   1.598   6.363   4.377
 4966SOL    HW115797   1.569   6.376   4.282
 4966SOL    HW215798   1.574   6.270   4.407
 4967SOL     OW15799   3.183   5.405   5.953
 4967SOL    HW115800   3.267   5.446   5.989
 4967SOL    HW215801   3.207   5.341   5.880
 4968SOL     OW15802   0.018   1.150   3.849
 4968SOL    HW115803   6.992   1.101   3.922
 4968SOL    HW215804   0.110   1.113   3.838
 4969SOL     OW15805   0.436   5.788   2.773
 4969SOL    HW115806   0.449   5.799   2.674
 4969SOL    HW215807   0.398   5.698   2.792
 4970SOL     OW15808   2.149   0.795   1.343
 4970SOL    HW115809   2.180   0.700   1.348
 4970SOL    HW215810   2.225   0.856   1.363
 4971SOL     OW15811   6.562   6.139   3.477
 4971SOL    HW115812   6.510   6.056   3.463
 4971SOL    HW215813   6.578   6.184   3.388
 4972SOL     OW15814   1.313   4.304   0.552
 4972SOL    HW115815   1.373   4.235   0.511
 4972SOL    HW215816   1.343   4.396   0.524
 4973SOL     OW15817   0.728   0.506   1.769
 4973SOL    HW115818   0.676   0.577   1.722
 4973SOL    HW215819   0.819   0.540   1.790
 4974SOL     OW15820   5.743   4.558   0.921
 4974SOL    HW115821   5.679   4.616   0.973
 4974SOL    HW215822   5.788   4.614   0.851
 4975SOL     OW15823   5.673   4.129   0.408
 4975SOL    HW115824   5.591   4.078   0.382
 4975SOL    HW215825   5.724   4.077   0.476
 4976SOL     OW15826   1.267   0.261   4.719
 4976SOL    HW115827   1.237   0.314   4.640
 4976SOL    HW215828   1.285   0.322   4.796
 4977SOL     OW15829   3.517   4.087   6.584
 4977SOL    HW115830   3.494   4.167   6.639
 4977SOL    HW215831   3.596   4.108   6.527
 4978SOL     OW15832   5.456   4.732   4.367
 4978SOL    HW115833   5.481   4.671   4.442
 4978SOL    HW215834   5.357   4.730   4.353
 4979SOL     OW15835   0.083   6.566   6.824
 4979SOL    HW115836   0.128   6.490   6.777
 4979SOL    HW215837   0.034   6.622   6.757
 4980SOL     OW15838   5.569   4.963   2.527
 4980SOL    HW115839   5.647   5.017   2.558
 4980SOL    HW215840   5.543   4.990   2.435
 4981SOL     OW15841   3.758   5.723   1.969
 4981SOL    HW115842   3.845   5.743   1.923
 4981SOL    HW215843   3.765   5.634   2.014
 4982SOL     OW15844   3.224   1.835   6.295
 4982SOL    HW115845   3.154   1.823   6.365
 4982SOL    HW215846   3.253   1.931   6.293
 4983SOL     OW15847   6.277   4.580   4.753
 4983SOL    HW115848   6.348   4.642   4.720
 4983SOL    HW215849   6.258   4.599   4.849
 4984SOL     OW15850   4.687   4.156   2.635
 4984SOL    HW115851   4.659   4.237   2.583
 4984SOL    HW215852   4.689   4.077   2.574
 4985SOL     OW15853   5.149   6.228   2.697
 4985SOL    HW115854   5.085   6.201   2.624
 4985SOL    HW215855   5.229   6.168   2.694
 4986SOL     OW15856   6.183   4.900   0.568
 4986SOL    HW115857   6.226   4.951   0.494
 4986SOL    HW215858   6.084   4.913   0.564
 4987SOL     OW15859   1.285   6.234   2.084
 4987SOL    HW115860   1.192   6.241   2.121
 4987SOL    HW215861   1.350   6.224   2.159
 4988SOL     OW15862   5.944   1.223   3.680
 4988SOL    HW115863   5.900   1.190   3.764
 4988SOL    HW215864   5.956   1.322   3.685
 4989SOL     OW15865   4.979   0.240   2.004
 4989SOL    HW115866   5.057   0.249   2.066
 4989SOL    HW215867   4.935   0.151   2.018
 4990SOL     OW15868   3.049   2.308   6.388
 4990SOL    HW115869   3.146   2.316   6.413
 4990SOL    HW215870   2.999   2.264   6.462
 4991SOL     OW15871   6.734   5.055   3.818
 4991SOL    HW115872   6.695   5.135   3.863
 4991SOL    HW215873   6.756   4.986   3.887
 4992SOL     OW15874   5.593   1.003   2.793
 4992SOL    HW115875   5.533   1.054   2.855
 4992SOL    HW215876   5.689   1.021   2.818
 4993SOL     OW15877   3.678   5.900   5.163
 4993SOL    HW115878   3.585   5.900   5.127
 4993SOL    HW215879   3.728   5.821   5.126
 4994SOL     OW15880   2.443   5.727   5.037
 4994SOL    HW115881   2.534   5.767   5.035
 4994SOL    HW215882   2.377   5.791   4.997
 4995SOL     OW15883   1.260   0.942   5.487
 4995SOL    HW115884   1.261   0.927   5.586
 4995SOL    HW215885   1.293   1.034   5.467
 4996SOL     OW15886   6.621   0.734   3.408
 4996SOL    HW115887   6.683   0.789   3.352
 4996SOL    HW215888   6.547   0.792   3.443
 4997SOL     OW15889   3.874   2.457   1.191
 4997SOL    HW115890   3.830   2.544   1.170
 4997SOL    HW215891   3.816   2.404   1.254
 4998SOL     OW15892   1.895   3.221   4.345
 4998SOL    HW115893   1.841   3.177   4.417
 4998SOL    HW215894   1.954   3.153   4.302
 4999SOL     OW15895   6.937   3.339   4.590
 4999SOL    HW115896   6.953   3.243   4.569
 4999SOL    HW215897   6.838   3.354   4.602
 5000SOL     OW15898   3.206   7.012   3.200
 5000SOL    HW115899   3.302   7.005   3.174
 5000SOL    HW215900   3.199   0.020   3.296
 5001SOL     OW15901   0.756   5.841   2.414
 5001SOL    HW115902   0.798   5.812   2.328
 5001SOL    HW215903   0.737   5.939   2.411
 5002SOL     OW15904   0.147   4.826   2.084
 5002SOL    HW115905   0.184   4.742   2.046
 5002SOL    HW215906   0.084   4.868   2.018
 5003SOL     OW15907   4.546   6.498   2.831
 5003SOL    HW115908   4.541   6.521   2.928
 5003SOL    HW215909   4.575   6.402   2.821
 5004SOL     OW15910   2.315   4.803   5.649
 5004SOL    HW115911   2.226   4.838   5.678
 5004SOL    HW215912   2.364   4.875   5.600
 5005SOL     OW15913   2.822   2.665   6.324
 5005SOL    HW115914   2.920   2.657   6.305
 5005SOL    HW215915   2.771   2.654   6.239
 5006SOL     OW15916   6.001   0.978   2.195
 5006SOL    HW115917   6.069   0.928   2.141
 5006SOL    HW215918   6.048   1.040   2.258
 5007SOL     OW15919   0.021   0.240   1.070
 5007SOL    HW115920   0.092   0.290   1.119
 5007SOL    HW215921   0.051   0.222   0.976
 5008SOL     OW15922   5.757   5.834   1.580
 5008SOL    HW115923   5.659   5.819   1.591
 5008SOL    HW215924   5.806   5.789   1.654
 5009SOL     OW15925   0.242   2.511   0.257
 5009SOL    HW115926   0.265   2.460   0.173
 5009SOL    HW215927   0.271   2.458   0.336
 5010SOL     OW15928   4.293   2.196   0.792
 5010SOL    HW115929   4.273   2.244   0.878
 5010SOL    HW215930   4.359   2.123   0.809
 5011SOL     OW15931   1.942   4.427   1.408
 5011SOL    HW115932   1.933   4.525   1.427
 5011SOL    HW215933   1.896   4.375   1.481
 5012SOL     OW15934   6.190   2.206   5.288
 5012SOL    HW115935   6.195   2.257   5.202
 5012SOL    HW215936   6.120   2.247   5.347
 5013SOL     OW15937   5.235   0.954   6.427
 5013SOL    HW115938   5.325   0.937   6.467
 5013SOL    HW215939   5.184   1.016   6.487
 5014SOL     OW15940   6.522   4.144   0.021
 5014SOL    HW115941   6.445   4.199   0.052
 5014SOL    HW215942   6.607   4.192   0.040
 5015SOL     OW15943   4.568   0.847   4.796
 5015SOL    HW115944   4.478   0.807   4.781
 5015SOL    HW215945   4.581   0.926   4.736
 5016SOL     OW15946   0.937   3.176   5.268
 5016SOL    HW115947   1.017   3.224   5.233
 5016SOL    HW215948   0.965   3.113   5.341
 5017SOL     OW15949   1.771   2.544   1.186
 5017SOL    HW115950   1.842   2.506   1.246
 5017SOL    HW215951   1.767   2.490   1.102
 5018SOL     OW15952   1.474   5.213   2.832
 5018SOL    HW115953   1.473   5.261   2.920
 5018SOL    HW215954   1.384   5.173   2.816
 5019SOL     OW15955   2.532   6.406   5.730
 5019SOL    HW115956   2.565   6.336   5.667
 5019SOL    HW215957   2.443   6.379   5.767
 5020SOL     OW15958   6.739   0.310   5.835
 5020SOL    HW115959   6.682   0.368   5.777
 5020SOL    HW215960   6.757   0.357   5.921
 5021SOL     OW15961   1.203   1.088   1.014
 5021SOL    HW115962   1.182   1.173   0.967
 5021SOL    HW215963   1.126   1.025   1.006
 5022SOL     OW15964   1.256   2.419   1.582
 5022SOL    HW115965   1.160   2.449   1.582
 5022SOL    HW215966   1.290   2.418   1.676
 5023SOL     OW15967   0.320   4.290   1.518
 5023SOL    HW115968   0.335   4.264   1.422
 5023SOL    HW215969   0.363   4.379   1.535
 5024SOL     OW15970   5.869   5.444   1.103
 5024SOL    HW115971   5.818   5.409   1.181
 5024SOL    HW215972   5.806   5.490   1.040
 5025SOL     OW15973   4.193   2.233   4.098
 5025SOL    HW115974   4.191   2.270   4.005
 5025SOL    HW215975   4.115   2.171   4.111
 5026SOL     OW15976   6.907   5.545   5.679
 5026SOL    HW115977   6.883   5.581   5.769
 5026SOL    HW215978   7.006   5.536   5.673
 5027SOL     OW15979   6.060   0.018   1.777
 5027SOL    HW115980   6.147   7.020   1.732
 5027SOL    HW215981   6.010   0.086   1.723
 5028SOL     OW15982   6.531   1.582   3.111
 5028SOL    HW115983   6.476   1.661   3.137
 5028SOL    HW215984   6.479   1.525   3.047
 5029SOL     OW15985   6.118   2.226   2.517
 5029SOL    HW115986   6.092   2.129   2.515
 5029SOL    HW215987   6.139   2.252   2.611
 5030SOL     OW15988   6.518   6.433   6.921
 5030SOL    HW115989   6.444   6.402   6.861
 5030SOL    HW215990   6.566   6.509   6.877
 5031SOL     OW15991   6.657   1.087   5.930
 5031SOL    HW115992   6.750   1.052   5.921
 5031SOL    HW215993   6.643   1.162   5.865
 5032SOL     OW15994   3.245   1.418   6.106
 5032SOL    HW115995   3.260   1.369   6.020
 5032SOL    HW215996   3.273   1.514   6.096
 5033SOL     OW15997   2.098   0.272   6.593
 5033SOL    HW115998   2.123   0.196   6.653
 5033SOL    HW215999   2.181   0.324   6.570
 5034SOL     OW16000   5.851   0.260   3.755
 5034SOL    HW116001   5.770   0.228   3.804
 5034SOL    HW216002   5.862   0.206   3.671
 5035SOL     OW16003   0.117   4.133   5.643
 5035SOL    HW116004   0.128   4.183   5.729
 5035SOL    HW216005   0.070   4.191   5.577
 5036SOL     OW16006   0.041   4.754   6.979
 5036SOL    HW116007   0.069   4.770   0.052
 5036SOL    HW216008   0.074   4.665   6.949
 5037SOL     OW16009   5.358   4.815   1.899
 5037SOL    HW116010   5.356   4.744   1.828
 5037SOL    HW216011   5.452   4.829   1.929
 5038SOL     OW16012   3.478   3.046   5.406
 5038SOL    HW116013   3.397   3.036   5.349
 5038SOL    HW216014   3.538   2.967   5.394
 5039SOL     OW16015   2.220   3.363   5.230
 5039SOL    HW116016   2.266   3.445   5.265
 5039SOL    HW216017   2.271   3.282   5.257
 5040SOL     OW16018   0.840   6.513   5.882
 5040SOL    HW116019   0.849   6.612   5.869
 5040SOL    HW216020   0.867   6.490   5.975
 5041SOL     OW16021   1.844   1.596   1.896
 5041SOL    HW116022   1.747   1.577   1.906
 5041SOL    HW216023   1.879   1.549   1.814
 5042SOL     OW16024   6.540   3.448   0.545
 5042SOL    HW116025   6.536   3.470   0.642
 5042SOL    HW216026   6.498   3.359   0.528
 5043SOL     OW16027   4.027   0.290   6.782
 5043SOL    HW116028   4.008   0.368   6.722
 5043SOL    HW216029   3.996   0.310   6.875
 5044SOL     OW16030   0.586   6.346   1.049
 5044SOL    HW116031   0.519   6.376   1.117
 5044SOL    HW216032   0.548   6.358   0.957
 5045SOL     OW16033   5.803   5.879   6.484
 5045SOL    HW116034   5.734   5.809   6.501
 5045SOL    HW216035   5.825   5.927   6.569
 5046SOL     OW16036   4.045   3.780   3.094
 5046SOL    HW116037   4.123   3.834   3.126
 5046SOL    HW216038   3.963   3.805   3.146
 5047SOL     OW16039   1.659   4.212   2.890
 5047SOL    HW116040   1.749   4.177   2.917
 5047SOL    HW216041   1.614   4.255   2.969
 5048SOL     OW16042   1.296   1.060   3.082
 5048SOL    HW116043   1.304   0.975   3.135
 5048SOL    HW216044   1.334   1.046   2.990
 5049SOL     OW16045   4.788   1.703   0.131
 5049SOL    HW116046   4.829   1.783   0.087
 5049SOL    HW216047   4.817   1.699   0.227
 5050SOL     OW16048   1.234   0.620   0.223
 5050SOL    HW116049   1.196   0.569   0.146
 5050SOL    HW216050   1.265   0.557   0.294
 5051SOL     OW16051   4.848   4.281   1.311
 5051SOL    HW116052   4.778   4.243   1.371
 5051SOL    HW216053   4.909   4.207   1.282
 5052SOL     OW16054   2.607   1.553   5.657
 5052SOL    HW116055   2.598   1.456   5.635
 5052SOL    HW216056   2.700   1.571   5.690
 5053SOL     OW16057   1.562   4.491   3.509
 5053SOL    HW116058   1.606   4.407   3.477
 5053SOL    HW216059   1.622   4.569   3.491
 5054SOL     OW16060   2.737   4.927   4.343
 5054SOL    HW116061   2.725   5.023   4.318
 5054SOL    HW216062   2.649   4.882   4.344
 5055SOL     OW16063   0.853   2.376   6.188
 5055SOL    HW116064   0.936   2.321   6.197
 5055SOL    HW216065   0.812   2.361   6.098
 5056SOL     OW16066   5.865   4.297   6.194
 5056SOL    HW116067   5.856   4.378   6.252
 5056SOL    HW216068   5.795   4.230   6.218
 5057SOL     OW16069   0.332   6.995   3.461
 5057SOL    HW116070   0.316   6.944   3.545
 5057SOL    HW216071   0.289   0.063   3.468
 5058SOL     OW16072   3.695   3.783   5.559
 5058SOL    HW116073   3.621   3.804   5.623
 5058SOL    HW216074   3.668   3.705   5.502
 5059SOL     OW16075   6.218   0.783   3.327
 5059SOL    HW116076   6.184   0.877   3.320
 5059SOL    HW216077   6.177   0.739   3.407
 5060SOL     OW16078   0.407   2.415   6.448
 5060SOL    HW116079   0.377   2.510   6.437
 5060SOL    HW216080   0.504   2.414   6.472
 5061SOL     OW16081   5.183   2.712   0.707
 5061SOL    HW116082   5.119   2.767   0.761
 5061SOL    HW216083   5.156   2.714   0.611
 5062SOL     OW16084   6.099   6.538   3.000
 5062SOL    HW116085   6.093   6.637   2.988
 5062SOL    HW216086   6.195   6.510   3.006
 5063SOL     OW16087   0.464   0.041   2.710
 5063SOL    HW116088   0.496   6.971   2.733
 5063SOL    HW216089   0.492   0.064   2.617
 5064SOL     OW16090   4.905   3.094   0.672
 5064SOL    HW116091   4.986   3.137   0.631
 5064SOL    HW216092   4.823   3.145   0.648
 5065SOL     OW16093   3.002   0.796   5.640
 5065SOL    HW116094   2.959   0.750   5.563
 5065SOL    HW216095   3.074   0.857   5.607
 5066SOL     OW16096   5.219   4.397   2.222
 5066SOL    HW116097   5.243   4.477   2.168
 5066SOL    HW216098   5.298   4.369   2.276
 5067SOL     OW16099   4.900   1.160   1.414
 5067SOL    HW116100   4.997   1.185   1.412
 5067SOL    HW216101   4.886   1.076   1.362
 5068SOL     OW16102   2.926   4.508   0.839
 5068SOL    HW116103   2.832   4.540   0.828
 5068SOL    HW216104   2.930   4.445   0.917
 5069SOL     OW16105   1.304   3.850   4.040
 5069SOL    HW116106   1.351   3.934   4.067
 5069SOL    HW216107   1.210   3.853   4.073
 5070SOL     OW16108   5.177   3.764   3.977
 5070SOL    HW116109   5.080   3.743   3.991
 5070SOL    HW216110   5.221   3.686   3.933
 5071SOL     OW16111   4.987   2.010   4.725
 5071SOL    HW116112   5.073   2.059   4.725
 5071SOL    HW216113   5.001   1.918   4.690
 5072SOL     OW16114   0.847   6.732   0.115
 5072SOL    HW116115   0.799   6.792   0.178
 5072SOL    HW216116   0.916   6.679   0.165
 5073SOL     OW16117   6.918   6.712   3.145
 5073SOL    HW116118   6.993   6.775   3.168
 5073SOL    HW216119   6.832   6.748   3.182
 5074SOL     OW16120   3.144   3.329   6.781
 5074SOL    HW116121   3.189   3.294   6.699
 5074SOL    HW216122   3.072   3.393   6.754
 5075SOL     OW16123   0.696   1.964   6.352
 5075SOL    HW116124   0.762   1.956   6.276
 5075SOL    HW216125   0.648   2.051   6.345
 5076SOL     OW16126   3.545   0.672   1.201
 5076SOL    HW116127   3.587   0.719   1.123
 5076SOL    HW216128   3.615   0.652   1.269
 5077SOL     OW16129   0.403   2.642   4.804
 5077SOL    HW116130   0.410   2.591   4.718
 5077SOL    HW216131   0.492   2.678   4.830
 5078SOL     OW16132   0.882   1.796   3.456
 5078SOL    HW116133   0.916   1.889   3.471
 5078SOL    HW216134   0.812   1.798   3.384
 5079SOL     OW16135   2.341   5.051   6.012
 5079SOL    HW116136   2.436   5.056   6.043
 5079SOL    HW216137   2.322   4.961   5.975
 5080SOL     OW16138   5.855   6.336   5.889
 5080SOL    HW116139   5.849   6.238   5.909
 5080SOL    HW216140   5.833   6.352   5.792
 5081SOL     OW16141   3.564   2.961   4.154
 5081SOL    HW116142   3.511   2.881   4.181
 5081SOL    HW216143   3.548   3.035   4.219
 5082SOL     OW16144   5.987   5.408   5.762
 5082SOL    HW116145   6.070   5.399   5.706
 5082SOL    HW216146   5.908   5.378   5.709
 5083SOL     OW16147   2.280   6.630   2.963
 5083SOL    HW116148   2.364   6.675   2.993
 5083SOL    HW216149   2.262   6.653   2.867
 5084SOL     OW16150   0.932   5.059   4.642
 5084SOL    HW116151   0.909   5.072   4.545
 5084SOL    HW216152   0.862   5.001   4.685
 5085SOL     OW16153   5.276   2.552   6.818
 5085SOL    HW116154   5.273   2.457   6.785
 5085SOL    HW216155   5.184   2.588   6.823
 5086SOL     OW16156   6.627   5.582   3.744
 5086SOL    HW116157   6.543   5.617   3.784
 5086SOL    HW216158   6.615   5.485   3.722
 5087SOL     OW16159   6.419   5.703   3.873
 5087SOL    HW116160   6.447   5.697   3.968
 5087SOL    HW216161   6.343   5.767   3.864
 5088SOL     OW16162   5.421   1.689   4.418
 5088SOL    HW116163   5.347   1.649   4.473
 5088SOL    HW216164   5.481   1.616   4.385
 5089SOL     OW16165   6.012   2.966   3.176
 5089SOL    HW116166   6.028   2.965   3.274
 5089SOL    HW216167   6.031   2.875   3.138
 5090SOL     OW16168   1.967   3.611   2.571
 5090SOL    HW116169   1.876   3.594   2.611
 5090SOL    HW216170   1.957   3.648   2.479
 5091SOL     OW16171   1.809   6.458   2.753
 5091SOL    HW116172   1.744   6.382   2.755
 5091SOL    HW216173   1.783   6.522   2.681
 5092SOL     OW16174   2.991   2.960   1.320
 5092SOL    HW116175   3.028   3.000   1.236
 5092SOL    HW216176   2.935   3.027   1.367
 5093SOL     OW16177   2.990   1.349   1.669
 5093SOL    HW116178   3.013   1.382   1.760
 5093SOL    HW216179   2.903   1.388   1.640
 5094SOL     OW16180   0.598   6.501   4.111
 5094SOL    HW116181   0.626   6.414   4.072
 5094SOL    HW216182   0.616   6.575   4.046
 5095SOL     OW16183   0.872   1.687   4.111
 5095SOL    HW116184   0.963   1.716   4.143
 5095SOL    HW216185   0.883   1.626   4.033
 5096SOL     OW16186   4.391   3.863   0.383
 5096SOL    HW116187   4.299   3.885   0.350
 5096SOL    HW216188   4.401   3.764   0.392
 5097SOL     OW16189   1.848   0.411   6.592
 5097SOL    HW116190   1.938   0.373   6.569
 5097SOL    HW216191   1.777   0.358   6.547
 5098SOL     OW16192   0.839   0.680   1.239
 5098SOL    HW116193   0.764   0.745   1.222
 5098SOL    HW216194   0.919   0.730   1.273
 5099SOL     OW16195   0.588   0.288   6.558
 5099SOL    HW116196   0.652   0.231   6.609
 5099SOL    HW216197   0.615   0.291   6.461
 5100SOL     OW16198   4.496   6.751   5.557
 5100SOL    HW116199   4.488   6.714   5.465
 5100SOL    HW216200   4.408   6.745   5.603
 5101SOL     OW16201   4.674   6.643   0.336
 5101SOL    HW116202   4.668   6.706   0.413
 5101SOL    HW216203   4.604   6.666   0.269
 5102SOL     OW16204   5.717   0.524   5.946
 5102SOL    HW116205   5.690   0.566   5.860
 5102SOL    HW216206   5.636   0.493   5.995
 5103SOL     OW16207   0.232   0.711   4.080
 5103SOL    HW116208   0.272   0.655   4.152
 5103SOL    HW216209   0.146   0.751   4.112
 5104SOL     OW16210   1.986   6.170   2.205
 5104SOL    HW116211   1.971   6.221   2.290
 5104SOL    HW216212   1.982   6.233   2.127
 5105SOL     OW16213   4.046   3.309   0.141
 5105SOL    HW116214   4.071   3.297   0.045
 5105SOL    HW216215   4.023   3.220   0.181
 5106SOL     OW16216   3.506   0.171   1.660
 5106SOL    HW116217   3.581   0.214   1.709
 5106SOL    HW216218   3.455   0.112   1.722
 5107SOL     OW16219   3.500   0.944   0.604
 5107SOL    HW116220   3.413   0.931   0.556
 5107SOL    HW216221   3.491   1.022   0.667
 5108SOL     OW16222   3.039   3.176   3.535
 5108SOL    HW116223   3.029   3.236   3.614
 5108SOL    HW216224   3.059   3.083   3.566
 5109SOL     OW16225   0.763   1.276   0.917
 5109SOL    HW116226   0.752   1.183   0.884
 5109SOL    HW216227   0.761   1.276   1.017
 5110SOL     OW16228   0.539   6.936   6.313
 5110SOL    HW116229   0.577   6.901   6.399
 5110SOL    HW216230   0.567   0.009   6.301
 5111SOL     OW16231   0.730   1.165   5.723
 5111SOL    HW116232   0.818   1.207   5.698
 5111SOL    HW216233   0.657   1.203   5.667
 5112SOL     OW16234   0.206   0.245   2.921
 5112SOL    HW116235   0.150   0.250   3.004
 5112SOL    HW216236   0.291   0.197   2.941
 5113SOL     OW16237   1.972   6.910   1.384
 5113SOL    HW116238   1.923   6.991   1.419
 5113SOL    HW216239   1.971   6.839   1.454
 5114SOL     OW16240   3.503   2.821   0.428
 5114SOL    HW116241   3.446   2.860   0.501
 5114SOL    HW216242   3.505   2.722   0.438
 5115SOL     OW16243   2.230   4.632   5.163
 5115SOL    HW116244   2.326   4.605   5.162
 5115SOL    HW216245   2.206   4.664   5.255
 5116SOL     OW16246   5.774   6.581   6.065
 5116SOL    HW116247   5.848   6.515   6.055
 5116SOL    HW216248   5.715   6.554   6.141
 5117SOL     OW16249   1.795   4.835   4.188
 5117SOL    HW116250   1.741   4.765   4.236
 5117SOL    HW216251   1.767   4.839   4.093
 5118SOL     OW16252   4.712   6.129   0.805
 5118SOL    HW116253   4.629   6.130   0.750
 5118SOL    HW216254   4.771   6.055   0.775
 5119SOL     OW16255   5.319   0.571   1.690
 5119SOL    HW116256   5.233   0.619   1.672
 5119SOL    HW216257   5.323   0.488   1.635
 5120SOL     OW16258   5.321   1.532   3.455
 5120SOL    HW116259   5.405   1.568   3.415
 5120SOL    HW216260   5.343   1.473   3.532
 5121SOL     OW16261   1.644   2.334   0.037
 5121SOL    HW116262   1.605   2.341   0.129
 5121SOL    HW216263   1.722   2.395   0.029
 5122SOL     OW16264   3.074   0.663   4.448
 5122SOL    HW116265   3.045   0.753   4.480
 5122SOL    HW216266   3.019   0.636   4.369
 5123SOL     OW16267   5.999   3.523   4.754
 5123SOL    HW116268   6.050   3.514   4.839
 5123SOL    HW216269   5.944   3.606   4.757
 5124SOL     OW16270   2.591   5.174   6.158
 5124SOL    HW116271   2.587   5.198   6.254
 5124SOL    HW216272   2.613   5.255   6.104
 5125SOL     OW16273   6.913   3.648   4.820
 5125SOL    HW116274   6.990   3.695   4.777
 5125SOL    HW216275   6.850   3.616   4.749
 5126SOL     OW16276   6.414   4.630   5.686
 5126SOL    HW116277   6.353   4.557   5.656
 5126SOL    HW216278   6.499   4.591   5.721
 5127SOL     OW16279   6.131   3.603   7.009
 5127SOL    HW116280   6.154   3.683   6.954
 5127SOL    HW216281   6.036   3.577   6.993
 5128SOL     OW16282   0.964   0.326   0.154
 5128SOL    HW116283   0.890   0.376   0.198
 5128SOL    HW216284   1.016   0.387   0.094
 5129SOL     OW16285   4.976   1.016   2.701
 5129SOL    HW116286   4.897   0.975   2.656
 5129SOL    HW216287   5.009   1.093   2.646
 5130SOL     OW16288   1.302   5.780   4.806
 5130SOL    HW116289   1.381   5.817   4.855
 5130SOL    HW216290   1.301   5.680   4.817
 5131SOL     OW16291   2.845   4.808   3.234
 5131SOL    HW116292   2.914   4.835   3.302
 5131SOL    HW216293   2.769   4.873   3.236
 5132SOL     OW16294   3.163   1.020   5.885
 5132SOL    HW116295   3.257   1.005   5.916
 5132SOL    HW216296   3.099   0.990   5.956
 5133SOL     OW16297   2.619   5.663   6.241
 5133SOL    HW116298   2.537   5.609   6.225
 5133SOL    HW216299   2.642   5.714   6.158
 5134SOL     OW16300   6.832   0.259   2.669
 5134SOL    HW116301   6.858   0.272   2.765
 5134SOL    HW216302   6.791   0.344   2.634
 5135SOL     OW16303   6.248   4.135   3.204
 5135SOL    HW116304   6.311   4.138   3.282
 5135SOL    HW216305   6.275   4.061   3.143
 5136SOL     OW16306   6.632   1.426   6.012
 5136SOL    HW116307   6.695   1.494   5.976
 5136SOL    HW216308   6.590   1.376   5.937
 5137SOL     OW16309   4.886   3.226   5.571
 5137SOL    HW116310   4.957   3.277   5.619
 5137SOL    HW216311   4.886   3.250   5.474
 5138SOL     OW16312   3.985   3.811   3.886
 5138SOL    HW116313   3.940   3.862   3.812
 5138SOL    HW216314   3.996   3.716   3.858
 5139SOL     OW16315   1.063   0.076   4.771
 5139SOL    HW116316   1.087   0.042   4.862
 5139SOL    HW216317   1.118   0.156   4.749
 5140SOL     OW16318   3.768   2.025   5.888
 5140SOL    HW116319   3.769   1.939   5.941
 5140SOL    HW216320   3.791   2.006   5.793
 5141SOL     OW16321   6.250   2.575   1.414
 5141SOL    HW116322   6.200   2.488   1.415
 5141SOL    HW216323   6.281   2.595   1.322
 5142SOL     OW16324   6.163   0.027   5.451
 5142SOL    HW116325   6.076   0.005   5.407
 5142SOL    HW216326   6.185   0.123   5.435
 5143SOL     OW16327   1.148   4.234   5.178
 5143SOL    HW116328   1.090   4.221   5.259
 5143SOL    HW216329   1.220   4.299   5.198
 5144SOL     OW16330   1.803   3.767   6.378
 5144SOL    HW116331   1.709   3.745   6.403
 5144SOL    HW216332   1.804   3.844   6.314
 5145SOL     OW16333   3.528   6.236   6.557
 5145SOL    HW116334   3.468   6.189   6.622
 5145SOL    HW216335   3.623   6.212   6.576
 5146SOL     OW16336   3.802   4.042   5.144
 5146SOL    HW116337   3.812   4.135   5.180
 5146SOL    HW216338   3.854   4.033   5.059
 5147SOL     OW16339   5.672   4.936   3.635
 5147SOL    HW116340   5.715   4.879   3.705
 5147SOL    HW216341   5.731   4.941   3.555
 5148SOL     OW16342   0.362   0.396   2.611
 5148SOL    HW116343   0.315   0.307   2.612
 5148SOL    HW216344   0.406   0.409   2.523
 5149SOL     OW16345   5.640   4.947   4.405
 5149SOL    HW116346   5.692   4.891   4.468
 5149SOL    HW216347   5.551   4.905   4.388
 5150SOL     OW16348   2.161   4.583   3.836
 5150SOL    HW116349   2.236   4.530   3.795
 5150SOL    HW216350   2.176   4.591   3.934
 5151SOL     OW16351   5.854   3.705   1.733
 5151SOL    HW116352   5.769   3.747   1.763
 5151SOL    HW216353   5.839   3.607   1.717
 5152SOL     OW16354   1.069   5.694   6.823
 5152SOL    HW116355   1.094   5.771   6.881
 5152SOL    HW216356   0.978   5.709   6.784
 5153SOL     OW16357   1.132   1.378   1.028
 5153SOL    HW116358   1.225   1.375   1.065
 5153SOL    HW216359   1.073   1.429   1.091
 5154SOL     OW16360   1.592   2.950   6.381
 5154SOL    HW116361   1.658   2.984   6.449
 5154SOL    HW216362   1.611   2.991   6.292
 5155SOL     OW16363   2.958   1.948   1.028
 5155SOL    HW116364   2.969   1.991   0.939
 5155SOL    HW216365   3.047   1.914   1.060
 5156SOL     OW16366   5.600   4.445   4.591
 5156SOL    HW116367   5.694   4.458   4.622
 5156SOL    HW216368   5.537   4.462   4.667
 5157SOL     OW16369   3.043   1.732   2.275
 5157SOL    HW116370   3.039   1.710   2.177
 5157SOL    HW216371   2.979   1.807   2.294
 5158SOL     OW16372   2.816   2.442   1.408
 5158SOL    HW116373   2.797   2.433   1.506
 5158SOL    HW216374   2.845   2.535   1.387
 5159SOL     OW16375   6.139   4.213   6.219
 5159SOL    HW116376   6.178   4.304   6.207
 5159SOL    HW216377   6.044   4.213   6.187
 5160SOL     OW16378   6.430   6.323   3.638
 5160SOL    HW116379   6.507   6.387   3.637
 5160SOL    HW216380   6.451   6.244   3.580
 5161SOL     OW16381   1.309   3.417   0.285
 5161SOL    HW116382   1.265   3.446   0.370
 5161SOL    HW216383   1.373   3.488   0.256
 5162SOL     OW16384   0.545   5.495   2.530
 5162SOL    HW116385   0.523   5.592   2.521
 5162SOL    HW216386   0.630   5.484   2.581
 5163SOL     OW16387   3.977   6.833   0.838
 5163SOL    HW116388   3.962   6.820   0.740
 5163SOL    HW216389   3.899   6.881   0.878
 5164SOL     OW16390   2.654   3.044   0.275
 5164SOL    HW116391   2.679   3.047   0.178
 5164SOL    HW216392   2.737   3.040   0.331
 5165SOL     OW16393   1.173   4.172   6.716
 5165SOL    HW116394   1.128   4.196   6.802
 5165SOL    HW216395   1.202   4.256   6.669
 5166SOL     OW16396   1.616   5.214   2.440
 5166SOL    HW116397   1.549   5.280   2.404
 5166SOL    HW216398   1.606   5.127   2.392
 5167SOL     OW16399   6.445   4.228   4.828
 5167SOL    HW116400   6.474   4.320   4.850
 5167SOL    HW216401   6.454   4.169   4.908
 5168SOL     OW16402   4.446   2.079   2.119
 5168SOL    HW116403   4.354   2.039   2.113
 5168SOL    HW216404   4.485   2.057   2.209
 5169SOL     OW16405   4.807   2.030   3.880
 5169SOL    HW116406   4.852   2.037   3.791
 5169SOL    HW216407   4.744   1.952   3.880
 5170SOL     OW16408   0.986   3.778   5.781
 5170SOL    HW116409   1.016   3.739   5.868
 5170SOL    HW216410   1.060   3.769   5.714
 5171SOL     OW16411   0.800   4.942   5.527
 5171SOL    HW116412   0.787   4.851   5.487
 5171SOL    HW216413   0.884   4.982   5.492
 5172SOL     OW16414   1.500   4.726   3.675
 5172SOL    HW116415   1.598   4.708   3.663
 5172SOL    HW216416   1.463   4.666   3.745
 5173SOL     OW16417   4.337   4.196   6.420
 5173SOL    HW116418   4.257   4.224   6.368
 5173SOL    HW216419   4.414   4.256   6.400
 5174SOL     OW16420   1.909   6.646   3.834
 5174SOL    HW116421   1.967   6.604   3.904
 5174SOL    HW216422   1.933   6.742   3.824
 5175SOL     OW16423   2.480   4.123   6.660
 5175SOL    HW116424   2.540   4.083   6.591
 5175SOL    HW216425   2.388   4.084   6.650
 5176SOL     OW16426   5.134   4.956   6.348
 5176SOL    HW116427   5.197   4.934   6.273
 5176SOL    HW216428   5.041   4.958   6.313
 5177SOL     OW16429   5.174   6.382   1.133
 5177SOL    HW116430   5.150   6.323   1.210
 5177SOL    HW216431   5.161   6.331   1.047
 5178SOL     OW16432   0.748   4.792   1.945
 5178SOL    HW116433   0.815   4.718   1.956
 5178SOL    HW216434   0.771   4.845   1.863
 5179SOL     OW16435   4.951   4.473   3.293
 5179SOL    HW116436   4.920   4.514   3.207
 5179SOL    HW216437   4.887   4.401   3.320
 5180SOL     OW16438   3.448   0.178   1.175
 5180SOL    HW116439   3.545   0.199   1.160
 5180SOL    HW216440   3.430   0.176   1.274
 5181SOL     OW16441   0.139   0.529   6.926
 5181SOL    HW116442   0.154   0.431   6.915
 5181SOL    HW216443   0.143   0.553   0.002
 5182SOL     OW16444   4.471   4.572   2.134
 5182SOL    HW116445   4.481   4.486   2.083
 5182SOL    HW216446   4.386   4.616   2.107
 5183SOL     OW16447   3.930   1.717   2.718
 5183SOL    HW116448   3.941   1.801   2.771
 5183SOL    HW216449   4.011   1.659   2.729
 5184SOL     OW16450   2.240   2.367   3.346
 5184SOL    HW116451   2.293   2.344   3.264
 5184SOL    HW216452   2.245   2.290   3.411
 5185SOL     OW16453   4.775   0.330   3.251
 5185SOL    HW116454   4.801   0.263   3.320
 5185SOL    HW216455   4.854   0.389   3.230
 5186SOL     OW16456   5.856   2.848   5.288
 5186SOL    HW116457   5.951   2.835   5.259
 5186SOL    HW216458   5.832   2.779   5.356
 5187SOL     OW16459   2.125   5.495   4.736
 5187SOL    HW116460   2.082   5.452   4.657
 5187SOL    HW216461   2.144   5.591   4.715
 5188SOL     OW16462   6.589   6.240   1.694
 5188SOL    HW116463   6.566   6.333   1.667
 5188SOL    HW216464   6.669   6.241   1.753
 5189SOL     OW16465   5.211   6.066   6.791
 5189SOL    HW116466   5.251   6.100   6.706
 5189SOL    HW216467   5.219   6.135   6.862
 5190SOL     OW16468   1.598   3.040   2.503
 5190SOL    HW116469   1.660   3.116   2.525
 5190SOL    HW216470   1.512   3.077   2.468
 5191SOL     OW16471   3.058   5.661   3.164
 5191SOL    HW116472   3.067   5.578   3.219
 5191SOL    HW216473   2.974   5.656   3.109
 5192SOL     OW16474   1.847   5.859   1.684
 5192SOL    HW116475   1.751   5.858   1.655
 5192SOL    HW216476   1.885   5.766   1.676
 5193SOL     OW16477   4.634   6.691   6.220
 5193SOL    HW116478   4.692   6.729   6.291
 5193SOL    HW216479   4.672   6.713   6.130
 5194SOL     OW16480   2.705   2.014   6.678
 5194SOL    HW116481   2.622   2.058   6.643
 5194SOL    HW216482   2.698   1.915   6.665
 5195SOL     OW16483   0.312   0.253   3.687
 5195SOL    HW116484   0.219   0.290   3.691
 5195SOL    HW216485   0.368   0.309   3.625
 5196SOL     OW16486   4.620   6.575   2.235
 5196SOL    HW116487   4.672   6.651   2.197
 5196SOL    HW216488   4.579   6.602   2.322
 5197SOL     OW16489   1.502   4.018   6.627
 5197SOL    HW116490   1.436   4.062   6.688
 5197SOL    HW216491   1.553   4.088   6.577
 5198SOL     OW16492   4.342   5.529   3.256
 5198SOL    HW116493   4.422   5.501   3.309
 5198SOL    HW216494   4.284   5.450   3.238
 5199SOL     OW16495   0.087   5.441   0.969
 5199SOL    HW116496   0.029   5.361   0.987
 5199SOL    HW216497   0.044   5.522   1.008
 5200SOL     OW16498   6.538   3.249   5.125
 5200SOL    HW116499   6.476   3.318   5.088
 5200SOL    HW216500   6.498   3.207   5.206
 5201SOL     OW16501   0.574   6.592   3.170
 5201SOL    HW116502   0.554   6.677   3.121
 5201SOL    HW216503   0.508   6.579   3.244
 5202SOL     OW16504   6.373   2.731   6.374
 5202SOL    HW116505   6.332   2.640   6.373
 5202SOL    HW216506   6.433   2.742   6.295
 5203SOL     OW16507   2.031   2.433   6.591
 5203SOL    HW116508   2.018   2.526   6.557
 5203SOL    HW216509   2.058   2.436   6.687
 5204SOL     OW16510   3.718   5.120   0.545
 5204SOL    HW116511   3.646   5.091   0.482
 5204SOL    HW216512   3.679   5.132   0.636
 5205SOL     OW16513   1.685   0.346   0.760
 5205SOL    HW116514   1.660   0.439   0.730
 5205SOL    HW216515   1.659   0.333   0.855
 5206SOL     OW16516   0.653   3.738   6.425
 5206SOL    HW116517   0.678   3.643   6.442
 5206SOL    HW216518   0.561   3.742   6.386
 5207SOL     OW16519   0.965   5.177   4.085
 5207SOL    HW116520   0.993   5.239   4.012
 5207SOL    HW216521   0.896   5.113   4.050
 5208SOL     OW16522   3.570   1.352   0.256
 5208SOL    HW116523   3.487   1.304   0.227
 5208SOL    HW216524   3.605   1.310   0.340
 5209SOL     OW16525   5.629   5.630   4.506
 5209SOL    HW116526   5.563   5.601   4.575
 5209SOL    HW216527   5.612   5.582   4.420
 5210SOL     OW16528   6.009   3.035   5.502
 5210SOL    HW116529   5.981   3.094   5.426
 5210SOL    HW216530   5.928   3.002   5.550
 5211SOL     OW16531   3.812   3.009   4.453
 5211SOL    HW116532   3.779   3.095   4.413
 5211SOL    HW216533   3.856   2.954   4.382
 5212SOL     OW16534   6.900   2.157   1.283
 5212SOL    HW116535   6.920   2.248   1.248
 5212SOL    HW216536   6.833   2.113   1.224
 5213SOL     OW16537   4.961   2.161   0.021
 5213SOL    HW116538   4.929   2.221   0.094
 5213SOL    HW216539   5.054   2.188   7.015
 5214SOL     OW16540   5.310   1.362   6.572
 5214SOL    HW116541   5.370   1.420   6.518
 5214SOL    HW216542   5.365   1.306   6.634
 5215SOL     OW16543   5.175   5.359   3.518
 5215SOL    HW116544   5.227   5.443   3.504
 5215SOL    HW216545   5.233   5.291   3.563
 5216SOL     OW16546   4.949   6.123   1.252
 5216SOL    HW116547   4.991   6.041   1.214
 5216SOL    HW216548   4.944   6.194   1.182
 5217SOL     OW16549   3.455   4.984   4.097
 5217SOL    HW116550   3.389   4.909   4.097
 5217SOL    HW216551   3.476   5.010   4.192
 5218SOL     OW16552   1.672   0.177   3.286
 5218SOL    HW116553   1.686   0.092   3.235
 5218SOL    HW216554   1.761   0.220   3.303
 5219SOL     OW16555   3.694   0.551   6.589
 5219SOL    HW116556   3.743   0.487   6.530
 5219SOL    HW216557   3.751   0.575   6.667
 5220SOL     OW16558   1.668   5.429   3.013
 5220SOL    HW116559   1.618   5.505   2.972
 5220SOL    HW216560   1.721   5.463   3.092
 5221SOL     OW16561   5.804   2.222   4.401
 5221SOL    HW116562   5.714   2.230   4.358
 5221SOL    HW216563   5.857   2.305   4.383
 5222SOL     OW16564   2.582   0.507   4.024
 5222SOL    HW116565   2.632   0.544   4.102
 5222SOL    HW216566   2.597   0.566   3.944
 5223SOL     OW16567   5.121   0.711   1.519
 5223SOL    HW116568   5.033   0.664   1.512
 5223SOL    HW216569   5.158   0.725   1.427
 5224SOL     OW16570   0.387   1.406   3.423
 5224SOL    HW116571   0.342   1.494   3.407
 5224SOL    HW216572   0.479   1.421   3.457
 5225SOL     OW16573   6.629   0.895   3.119
 5225SOL    HW116574   6.557   0.826   3.129
 5225SOL    HW216575   6.590   0.986   3.131
 5226SOL     OW16576   0.155   6.140   5.498
 5226SOL    HW116577   0.204   6.096   5.423
 5226SOL    HW216578   0.213   6.141   5.579
 5227SOL     OW16579   1.668   4.404   3.959
 5227SOL    HW116580   1.747   4.346   3.939
 5227SOL    HW216581   1.695   4.500   3.954
 5228SOL     OW16582   6.601   2.879   1.097
 5228SOL    HW116583   6.663   2.950   1.065
 5228SOL    HW216584   6.519   2.921   1.135
 5229SOL     OW16585   1.550   4.312   6.721
 5229SOL    HW116586   1.648   4.294   6.736
 5229SOL    HW216587   1.519   4.380   6.787
 5230SOL     OW16588   0.126   0.206   0.802
 5230SOL    HW116589   0.211   0.171   0.762
 5230SOL    HW216590   0.049   0.155   0.763
 5231SOL     OW16591   2.856   3.624   4.443
 5231SOL    HW116592   2.915   3.674   4.379
 5231SOL    HW216593   2.850   3.676   4.529
 5232SOL     OW16594   2.897   2.030   6.046
 5232SOL    HW116595   2.896   1.934   6.016
 5232SOL    HW216596   2.888   2.034   6.145
 5233SOL     OW16597   6.855   0.020   1.341
 5233SOL    HW116598   6.828   0.095   1.403
 5233SOL    HW216599   6.889   0.059   1.255
 5234SOL     OW16600   3.137   0.441   6.578
 5234SOL    HW116601   3.127   0.354   6.530
 5234SOL    HW216602   3.231   0.450   6.611
 5235SOL     OW16603   1.740   3.042   1.421
 5235SOL    HW116604   1.645   3.044   1.450
 5235SOL    HW216605   1.748   3.077   1.327
 5236SOL     OW16606   5.673   3.019   2.273
 5236SOL    HW116607   5.675   2.924   2.242
 5236SOL    HW216608   5.764   3.059   2.260
 5237SOL     OW16609   2.637   1.656   5.119
 5237SOL    HW116610   2.640   1.565   5.162
 5237SOL    HW216611   2.655   1.647   5.021
 5238SOL     OW16612   2.130   5.264   0.678
 5238SOL    HW116613   2.144   5.179   0.626
 5238SOL    HW216614   2.111   5.242   0.774
 5239SOL     OW16615   4.006   3.594   3.693
 5239SOL    HW116616   3.961   3.510   3.663
 5239SOL    HW216617   4.090   3.571   3.743
 5240SOL     OW16618   3.052   1.916   5.681
 5240SOL    HW116619   3.019   1.954   5.768
 5240SOL    HW216620   3.108   1.984   5.635
 5241SOL     OW16621   1.555   5.707   6.415
 5241SOL    HW116622   1.485   5.645   6.378
 5241SOL    HW216623   1.536   5.800   6.385
 5242SOL     OW16624   6.533   6.280   5.662
 5242SOL    HW116625   6.524   6.185   5.693
 5242SOL    HW216626   6.596   6.284   5.585
 5243SOL     OW16627   1.840   6.342   1.681
 5243SOL    HW116628   1.797   6.322   1.593
 5243SOL    HW216629   1.939   6.350   1.670
 5244SOL     OW16630   4.151   3.652   6.286
 5244SOL    HW116631   4.200   3.565   6.284
 5244SOL    HW216632   4.158   3.697   6.198
 5245SOL     OW16633   4.476   4.257   6.811
 5245SOL    HW116634   4.481   4.326   6.738
 5245SOL    HW216635   4.559   4.202   6.810
 5246SOL     OW16636   5.714   4.286   2.867
 5246SOL    HW116637   5.757   4.321   2.783
 5246SOL    HW216638   5.628   4.335   2.882
 5247SOL     OW16639   1.529   6.096   0.344
 5247SOL    HW116640   1.448   6.147   0.371
 5247SOL    HW216641   1.535   6.011   0.396
 5248SOL     OW16642   5.775   0.779   6.116
 5248SOL    HW116643   5.787   0.712   6.042
 5248SOL    HW216644   5.723   0.858   6.081
 5249SOL     OW16645   0.734   5.428   5.059
 5249SOL    HW116646   0.672   5.350   5.056
 5249SOL    HW216647   0.683   5.511   5.081
 5250SOL     OW16648   0.128   1.566   5.829
 5250SOL    HW116649   0.104   1.508   5.751
 5250SOL    HW216650   0.108   1.518   5.914
 5251SOL     OW16651   0.547   2.896   1.375
 5251SOL    HW116652   0.555   2.798   1.391
 5251SOL    HW216653   0.452   2.919   1.357
 5252SOL     OW16654   1.827   5.945   0.760
 5252SOL    HW116655   1.883   5.994   0.692
 5252SOL    HW216656   1.732   5.977   0.754
 5253SOL     OW16657   5.036   3.488   5.625
 5253SOL    HW116658   5.044   3.581   5.591
 5253SOL    HW216659   4.987   3.489   5.713
 5254SOL     OW16660   5.446   1.826   3.620
 5254SOL    HW116661   5.468   1.778   3.535
 5254SOL    HW216662   5.523   1.884   3.647
 5255SOL     OW16663   4.282   0.020   4.934
 5255SOL    HW116664   4.376   0.049   4.918
 5255SOL    HW216665   4.281   6.959   4.989
 5256SOL     OW16666   4.698   1.327   3.433
 5256SOL    HW116667   4.621   1.349   3.373
 5256SOL    HW216668   4.755   1.257   3.391
 5257SOL     OW16669   4.191   0.604   2.219
 5257SOL    HW116670   4.097   0.618   2.188
 5257SOL    HW216671   4.238   0.543   2.154
 5258SOL     OW16672   4.968   3.645   1.623
 5258SOL    HW116673   4.898   3.618   1.688
 5258SOL    HW216674   5.049   3.587   1.633
 5259SOL     OW16675   4.584   6.451   1.208
 5259SOL    HW116676   4.636   6.431   1.292
 5259SOL    HW216677   4.498   6.497   1.232
 5260SOL     OW16678   5.768   3.065   0.776
 5260SOL    HW116679   5.858   3.049   0.816
 5260SOL    HW216680   5.697   3.040   0.842
 5261SOL     OW16681   1.093   2.798   5.857
 5261SOL    HW116682   1.116   2.704   5.833
 5261SOL    HW216683   1.018   2.798   5.924
 5262SOL     OW16684   3.120   0.004   2.541
 5262SOL    HW116685   3.059   7.016   2.620
 5262SOL    HW216686   3.191   6.956   2.546
 5263SOL     OW16687   0.979   0.622   6.051
 5263SOL    HW116688   0.950   0.539   6.003
 5263SOL    HW216689   0.899   0.677   6.073
 5264SOL     OW16690   5.908   0.659   1.965
 5264SOL    HW116691   5.922   0.627   2.059
 5264SOL    HW216692   5.989   0.637   1.910
 5265SOL     OW16693   5.206   4.235   2.553
 5265SOL    HW116694   5.145   4.303   2.593
 5265SOL    HW216695   5.246   4.179   2.626
 5266SOL     OW16696   2.485   6.696   1.622
 5266SOL    HW116697   2.394   6.738   1.617
 5266SOL    HW216698   2.519   6.703   1.716
 5267SOL     OW16699   4.920   4.762   5.979
 5267SOL    HW116700   4.999   4.822   5.975
 5267SOL    HW216701   4.839   4.812   5.946
 5268SOL     OW16702   6.677   5.609   5.916
 5268SOL    HW116703   6.621   5.567   5.844
 5268SOL    HW216704   6.634   5.695   5.945
 5269SOL     OW16705   2.735   5.897   4.041
 5269SOL    HW116706   2.763   5.986   4.005
 5269SOL    HW216707   2.777   5.824   3.986
 5270SOL     OW16708   4.317   2.214   1.723
 5270SOL    HW116709   4.356   2.206   1.631
 5270SOL    HW216710   4.239   2.151   1.731
 5271SOL     OW16711   4.560   5.288   4.678
 5271SOL    HW116712   4.586   5.265   4.772
 5271SOL    HW216713   4.463   5.267   4.665
 5272SOL     OW16714   1.624   5.576   3.610
 5272SOL    HW116715   1.556   5.648   3.602
 5272SOL    HW216716   1.702   5.609   3.663
 5273SOL     OW16717   0.200   3.431   2.877
 5273SOL    HW116718   0.236   3.394   2.792
 5273SOL    HW216719   0.250   3.391   2.954
 5274SOL     OW16720   6.099   4.828   2.423
 5274SOL    HW116721   6.057   4.900   2.478
 5274SOL    HW216722   6.141   4.868   2.342
 5275SOL     OW16723   3.059   1.566   6.555
 5275SOL    HW116724   3.033   1.663   6.562
 5275SOL    HW216725   3.132   1.547   6.621
 5276SOL     OW16726   0.787   6.044   0.745
 5276SOL    HW116727   0.818   6.083   0.659
 5276SOL    HW216728   0.688   6.054   0.752
 5277SOL     OW16729   1.637   2.701   2.663
 5277SOL    HW116730   1.669   2.741   2.577
 5277SOL    HW216731   1.606   2.774   2.724
 5278SOL     OW16732   5.372   6.709   5.174
 5278SOL    HW116733   5.382   6.691   5.272
 5278SOL    HW216734   5.392   6.806   5.156
 5279SOL     OW16735   1.574   6.246   6.912
 5279SOL    HW116736   1.564   6.174   6.980
 5279SOL    HW216737   1.588   6.334   6.958
 5280SOL     OW16738   3.426   5.028   5.601
 5280SOL    HW116739   3.379   5.040   5.514
 5280SOL    HW216740   3.362   4.992   5.669
 5281SOL     OW16741   1.881   1.257   3.817
 5281SOL    HW116742   1.917   1.289   3.729
 5281SOL    HW216743   1.900   1.159   3.827
 5282SOL     OW16744   1.769   0.479   1.699
 5282SOL    HW116745   1.745   0.421   1.777
 5282SOL    HW216746   1.697   0.546   1.684
 5283SOL     OW16747   2.009   0.272   2.981
 5283SOL    HW116748   1.953   0.230   2.909
 5283SOL    HW216749   2.052   0.355   2.946
 5284SOL     OW16750   4.852   3.082   3.577
 5284SOL    HW116751   4.849   3.026   3.660
 5284SOL    HW216752   4.850   3.022   3.497
 5285SOL     OW16753   0.284   3.483   4.493
 5285SOL    HW116754   0.250   3.439   4.576
 5285SOL    HW216755   0.354   3.551   4.517
 5286SOL     OW16756   6.287   3.382   1.291
 5286SOL    HW116757   6.246   3.446   1.356
 5286SOL    HW216758   6.376   3.418   1.261
 5287SOL     OW16759   3.048   5.538   1.346
 5287SOL    HW116760   3.082   5.616   1.293
 5287SOL    HW216761   3.028   5.567   1.439
 5288SOL     OW16762   3.623   0.731   2.370
 5288SOL    HW116763   3.638   0.683   2.284
 5288SOL    HW216764   3.632   0.830   2.356
 5289SOL     OW16765   2.107   5.561   5.461
 5289SOL    HW116766   2.084   5.503   5.383
 5289SOL    HW216767   2.057   5.530   5.541
 5290SOL     OW16768   1.503   3.791   6.056
 5290SOL    HW116769   1.501   3.692   6.050
 5290SOL    HW216770   1.539   3.829   5.971
 5291SOL     OW16771   2.840   4.584   6.595
 5291SOL    HW116772   2.785   4.513   6.551
 5291SOL    HW216773   2.833   4.669   6.543
 5292SOL     OW16774   5.969   4.941   6.325
 5292SOL    HW116775   6.003   4.997   6.250
 5292SOL    HW216776   5.876   4.969   6.349
 5293SOL     OW16777   2.167   6.837   4.925
 5293SOL    HW116778   2.131   6.923   4.889
 5293SOL    HW216779   2.129   6.761   4.873
 5294SOL     OW16780   5.683   2.601   5.673
 5294SOL    HW116781   5.645   2.636   5.759
 5294SOL    HW216782   5.610   2.563   5.617
 5295SOL     OW16783   4.034   1.440   3.087
 5295SOL    HW116784   3.948   1.390   3.090
 5295SOL    HW216785   4.102   1.392   3.143
 5296SOL     OW16786   3.066   4.722   6.704
 5296SOL    HW116787   3.059   4.745   6.608
 5296SOL    HW216788   3.023   4.633   6.721
 5297SOL     OW16789   1.825   3.452   0.511
 5297SOL    HW116790   1.730   3.446   0.542
 5297SOL    HW216791   1.848   3.547   0.492
 5298SOL     OW16792   1.069   5.975   6.964
 5298SOL    HW116793   1.152   6.001   7.012
 5298SOL    HW216794   1.038   6.051   6.907
 5299SOL     OW16795   2.588   3.186   0.875
 5299SOL    HW116796   2.648   3.200   0.954
 5299SOL    HW216797   2.501   3.231   0.892
 5300SOL     OW16798   0.484   5.895   1.087
 5300SOL    HW116799   0.416   5.966   1.069
 5300SOL    HW216800   0.541   5.923   1.164
 5301SOL     OW16801   3.919   1.758   6.692
 5301SOL    HW116802   3.858   1.740   6.615
 5301SOL    HW216803   3.993   1.819   6.662
 5302SOL     OW16804   6.160   5.593   3.629
 5302SOL    HW116805   6.088   5.660   3.646
 5302SOL    HW216806   6.140   5.509   3.678
 5303SOL     OW16807   0.322   5.267   4.691
 5303SOL    HW116808   0.230   5.306   4.684
 5303SOL    HW216809   0.377   5.321   4.754
 5304SOL     OW16810   6.085   0.797   0.964
 5304SOL    HW116811   6.100   0.698   0.965
 5304SOL    HW216812   6.130   0.837   0.884
 5305SOL     OW16813   0.599   4.350   3.818
 5305SOL    HW116814   0.621   4.407   3.739
 5305SOL    HW216815   0.671   4.282   3.831
 5306SOL     OW16816   0.537   4.540   4.952
 5306SOL    HW116817   0.611   4.526   5.018
 5306SOL    HW216818   0.574   4.537   4.859
 5307SOL     OW16819   4.009   1.647   0.147
 5307SOL    HW116820   3.951   1.710   0.095
 5307SOL    HW216821   4.105   1.673   0.135
 5308SOL     OW16822   1.192   4.417   3.264
 5308SOL    HW116823   1.191   4.477   3.344
 5308SOL    HW216824   1.270   4.355   3.270
 5309SOL     OW16825   4.048   4.719   1.757
 5309SOL    HW116826   3.961   4.723   1.709
 5309SOL    HW216827   4.082   4.625   1.757
 5310SOL     OW16828   5.842   3.364   1.996
 5310SOL    HW116829   5.785   3.406   2.067
 5310SOL    HW216830   5.863   3.270   2.022
 5311SOL     OW16831   6.462   6.935   6.975
 5311SOL    HW116832   6.390   6.994   6.938
 5311SOL    HW216833   6.542   6.938   6.915
 5312SOL     OW16834   0.860   5.840   1.092
 5312SOL    HW116835   0.816   5.820   1.180
 5312SOL    HW216836   0.887   5.936   1.089
 5313SOL     OW16837   1.335   2.828   5.994
 5313SOL    HW116838   1.331   2.907   6.055
 5313SOL    HW216839   1.273   2.844   5.916
 5314SOL     OW16840   3.658   6.858   0.356
 5314SOL    HW116841   3.561   6.850   0.334
 5314SOL    HW216842   3.668   6.872   0.455
 5315SOL     OW16843   4.795   3.581   1.823
 5315SOL    HW116844   4.809   3.662   1.879
 5315SOL    HW216845   4.697   3.560   1.818
 5316SOL     OW16846   0.950   3.509   4.851
 5316SOL    HW116847   0.988   3.588   4.802
 5316SOL    HW216848   0.944   3.431   4.789
 5317SOL     OW16849   5.836   1.284   4.882
 5317SOL    HW116850   5.784   1.215   4.932
 5317SOL    HW216851   5.894   1.240   4.813
 5318SOL     OW16852   0.872   2.932   0.074
 5318SOL    HW116853   0.953   2.937   0.132
 5318SOL    HW216854   0.790   2.927   0.131
 5319SOL     OW16855   4.061   5.844   0.055
 5319SOL    HW116856   4.065   5.789   0.139
 5319SOL    HW216857   4.095   5.790   7.000
 5320SOL     OW16858   4.593   4.740   0.524
 5320SOL    HW116859   4.663   4.795   0.571
 5320SOL    HW216860   4.504   4.757   0.565
 5321SOL     OW16861   1.880   4.829   4.633
 5321SOL    HW116862   1.937   4.850   4.554
 5321SOL    HW216863   1.794   4.879   4.627
 5322SOL     OW16864   5.487   6.379   6.604
 5322SOL    HW116865   5.507   6.326   6.686
 5322SOL    HW216866   5.552   6.354   6.531
 5323SOL     OW16867   3.897   1.869   0.010
 5323SOL    HW116868   3.979   1.889   6.978
 5323SOL    HW216869   3.826   1.936   7.009
 5324SOL     OW16870   3.003   2.078   0.797
 5324SOL    HW116871   2.929   2.144   0.811
 5324SOL    HW216872   3.072   2.117   0.737
 5325SOL     OW16873   4.061   0.499   4.299
 5325SOL    HW116874   4.043   0.436   4.224
 5325SOL    HW216875   4.160   0.515   4.306
 5326SOL     OW16876   6.299   4.819   3.013
 5326SOL    HW116877   6.211   4.812   2.966
 5326SOL    HW216878   6.330   4.914   3.012
 5327SOL     OW16879   5.401   2.677   5.513
 5327SOL    HW116880   5.412   2.589   5.468
 5327SOL    HW216881   5.316   2.678   5.566
 5328SOL     OW16882   3.903   3.061   5.008
 5328SOL    HW116883   3.908   3.058   4.909
 5328SOL    HW216884   3.816   3.021   5.038
 5329SOL     OW16885   0.204   4.493   0.157
 5329SOL    HW116886   0.169   4.411   0.202
 5329SOL    HW216887   0.304   4.491   0.154
 5330SOL     OW16888   3.941   4.028   6.149
 5330SOL    HW116889   3.858   4.078   6.174
 5330SOL    HW216890   3.925   3.978   6.064
 5331SOL     OW16891   5.325   1.122   0.881
 5331SOL    HW116892   5.347   1.049   0.947
 5331SOL    HW216893   5.332   1.085   0.788
 5332SOL     OW16894   0.697   3.002   1.144
 5332SOL    HW116895   0.726   3.097   1.146
 5332SOL    HW216896   0.634   2.985   1.220
 5333SOL     OW16897   0.448   0.350   3.219
 5333SOL    HW116898   0.444   0.308   3.128
 5333SOL    HW216899   0.459   0.449   3.209
 5334SOL     OW16900   3.344   0.113   4.316
 5334SOL    HW116901   3.251   0.115   4.353
 5334SOL    HW216902   3.350   0.176   4.238
 5335SOL     OW16903   6.951   6.106   2.284
 5335SOL    HW116904   0.025   6.120   2.310
 5335SOL    HW216905   6.945   6.093   2.185
 5336SOL     OW16906   1.879   2.898   3.399
 5336SOL    HW116907   1.875   2.824   3.333
 5336SOL    HW216908   1.910   2.864   3.487
 5337SOL     OW16909   5.029   4.072   1.241
 5337SOL    HW116910   4.969   4.085   1.161
 5337SOL    HW216911   5.047   3.975   1.254
 5338SOL     OW16912   6.186   1.950   6.558
 5338SOL    HW116913   6.088   1.939   6.575
 5338SOL    HW216914   6.229   1.860   6.549
 5339SOL     OW16915   6.654   2.034   3.847
 5339SOL    HW116916   6.710   2.002   3.923
 5339SOL    HW216917   6.672   2.131   3.831
 5340SOL     OW16918   4.737   3.725   0.649
 5340SOL    HW116919   4.706   3.639   0.689
 5340SOL    HW216920   4.753   3.713   0.551
 5341SOL     OW16921   3.241   2.542   6.287
 5341SOL    HW116922   3.300   2.613   6.325
 5341SOL    HW216923   3.214   2.479   6.360
 5342SOL     OW16924   3.157   0.151   3.962
 5342SOL    HW116925   3.210   0.189   3.886
 5342SOL    HW216926   3.206   0.074   4.002
 5343SOL     OW16927   3.833   3.482   4.286
 5343SOL    HW116928   3.889   3.563   4.267
 5343SOL    HW216929   3.739   3.510   4.305
 5344SOL     OW16930   2.207   2.934   2.671
 5344SOL    HW116931   2.112   2.926   2.641
 5344SOL    HW216932   2.225   3.028   2.700
 5345SOL     OW16933   3.410   6.781   1.315
 5345SOL    HW116934   3.365   6.735   1.391
 5345SOL    HW216935   3.421   6.718   1.239
 5346SOL     OW16936   3.650   6.005   4.110
 5346SOL    HW116937   3.665   6.084   4.169
 5346SOL    HW216938   3.636   6.036   4.016
 5347SOL     OW16939   0.850   2.397   1.869
 5347SOL    HW116940   0.884   2.303   1.860
 5347SOL    HW216941   0.872   2.432   1.961
 5348SOL     OW16942   0.334   2.309   1.015
 5348SOL    HW116943   0.377   2.396   0.994
 5348SOL    HW216944   0.330   2.297   1.114
 5349SOL     OW16945   1.961   2.801   0.233
 5349SOL    HW116946   1.947   2.848   0.146
 5349SOL    HW216947   1.885   2.821   0.295
 5350SOL     OW16948   2.435   0.293   5.478
 5350SOL    HW116949   2.511   0.231   5.455
 5350SOL    HW216950   2.354   0.238   5.499
 5351SOL     OW16951   6.409   5.740   2.262
 5351SOL    HW116952   6.378   5.647   2.285
 5351SOL    HW216953   6.385   5.802   2.336
 5352SOL     OW16954   2.501   4.798   3.498
 5352SOL    HW116955   2.492   4.897   3.496
 5352SOL    HW216956   2.509   4.768   3.594
 5353SOL     OW16957   3.924   5.170   3.491
 5353SOL    HW116958   3.856   5.229   3.447
 5353SOL    HW216959   3.951   5.098   3.427
 5354SOL     OW16960   2.732   5.422   1.896
 5354SOL    HW116961   2.689   5.510   1.878
 5354SOL    HW216962   2.802   5.404   1.827
 5355SOL     OW16963   5.860   3.616   3.693
 5355SOL    HW116964   5.840   3.711   3.713
 5355SOL    HW216965   5.934   3.611   3.625
 5356SOL     OW16966   5.585   4.534   1.838
 5356SOL    HW116967   5.565   4.551   1.742
 5356SOL    HW216968   5.612   4.619   1.882
 5357SOL     OW16969   4.448   6.750   0.949
 5357SOL    HW116970   4.459   6.804   1.032
 5357SOL    HW216971   4.374   6.789   0.894
 5358SOL     OW16972   4.512   1.585   0.117
 5358SOL    HW116973   4.525   1.561   0.021
 5358SOL    HW216974   4.593   1.633   0.150
 5359SOL     OW16975   0.986   1.873   6.248
 5359SOL    HW116976   1.085   1.872   6.239
 5359SOL    HW216977   0.954   1.788   6.289
 5360SOL     OW16978   4.082   6.464   5.350
 5360SOL    HW116979   4.029   6.537   5.393
 5360SOL    HW216980   4.056   6.376   5.390
 5361SOL     OW16981   2.463   0.856   4.843
 5361SOL    HW116982   2.374   0.826   4.809
 5361SOL    HW216983   2.520   0.884   4.765
 5362SOL     OW16984   5.929   5.120   3.440
 5362SOL    HW116985   5.975   5.209   3.432
 5362SOL    HW216986   5.875   5.104   3.357
 5363SOL     OW16987   0.363   0.089   6.602
 5363SOL    HW116988   0.275   0.121   6.568
 5363SOL    HW216989   0.431   0.098   6.529
 5364SOL     OW16990   6.300   6.534   1.930
 5364SOL    HW116991   6.220   6.500   1.979
 5364SOL    HW216992   6.271   6.585   1.849
 5365SOL     OW16993   3.673   3.690   6.864
 5365SOL    HW116994   3.755   3.634   6.851
 5365SOL    HW216995   3.643   3.725   6.775
 5366SOL     OW16996   5.261   6.183   1.723
 5366SOL    HW116997   5.216   6.149   1.806
 5366SOL    HW216998   5.201   6.170   1.645
 5367SOL     OW16999   0.582   6.613   0.395
 5367SOL    HW117000   0.508   6.549   0.376
 5367SOL    HW217001   0.668   6.563   0.406
 5368SOL     OW17002   5.196   0.160   3.238
 5368SOL    HW117003   5.248   0.246   3.236
 5368SOL    HW217004   5.239   0.097   3.302
 5369SOL     OW17005   2.978   6.518   2.320
 5369SOL    HW117006   3.000   6.605   2.364
 5369SOL    HW217007   3.033   6.508   2.237
 5370SOL     OW17008   4.446   2.854   1.680
 5370SOL    HW117009   4.486   2.763   1.672
 5370SOL    HW217010   4.503   2.910   1.741
 5371SOL     OW17011   1.317   3.997   5.119
 5371SOL    HW117012   1.359   3.962   5.203
 5371SOL    HW217013   1.247   4.064   5.143
 5372SOL     OW17014   2.443   5.905   3.798
 5372SOL    HW117015   2.383   5.900   3.718
 5372SOL    HW217016   2.470   6.000   3.814
 5373SOL     OW17017   3.729   6.754   4.265
 5373SOL    HW117018   3.823   6.753   4.299
 5373SOL    HW217019   3.684   6.667   4.286
 5374SOL     OW17020   1.313   3.850   0.009
 5374SOL    HW117021   1.347   3.813   0.095
 5374SOL    HW217022   1.345   3.944   7.019
 5375SOL     OW17023   1.619   4.906   4.700
 5375SOL    HW117024   1.624   5.002   4.727
 5375SOL    HW217025   1.666   4.850   4.769
 5376SOL     OW17026   1.482   2.974   0.732
 5376SOL    HW117027   1.483   2.944   0.636
 5376SOL    HW217028   1.462   2.896   0.791
 5377SOL     OW17029   0.250   6.971   2.285
 5377SOL    HW117030   0.278   6.891   2.232
 5377SOL    HW217031   0.187   0.005   2.231
 5378SOL     OW17032   0.121   0.629   1.688
 5378SOL    HW117033   0.158   0.626   1.780
 5378SOL    HW217034   0.196   0.632   1.622
 5379SOL     OW17035   1.585   5.216   4.727
 5379SOL    HW117036   1.622   5.305   4.699
 5379SOL    HW217037   1.581   5.211   4.827
 5380SOL     OW17038   1.974   2.125   3.148
 5380SOL    HW117039   1.927   2.162   3.068
 5380SOL    HW217040   1.909   2.071   3.202
 5381SOL     OW17041   6.654   3.851   1.583
 5381SOL    HW117042   6.644   3.790   1.662
 5381SOL    HW217043   6.572   3.846   1.526
 5382SOL     OW17044   2.967   0.619   2.111
 5382SOL    HW117045   3.046   0.632   2.172
 5382SOL    HW217046   2.983   0.668   2.026
 5383SOL     OW17047   2.201   2.627   5.728
 5383SOL    HW117048   2.285   2.678   5.747
 5383SOL    HW217049   2.208   2.584   5.638
 5384SOL     OW17050   6.390   0.102   5.061
 5384SOL    HW117051   6.410   0.129   4.967
 5384SOL    HW217052   6.330   0.170   5.103
 5385SOL     OW17053   2.964   3.426   3.995
 5385SOL    HW117054   2.911   3.509   3.978
 5385SOL    HW217055   2.968   3.409   4.094
 5386SOL     OW17056   4.698   6.968   4.506
 5386SOL    HW117057   4.687   6.921   4.418
 5386SOL    HW217058   4.633   0.023   4.511
 5387SOL     OW17059   2.503   6.585   3.695
 5387SOL    HW117060   2.512   6.668   3.750
 5387SOL    HW217061   2.490   6.609   3.599
 5388SOL     OW17062   6.887   0.525   4.083
 5388SOL    HW117063   6.809   0.500   4.027
 5388SOL    HW217064   6.952   0.449   4.085
 5389SOL     OW17065   4.633   1.087   2.065
 5389SOL    HW117066   4.654   1.182   2.087
 5389SOL    HW217067   4.597   1.041   2.146
 5390SOL     OW17068   4.650   4.270   2.913
 5390SOL    HW117069   4.603   4.357   2.897
 5390SOL    HW217070   4.618   4.202   2.848
 5391SOL     OW17071   2.000   2.395   1.329
 5391SOL    HW117072   2.024   2.490   1.350
 5391SOL    HW217073   2.028   2.336   1.404
 5392SOL     OW17074   5.579   3.073   1.451
 5392SOL    HW117075   5.631   3.153   1.421
 5392SOL    HW217076   5.511   3.049   1.382
 5393SOL     OW17077   4.854   6.828   6.364
 5393SOL    HW117078   4.941   6.781   6.380
 5393SOL    HW217079   4.812   6.851   6.452
 5394SOL     OW17080   6.868   5.005   6.780
 5394SOL    HW117081   6.922   4.922   6.794
 5394SOL    HW217082   6.871   5.032   6.684
 5395SOL     OW17083   5.090   0.906   1.680
 5395SOL    HW117084   5.055   0.876   1.769
 5395SOL    HW217085   5.088   0.830   1.615
 5396SOL     OW17086   4.387   4.883   2.493
 5396SOL    HW117087   4.439   4.899   2.409
 5396SOL    HW217088   4.307   4.826   2.473
 5397SOL     OW17089   0.176   2.417   1.446
 5397SOL    HW117090   0.102   2.377   1.499
 5397SOL    HW217091   0.189   2.512   1.475
 5398SOL     OW17092   3.549   2.121   3.073
 5398SOL    HW117093   3.461   2.077   3.087
 5398SOL    HW217094   3.609   2.100   3.150
 5399SOL     OW17095   2.466   5.853   0.415
 5399SOL    HW117096   2.530   5.927   0.395
 5399SOL    HW217097   2.477   5.823   0.510
 5400SOL     OW17098   2.709   4.212   0.899
 5400SOL    HW117099   2.736   4.116   0.895
 5400SOL    HW217100   2.704   4.241   0.995
 5401SOL     OW17101   5.652   3.372   0.935
 5401SOL    HW117102   5.707   3.426   0.871
 5401SOL    HW217103   5.708   3.299   0.974
 5402SOL     OW17104   2.318   5.012   1.529
 5402SOL    HW117105   2.241   5.063   1.569
 5402SOL    HW217106   2.362   4.957   1.601
 5403SOL     OW17107   6.008   2.388   6.179
 5403SOL    HW117108   6.032   2.481   6.150
 5403SOL    HW217109   5.997   2.385   6.278
 5404SOL     OW17110   0.768   0.737   2.772
 5404SOL    HW117111   0.796   0.656   2.720
 5404SOL    HW217112   0.775   0.717   2.870
 5405SOL     OW17113   5.936   6.192   0.655
 5405SOL    HW117114   5.944   6.117   0.721
 5405SOL    HW217115   5.874   6.164   0.582
 5406SOL     OW17116   2.736   0.159   6.232
 5406SOL    HW117117   2.663   0.223   6.256
 5406SOL    HW217118   2.733   0.081   6.294
 5407SOL     OW17119   4.797   2.744   1.381
 5407SOL    HW117120   4.844   2.732   1.293
 5407SOL    HW217121   4.857   2.714   1.455
 5408SOL     OW17122   3.481   1.233   6.124
 5408SOL    HW117123   3.383   1.226   6.142
 5408SOL    HW217124   3.527   1.150   6.156
 5409SOL     OW17125   5.711   1.357   3.948
 5409SOL    HW117126   5.615   1.333   3.931
 5409SOL    HW217127   5.736   1.436   3.893
 5410SOL     OW17128   1.818   3.274   1.226
 5410SOL    HW117129   1.891   3.210   1.204
 5410SOL    HW217130   1.848   3.336   1.298
 5411SOL     OW17131   6.766   4.736   6.347
 5411SOL    HW117132   6.714   4.805   6.296
 5411SOL    HW217133   6.729   4.728   6.439
 5412SOL     OW17134   4.214   0.820   6.725
 5412SOL    HW117135   4.281   0.886   6.692
 5412SOL    HW217136   4.137   0.867   6.767
 5413SOL     OW17137   1.817   0.637   0.870
 5413SOL    HW117138   1.818   0.726   0.916
 5413SOL    HW217139   1.815   0.565   0.939
 5414SOL     OW17140   6.264   3.149   5.229
 5414SOL    HW117141   6.184   3.209   5.236
 5414SOL    HW217142   6.268   3.111   5.137
 5415SOL     OW17143   1.411   6.301   1.569
 5415SOL    HW117144   1.470   6.381   1.573
 5415SOL    HW217145   1.421   6.248   1.653
 5416SOL     OW17146   4.039   4.524   6.362
 5416SOL    HW117147   4.036   4.505   6.460
 5416SOL    HW217148   3.954   4.567   6.333
 5417SOL     OW17149   3.802   6.597   5.082
 5417SOL    HW117150   3.705   6.575   5.090
 5417SOL    HW217151   3.857   6.513   5.082
 5418SOL     OW17152   4.058   6.421   4.465
 5418SOL    HW117153   3.992   6.346   4.474
 5418SOL    HW217154   4.095   6.444   4.555
 5419SOL     OW17155   3.277   5.177   0.493
 5419SOL    HW117156   3.212   5.108   0.462
 5419SOL    HW217157   3.234   5.267   0.488
 5420SOL     OW17158   1.577   2.411   2.029
 5420SOL    HW117159   1.572   2.480   2.102
 5420SOL    HW217160   1.671   2.407   1.994
 5421SOL     OW17161   2.203   3.852   2.401
 5421SOL    HW117162   2.246   3.914   2.335
 5421SOL    HW217163   2.105   3.845   2.382
 5422SOL     OW17164   0.526   5.946   6.300
 5422SOL    HW117165   0.468   6.023   6.326
 5422SOL    HW217166   0.545   5.890   6.381
 5423SOL     OW17167   5.292   2.879   6.939
 5423SOL    HW117168   5.220   2.911   7.001
 5423SOL    HW217169   5.345   2.807   6.985
 5424SOL     OW17170   5.123   2.776   4.371
 5424SOL    HW117171   5.105   2.870   4.342
 5424SOL    HW217172   5.143   2.720   4.291
 5425SOL     OW17173   4.444   1.667   4.231
 5425SOL    HW117174   4.408   1.609   4.157
 5425SOL    HW217175   4.520   1.722   4.196
 5426SOL     OW17176   6.591   5.271   3.924
 5426SOL    HW117177   6.496   5.275   3.957
 5426SOL    HW217178   6.652   5.304   3.996
 5427SOL     OW17179   5.266   4.822   0.789
 5427SOL    HW117180   5.346   4.881   0.801
 5427SOL    HW217181   5.190   4.858   0.842
 5428SOL     OW17182   0.048   0.325   1.861
 5428SOL    HW117183   7.015   0.243   1.877
 5428SOL    HW217184   0.052   0.343   1.762
 5429SOL     OW17185   1.104   1.761   5.647
 5429SOL    HW117186   1.083   1.815   5.729
 5429SOL    HW217187   1.163   1.685   5.671
 5430SOL     OW17188   0.825   3.479   5.363
 5430SOL    HW117189   0.818   3.520   5.272
 5430SOL    HW217190   0.788   3.386   5.361
 5431SOL     OW17191   3.378   6.200   6.778
 5431SOL    HW117192   3.306   6.137   6.748
 5431SOL    HW217193   3.369   6.217   6.876
 5432SOL     OW17194   4.118   6.587   6.459
 5432SOL    HW117195   4.056   6.655   6.422
 5432SOL    HW217196   4.202   6.632   6.492
 5433SOL     OW17197   0.254   1.497   3.974
 5433SOL    HW117198   0.351   1.482   3.956
 5433SOL    HW217199   0.210   1.411   3.997
 5434SOL     OW17200   4.151   1.104   4.391
 5434SOL    HW117201   4.102   1.188   4.371
 5434SOL    HW217202   4.111   1.059   4.471
 5435SOL     OW17203   5.526   1.506   1.826
 5435SOL    HW117204   5.454   1.463   1.772
 5435SOL    HW217205   5.528   1.604   1.806
 5436SOL     OW17206   4.780   4.071   4.341
 5436SOL    HW117207   4.740   4.128   4.413
 5436SOL    HW217208   4.874   4.047   4.366
 5437SOL     OW17209   2.723   5.385   6.009
 5437SOL    HW117210   2.816   5.353   6.025
 5437SOL    HW217211   2.723   5.484   5.996
 5438SOL     OW17212   5.530   3.906   2.656
 5438SOL    HW117213   5.600   3.942   2.718
 5438SOL    HW217214   5.562   3.915   2.561
 5439SOL     OW17215   0.941   2.154   0.912
 5439SOL    HW117216   0.989   2.227   0.864
 5439SOL    HW217217   0.977   2.145   1.005
 5440SOL     OW17218   0.729   0.347   1.978
 5440SOL    HW117219   0.819   0.306   1.994
 5440SOL    HW217220   0.735   0.408   1.899
 5441SOL     OW17221   4.797   2.652   3.307
 5441SOL    HW117222   4.808   2.740   3.353
 5441SOL    HW217223   4.741   2.663   3.226
 5442SOL     OW17224   3.433   6.184   3.460
 5442SOL    HW117225   3.392   6.188   3.369
 5442SOL    HW217226   3.514   6.242   3.462
 5443SOL     OW17227   2.481   0.893   3.476
 5443SOL    HW117228   2.431   0.926   3.396
 5443SOL    HW217229   2.489   0.967   3.544
 5444SOL     OW17230   1.743   0.550   3.463
 5444SOL    HW117231   1.717   0.460   3.427
 5444SOL    HW217232   1.840   0.566   3.447
 5445SOL     OW17233   6.200   4.046   4.387
 5445SOL    HW117234   6.242   4.030   4.298
 5445SOL    HW217235   6.104   4.070   4.375
 5446SOL     OW17236   6.483   5.135   5.482
 5446SOL    HW117237   6.445   5.106   5.571
 5446SOL    HW217238   6.425   5.099   5.409
 5447SOL     OW17239   1.751   1.863   6.693
 5447SOL    HW117240   1.703   1.921   6.759
 5447SOL    HW217241   1.744   1.902   6.602
 5448SOL     OW17242   5.689   3.189   4.764
 5448SOL    HW117243   5.696   3.166   4.667
 5448SOL    HW217244   5.768   3.245   4.790
 5449SOL     OW17245   1.477   2.263   6.832
 5449SOL    HW117246   1.492   2.319   6.750
 5449SOL    HW217247   1.544   2.288   6.902
 5450SOL     OW17248   1.947   0.641   2.029
 5450SOL    HW117249   1.945   0.619   2.126
 5450SOL    HW217250   1.869   0.597   1.983
 5451SOL     OW17251   1.735   5.796   4.059
 5451SOL    HW117252   1.657   5.740   4.085
 5451SOL    HW217253   1.734   5.881   4.112
 5452SOL     OW17254   1.966   4.465   0.215
 5452SOL    HW117255   1.948   4.505   0.125
 5452SOL    HW217256   2.047   4.407   0.211
 5453SOL     OW17257   5.503   4.297   1.965
 5453SOL    HW117258   5.517   4.378   1.908
 5453SOL    HW217259   5.506   4.324   2.062
 5454SOL     OW17260   6.822   4.120   5.944
 5454SOL    HW117261   6.912   4.076   5.940
 5454SOL    HW217262   6.827   4.201   6.002
 5455SOL     OW17263   6.019   3.072   1.441
 5455SOL    HW117264   6.009   2.974   1.454
 5455SOL    HW217265   6.113   3.099   1.462
 5456SOL     OW17266   2.836   0.409   6.466
 5456SOL    HW117267   2.907   0.377   6.528
 5456SOL    HW217268   2.878   0.450   6.385
 5457SOL     OW17269   6.556   2.708   0.434
 5457SOL    HW117270   6.559   2.741   0.340
 5457SOL    HW217271   6.647   2.714   0.474
 5458SOL     OW17272   0.708   3.993   0.656
 5458SOL    HW117273   0.796   4.039   0.668
 5458SOL    HW217274   0.675   4.008   0.563
 5459SOL     OW17275   1.776   4.295   6.978
 5459SOL    HW117276   1.791   4.345   6.893
 5459SOL    HW217277   1.761   4.360   0.031
 5460SOL     OW17278   4.169   0.375   3.176
 5460SOL    HW117279   4.134   0.344   3.088
 5460SOL    HW217280   4.134   0.466   3.196
 5461SOL     OW17281   6.095   0.192   5.815
 5461SOL    HW117282   6.020   0.220   5.875
 5461SOL    HW217283   6.182   0.215   5.858
 5462SOL     OW17284   0.270   0.137   0.403
 5462SOL    HW117285   0.354   0.128   0.456
 5462SOL    HW217286   0.261   0.059   0.341
 5463SOL     OW17287   6.792   1.845   0.813
 5463SOL    HW117288   6.735   1.899   0.875
 5463SOL    HW217289   6.883   1.886   0.808
 5464SOL     OW17290   0.838   1.151   4.486
 5464SOL    HW117291   0.850   1.223   4.419
 5464SOL    HW217292   0.806   1.067   4.441
 5465SOL     OW17293   3.886   0.085   3.632
 5465SOL    HW117294   3.933   0.002   3.659
 5465SOL    HW217295   3.796   0.062   3.594
 5466SOL     OW17296   5.481   2.658   4.672
 5466SOL    HW117297   5.439   2.663   4.762
 5466SOL    HW217298   5.418   2.696   4.603
 5467SOL     OW17299   5.186   3.117   3.148
 5467SOL    HW117300   5.237   3.187   3.098
 5467SOL    HW217301   5.239   3.088   3.228
 5468SOL     OW17302   5.931   3.045   4.228
 5468SOL    HW117303   5.909   3.125   4.173
 5468SOL    HW217304   6.018   3.058   4.274
 5469SOL     OW17305   3.205   6.248   6.228
 5469SOL    HW117306   3.186   6.157   6.264
 5469SOL    HW217307   3.304   6.261   6.224
 5470SOL     OW17308   3.213   5.903   3.179
 5470SOL    HW117309   3.261   5.898   3.267
 5470SOL    HW217310   3.127   5.852   3.185
 5471SOL     OW17311   5.261   0.129   2.936
 5471SOL    HW117312   5.270   0.136   3.035
 5471SOL    HW217313   5.272   0.034   2.908
 5472SOL     OW17314   4.384   3.698   5.922
 5472SOL    HW117315   4.463   3.759   5.912
 5472SOL    HW217316   4.305   3.751   5.952
 5473SOL     OW17317   0.291   2.727   2.054
 5473SOL    HW117318   0.314   2.823   2.068
 5473SOL    HW217319   0.248   2.691   2.137
 5474SOL     OW17320   1.078   4.961   3.946
 5474SOL    HW117321   1.062   5.020   4.024
 5474SOL    HW217322   1.170   4.978   3.909
 5475SOL     OW17323   2.431   3.115   1.735
 5475SOL    HW117324   2.494   3.192   1.724
 5475SOL    HW217325   2.470   3.034   1.689
 5476SOL     OW17326   1.932   4.825   5.563
 5476SOL    HW117327   1.982   4.811   5.477
 5476SOL    HW217328   1.916   4.737   5.608
 5477SOL     OW17329   2.555   4.599   3.334
 5477SOL    HW117330   2.620   4.618   3.261
 5477SOL    HW217331   2.539   4.682   3.387
 5478SOL     OW17332   3.458   5.013   4.958
 5478SOL    HW117333   3.405   5.094   4.934
 5478SOL    HW217334   3.551   5.023   4.923
 5479SOL     OW17335   5.109   1.712   6.324
 5479SOL    HW117336   5.200   1.675   6.306
 5479SOL    HW217337   5.043   1.637   6.327
 5480SOL     OW17338   6.290   4.459   2.578
 5480SOL    HW117339   6.343   4.404   2.514
 5480SOL    HW217340   6.301   4.422   2.671
 5481SOL     OW17341   4.438   1.485   4.454
 5481SOL    HW117342   4.510   1.423   4.424
 5481SOL    HW217343   4.441   1.568   4.399
 5482SOL     OW17344   3.392   4.589   1.678
 5482SOL    HW117345   3.469   4.569   1.738
 5482SOL    HW217346   3.386   4.687   1.663
 5483SOL     OW17347   0.557   1.859   5.489
 5483SOL    HW117348   0.632   1.823   5.433
 5483SOL    HW217349   0.514   1.935   5.441
 5484SOL     OW17350   3.942   1.526   4.494
 5484SOL    HW117351   4.037   1.507   4.519
 5484SOL    HW217352   3.932   1.623   4.471
 5485SOL     OW17353   3.751   0.085   5.442
 5485SOL    HW117354   3.832   0.059   5.495
 5485SOL    HW217355   3.751   0.184   5.428
 5486SOL     OW17356   2.599   5.650   5.308
 5486SOL    HW117357   2.535   5.589   5.262
 5486SOL    HW217358   2.614   5.617   5.401
 5487SOL     OW17359   4.338   2.868   6.552
 5487SOL    HW117360   4.338   2.779   6.506
 5487SOL    HW217361   4.425   2.880   6.600
 5488SOL     OW17362   6.560   0.021   1.234
 5488SOL    HW117363   6.540   0.061   1.323
 5488SOL    HW217364   6.564   6.943   1.242
 5489SOL     OW17365   0.565   4.046   1.664
 5489SOL    HW117366   0.645   4.010   1.617
 5489SOL    HW217367   0.487   3.985   1.647
 5490SOL     OW17368   3.060   0.685   2.540
 5490SOL    HW117369   3.106   0.687   2.629
 5490SOL    HW217370   2.973   0.637   2.549
 5491SOL     OW17371   1.009   2.880   0.304
 5491SOL    HW117372   0.997   2.784   0.280
 5491SOL    HW217373   0.980   2.896   0.398
 5492SOL     OW17374   1.003   3.897   6.870
 5492SOL    HW117375   1.017   3.917   6.773
 5492SOL    HW217376   1.049   3.811   6.893
 5493SOL     OW17377   3.017   3.133   4.492
 5493SOL    HW117378   2.970   3.216   4.464
 5493SOL    HW217379   3.045   3.081   4.411
 5494SOL     OW17380   6.974   3.544   5.800
 5494SOL    HW117381   0.036   3.521   5.750
 5494SOL    HW217382   6.917   3.603   5.743
 5495SOL     OW17383   6.231   0.962   1.161
 5495SOL    HW117384   6.221   0.886   1.098
 5495SOL    HW217385   6.238   1.048   1.110
 5496SOL     OW17386   3.684   0.611   3.103
 5496SOL    HW117387   3.734   0.639   3.021
 5496SOL    HW217388   3.652   0.517   3.091
 5497SOL     OW17389   0.828   0.973   5.126
 5497SOL    HW117390   0.777   1.047   5.082
 5497SOL    HW217391   0.919   0.966   5.084
 5498SOL     OW17392   0.065   5.133   2.161
 5498SOL    HW117393   0.143   5.117   2.221
 5498SOL    HW217394   7.020   5.191   2.208
 5499SOL     OW17395   1.189   0.396   4.481
 5499SOL    HW117396   1.154   0.488   4.465
 5499SOL    HW217397   1.130   0.329   4.436
 5500SOL     OW17398   0.876   0.793   6.657
 5500SOL    HW117399   0.934   0.853   6.712
 5500SOL    HW217400   0.783   0.828   6.657
 5501SOL     OW17401   3.576   2.187   0.362
 5501SOL    HW117402   3.632   2.269   0.374
 5501SOL    HW217403   3.631   2.106   0.384
 5502SOL     OW17404   5.288   3.980   6.492
 5502SOL    HW117405   5.211   3.955   6.433
 5502SOL    HW217406   5.279   3.935   6.581
 5503SOL     OW17407   6.805   4.617   0.932
 5503SOL    HW117408   6.873   4.653   0.869
 5503SOL    HW217409   6.851   4.580   1.013
 5504SOL     OW17410   4.452   1.092   4.979
 5504SOL    HW117411   4.448   1.137   4.890
 5504SOL    HW217412   4.447   0.993   4.966
 5505SOL     OW17413   1.835   4.426   3.320
 5505SOL    HW117414   1.771   4.453   3.248
 5505SOL    HW217415   1.860   4.330   3.309
 5506SOL     OW17416   0.200   3.475   1.032
 5506SOL    HW117417   0.118   3.429   1.067
 5506SOL    HW217418   0.241   3.419   0.960
 5507SOL     OW17419   3.694   0.915   4.754
 5507SOL    HW117420   3.600   0.917   4.789
 5507SOL    HW217421   3.699   0.852   4.676
 5508SOL     OW17422   1.288   1.450   0.238
 5508SOL    HW117423   1.319   1.393   0.314
 5508SOL    HW217424   1.191   1.434   0.223
 5509SOL     OW17425   0.754   6.114   0.126
 5509SOL    HW117426   0.746   6.164   0.212
 5509SOL    HW217427   0.817   6.037   0.138
 5510SOL     OW17428   4.227   5.425   6.864
 5510SOL    HW117429   4.285   5.409   6.784
 5510SOL    HW217430   4.285   5.437   6.945
 5511SOL     OW17431   1.257   0.944   4.577
 5511SOL    HW117432   1.336   0.925   4.635
 5511SOL    HW217433   1.283   0.936   4.480
 5512SOL     OW17434   4.339   1.515   0.784
 5512SOL    HW117435   4.394   1.539   0.704
 5512SOL    HW217436   4.295   1.597   0.820
 5513SOL     OW17437   3.777   5.457   6.286
 5513SOL    HW117438   3.715   5.507   6.347
 5513SOL    HW217439   3.871   5.485   6.303
 5514SOL     OW17440   3.057   0.930   4.563
 5514SOL    HW117441   3.153   0.907   4.546
 5514SOL    HW217442   3.040   1.024   4.534
 5515SOL     OW17443   1.018   5.631   1.807
 5515SOL    HW117444   0.923   5.657   1.786
 5515SOL    HW217445   1.080   5.697   1.765
 5516SOL     OW17446   1.775   2.346   4.629
 5516SOL    HW117447   1.835   2.411   4.582
 5516SOL    HW217448   1.779   2.258   4.582
 5517SOL     OW17449   2.093   3.524   2.192
 5517SOL    HW117450   2.088   3.442   2.250
 5517SOL    HW217451   2.143   3.502   2.108
 5518SOL     OW17452   6.064   5.175   6.531
 5518SOL    HW117453   6.123   5.187   6.610
 5518SOL    HW217454   6.119   5.174   6.447
 5519SOL     OW17455   6.055   2.729   3.057
 5519SOL    HW117456   6.146   2.688   3.057
 5519SOL    HW217457   5.986   2.657   3.067
 5520SOL     OW17458   5.501   0.005   2.195
 5520SOL    HW117459   5.478   0.087   2.143
 5520SOL    HW217460   5.601   7.018   2.202
 5521SOL     OW17461   5.432   6.379   2.025
 5521SOL    HW117462   5.420   6.363   2.123
 5521SOL    HW217463   5.400   6.472   2.002
 5522SOL     OW17464   6.373   5.526   1.172
 5522SOL    HW117465   6.322   5.447   1.206
 5522SOL    HW217466   6.467   5.521   1.205
 5523SOL     OW17467   4.571   0.657   2.005
 5523SOL    HW117468   4.497   0.635   1.941
 5523SOL    HW217469   4.609   0.572   2.042
 5524SOL     OW17470   3.406   0.020   4.686
 5524SOL    HW117471   3.429   6.945   4.699
 5524SOL    HW217472   3.434   0.049   4.595
 5525SOL     OW17473   1.769   2.333   0.294
 5525SOL    HW117474   1.853   2.317   0.348
 5525SOL    HW217475   1.691   2.297   0.344
 5526SOL     OW17476   4.985   4.918   2.558
 5526SOL    HW117477   4.940   4.851   2.616
 5526SOL    HW217478   5.029   4.988   2.614
 5527SOL     OW17479   5.013   3.786   3.507
 5527SOL    HW117480   4.940   3.761   3.443
 5527SOL    HW217481   4.973   3.805   3.596
 5528SOL     OW17482   1.830   0.968   0.824
 5528SOL    HW117483   1.806   0.938   0.916
 5528SOL    HW217484   1.761   1.032   0.791
 5529SOL     OW17485   3.224   6.805   4.431
 5529SOL    HW117486   3.307   6.860   4.420
 5529SOL    HW217487   3.170   6.842   4.507
 5530SOL     OW17488   6.089   1.916   1.483
 5530SOL    HW117489   6.116   1.994   1.539
 5530SOL    HW217490   6.160   1.898   1.414
 5531SOL     OW17491   3.893   3.611   1.423
 5531SOL    HW117492   3.842   3.588   1.506
 5531SOL    HW217493   3.829   3.618   1.346
 5532SOL     OW17494   1.466   3.181   0.926
 5532SOL    HW117495   1.380   3.233   0.920
 5532SOL    HW217496   1.483   3.134   0.839
 5533SOL     OW17497   4.807   1.051   3.642
 5533SOL    HW117498   4.778   1.091   3.729
 5533SOL    HW217499   4.889   1.098   3.609
 5534SOL     OW17500   1.137   1.428   6.916
 5534SOL    HW117501   1.149   1.514   6.964
 5534SOL    HW217502   1.064   1.375   6.960
 5535SOL     OW17503   1.043   1.202   3.069
 5535SOL    HW117504   1.055   1.285   3.123
 5535SOL    HW217505   1.129   1.150   3.067
 5536SOL     OW17506   3.715   0.195   3.873
 5536SOL    HW117507   3.792   0.133   3.882
 5536SOL    HW217508   3.640   0.164   3.931
 5537SOL     OW17509   3.457   1.099   2.604
 5537SOL    HW117510   3.491   1.121   2.695
 5537SOL    HW217511   3.459   1.000   2.591
 5538SOL     OW17512   3.880   5.385   5.123
 5538SOL    HW117513   3.855   5.422   5.034
 5538SOL    HW217514   3.945   5.309   5.112
 5539SOL     OW17515   1.406   3.932   1.630
 5539SOL    HW117516   1.467   3.984   1.569
 5539SOL    HW217517   1.342   3.879   1.575
 5540SOL     OW17518   4.715   4.616   3.991
 5540SOL    HW117519   4.652   4.680   3.947
 5540SOL    HW217520   4.808   4.652   3.988
 5541SOL     OW17521   5.013   0.048   6.424
 5541SOL    HW117522   4.959   0.103   6.488
 5541SOL    HW217523   4.962   6.989   6.396
 5542SOL     OW17524   4.017   3.410   6.009
 5542SOL    HW117525   4.116   3.421   6.003
 5542SOL    HW217526   3.993   3.314   5.996
 5543SOL     OW17527   5.108   3.921   6.322
 5543SOL    HW117528   5.023   3.959   6.285
 5543SOL    HW217529   5.160   3.878   6.249
 5544SOL     OW17530   4.857   6.388   6.589
 5544SOL    HW117531   4.887   6.312   6.647
 5544SOL    HW217532   4.844   6.356   6.495
 5545SOL     OW17533   4.510   1.466   3.004
 5545SOL    HW117534   4.527   1.388   2.944
 5545SOL    HW217535   4.472   1.434   3.090
 5546SOL     OW17536   1.022   5.159   5.036
 5546SOL    HW117537   0.957   5.219   5.082
 5546SOL    HW217538   0.974   5.077   5.003
 5547SOL     OW17539   2.581   6.562   5.165
 5547SOL    HW117540   2.498   6.579   5.111
 5547SOL    HW217541   2.566   6.593   5.259
 5548SOL     OW17542   6.286   3.725   5.389
 5548SOL    HW117543   6.221   3.657   5.424
 5548SOL    HW217544   6.297   3.798   5.456
 5549SOL     OW17545   3.552   4.767   0.072
 5549SOL    HW117546   3.615   4.711   0.016
 5549SOL    HW217547   3.493   4.706   0.125
 5550SOL     OW17548   2.860   5.735   2.076
 5550SOL    HW117549   2.785   5.693   2.127
 5550SOL    HW217550   2.942   5.678   2.083
 5551SOL     OW17551   1.894   0.711   2.813
 5551SOL    HW117552   1.844   0.635   2.772
 5551SOL    HW217553   1.894   0.701   2.912
 5552SOL     OW17554   6.896   1.869   0.151
 5552SOL    HW117555   6.827   1.829   0.210
 5552SOL    HW217556   6.860   1.878   0.058
 5553SOL     OW17557   3.866   6.779   0.209
 5553SOL    HW117558   3.867   6.679   0.215
 5553SOL    HW217559   3.786   6.814   0.258
 5554SOL     OW17560   2.618   2.099   5.631
 5554SOL    HW117561   2.628   2.198   5.632
 5554SOL    HW217562   2.695   2.058   5.581
 5555SOL     OW17563   0.712   5.564   3.733
 5555SOL    HW117564   0.628   5.571   3.788
 5555SOL    HW217565   0.750   5.472   3.741
 5556SOL     OW17566   0.684   2.338   4.420
 5556SOL    HW117567   0.667   2.433   4.446
 5556SOL    HW217568   0.710   2.286   4.501
 5557SOL     OW17569   3.098   5.698   4.263
 5557SOL    HW117570   3.188   5.740   4.255
 5557SOL    HW217571   3.095   5.613   4.211
 5558SOL     OW17572   4.980   3.322   4.995
 5558SOL    HW117573   4.973   3.412   4.951
 5558SOL    HW217574   4.989   3.251   4.926
 5559SOL     OW17575   2.502   6.986   1.821
 5559SOL    HW117576   2.545   6.901   1.852
 5559SOL    HW217577   2.548   0.043   1.863
 5560SOL     OW17578   6.810   6.992   3.381
 5560SOL    HW117579   6.742   6.922   3.401
 5560SOL    HW217580   6.769   0.061   3.390
 5561SOL     OW17581   0.993   2.678   4.334
 5561SOL    HW117582   0.930   2.738   4.383
 5561SOL    HW217583   1.087   2.708   4.349
 5562SOL     OW17584   1.697   2.672   6.690
 5562SOL    HW117585   1.672   2.598   6.753
 5562SOL    HW217586   1.699   2.759   6.740
 5563SOL     OW17587   4.610   6.180   2.060
 5563SOL    HW117588   4.701   6.167   2.023
 5563SOL    HW217589   4.615   6.230   2.147
 5564SOL     OW17590   5.054   3.050   1.546
 5564SOL    HW117591   5.091   2.984   1.612
 5564SOL    HW217592   4.957   3.029   1.531
 5565SOL     OW17593   4.079   2.667   5.630
 5565SOL    HW117594   4.057   2.618   5.545
 5565SOL    HW217595   4.125   2.604   5.693
 5566SOL     OW17596   1.538   5.876   0.907
 5566SOL    HW117597   1.581   5.955   0.864
 5566SOL    HW217598   1.607   5.805   0.924
 5567SOL     OW17599   1.547   5.187   1.124
 5567SOL    HW117600   1.482   5.251   1.083
 5567SOL    HW217601   1.583   5.225   1.208
 5568SOL     OW17602   4.549   2.345   0.944
 5568SOL    HW117603   4.579   2.272   0.884
 5568SOL    HW217604   4.460   2.321   0.983
 5569SOL     OW17605   4.051   1.367   1.809
 5569SOL    HW117606   4.065   1.385   1.711
 5569SOL    HW217607   3.957   1.338   1.824
 5570SOL     OW17608   6.077   4.765   4.652
 5570SOL    HW117609   6.140   4.712   4.709
 5570SOL    HW217610   6.125   4.845   4.615
 5571SOL     OW17611   0.486   5.982   0.816
 5571SOL    HW117612   0.470   5.923   0.895
 5571SOL    HW217613   0.472   5.930   0.731
 5572SOL     OW17614   3.916   2.428   6.761
 5572SOL    HW117615   4.003   2.475   6.744
 5572SOL    HW217616   3.847   2.495   6.790
 5573SOL     OW17617   1.544   3.485   0.598
 5573SOL    HW117618   1.509   3.575   0.573
 5573SOL    HW217619   1.584   3.489   0.690
 5574SOL     OW17620   0.047   6.768   4.293
 5574SOL    HW117621   0.115   6.772   4.366
 5574SOL    HW217622   0.082   6.815   4.212
 5575SOL     OW17623   1.601   1.135   1.220
 5575SOL    HW117624   1.700   1.149   1.210
 5575SOL    HW217625   1.584   1.056   1.280
 5576SOL     OW17626   6.223   5.322   1.346
 5576SOL    HW117627   6.287   5.245   1.350
 5576SOL    HW217628   6.148   5.300   1.284
 5577SOL     OW17629   2.128   3.515   5.654
 5577SOL    HW117630   2.058   3.585   5.671
 5577SOL    HW217631   2.088   3.424   5.662
 5578SOL     OW17632   3.313   2.556   6.860
 5578SOL    HW117633   3.303   2.536   6.957
 5578SOL    HW217634   3.324   2.655   6.847
 5579SOL     OW17635   4.989   3.899   6.624
 5579SOL    HW117636   5.006   3.894   6.526
 5579SOL    HW217637   4.891   3.914   6.640
 5580SOL     OW17638   4.743   2.130   0.636
 5580SOL    HW117639   4.741   2.129   0.536
 5580SOL    HW217640   4.800   2.056   0.669
 5581SOL     OW17641   2.177   0.552   6.557
 5581SOL    HW117642   2.149   0.620   6.626
 5581SOL    HW217643   2.260   0.584   6.511
 5582SOL     OW17644   3.387   3.784   3.613
 5582SOL    HW117645   3.427   3.754   3.526
 5582SOL    HW217646   3.451   3.769   3.687
 5583SOL     OW17647   3.688   6.229   2.061
 5583SOL    HW117648   3.727   6.251   2.151
 5583SOL    HW217649   3.647   6.138   2.064
 5584SOL     OW17650   5.722   4.461   3.375
 5584SOL    HW117651   5.681   4.384   3.327
 5584SOL    HW217652   5.657   4.538   3.376
 5585SOL     OW17653   5.895   0.766   3.776
 5585SOL    HW117654   5.925   0.688   3.831
 5585SOL    HW217655   5.795   0.768   3.772
 5586SOL     OW17656   1.625   1.951   6.211
 5586SOL    HW117657   1.685   2.024   6.240
 5586SOL    HW217658   1.530   1.976   6.229
 5587SOL     OW17659   3.226   0.642   3.328
 5587SOL    HW117660   3.284   0.657   3.248
 5587SOL    HW217661   3.277   0.666   3.411
 5588SOL     OW17662   2.376   6.981   4.989
 5588SOL    HW117663   2.316   6.903   4.971
 5588SOL    HW217664   2.424   6.968   5.075
 5589SOL     OW17665   4.979   2.701   6.084
 5589SOL    HW117666   5.052   2.769   6.075
 5589SOL    HW217667   5.019   2.609   6.082
 5590SOL     OW17668   6.235   5.729   4.334
 5590SOL    HW117669   6.149   5.680   4.349
 5590SOL    HW217670   6.243   5.803   4.401
 5591SOL     OW17671   6.163   0.475   0.290
 5591SOL    HW117672   6.249   0.527   0.293
 5591SOL    HW217673   6.087   0.539   0.280
 5592SOL     OW17674   1.405   3.993   3.519
 5592SOL    HW117675   1.431   4.044   3.601
 5592SOL    HW217676   1.361   3.907   3.546
 5593SOL     OW17677   0.351   2.642   5.778
 5593SOL    HW117678   0.308   2.636   5.868
 5593SOL    HW217679   0.424   2.573   5.772
 5594SOL     OW17680   2.266   0.675   0.148
 5594SOL    HW117681   2.196   0.746   0.140
 5594SOL    HW217682   2.225   0.592   0.186
 5595SOL     OW17683   6.143   1.032   5.833
 5595SOL    HW117684   6.180   0.983   5.754
 5595SOL    HW217685   6.119   0.967   5.905
 5596SOL     OW17686   5.774   0.642   2.769
 5596SOL    HW117687   5.774   0.644   2.869
 5596SOL    HW217688   5.867   0.629   2.736
 5597SOL     OW17689   5.845   1.968   6.518
 5597SOL    HW117690   5.881   1.875   6.526
 5597SOL    HW217691   5.745   1.965   6.525
 5598SOL     OW17692   5.213   1.817   4.271
 5598SOL    HW117693   5.302   1.793   4.310
 5598SOL    HW217694   5.227   1.874   4.189
 5599SOL     OW17695   5.315   3.697   1.445
 5599SOL    HW117696   5.316   3.600   1.469
 5599SOL    HW217697   5.308   3.752   1.529
 5600SOL     OW17698   1.981   0.747   3.065
 5600SOL    HW117699   1.928   0.831   3.076
 5600SOL    HW217700   2.065   0.753   3.118
 5601SOL     OW17701   5.144   2.987   5.815
 5601SOL    HW117702   5.194   3.073   5.812
 5601SOL    HW217703   5.167   2.938   5.899
 5602SOL     OW17704   0.836   2.323   2.947
 5602SOL    HW117705   0.931   2.355   2.939
 5602SOL    HW217706   0.788   2.378   3.015
 5603SOL     OW17707   4.601   2.721   5.422
 5603SOL    HW117708   4.561   2.806   5.455
 5603SOL    HW217709   4.530   2.665   5.379
 5604SOL     OW17710   1.475   0.498   4.212
 5604SOL    HW117711   1.565   0.525   4.179
 5604SOL    HW217712   1.479   0.404   4.247
 5605SOL     OW17713   1.844   6.936   4.367
 5605SOL    HW117714   1.857   0.014   4.367
 5605SOL    HW217715   1.933   6.891   4.372
 5606SOL     OW17716   5.054   1.413   0.648
 5606SOL    HW117717   5.153   1.425   0.651
 5606SOL    HW217718   5.016   1.428   0.740
 5607SOL     OW17719   6.070   2.375   3.032
 5607SOL    HW117720   6.000   2.433   3.073
 5607SOL    HW217721   6.160   2.414   3.052
 5608SOL     OW17722   5.431   0.816   4.051
 5608SOL    HW117723   5.396   0.872   4.126
 5608SOL    HW217724   5.360   0.752   4.021
 5609SOL     OW17725   5.494   6.782   0.318
 5609SOL    HW117726   5.487   6.702   0.377
 5609SOL    HW217727   5.590   6.800   0.297
 5610SOL     OW17728   5.454   3.670   6.995
 5610SOL    HW117729   5.445   3.766   6.970
 5610SOL    HW217730   5.363   3.627   6.993
 5611SOL     OW17731   0.657   5.103   1.793
 5611SOL    HW117732   0.749   5.121   1.828
 5611SOL    HW217733   0.634   5.172   1.724
 5612SOL     OW17734   2.683   1.977   0.385
 5612SOL    HW117735   2.759   2.014   0.332
 5612SOL    HW217736   2.604   1.961   0.325
 5613SOL     OW17737   7.001   5.447   5.079
 5613SOL    HW117738   0.079   5.444   5.067
 5613SOL    HW217739   6.979   5.497   5.162
 5614SOL     OW17740   5.793   1.903   4.895
 5614SOL    HW117741   5.790   1.896   4.795
 5614SOL    HW217742   5.866   1.965   4.922
 5615SOL     OW17743   0.104   2.621   2.223
 5615SOL    HW117744   0.017   2.619   2.173
 5615SOL    HW217745   0.089   2.592   2.317
 5616SOL     OW17746   1.692   2.645   4.347
 5616SOL    HW117747   1.744   2.710   4.290
 5616SOL    HW217748   1.645   2.695   4.419
 5617SOL     OW17749   1.669   5.166   5.761
 5617SOL    HW117750   1.666   5.097   5.688
 5617SOL    HW217751   1.703   5.125   5.845
 5618SOL     OW17752   6.443   5.132   4.391
 5618SOL    HW117753   6.362   5.191   4.393
 5618SOL    HW217754   6.525   5.189   4.393
 5619SOL     OW17755   3.487   3.067   3.681
 5619SOL    HW117756   3.491   3.116   3.594
 5619SOL    HW217757   3.446   3.125   3.751
 5620SOL     OW17758   4.522   4.058   5.972
 5620SOL    HW117759   4.505   4.152   5.944
 5620SOL    HW217760   4.503   3.996   5.896
 5621SOL     OW17761   1.583   2.704   5.532
 5621SOL    HW117762   1.614   2.621   5.579
 5621SOL    HW217763   1.661   2.748   5.488
 5622SOL     OW17764   4.561   5.492   4.932
 5622SOL    HW117765   4.613   5.574   4.957
 5622SOL    HW217766   4.616   5.411   4.951
 5623SOL     OW17767   4.699   6.205   4.301
 5623SOL    HW117768   4.641   6.193   4.221
 5623SOL    HW217769   4.763   6.128   4.308
 5624SOL     OW17770   6.901   5.565   4.051
 5624SOL    HW117771   6.892   5.534   3.956
 5624SOL    HW217772   6.869   5.659   4.059
 5625SOL     OW17773   1.338   5.343   4.571
 5625SOL    HW117774   1.271   5.389   4.630
 5625SOL    HW217775   1.343   5.246   4.596
 5626SOL     OW17776   2.173   4.105   4.459
 5626SOL    HW117777   2.191   4.006   4.452
 5626SOL    HW217778   2.076   4.120   4.475
 5627SOL     OW17779   1.211   5.743   0.210
 5627SOL    HW117780   1.239   5.839   0.212
 5627SOL    HW217781   1.284   5.688   0.169
 5628SOL     OW17782   2.999   3.134   0.691
 5628SOL    HW117783   2.962   3.223   0.664
 5628SOL    HW217784   2.925   3.066   0.688
 5629SOL     OW17785   4.572   3.761   1.026
 5629SOL    HW117786   4.521   3.743   1.110
 5629SOL    HW217787   4.636   3.686   1.009
 5630SOL     OW17788   1.314   4.430   6.639
 5630SOL    HW117789   1.411   4.409   6.638
 5630SOL    HW217790   1.295   4.498   6.710
 5631SOL     OW17791   4.791   0.629   1.660
 5631SOL    HW117792   4.798   0.572   1.743
 5631SOL    HW217793   4.766   0.722   1.686
 5632SOL     OW17794   5.535   0.553   6.158
 5632SOL    HW117795   5.454   0.612   6.158
 5632SOL    HW217796   5.605   0.593   6.218
 5633SOL     OW17797   0.353   4.467   5.578
 5633SOL    HW117798   0.350   4.476   5.478
 5633SOL    HW217799   0.425   4.526   5.615
 5634SOL     OW17800   3.007   5.512   5.781
 5634SOL    HW117801   3.081   5.570   5.747
 5634SOL    HW217802   3.041   5.455   5.855
 5635SOL     OW17803   2.752   0.072   6.677
 5635SOL    HW117804   2.720   0.160   6.713
 5635SOL    HW217805   2.712   7.019   6.730
 5636SOL     OW17806   5.840   0.835   5.804
 5636SOL    HW117807   5.849   0.934   5.805
 5636SOL    HW217808   5.743   0.811   5.809
 5637SOL     OW17809   5.639   5.924   5.207
 5637SOL    HW117810   5.642   5.986   5.285
 5637SOL    HW217811   5.661   5.974   5.123
 5638SOL     OW17812   5.187   5.656   1.118
 5638SOL    HW117813   5.131   5.717   1.173
 5638SOL    HW217814   5.168   5.561   1.145
 5639SOL     OW17815   1.925   0.086   1.546
 5639SOL    HW117816   2.011   0.038   1.528
 5639SOL    HW217817   1.930   0.179   1.510
 5640SOL     OW17818   2.569   6.644   3.269
 5640SOL    HW117819   2.571   6.675   3.174
 5640SOL    HW217820   2.643   6.580   3.285
 5641SOL     OW17821   1.360   4.657   5.079
 5641SOL    HW117822   1.285   4.633   5.017
 5641SOL    HW217823   1.397   4.573   5.119
 5642SOL     OW17824   0.851   4.877   5.880
 5642SOL    HW117825   0.808   4.787   5.891
 5642SOL    HW217826   0.784   4.949   5.896
 5643SOL     OW17827   3.915   2.154   4.632
 5643SOL    HW117828   3.929   2.181   4.537
 5643SOL    HW217829   3.987   2.194   4.689
 5644SOL     OW17830   5.202   1.543   4.562
 5644SOL    HW117831   5.161   1.489   4.635
 5644SOL    HW217832   5.204   1.489   4.478
 5645SOL     OW17833   5.393   4.626   2.473
 5645SOL    HW117834   5.486   4.658   2.459
 5645SOL    HW217835   5.338   4.644   2.392
 5646SOL     OW17836   0.631   5.699   3.457
 5646SOL    HW117837   0.558   5.634   3.479
 5646SOL    HW217838   0.687   5.715   3.538
 5647SOL     OW17839   0.303   5.832   0.216
 5647SOL    HW117840   0.267   5.924   0.230
 5647SOL    HW217841   0.374   5.834   0.146
 5648SOL     OW17842   1.881   1.392   3.338
 5648SOL    HW117843   1.819   1.469   3.321
 5648SOL    HW217844   1.874   1.326   3.263
 5649SOL     OW17845   2.080   0.520   4.878
 5649SOL    HW117846   2.027   0.453   4.931
 5649SOL    HW217847   2.073   0.610   4.922
 5650SOL     OW17848   0.147   4.980   0.993
 5650SOL    HW117849   0.205   4.964   1.073
 5650SOL    HW217850   0.203   4.987   0.911
 5651SOL     OW17851   1.086   1.630   1.844
 5651SOL    HW117852   1.043   1.554   1.893
 5651SOL    HW217853   1.049   1.716   1.877
 5652SOL     OW17854   5.363   6.029   1.959
 5652SOL    HW117855   5.289   6.078   2.005
 5652SOL    HW217856   5.401   6.086   1.886
 5653SOL     OW17857   6.936   6.368   5.917
 5653SOL    HW117858   7.001   6.319   5.975
 5653SOL    HW217859   6.848   6.378   5.965
 5654SOL     OW17860   0.214   0.665   5.915
 5654SOL    HW117861   0.233   0.730   5.989
 5654SOL    HW217862   0.165   0.712   5.841
 5655SOL     OW17863   1.145   2.968   4.246
 5655SOL    HW117864   1.124   2.955   4.149
 5655SOL    HW217865   1.200   3.051   4.258
 5656SOL     OW17866   3.197   4.419   0.767
 5656SOL    HW117867   3.114   4.474   0.769
 5656SOL    HW217868   3.182   4.333   0.817
 5657SOL     OW17869   5.129   6.491   1.585
 5657SOL    HW117870   5.091   6.403   1.556
 5657SOL    HW217871   5.123   6.557   1.509
 5658SOL     OW17872   3.182   6.646   5.567
 5658SOL    HW117873   3.129   6.659   5.651
 5658SOL    HW217874   3.226   6.733   5.542
 5659SOL     OW17875   3.083   3.028   2.810
 5659SOL    HW117876   3.048   2.975   2.733
 5659SOL    HW217877   3.037   3.117   2.814
 5660SOL     OW17878   5.527   0.222   0.415
 5660SOL    HW117879   5.563   0.309   0.448
 5660SOL    HW217880   5.439   0.204   0.459
 5661SOL     OW17881   6.693   5.622   5.488
 5661SOL    HW117882   6.676   5.535   5.440
 5661SOL    HW217883   6.769   5.610   5.552
 5662SOL     OW17884   2.424   4.772   4.059
 5662SOL    HW117885   2.398   4.866   4.035
 5662SOL    HW217886   2.499   4.742   4.001
 5663SOL     OW17887   0.797   4.290   0.498
 5663SOL    HW117888   0.822   4.349   0.421
 5663SOL    HW217889   0.773   4.199   0.464
 5664SOL     OW17890   0.484   4.707   3.352
 5664SOL    HW117891   0.389   4.694   3.381
 5664SOL    HW217892   0.500   4.654   3.268
 5665SOL     OW17893   1.473   2.350   6.567
 5665SOL    HW117894   1.518   2.356   6.477
 5665SOL    HW217895   1.419   2.432   6.583
 5666SOL     OW17896   4.754   5.559   0.751
 5666SOL    HW117897   4.774   5.481   0.692
 5666SOL    HW217898   4.780   5.538   0.845
 5667SOL     OW17899   0.901   4.622   3.224
 5667SOL    HW117900   0.837   4.547   3.208
 5667SOL    HW217901   0.938   4.614   3.317
 5668SOL     OW17902   5.580   1.687   6.638
 5668SOL    HW117903   5.608   1.645   6.552
 5668SOL    HW217904   5.591   1.622   6.713
 5669SOL     OW17905   0.261   4.529   6.358
 5669SOL    HW117906   0.205   4.612   6.347
 5669SOL    HW217907   0.344   4.552   6.408
 5670SOL     OW17908   6.890   2.893   3.645
 5670SOL    HW117909   6.972   2.846   3.677
 5670SOL    HW217910   6.818   2.884   3.714
 5671SOL     OW17911   1.830   6.443   6.410
 5671SOL    HW117912   1.796   6.528   6.369
 5671SOL    HW217913   1.799   6.365   6.357
 5672SOL     OW17914   4.702   3.693   5.897
 5672SOL    HW117915   4.657   3.629   5.834
 5672SOL    HW217916   4.709   3.652   5.987
 5673SOL     OW17917   0.242   0.300   2.209
 5673SOL    HW117918   0.196   0.215   2.186
 5673SOL    HW217919   0.178   0.361   2.257
 5674SOL     OW17920   7.007   4.002   1.706
 5674SOL    HW117921   6.982   3.906   1.692
 5674SOL    HW217922   7.007   4.022   1.804
 5675SOL     OW17923   4.250   2.182   5.413
 5675SOL    HW117924   4.343   2.215   5.429
 5675SOL    HW217925   4.198   2.185   5.499
 5676SOL     OW17926   2.229   1.088   1.041
 5676SOL    HW117927   2.222   1.094   1.140
 5676SOL    HW217928   2.143   1.117   0.999
 5677SOL     OW17929   0.052   1.403   3.349
 5677SOL    HW117930   0.127   1.430   3.288
 5677SOL    HW217931   7.000   1.362   3.295
 5678SOL     OW17932   3.441   6.315   3.159
 5678SOL    HW117933   3.541   6.317   3.161
 5678SOL    HW217934   3.411   6.232   3.112
 5679SOL     OW17935   1.568   6.425   4.638
 5679SOL    HW117936   1.478   6.432   4.681
 5679SOL    HW217937   1.557   6.411   4.540
 5680SOL     OW17938   1.704   5.783   0.094
 5680SOL    HW117939   1.765   5.731   0.035
 5680SOL    HW217940   1.667   5.723   0.165
 5681SOL     OW17941   0.953   3.174   6.582
 5681SOL    HW117942   0.925   3.170   6.677
 5681SOL    HW217943   0.874   3.193   6.524
 5682SOL     OW17944   2.026   3.274   5.769
 5682SOL    HW117945   1.988   3.245   5.857
 5682SOL    HW217946   1.978   3.228   5.695
 5683SOL     OW17947   3.712   2.496   6.426
 5683SOL    HW117948   3.736   2.590   6.401
 5683SOL    HW217949   3.747   2.434   6.356
 5684SOL     OW17950   4.120   3.228   4.245
 5684SOL    HW117951   4.084   3.277   4.325
 5684SOL    HW217952   4.211   3.191   4.267
 5685SOL     OW17953   0.489   4.815   2.013
 5685SOL    HW117954   0.410   4.780   1.962
 5685SOL    HW217955   0.573   4.791   1.965
 5686SOL     OW17956   3.371   0.832   0.262
 5686SOL    HW117957   3.312   0.868   0.335
 5686SOL    HW217958   3.455   0.796   0.302
 5687SOL     OW17959   6.647   4.285   4.473
 5687SOL    HW117960   6.594   4.216   4.423
 5687SOL    HW217961   6.741   4.287   4.439
 5688SOL     OW17962   6.556   1.938   0.958
 5688SOL    HW117963   6.577   2.020   0.904
 5688SOL    HW217964   6.457   1.931   0.969
 5689SOL     OW17965   3.823   1.437   0.887
 5689SOL    HW117966   3.873   1.495   0.823
 5689SOL    HW217967   3.768   1.494   0.947
 5690SOL     OW17968   3.622   5.807   0.895
 5690SOL    HW117969   3.650   5.799   0.800
 5690SOL    HW217970   3.696   5.849   0.948
 5691SOL     OW17971   2.986   6.166   2.065
 5691SOL    HW117972   2.998   6.194   2.160
 5691SOL    HW217973   2.904   6.109   2.058
 5692SOL     OW17974   6.766   2.054   6.380
 5692SOL    HW117975   6.709   2.126   6.340
 5692SOL    HW217976   6.840   2.095   6.433
 5693SOL     OW17977   5.070   2.629   2.281
 5693SOL    HW117978   4.980   2.599   2.311
 5693SOL    HW217979   5.059   2.701   2.211
 5694SOL     OW17980   1.037   1.389   3.586
 5694SOL    HW117981   0.972   1.336   3.531
 5694SOL    HW217982   1.127   1.386   3.543
 5695SOL     OW17983   1.193   2.199   3.380
 5695SOL    HW117984   1.151   2.280   3.422
 5695SOL    HW217985   1.121   2.134   3.354
 5696SOL     OW17986   2.644   0.919   4.250
 5696SOL    HW117987   2.575   0.990   4.251
 5696SOL    HW217988   2.600   0.829   4.258
 5697SOL     OW17989   6.815   2.481   1.591
 5697SOL    HW117990   6.784   2.565   1.637
 5697SOL    HW217991   6.907   2.459   1.623
 5698SOL     OW17992   0.115   2.247   2.217
 5698SOL    HW117993   0.156   2.338   2.206
 5698SOL    HW217994   0.162   2.181   2.159
 5699SOL     OW17995   6.175   1.673   3.765
 5699SOL    HW117996   6.271   1.703   3.762
 5699SOL    HW217997   6.134   1.700   3.852
 5700SOL     OW17998   6.974   6.137   4.814
 5700SOL    HW117999   0.019   6.096   4.753
 5700SOL    HW218000   7.011   6.222   4.853
 5701SOL     OW18001   0.961   5.538   3.218
 5701SOL    HW118002   0.904   5.577   3.146
 5701SOL    HW218003   1.047   5.506   3.177
 5702SOL     OW18004   2.044   0.176   6.209
 5702SOL    HW118005   2.072   0.211   6.299
 5702SOL    HW218006   2.123   0.173   6.148
 5703SOL     OW18007   4.314   4.653   0.009
 5703SOL    HW118008   4.218   4.678   0.023
 5703SOL    HW218009   4.369   4.687   0.085
 5704SOL     OW18010   4.497   5.673   2.517
 5704SOL    HW118011   4.451   5.705   2.435
 5704SOL    HW218012   4.496   5.746   2.586
 5705SOL     OW18013   6.098   1.104   0.676
 5705SOL    HW118014   6.105   1.195   0.716
 5705SOL    HW218015   6.174   1.047   0.709
 5706SOL     OW18016   1.755   1.747   0.169
 5706SOL    HW118017   1.808   1.663   0.177
 5706SOL    HW218018   1.738   1.768   0.073
 5707SOL     OW18019   1.034   6.899   6.703
 5707SOL    HW118020   0.971   6.825   6.725
 5707SOL    HW218021   1.070   6.886   6.611
 5708SOL     OW18022   5.444   0.273   2.025
 5708SOL    HW118023   5.351   0.258   2.059
 5708SOL    HW218024   5.461   0.371   2.015
 5709SOL     OW18025   0.820   5.978   3.407
 5709SOL    HW118026   0.812   5.971   3.308
 5709SOL    HW218027   0.865   5.896   3.443
 5710SOL     OW18028   2.779   3.543   5.355
 5710SOL    HW118029   2.787   3.541   5.454
 5710SOL    HW218030   2.747   3.633   5.326
 5711SOL     OW18031   4.774   0.358   3.615
 5711SOL    HW118032   4.790   0.261   3.597
 5711SOL    HW218033   4.683   0.383   3.584
 5712SOL     OW18034   1.200   6.794   5.519
 5712SOL    HW118035   1.297   6.800   5.494
 5712SOL    HW218036   1.147   6.850   5.455
 5713SOL     OW18037   1.059   2.296   1.313
 5713SOL    HW118038   1.043   2.228   1.385
 5713SOL    HW218039   1.085   2.250   1.229
 5714SOL     OW18040   1.494   6.708   6.588
 5714SOL    HW118041   1.491   6.663   6.499
 5714SOL    HW218042   1.508   6.806   6.577
 5715SOL     OW18043   1.120   5.866   2.948
 5715SOL    HW118044   1.196   5.917   2.907
 5715SOL    HW218045   1.133   5.768   2.932
 5716SOL     OW18046   0.547   4.099   5.507
 5716SOL    HW118047   0.469   4.155   5.532
 5716SOL    HW218048   0.613   4.154   5.456
 5717SOL     OW18049   1.923   5.246   0.200
 5717SOL    HW118050   1.853   5.268   0.268
 5717SOL    HW218051   1.940   5.147   0.201
 5718SOL     OW18052   1.853   4.473   6.701
 5718SOL    HW118053   1.783   4.493   6.632
 5718SOL    HW218054   1.928   4.422   6.658
 5719SOL     OW18055   3.193   1.018   5.608
 5719SOL    HW118056   3.159   1.013   5.702
 5719SOL    HW218057   3.135   1.080   5.555
 5720SOL     OW18058   0.488   5.312   4.903
 5720SOL    HW118059   0.501   5.225   4.951
 5720SOL    HW218060   0.566   5.327   4.841
 5721SOL     OW18061   0.973   3.356   0.216
 5721SOL    HW118062   0.894   3.372   0.158
 5721SOL    HW218063   1.052   3.406   0.180
 5722SOL     OW18064   5.263   1.417   4.847
 5722SOL    HW118065   5.190   1.369   4.798
 5722SOL    HW218066   5.330   1.351   4.880
 5723SOL     OW18067   4.323   4.589   0.588
 5723SOL    HW118068   4.326   4.498   0.630
 5723SOL    HW218069   4.243   4.595   0.527
 5724SOL     OW18070   3.977   2.271   5.343
 5724SOL    HW118071   4.001   2.367   5.329
 5724SOL    HW218072   3.995   2.246   5.439
 5725SOL     OW18073   4.992   5.729   3.613
 5725SOL    HW118074   4.950   5.639   3.621
 5725SOL    HW218075   4.950   5.778   3.537
 5726SOL     OW18076   6.771   3.174   3.873
 5726SOL    HW118077   6.743   3.161   3.968
 5726SOL    HW218078   6.836   3.249   3.867
 5727SOL     OW18079   6.034   3.385   2.762
 5727SOL    HW118080   5.998   3.465   2.715
 5727SOL    HW218081   6.080   3.412   2.846
 5728SOL     OW18082   4.909   1.625   6.670
 5728SOL    HW118083   4.863   1.642   6.758
 5728SOL    HW218084   5.008   1.622   6.685
 5729SOL     OW18085   1.155   1.783   1.377
 5729SOL    HW118086   1.239   1.834   1.357
 5729SOL    HW218087   1.167   1.687   1.353
 5730SOL     OW18088   4.240   5.488   5.379
 5730SOL    HW118089   4.324   5.443   5.409
 5730SOL    HW218090   4.239   5.582   5.412
 5731SOL     OW18091   1.673   6.630   3.454
 5731SOL    HW118092   1.657   6.607   3.550
 5731SOL    HW218093   1.759   6.589   3.424
 5732SOL     OW18094   5.847   5.044   5.109
 5732SOL    HW118095   5.889   5.025   5.198
 5732SOL    HW218096   5.915   5.028   5.037
 5733SOL     OW18097   3.726   1.284   5.925
 5733SOL    HW118098   3.758   1.190   5.914
 5733SOL    HW218099   3.726   1.329   5.836
 5734SOL     OW18100   1.027   6.902   5.351
 5734SOL    HW118101   0.936   6.942   5.348
 5734SOL    HW218102   1.033   6.828   5.284
 5735SOL     OW18103   4.105   1.090   2.333
 5735SOL    HW118104   4.174   1.104   2.405
 5735SOL    HW218105   4.137   1.020   2.270
 5736SOL     OW18106   5.376   4.481   6.717
 5736SOL    HW118107   5.346   4.467   6.811
 5736SOL    HW218108   5.437   4.407   6.690
 5737SOL     OW18109   5.138   5.946   1.077
 5737SOL    HW118110   5.048   5.902   1.070
 5737SOL    HW218111   5.187   5.933   0.992
 5738SOL     OW18112   4.040   1.525   6.750
 5738SOL    HW118113   4.007   1.458   6.816
 5738SOL    HW218114   3.978   1.604   6.749
 5739SOL     OW18115   1.831   6.516   5.611
 5739SOL    HW118116   1.772   6.589   5.647
 5739SOL    HW218117   1.882   6.551   5.533
 5740SOL     OW18118   4.704   3.482   0.747
 5740SOL    HW118119   4.743   3.430   0.822
 5740SOL    HW218120   4.705   3.427   0.663
 5741SOL     OW18121   6.848   3.429   3.794
 5741SOL    HW118122   6.943   3.435   3.765
 5741SOL    HW218123   6.802   3.516   3.777
 5742SOL     OW18124   3.881   6.917   3.340
 5742SOL    HW118125   3.914   6.980   3.270
 5742SOL    HW218126   3.945   6.917   3.417
 5743SOL     OW18127   3.326   5.091   6.005
 5743SOL    HW118128   3.273   5.092   6.090
 5743SOL    HW218129   3.317   5.180   5.960
 5744SOL     OW18130   6.013   1.119   2.688
 5744SOL    HW118131   6.037   1.022   2.688
 5744SOL    HW218132   6.011   1.153   2.594
 5745SOL     OW18133   2.687   1.681   3.684
 5745SOL    HW118134   2.602   1.708   3.729
 5745SOL    HW218135   2.747   1.637   3.750
 5746SOL     OW18136   4.633   0.086   3.123
 5746SOL    HW118137   4.695   0.009   3.139
 5746SOL    HW218138   4.672   0.169   3.163
 5747SOL     OW18139   0.155   6.359   1.768
 5747SOL    HW118140   0.113   6.390   1.853
 5747SOL    HW218141   0.084   6.325   1.706
 5748SOL     OW18142   0.947   0.180   0.675
 5748SOL    HW118143   0.877   0.211   0.611
 5748SOL    HW218144   0.977   0.256   0.733
 5749SOL     OW18145   1.705   6.191   4.713
 5749SOL    HW118146   1.664   6.135   4.785
 5749SOL    HW218147   1.638   6.258   4.681
 5750SOL     OW18148   5.743   5.169   5.717
 5750SOL    HW118149   5.769   5.081   5.755
 5750SOL    HW218150   5.732   5.236   5.791
 5751SOL     OW18151   1.477   3.581   4.738
 5751SOL    HW118152   1.507   3.620   4.825
 5751SOL    HW218153   1.557   3.559   4.681
 5752SOL     OW18154   6.075   0.174   1.370
 5752SOL    HW118155   6.050   0.081   1.342
 5752SOL    HW218156   6.029   0.240   1.310
 5753SOL     OW18157   3.145   3.372   5.061
 5753SOL    HW118158   3.126   3.297   4.997
 5753SOL    HW218159   3.244   3.382   5.072
 5754SOL     OW18160   0.864   5.900   1.628
 5754SOL    HW118161   0.815   5.987   1.623
 5754SOL    HW218162   0.811   5.834   1.682
 5755SOL     OW18163   1.468   2.089   5.383
 5755SOL    HW118164   1.470   2.102   5.284
 5755SOL    HW218165   1.524   2.159   5.427
 5756SOL     OW18166   6.552   0.278   3.252
 5756SOL    HW118167   6.568   0.217   3.330
 5756SOL    HW218168   6.477   0.340   3.273
 5757SOL     OW18169   0.358   5.386   3.776
 5757SOL    HW118170   0.270   5.347   3.749
 5757SOL    HW218171   0.391   5.341   3.859
 5758SOL     OW18172   2.417   1.011   3.228
 5758SOL    HW118173   2.334   1.060   3.257
 5758SOL    HW218174   2.441   1.038   3.135
 5759SOL     OW18175   4.661   0.575   0.904
 5759SOL    HW118176   4.686   0.578   0.807
 5759SOL    HW218177   4.735   0.534   0.957
 5760SOL     OW18178   6.594   2.397   2.099
 5760SOL    HW118179   6.576   2.383   2.196
 5760SOL    HW218180   6.551   2.483   2.069
 5761SOL     OW18181   5.175   5.406   5.703
 5761SOL    HW118182   5.274   5.396   5.709
 5761SOL    HW218183   5.137   5.420   5.795
 5762SOL     OW18184   4.753   4.102   0.382
 5762SOL    HW118185   4.715   4.033   0.319
 5762SOL    HW218186   4.761   4.189   0.334
 5763SOL     OW18187   5.405   6.225   0.608
 5763SOL    HW118188   5.444   6.237   0.516
 5763SOL    HW218189   5.458   6.157   0.658
 5764SOL     OW18190   4.318   5.233   4.322
 5764SOL    HW118191   4.366   5.299   4.264
 5764SOL    HW218192   4.350   5.141   4.300
 5765SOL     OW18193   6.650   3.556   0.786
 5765SOL    HW118194   6.720   3.486   0.795
 5765SOL    HW218195   6.613   3.579   0.876
 5766SOL     OW18196   2.077   1.683   4.722
 5766SOL    HW118197   2.044   1.745   4.794
 5766SOL    HW218198   2.056   1.721   4.633
 5767SOL     OW18199   2.371   0.148   6.871
 5767SOL    HW118200   2.330   0.238   6.856
 5767SOL    HW218201   2.346   0.087   6.796
 5768SOL     OW18202   0.629   6.929   3.314
 5768SOL    HW118203   0.671   6.859   3.371
 5768SOL    HW218204   0.548   6.965   3.360
 5769SOL     OW18205   2.972   5.785   5.107
 5769SOL    HW118206   3.039   5.767   5.036
 5769SOL    HW218207   2.914   5.705   5.120
 5770SOL     OW18208   6.831   6.339   6.958
 5770SOL    HW118209   6.857   6.339   6.862
 5770SOL    HW218210   6.735   6.367   6.966
 5771SOL     OW18211   1.952   0.406   4.169
 5771SOL    HW118212   1.990   0.444   4.253
 5771SOL    HW218213   2.019   0.412   4.096
 5772SOL     OW18214   5.203   1.432   1.460
 5772SOL    HW118215   5.200   1.431   1.560
 5772SOL    HW218216   5.294   1.458   1.430
 5773SOL     OW18217   4.365   1.031   2.832
 5773SOL    HW118218   4.372   0.935   2.804
 5773SOL    HW218219   4.268   1.056   2.839
 5774SOL     OW18220   1.984   0.291   4.583
 5774SOL    HW118221   2.034   0.231   4.520
 5774SOL    HW218222   1.885   0.278   4.569
 5775SOL     OW18223   1.022   6.672   2.780
 5775SOL    HW118224   1.084   6.732   2.728
 5775SOL    HW218225   0.928   6.686   2.749
 5776SOL     OW18226   1.160   0.173   3.482
 5776SOL    HW118227   1.218   0.100   3.447
 5776SOL    HW218228   1.217   0.239   3.532
 5777SOL     OW18229   0.677   6.771   3.554
 5777SOL    HW118230   0.611   6.807   3.619
 5777SOL    HW218231   0.655   6.675   3.535
 5778SOL     OW18232   1.272   0.635   0.597
 5778SOL    HW118233   1.310   0.727   0.591
 5778SOL    HW218234   1.335   0.570   0.554
 5779SOL     OW18235   4.310   2.516   0.437
 5779SOL    HW118236   4.244   2.557   0.374
 5779SOL    HW218237   4.266   2.440   0.486
 5780SOL     OW18238   5.795   6.138   4.617
 5780SOL    HW118239   5.851   6.132   4.700
 5780SOL    HW218240   5.739   6.056   4.609
 5781SOL     OW18241   6.474   4.722   4.643
 5781SOL    HW118242   6.538   4.646   4.658
 5781SOL    HW218243   6.499   4.770   4.559
 5782SOL     OW18244   1.438   1.727   0.453
 5782SOL    HW118245   1.428   1.722   0.354
 5782SOL    HW218246   1.531   1.755   0.476
 5783SOL     OW18247   0.940   0.794   2.457
 5783SOL    HW118248   0.890   0.830   2.378
 5783SOL    HW218249   0.955   0.868   2.523
 5784SOL     OW18250   0.720   6.535   5.253
 5784SOL    HW118251   0.700   6.615   5.195
 5784SOL    HW218252   0.724   6.564   5.349
 5785SOL     OW18253   2.030   2.373   0.444
 5785SOL    HW118254   2.104   2.309   0.465
 5785SOL    HW218255   2.038   2.453   0.503
 5786SOL     OW18256   6.795   4.021   0.492
 5786SOL    HW118257   6.704   3.992   0.519
 5786SOL    HW218258   6.848   3.941   0.463
 5787SOL     OW18259   2.155   2.589   5.133
 5787SOL    HW118260   2.061   2.564   5.111
 5787SOL    HW218261   2.217   2.522   5.092
 5788SOL     OW18262   2.814   1.222   2.189
 5788SOL    HW118263   2.905   1.231   2.228
 5788SOL    HW218264   2.785   1.309   2.150
 5789SOL     OW18265   3.521   5.028   0.126
 5789SOL    HW118266   3.606   5.069   0.092
 5789SOL    HW218267   3.516   4.932   0.097
 5790SOL     OW18268   1.772   4.040   4.347
 5790SOL    HW118269   1.801   4.130   4.315
 5790SOL    HW218270   1.731   4.049   4.438
 5791SOL     OW18271   4.218   0.884   2.178
 5791SOL    HW118272   4.211   0.789   2.209
 5791SOL    HW218273   4.301   0.896   2.124
 5792SOL     OW18274   6.787   2.652   2.756
 5792SOL    HW118275   6.826   2.744   2.764
 5792SOL    HW218276   6.851   2.585   2.794
 5793SOL     OW18277   5.010   0.875   4.025
 5793SOL    HW118278   5.048   0.783   4.030
 5793SOL    HW218279   4.920   0.873   3.981
 5794SOL     OW18280   3.636   1.813   0.646
 5794SOL    HW118281   3.596   1.847   0.731
 5794SOL    HW218282   3.591   1.728   0.620
 5795SOL     OW18283   6.573   6.183   6.998
 5795SOL    HW118284   6.544   6.129   6.918
 5795SOL    HW218285   6.543   6.277   6.987
 5796SOL     OW18286   3.728   0.991   0.149
 5796SOL    HW118287   3.681   0.903   0.142
 5796SOL    HW218288   3.741   1.013   0.246
 5797SOL     OW18289   4.544   1.792   5.936
 5797SOL    HW118290   4.502   1.759   6.020
 5797SOL    HW218291   4.591   1.878   5.953
 5798SOL     OW18292   0.938   4.758   4.982
 5798SOL    HW118293   0.963   4.785   4.889
 5798SOL    HW218294   0.981   4.671   5.004
 5799SOL     OW18295   5.429   1.291   3.559
 5799SOL    HW118296   5.523   1.309   3.528
 5799SOL    HW218297   5.394   1.210   3.511
 5800SOL     OW18298   6.092   6.122   1.176
 5800SOL    HW118299   6.043   6.037   1.160
 5800SOL    HW218300   6.049   6.173   1.251
 5801SOL     OW18301   1.933   2.101   4.020
 5801SOL    HW118302   1.875   2.110   3.939
 5801SOL    HW218303   1.952   2.192   4.058
 5802SOL     OW18304   1.326   4.797   1.180
 5802SOL    HW118305   1.238   4.785   1.135
 5802SOL    HW218306   1.318   4.769   1.276
 5803SOL     OW18307   1.651   4.988   2.284
 5803SOL    HW118308   1.686   4.978   2.190
 5803SOL    HW218309   1.645   4.897   2.326
 5804SOL     OW18310   0.430   5.236   4.033
 5804SOL    HW118311   0.383   5.306   4.088
 5804SOL    HW218312   0.497   5.189   4.090
 5805SOL     OW18313   2.733   3.743   5.930
 5805SOL    HW118314   2.803   3.747   5.859
 5805SOL    HW218315   2.667   3.672   5.907
 5806SOL     OW18316   6.807   6.225   5.742
 5806SOL    HW118317   6.851   6.291   5.803
 5806SOL    HW218318   6.751   6.162   5.796
 5807SOL     OW18319   0.793   3.751   2.019
 5807SOL    HW118320   0.737   3.805   1.957
 5807SOL    HW218321   0.801   3.658   1.983
 5808SOL     OW18322   5.815   4.556   4.323
 5808SOL    HW118323   5.879   4.597   4.257
 5808SOL    HW218324   5.842   4.581   4.416
 5809SOL     OW18325   6.686   2.251   4.841
 5809SOL    HW118326   6.766   2.195   4.816
 5809SOL    HW218327   6.671   2.321   4.771
 5810SOL     OW18328   3.675   1.840   4.033
 5810SOL    HW118329   3.635   1.924   3.995
 5810SOL    HW218330   3.747   1.807   3.973
 5811SOL     OW18331   3.308   0.557   5.603
 5811SOL    HW118332   3.234   0.579   5.667
 5811SOL    HW218333   3.298   0.463   5.572
 5812SOL     OW18334   6.283   1.596   4.108
 5812SOL    HW118335   6.324   1.644   4.186
 5812SOL    HW218336   6.213   1.654   4.067
 5813SOL     OW18337   1.897   1.617   0.872
 5813SOL    HW118338   1.824   1.632   0.939
 5813SOL    HW218339   1.871   1.543   0.810
 5814SOL     OW18340   6.368   4.468   1.206
 5814SOL    HW118341   6.315   4.427   1.131
 5814SOL    HW218342   6.466   4.452   1.190
 5815SOL     OW18343   4.650   2.717   4.134
 5815SOL    HW118344   4.647   2.663   4.218
 5815SOL    HW218345   4.581   2.683   4.070
 5816SOL     OW18346   4.366   5.938   0.162
 5816SOL    HW118347   4.299   6.011   0.154
 5816SOL    HW218348   4.357   5.875   0.085
 5817SOL     OW18349   5.299   3.499   6.319
 5817SOL    HW118350   5.230   3.530   6.385
 5817SOL    HW218351   5.380   3.468   6.368
 5818SOL     OW18352   6.669   5.659   4.984
 5818SOL    HW118353   6.760   5.700   4.991
 5818SOL    HW218354   6.678   5.561   4.968
 5819SOL     OW18355   4.109   6.666   0.082
 5819SOL    HW118356   4.088   6.624   7.015
 5819SOL    HW218357   4.037   6.733   0.105
 5820SOL     OW18358   4.046   5.561   4.357
 5820SOL    HW118359   4.063   5.592   4.263
 5820SOL    HW218360   4.130   5.572   4.411
 5821SOL     OW18361   0.011   0.362   2.356
 5821SOL    HW118362   6.956   0.393   2.300
 5821SOL    HW218363   7.012   0.272   2.394
 5822SOL     OW18364   0.955   2.387   2.121
 5822SOL    HW118365   0.970   2.458   2.190
 5822SOL    HW218366   1.043   2.350   2.092
 5823SOL     OW18367   1.336   1.224   5.474
 5823SOL    HW118368   1.332   1.217   5.574
 5823SOL    HW218369   1.280   1.301   5.444
 5824SOL     OW18370   6.362   4.749   2.492
 5824SOL    HW118371   6.374   4.652   2.514
 5824SOL    HW218372   6.265   4.773   2.494
 5825SOL     OW18373   2.284   2.373   4.992
 5825SOL    HW118374   2.234   2.307   4.937
 5825SOL    HW218375   2.364   2.405   4.941
 5826SOL     OW18376   6.867   5.221   5.380
 5826SOL    HW118377   6.776   5.180   5.384
 5826SOL    HW218378   6.934   5.156   5.417
 5827SOL     OW18379   2.259   4.285   4.697
 5827SOL    HW118380   2.309   4.234   4.628
 5827SOL    HW218381   2.192   4.345   4.653
 5828SOL     OW18382   7.006   3.043   2.138
 5828SOL    HW118383   6.965   3.089   2.059
 5828SOL    HW218384   6.968   3.081   2.223
 5829SOL     OW18385   1.938   1.262   3.101
 5829SOL    HW118386   2.017   1.318   3.076
 5829SOL    HW218387   1.914   1.203   3.024
 5830SOL     OW18388   4.718   0.214   5.594
 5830SOL    HW118389   4.655   0.153   5.547
 5830SOL    HW218390   4.779   0.256   5.527
 5831SOL     OW18391   0.149   0.807   4.399
 5831SOL    HW118392   0.230   0.760   4.363
 5831SOL    HW218393   0.071   0.789   4.340
 5832SOL     OW18394   3.959   4.476   5.982
 5832SOL    HW118395   3.864   4.482   6.015
 5832SOL    HW218396   3.958   4.459   5.883
 5833SOL     OW18397   3.941   3.341   5.255
 5833SOL    HW118398   3.855   3.371   5.215
 5833SOL    HW218399   3.976   3.411   5.318
 5834SOL     OW18400   6.623   3.127   0.131
 5834SOL    HW118401   6.717   3.157   0.150
 5834SOL    HW218402   6.623   3.070   0.049
 5835SOL     OW18403   4.899   3.457   3.761
 5835SOL    HW118404   4.890   3.555   3.744
 5835SOL    HW218405   4.869   3.437   3.855
 5836SOL     OW18406   3.076   6.091   2.658
 5836SOL    HW118407   3.135   6.019   2.694
 5836SOL    HW218408   2.999   6.106   2.720
 5837SOL     OW18409   4.046   5.036   6.069
 5837SOL    HW118410   3.998   5.123   6.079
 5837SOL    HW218411   4.080   5.027   5.975
 5838SOL     OW18412   2.821   1.574   6.227
 5838SOL    HW118413   2.886   1.502   6.252
 5838SOL    HW218414   2.857   1.627   6.151
 5839SOL     OW18415   0.365   2.303   2.523
 5839SOL    HW118416   0.276   2.288   2.566
 5839SOL    HW218417   0.425   2.227   2.544
 5840SOL     OW18418   0.818   5.439   6.615
 5840SOL    HW118419   0.898   5.426   6.556
 5840SOL    HW218420   0.820   5.371   6.688
 5841SOL     OW18421   5.084   1.715   2.435
 5841SOL    HW118422   5.014   1.781   2.463
 5841SOL    HW218423   5.040   1.638   2.388
 5842SOL     OW18424   4.608   3.231   1.016
 5842SOL    HW118425   4.527   3.243   0.959
 5842SOL    HW218426   4.612   3.137   1.049
 5843SOL     OW18427   2.152   3.764   2.704
 5843SOL    HW118428   2.224   3.794   2.642
 5843SOL    HW218429   2.075   3.727   2.651
 5844SOL     OW18430   1.001   6.861   5.863
 5844SOL    HW118431   1.086   6.848   5.915
 5844SOL    HW218432   0.986   6.782   5.804
 5845SOL     OW18433   1.011   0.380   2.816
 5845SOL    HW118434   1.060   0.458   2.776
 5845SOL    HW218435   0.984   0.317   2.743
 5846SOL     OW18436   6.780   2.796   3.260
 5846SOL    HW118437   6.860   2.850   3.284
 5846SOL    HW218438   6.806   2.700   3.251
 5847SOL     OW18439   2.271   2.221   1.848
 5847SOL    HW118440   2.305   2.315   1.845
 5847SOL    HW218441   2.342   2.161   1.887
 5848SOL     OW18442   2.668   5.204   2.810
 5848SOL    HW118443   2.580   5.181   2.768
 5848SOL    HW218444   2.742   5.181   2.747
 5849SOL     OW18445   0.192   6.885   6.765
 5849SOL    HW118446   0.148   6.817   6.706
 5849SOL    HW218447   0.144   6.973   6.756
 5850SOL     OW18448   0.314   4.323   2.371
 5850SOL    HW118449   0.331   4.378   2.289
 5850SOL    HW218450   0.394   4.267   2.391
 5851SOL     OW18451   5.771   3.614   2.943
 5851SOL    HW118452   5.751   3.527   2.989
 5851SOL    HW218453   5.698   3.633   2.877
 5852SOL     OW18454   5.519   6.336   3.334
 5852SOL    HW118455   5.579   6.257   3.321
 5852SOL    HW218456   5.436   6.307   3.381
 5853SOL     OW18457   3.484   5.449   4.204
 5853SOL    HW118458   3.480   5.438   4.105
 5853SOL    HW218459   3.555   5.516   4.227
 5854SOL     OW18460   6.085   4.588   5.528
 5854SOL    HW118461   5.991   4.600   5.498
 5854SOL    HW218462   6.112   4.492   5.520
 5855SOL     OW18463   0.572   0.598   5.005
 5855SOL    HW118464   0.630   0.520   4.982
 5855SOL    HW218465   0.624   0.664   5.060
 5856SOL     OW18466   1.961   6.244   3.639
 5856SOL    HW118467   2.058   6.225   3.651
 5856SOL    HW218468   1.917   6.252   3.728
 5857SOL     OW18469   6.615   2.100   5.736
 5857SOL    HW118470   6.542   2.155   5.697
 5857SOL    HW218471   6.585   2.005   5.744
 5858SOL     OW18472   2.448   2.653   2.033
 5858SOL    HW118473   2.483   2.683   1.945
 5858SOL    HW218474   2.485   2.711   2.106
 5859SOL     OW18475   5.671   6.479   1.581
 5859SOL    HW118476   5.641   6.519   1.668
 5859SOL    HW218477   5.620   6.395   1.563
 5860SOL     OW18478   2.078   3.913   1.992
 5860SOL    HW118479   2.050   3.822   1.960
 5860SOL    HW218480   2.129   3.904   2.077
 5861SOL     OW18481   4.805   1.575   4.477
 5861SOL    HW118482   4.776   1.670   4.491
 5861SOL    HW218483   4.760   1.539   4.395
 5862SOL     OW18484   4.778   5.240   2.859
 5862SOL    HW118485   4.766   5.170   2.929
 5862SOL    HW218486   4.815   5.198   2.776
 5863SOL     OW18487   2.558   0.425   4.383
 5863SOL    HW118488   2.582   0.494   4.451
 5863SOL    HW218489   2.540   0.338   4.430
 5864SOL     OW18490   3.709   3.578   1.613
 5864SOL    HW118491   3.688   3.675   1.602
 5864SOL    HW218492   3.737   3.560   1.707
 5865SOL     OW18493   6.017   0.363   5.602
 5865SOL    HW118494   5.983   0.455   5.621
 5865SOL    HW218495   6.031   0.314   5.688
 5866SOL     OW18496   4.262   5.495   0.413
 5866SOL    HW118497   4.354   5.489   0.376
 5866SOL    HW218498   4.210   5.565   0.364
 5867SOL     OW18499   0.410   3.982   1.015
 5867SOL    HW118500   0.442   3.923   0.941
 5867SOL    HW218501   0.412   4.077   0.984
 5868SOL     OW18502   0.268   0.810   5.159
 5868SOL    HW118503   0.179   0.850   5.180
 5868SOL    HW218504   0.303   0.850   5.074
 5869SOL     OW18505   2.925   5.977   3.199
 5869SOL    HW118506   2.841   6.019   3.234
 5869SOL    HW218507   2.936   5.887   3.241
 5870SOL     OW18508   5.169   5.878   5.018
 5870SOL    HW118509   5.128   5.896   5.108
 5870SOL    HW218510   5.196   5.964   4.976
 5871SOL     OW18511   4.377   2.803   0.277
 5871SOL    HW118512   4.459   2.746   0.270
 5871SOL    HW218513   4.296   2.745   0.273
 5872SOL     OW18514   4.139   5.028   0.605
 5872SOL    HW118515   4.153   5.114   0.555
 5872SOL    HW218516   4.083   5.045   0.686
 5873SOL     OW18517   2.335   2.733   1.393
 5873SOL    HW118518   2.366   2.641   1.414
 5873SOL    HW218519   2.283   2.769   1.471
 5874SOL     OW18520   3.192   3.432   0.465
 5874SOL    HW118521   3.199   3.339   0.500
 5874SOL    HW218522   3.217   3.497   0.537
 5875SOL     OW18523   4.050   1.257   0.894
 5875SOL    HW118524   3.964   1.307   0.884
 5875SOL    HW218525   4.074   1.215   0.806
 5876SOL     OW18526   2.775   3.331   0.009
 5876SOL    HW118527   2.803   3.238   0.032
 5876SOL    HW218528   2.721   3.330   6.946
 5877SOL     OW18529   0.572   6.722   0.918
 5877SOL    HW118530   0.512   6.802   0.918
 5877SOL    HW218531   0.554   6.667   0.999
 5878SOL     OW18532   5.101   5.233   3.277
 5878SOL    HW118533   5.130   5.272   3.364
 5878SOL    HW218534   5.002   5.247   3.265
 5879SOL     OW18535   2.165   3.480   6.312
 5879SOL    HW118536   2.246   3.422   6.303
 5879SOL    HW218537   2.187   3.574   6.286
 5880SOL     OW18538   4.685   4.355   6.576
 5880SOL    HW118539   4.627   4.340   6.496
 5880SOL    HW218540   4.775   4.316   6.559
 5881SOL     OW18541   1.192   0.103   1.654
 5881SOL    HW118542   1.163   0.058   1.569
 5881SOL    HW218543   1.115   0.152   1.694
 5882SOL     OW18544   1.384   6.781   6.151
 5882SOL    HW118545   1.344   6.811   6.238
 5882SOL    HW218546   1.466   6.726   6.169
 5883SOL     OW18547   0.622   1.213   0.377
 5883SOL    HW118548   0.695   1.151   0.350
 5883SOL    HW218549   0.583   1.183   0.464
 5884SOL     OW18550   5.651   1.068   4.892
 5884SOL    HW118551   5.640   1.011   4.811
 5884SOL    HW218552   5.571   1.127   4.903
 5885SOL     OW18553   0.714   5.405   1.871
 5885SOL    HW118554   0.802   5.451   1.862
 5885SOL    HW218555   0.714   5.348   1.953
 5886SOL     OW18556   1.200   2.837   3.712
 5886SOL    HW118557   1.276   2.900   3.702
 5886SOL    HW218558   1.234   2.749   3.746
 5887SOL     OW18559   2.787   2.092   1.882
 5887SOL    HW118560   2.711   2.111   1.820
 5887SOL    HW218561   2.823   2.179   1.918
 5888SOL     OW18562   1.924   6.576   1.311
 5888SOL    HW118563   1.838   6.529   1.292
 5888SOL    HW218564   1.948   6.636   1.234
 5889SOL     OW18565   6.741   1.187   0.485
 5889SOL    HW118566   6.709   1.108   0.537
 5889SOL    HW218567   6.816   1.232   0.534
 5890SOL     OW18568   1.626   6.875   2.423
 5890SOL    HW118569   1.550   6.928   2.461
 5890SOL    HW218570   1.710   6.930   2.428
 5891SOL     OW18571   2.073   4.403   0.556
 5891SOL    HW118572   2.079   4.381   0.459
 5891SOL    HW218573   2.138   4.347   0.607
 5892SOL     OW18574   6.603   5.259   2.153
 5892SOL    HW118575   6.667   5.182   2.139
 5892SOL    HW218576   6.626   5.332   2.089
 5893SOL     OW18577   2.403   4.832   1.771
 5893SOL    HW118578   2.351   4.748   1.787
 5893SOL    HW218579   2.501   4.813   1.776
 5894SOL     OW18580   0.389   5.779   5.605
 5894SOL    HW118581   0.429   5.850   5.546
 5894SOL    HW218582   0.451   5.759   5.680
 5895SOL     OW18583   5.834   3.964   3.424
 5895SOL    HW118584   5.867   4.027   3.354
 5895SOL    HW218585   5.905   3.951   3.494
 5896SOL     OW18586   5.388   1.653   0.895
 5896SOL    HW118587   5.299   1.664   0.939
 5896SOL    HW218588   5.461   1.667   0.963
 5897SOL     OW18589   3.740   1.067   1.962
 5897SOL    HW118590   3.765   1.164   1.974
 5897SOL    HW218591   3.815   1.010   1.996
 5898SOL     OW18592   2.331   1.423   5.561
 5898SOL    HW118593   2.380   1.508   5.577
 5898SOL    HW218594   2.355   1.357   5.632
 5899SOL     OW18595   6.549   6.020   6.772
 5899SOL    HW118596   6.479   6.031   6.702
 5899SOL    HW218597   6.569   5.922   6.783
 5900SOL     OW18598   6.702   5.161   2.807
 5900SOL    HW118599   6.763   5.176   2.885
 5900SOL    HW218600   6.756   5.134   2.727
 5901SOL     OW18601   2.698   1.438   0.242
 5901SOL    HW118602   2.754   1.501   0.188
 5901SOL    HW218603   2.745   1.350   0.249
 5902SOL     OW18604   5.352   3.787   5.290
 5902SOL    HW118605   5.286   3.714   5.271
 5902SOL    HW218606   5.328   3.833   5.375
 5903SOL     OW18607   5.021   3.211   6.742
 5903SOL    HW118608   4.931   3.243   6.714
 5903SOL    HW218609   5.070   3.176   6.662
 5904SOL     OW18610   0.832   4.292   0.890
 5904SOL    HW118611   0.900   4.224   0.917
 5904SOL    HW218612   0.857   4.331   0.801
 5905SOL     OW18613   5.715   1.072   4.515
 5905SOL    HW118614   5.669   1.152   4.477
 5905SOL    HW218615   5.747   1.013   4.440
 5906SOL     OW18616   4.761   2.011   5.415
 5906SOL    HW118617   4.675   1.961   5.404
 5906SOL    HW218618   4.813   1.971   5.490
 5907SOL     OW18619   1.565   0.264   0.271
 5907SOL    HW118620   1.502   0.286   0.345
 5907SOL    HW218621   1.528   0.297   0.184
 5908SOL     OW18622   6.152   4.230   6.877
 5908SOL    HW118623   6.203   4.203   6.796
 5908SOL    HW218624   6.160   4.158   6.947
 5909SOL     OW18625   0.203   5.592   6.616
 5909SOL    HW118626   0.242   5.558   6.531
 5909SOL    HW218627   0.142   5.523   6.655
 5910SOL     OW18628   0.774   5.294   0.360
 5910SOL    HW118629   0.735   5.202   0.349
 5910SOL    HW218630   0.864   5.297   0.317
 5911SOL     OW18631   0.146   5.663   6.136
 5911SOL    HW118632   0.156   5.627   6.229
 5911SOL    HW218633   0.218   5.625   6.078
 5912SOL     OW18634   5.968   3.247   6.652
 5912SOL    HW118635   5.929   3.155   6.657
 5912SOL    HW218636   6.023   3.256   6.569
 5913SOL     OW18637   2.638   2.887   6.007
 5913SOL    HW118638   2.658   2.881   5.910
 5913SOL    HW218639   2.540   2.872   6.022
 5914SOL     OW18640   2.586   5.724   6.781
 5914SOL    HW118641   2.507   5.751   6.726
 5914SOL    HW218642   2.669   5.731   6.726
 5915SOL     OW18643   6.239   3.586   1.507
 5915SOL    HW118644   6.195   3.637   1.433
 5915SOL    HW218645   6.337   3.610   1.510
 5916SOL     OW18646   4.160   6.957   5.783
 5916SOL    HW118647   4.243   6.996   5.823
 5916SOL    HW218648   4.097   6.929   5.856
 5917SOL     OW18649   4.071   3.346   3.990
 5917SOL    HW118650   4.069   3.444   3.973
 5917SOL    HW218651   4.115   3.327   4.077
 5918SOL     OW18652   2.218   3.741   5.165
 5918SOL    HW118653   2.171   3.690   5.093
 5918SOL    HW218654   2.265   3.820   5.125
 5919SOL     OW18655   2.813   2.490   0.025
 5919SOL    HW118656   2.764   2.522   6.966
 5919SOL    HW218657   2.772   2.405   0.057
 5920SOL     OW18658   3.330   0.014   0.297
 5920SOL    HW118659   3.365   0.091   0.245
 5920SOL    HW218660   3.369   6.951   0.262
 5921SOL     OW18661   3.718   5.264   5.365
 5921SOL    HW118662   3.759   5.337   5.311
 5921SOL    HW218663   3.619   5.269   5.358
 5922SOL     OW18664   5.948   4.929   4.263
 5922SOL    HW118665   5.877   4.973   4.208
 5922SOL    HW218666   5.987   4.995   4.327
 5923SOL     OW18667   5.736   1.057   2.235
 5923SOL    HW118668   5.671   0.985   2.261
 5923SOL    HW218669   5.825   1.016   2.216
 5924SOL     OW18670   6.434   2.207   5.052
 5924SOL    HW118671   6.524   2.244   5.075
 5924SOL    HW218672   6.363   2.265   5.091
 5925SOL     OW18673   4.310   6.116   2.891
 5925SOL    HW118674   4.365   6.139   2.812
 5925SOL    HW218675   4.233   6.180   2.898
 5926SOL     OW18676   3.836   5.150   1.826
 5926SOL    HW118677   3.874   5.065   1.863
 5926SOL    HW218678   3.783   5.197   1.896
 5927SOL     OW18679   1.802   4.521   2.897
 5927SOL    HW118680   1.867   4.482   2.962
 5927SOL    HW218681   1.848   4.588   2.839
 5928SOL     OW18682   3.194   0.282   1.796
 5928SOL    HW118683   3.247   0.366   1.786
 5928SOL    HW218684   3.255   0.205   1.813
 5929SOL     OW18685   0.970   0.086   5.776
 5929SOL    HW118686   1.003   7.017   5.803
 5929SOL    HW218687   0.989   0.101   5.679
 5930SOL     OW18688   6.870   1.220   3.635
 5930SOL    HW118689   6.908   1.200   3.725
 5930SOL    HW218690   6.781   1.176   3.625
 5931SOL     OW18691   6.071   5.056   2.872
 5931SOL    HW118692   6.137   5.061   2.797
 5931SOL    HW218693   6.043   4.961   2.886
 5932SOL     OW18694   2.441   6.266   0.838
 5932SOL    HW118695   2.427   6.224   0.748
 5932SOL    HW218696   2.536   6.298   0.845
 5933SOL     OW18697   0.178   4.880   3.125
 5933SOL    HW118698   0.172   4.800   3.185
 5933SOL    HW218699   0.172   4.963   3.180
 5934SOL     OW18700   3.909   4.030   4.028
 5934SOL    HW118701   3.958   3.951   3.991
 5934SOL    HW218702   3.857   4.074   3.954
 5935SOL     OW18703   4.013   3.261   4.498
 5935SOL    HW118704   3.934   3.200   4.492
 5935SOL    HW218705   4.040   3.271   4.594
 5936SOL     OW18706   4.190   3.285   6.749
 5936SOL    HW118707   4.244   3.242   6.820
 5936SOL    HW218708   4.188   3.384   6.763
 5937SOL     OW18709   0.988   4.471   2.118
 5937SOL    HW118710   0.976   4.384   2.165
 5937SOL    HW218711   0.944   4.544   2.170
 5938SOL     OW18712   1.473   5.826   4.280
 5938SOL    HW118713   1.440   5.788   4.366
 5938SOL    HW218714   1.447   5.923   4.274
 5939SOL     OW18715   3.135   0.385   3.388
 5939SOL    HW118716   3.038   0.401   3.409
 5939SOL    HW218717   3.176   0.470   3.356
 5940SOL     OW18718   4.209   6.366   2.524
 5940SOL    HW118719   4.202   6.274   2.562
 5940SOL    HW218720   4.225   6.432   2.598
 5941SOL     OW18721   6.394   3.836   2.127
 5941SOL    HW118722   6.381   3.852   2.225
 5941SOL    HW218723   6.450   3.755   2.114
 5942SOL     OW18724   4.819   2.344   0.215
 5942SOL    HW118725   4.767   2.282   0.273
 5942SOL    HW218726   4.765   2.366   0.134
 5943SOL     OW18727   4.019   4.687   0.665
 5943SOL    HW118728   4.082   4.679   0.743
 5943SOL    HW218729   3.963   4.769   0.676
 5944SOL     OW18730   5.203   1.706   1.719
 5944SOL    HW118731   5.150   1.645   1.660
 5944SOL    HW218732   5.211   1.666   1.810
 5945SOL     OW18733   0.012   5.543   5.340
 5945SOL    HW118734   0.105   5.508   5.354
 5945SOL    HW218735   6.968   5.473   5.367
 5946SOL     OW18736   3.258   3.213   5.833
 5946SOL    HW118737   3.340   3.172   5.794
 5946SOL    HW218738   3.280   3.256   5.921
 5947SOL     OW18739   3.805   3.013   1.767
 5947SOL    HW118740   3.849   3.087   1.717
 5947SOL    HW218741   3.796   3.039   1.863
 5948SOL     OW18742   4.037   5.300   3.708
 5948SOL    HW118743   4.002   5.273   3.798
 5948SOL    HW218744   3.982   5.260   3.636
 5949SOL     OW18745   4.022   3.818   1.352
 5949SOL    HW118746   4.083   3.842   1.427
 5949SOL    HW218747   3.965   3.740   1.379
 5950SOL     OW18748   5.194   3.030   5.171
 5950SOL    HW118749   5.215   3.118   5.130
 5950SOL    HW218750   5.214   3.033   5.269
 5951SOL     OW18751   0.671   5.896   4.738
 5951SOL    HW118752   0.621   5.875   4.822
 5951SOL    HW218753   0.741   5.965   4.756
 5952SOL     OW18754   5.522   5.366   3.999
 5952SOL    HW118755   5.556   5.335   3.911
 5952SOL    HW218756   5.433   5.411   3.987
 5953SOL     OW18757   6.945   2.852   5.395
 5953SOL    HW118758   6.908   2.864   5.303
 5953SOL    HW218759   0.023   2.864   5.393
 5954SOL     OW18760   0.163   4.959   5.953
 5954SOL    HW118761   0.104   5.028   5.996
 5954SOL    HW218762   0.256   4.969   5.987
 5955SOL     OW18763   5.645   6.151   2.330
 5955SOL    HW118764   5.677   6.056   2.327
 5955SOL    HW218765   5.721   6.210   2.359
 5956SOL     OW18766   3.243   2.076   0.678
 5956SOL    HW118767   3.292   2.062   0.764
 5956SOL    HW218768   3.295   2.034   0.604
 5957SOL     OW18769   5.004   0.516   5.354
 5957SOL    HW118770   4.993   0.446   5.284
 5957SOL    HW218771   5.090   0.501   5.404
 5958SOL     OW18772   5.872   6.550   2.808
 5958SOL    HW118773   5.907   6.509   2.724
 5958SOL    HW218774   5.895   6.493   2.886
 5959SOL     OW18775   3.532   1.511   5.684
 5959SOL    HW118776   3.458   1.490   5.748
 5959SOL    HW218777   3.578   1.595   5.713
 5960SOL     OW18778   3.539   6.296   4.762
 5960SOL    HW118779   3.485   6.364   4.713
 5960SOL    HW218780   3.629   6.333   4.783
 5961SOL     OW18781   4.798   0.722   4.181
 5961SOL    HW118782   4.809   0.771   4.095
 5961SOL    HW218783   4.741   0.641   4.166
 5962SOL     OW18784   4.906   5.968   1.951
 5962SOL    HW118785   4.911   5.960   1.852
 5962SOL    HW218786   4.904   5.877   1.992
 5963SOL     OW18787   3.390   2.919   4.863
 5963SOL    HW118788   3.467   2.880   4.811
 5963SOL    HW218789   3.308   2.920   4.805
 5964SOL     OW18790   0.443   4.903   5.973
 5964SOL    HW118791   0.458   4.898   5.874
 5964SOL    HW218792   0.446   4.810   6.012
 5965SOL     OW18793   1.818   1.898   5.765
 5965SOL    HW118794   1.897   1.954   5.793
 5965SOL    HW218795   1.736   1.930   5.813
 5966SOL     OW18796   3.151   5.267   5.459
 5966SOL    HW118797   3.124   5.172   5.471
 5966SOL    HW218798   3.224   5.289   5.523
 5967SOL     OW18799   4.172   6.300   1.644
 5967SOL    HW118800   4.093   6.268   1.591
 5967SOL    HW218801   4.162   6.268   1.739
 5968SOL     OW18802   5.444   1.528   3.050
 5968SOL    HW118803   5.394   1.563   2.970
 5968SOL    HW218804   5.417   1.433   3.066
 5969SOL     OW18805   6.888   1.098   5.217
 5969SOL    HW118806   6.917   1.183   5.174
 5969SOL    HW218807   6.808   1.116   5.274
 5970SOL     OW18808   0.741   4.841   2.466
 5970SOL    HW118809   0.676   4.896   2.415
 5970SOL    HW218810   0.808   4.901   2.511
 5971SOL     OW18811   2.238   0.762   3.174
 5971SOL    HW118812   2.319   0.758   3.116
 5971SOL    HW218813   2.263   0.749   3.270
 5972SOL     OW18814   4.337   6.309   0.397
 5972SOL    HW118815   4.339   6.375   0.472
 5972SOL    HW218816   4.295   6.351   0.317
 5973SOL     OW18817   1.825   5.233   2.915
 5973SOL    HW118818   1.899   5.261   2.977
 5973SOL    HW218819   1.745   5.290   2.931
 5974SOL     OW18820   5.875   4.548   6.336
 5974SOL    HW118821   5.852   4.640   6.306
 5974SOL    HW218822   5.826   4.527   6.421
 5975SOL     OW18823   3.085   2.295   0.622
 5975SOL    HW118824   3.163   2.256   0.670
 5975SOL    HW218825   3.049   2.228   0.557
 5976SOL     OW18826   2.897   3.419   4.780
 5976SOL    HW118827   2.958   3.340   4.789
 5976SOL    HW218828   2.821   3.410   4.844
 5977SOL     OW18829   1.743   4.993   1.451
 5977SOL    HW118830   1.734   4.928   1.376
 5977SOL    HW218831   1.652   5.022   1.481
 5978SOL     OW18832   5.261   4.842   3.062
 5978SOL    HW118833   5.281   4.903   3.138
 5978SOL    HW218834   5.343   4.830   3.006
 5979SOL     OW18835   6.413   0.734   3.154
 5979SOL    HW118836   6.442   0.640   3.171
 5979SOL    HW218837   6.342   0.760   3.219
 5980SOL     OW18838   4.145   3.574   6.824
 5980SOL    HW118839   4.090   3.557   6.905
 5980SOL    HW218840   4.226   3.627   6.850
 5981SOL     OW18841   6.393   0.774   2.255
 5981SOL    HW118842   6.341   0.742   2.335
 5981SOL    HW218843   6.329   0.797   2.182
 5982SOL     OW18844   6.642   2.524   0.123
 5982SOL    HW118845   6.700   2.449   0.154
 5982SOL    HW218846   6.658   2.605   0.180
 5983SOL     OW18847   2.041   1.371   4.801
 5983SOL    HW118848   2.040   1.467   4.774
 5983SOL    HW218849   1.952   1.345   4.838
 5984SOL     OW18850   6.659   6.975   5.174
 5984SOL    HW118851   6.666   0.018   5.249
 5984SOL    HW218852   6.566   6.941   5.167
 5985SOL     OW18853   5.660   3.378   4.057
 5985SOL    HW118854   5.607   3.294   4.045
 5985SOL    HW218855   5.750   3.356   4.096
 5986SOL     OW18856   2.882   3.426   3.385
 5986SOL    HW118857   2.844   3.383   3.303
 5986SOL    HW218858   2.868   3.366   3.463
 5987SOL     OW18859   4.196   1.452   4.587
 5987SOL    HW118860   4.215   1.460   4.685
 5987SOL    HW218861   4.282   1.456   4.536
 5988SOL     OW18862   4.240   6.261   5.139
 5988SOL    HW118863   4.328   6.294   5.107
 5988SOL    HW218864   4.193   6.334   5.190
 5989SOL     OW18865   2.722   5.845   6.586
 5989SOL    HW118866   2.670   5.884   6.510
 5989SOL    HW218867   2.777   5.916   6.629
 5990SOL     OW18868   4.245   4.357   0.731
 5990SOL    HW118869   4.191   4.405   0.800
 5990SOL    HW218870   4.214   4.262   0.724
 5991SOL     OW18871   4.886   4.830   5.145
 5991SOL    HW118872   4.788   4.814   5.158
 5991SOL    HW218873   4.928   4.748   5.107
 5992SOL     OW18874   3.692   0.911   4.238
 5992SOL    HW118875   3.630   0.914   4.317
 5992SOL    HW218876   3.754   0.833   4.247
 5993SOL     OW18877   3.447   6.711   6.160
 5993SOL    HW118878   3.354   6.746   6.159
 5993SOL    HW218879   3.452   6.627   6.106
 5994SOL     OW18880   6.338   1.973   2.345
 5994SOL    HW118881   6.347   1.890   2.290
 5994SOL    HW218882   6.428   2.015   2.359
 5995SOL     OW18883   6.449   4.328   2.426
 5995SOL    HW118884   6.456   4.287   2.335
 5995SOL    HW218885   6.447   4.255   2.495
 5996SOL     OW18886   0.756   5.770   0.608
 5996SOL    HW118887   0.821   5.698   0.630
 5996SOL    HW218888   0.756   5.838   0.682
 5997SOL     OW18889   0.606   6.788   2.397
 5997SOL    HW118890   0.656   6.819   2.478
 5997SOL    HW218891   0.509   6.780   2.420
 5998SOL     OW18892   5.573   2.820   1.611
 5998SOL    HW118893   5.668   2.839   1.636
 5998SOL    HW218894   5.538   2.895   1.556
 5999SOL     OW18895   1.115   2.081   2.282
 5999SOL    HW118896   1.047   2.008   2.286
 5999SOL    HW218897   1.183   2.059   2.211
 6000SOL     OW18898   3.925   6.328   1.469
 6000SOL    HW118899   3.830   6.348   1.445
 6000SOL    HW218900   3.983   6.404   1.440
 6001SOL     OW18901   0.500   4.056   6.480
 6001SOL    HW118902   0.451   3.969   6.491
 6001SOL    HW218903   0.530   4.066   6.385
 6002SOL     OW18904   0.483   6.964   1.371
 6002SOL    HW118905   0.387   6.936   1.375
 6002SOL    HW218906   0.539   6.885   1.344
 6003SOL     OW18907   6.518   2.039   4.581
 6003SOL    HW118908   6.465   2.108   4.532
 6003SOL    HW218909   6.521   1.955   4.527
 6004SOL     OW18910   0.157   4.555   2.923
 6004SOL    HW118911   0.057   4.555   2.917
 6004SOL    HW218912   0.196   4.587   2.837
 6005SOL     OW18913   4.205   5.055   4.841
 6005SOL    HW118914   4.191   4.963   4.880
 6005SOL    HW218915   4.296   5.088   4.866
 6006SOL     OW18916   3.414   6.785   0.222
 6006SOL    HW118917   3.360   6.708   0.257
 6006SOL    HW218918   3.427   6.774   0.124
 6007SOL     OW18919   4.871   3.386   4.072
 6007SOL    HW118920   4.969   3.366   4.070
 6007SOL    HW218921   4.831   3.345   4.153
 6008SOL     OW18922   2.269   5.187   6.502
 6008SOL    HW118923   2.303   5.100   6.467
 6008SOL    HW218924   2.255   5.251   6.426
 6009SOL     OW18925   2.665   1.158   4.520
 6009SOL    HW118926   2.761   1.160   4.544
 6009SOL    HW218927   2.653   1.193   4.427
 6010SOL     OW18928   1.991   4.181   2.103
 6010SOL    HW118929   2.074   4.130   2.124
 6010SOL    HW218930   2.011   4.255   2.040
 6011SOL     OW18931   4.607   2.448   2.521
 6011SOL    HW118932   4.620   2.532   2.573
 6011SOL    HW218933   4.585   2.471   2.426
 6012SOL     OW18934   6.603   2.042   0.472
 6012SOL    HW118935   6.539   2.057   0.397
 6012SOL    HW218936   6.680   2.105   0.464
 6013SOL     OW18937   5.001   2.141   2.947
 6013SOL    HW118938   4.933   2.069   2.938
 6013SOL    HW218939   4.996   2.179   3.040
 6014SOL     OW18940   4.318   1.383   0.527
 6014SOL    HW118941   4.369   1.383   0.441
 6014SOL    HW218942   4.369   1.333   0.596
 6015SOL     OW18943   5.634   2.151   5.734
 6015SOL    HW118944   5.634   2.100   5.820
 6015SOL    HW218945   5.727   2.173   5.707
 6016SOL     OW18946   0.111   1.484   0.131
 6016SOL    HW118947   0.061   1.528   0.057
 6016SOL    HW218948   0.209   1.505   0.123
 6017SOL     OW18949   6.548   4.917   2.633
 6017SOL    HW118950   6.548   5.016   2.646
 6017SOL    HW218951   6.475   4.891   2.569
 6018SOL     OW18952   3.339   2.004   0.395
 6018SOL    HW118953   3.417   2.065   0.386
 6018SOL    HW218954   3.364   1.913   0.362
 6019SOL     OW18955   5.149   1.481   4.114
 6019SOL    HW118956   5.229   1.538   4.097
 6019SOL    HW218957   5.087   1.528   4.176
 6020SOL     OW18958   1.414   6.051   2.337
 6020SOL    HW118959   1.468   6.094   2.266
 6020SOL    HW218960   1.449   5.959   2.356
 6021SOL     OW18961   3.992   0.172   2.481
 6021SOL    HW118962   4.076   0.120   2.497
 6021SOL    HW218963   4.002   0.228   2.399
 6022SOL     OW18964   4.272   0.777   4.776
 6022SOL    HW118965   4.302   0.796   4.682
 6022SOL    HW218966   4.203   0.705   4.774
 6023SOL     OW18967   6.094   1.583   2.746
 6023SOL    HW118968   6.087   1.512   2.816
 6023SOL    HW218969   6.125   1.668   2.788
 6024SOL     OW18970   0.839   4.214   2.975
 6024SOL    HW118971   0.753   4.175   2.943
 6024SOL    HW218972   0.916   4.166   2.932
 6025SOL     OW18973   3.761   0.456   2.276
 6025SOL    HW118974   3.700   0.412   2.211
 6025SOL    HW218975   3.737   0.428   2.369
 6026SOL     OW18976   0.107   3.992   4.234
 6026SOL    HW118977   0.107   4.019   4.138
 6026SOL    HW218978   0.013   3.998   4.270
 6027SOL     OW18979   2.297   3.996   5.788
 6027SOL    HW118980   2.307   4.005   5.887
 6027SOL    HW218981   2.209   4.035   5.760
 6028SOL     OW18982   1.213   3.725   0.368
 6028SOL    HW118983   1.144   3.727   0.440
 6028SOL    HW218984   1.170   3.701   0.281
 6029SOL     OW18985   2.328   6.282   6.078
 6029SOL    HW118986   2.286   6.196   6.048
 6029SOL    HW218987   2.359   6.272   6.173
 6030SOL     OW18988   2.913   0.103   2.422
 6030SOL    HW118989   2.888   0.178   2.483
 6030SOL    HW218990   2.994   0.056   2.459
 6031SOL     OW18991   4.160   4.875   4.275
 6031SOL    HW118992   4.075   4.902   4.229
 6031SOL    HW218993   4.230   4.858   4.206
 6032SOL     OW18994   1.874   3.394   2.970
 6032SOL    HW118995   1.815   3.475   2.972
 6032SOL    HW218996   1.965   3.419   3.002
 6033SOL     OW18997   2.718   2.311   2.580
 6033SOL    HW118998   2.801   2.283   2.532
 6033SOL    HW218999   2.657   2.359   2.517
 6034SOL     OW19000   1.736   6.009   5.097
 6034SOL    HW119001   1.777   6.042   5.183
 6034SOL    HW219002   1.803   6.016   5.024
 6035SOL     OW19003   5.999   1.497   3.610
 6035SOL    HW119004   6.075   1.556   3.639
 6035SOL    HW219005   5.918   1.518   3.665
 6036SOL     OW19006   0.242   6.349   4.339
 6036SOL    HW119007   0.239   6.274   4.273
 6036SOL    HW219008   0.161   6.406   4.329
 6037SOL     OW19009   4.708   5.059   6.529
 6037SOL    HW119010   4.651   5.010   6.463
 6037SOL    HW219011   4.731   5.149   6.492
 6038SOL     OW19012   1.156   3.963   6.287
 6038SOL    HW119013   1.174   3.929   6.379
 6038SOL    HW219014   1.159   3.887   6.222
 6039SOL     OW19015   3.247   3.239   3.337
 6039SOL    HW119016   3.180   3.245   3.263
 6039SOL    HW219017   3.201   3.214   3.422
 6040SOL     OW19018   0.295   2.045   6.635
 6040SOL    HW119019   0.247   2.016   6.719
 6040SOL    HW219020   0.330   1.965   6.588
 6041SOL     OW19021   1.978   1.473   5.543
 6041SOL    HW119022   1.932   1.420   5.472
 6041SOL    HW219023   1.910   1.517   5.601
 6042SOL     OW19024   5.496   5.348   1.812
 6042SOL    HW119025   5.474   5.411   1.887
 6042SOL    HW219026   5.449   5.261   1.826
 6043SOL     OW19027   1.199   4.873   5.223
 6043SOL    HW119028   1.278   4.836   5.175
 6043SOL    HW219029   1.116   4.856   5.170
 6044SOL     OW19030   1.410   2.335   1.192
 6044SOL    HW119031   1.365   2.423   1.180
 6044SOL    HW219032   1.371   2.287   1.271
 6045SOL     OW19033   5.668   5.845   0.948
 6045SOL    HW119034   5.584   5.826   0.998
 6045SOL    HW219035   5.646   5.885   0.859
 6046SOL     OW19036   2.801   2.285   0.784
 6046SOL    HW119037   2.831   2.348   0.856
 6046SOL    HW219038   2.715   2.242   0.810
 6047SOL     OW19039   6.689   1.327   2.744
 6047SOL    HW119040   6.595   1.323   2.778
 6047SOL    HW219041   6.693   1.290   2.651
 6048SOL     OW19042   4.895   6.274   3.338
 6048SOL    HW119043   4.903   6.222   3.253
 6048SOL    HW219044   4.811   6.249   3.386
 6049SOL     OW19045   5.087   3.869   5.989
 6049SOL    HW119046   5.122   3.791   6.041
 6049SOL    HW219047   4.998   3.847   5.951
 6050SOL     OW19048   3.746   4.016   5.701
 6050SOL    HW119049   3.731   3.950   5.627
 6050SOL    HW219050   3.755   4.107   5.662
 6051SOL     OW19051   3.001   2.050   3.840
 6051SOL    HW119052   2.988   2.103   3.757
 6051SOL    HW219053   3.090   2.072   3.880
 6052SOL     OW19054   6.604   6.868   6.666
 6052SOL    HW119055   6.638   6.935   6.732
 6052SOL    HW219056   6.513   6.838   6.694
 6053SOL     OW19057   3.656   0.723   0.054
 6053SOL    HW119058   3.617   0.715   0.145
 6053SOL    HW219059   3.583   0.718   7.007
 6054SOL     OW19060   2.658   4.320   0.646
 6054SOL    HW119061   2.602   4.265   0.584
 6054SOL    HW219062   2.661   4.275   0.736
 6055SOL     OW19063   5.670   0.693   6.359
 6055SOL    HW119064   5.728   0.730   6.286
 6055SOL    HW219065   5.723   0.628   6.413
 6056SOL     OW19066   5.232   3.316   5.104
 6056SOL    HW119067   5.157   3.341   5.043
 6056SOL    HW219068   5.306   3.384   5.094
 6057SOL     OW19069   5.381   2.812   4.474
 6057SOL    HW119070   5.289   2.806   4.435
 6057SOL    HW219071   5.422   2.899   4.446
 6058SOL     OW19072   5.321   2.525   2.690
 6058SOL    HW119073   5.299   2.612   2.646
 6058SOL    HW219074   5.344   2.457   2.620
 6059SOL     OW19075   4.456   5.860   5.679
 6059SOL    HW119076   4.551   5.883   5.701
 6059SOL    HW219077   4.407   5.836   5.762
 6060SOL     OW19078   3.050   4.010   5.988
 6060SOL    HW119079   3.127   4.029   6.049
 6060SOL    HW219080   3.004   4.096   5.965
 6061SOL     OW19081   4.347   2.262   6.903
 6061SOL    HW119082   4.379   2.341   6.851
 6061SOL    HW219083   4.328   2.290   6.997
 6062SOL     OW19084   2.071   0.569   4.421
 6062SOL    HW119085   2.150   0.508   4.421
 6062SOL    HW219086   2.085   0.642   4.355
 6063SOL     OW19087   3.961   1.289   6.905
 6063SOL    HW119088   3.873   1.270   6.861
 6063SOL    HW219089   3.959   1.255   6.999
 6064SOL     OW19090   2.811   6.072   2.355
 6064SOL    HW119091   2.907   6.098   2.344
 6064SOL    HW219092   2.772   6.051   2.266
 6065SOL     OW19093   5.590   0.415   2.433
 6065SOL    HW119094   5.564   0.447   2.342
 6065SOL    HW219095   5.671   0.465   2.464
 6066SOL     OW19096   4.471   1.371   0.303
 6066SOL    HW119097   4.482   1.455   0.249
 6066SOL    HW219098   4.558   1.348   0.347
 6067SOL     OW19099   5.379   1.730   6.831
 6067SOL    HW119100   5.386   1.663   6.905
 6067SOL    HW219101   5.425   1.694   6.749
 6068SOL     OW19102   6.193   2.838   4.786
 6068SOL    HW119103   6.231   2.764   4.730
 6068SOL    HW219104   6.108   2.870   4.746
 6069SOL     OW19105   0.592   3.811   5.592
 6069SOL    HW119106   0.646   3.841   5.670
 6069SOL    HW219107   0.557   3.891   5.542
 6070SOL     OW19108   2.215   1.793   5.742
 6070SOL    HW119109   2.295   1.809   5.684
 6070SOL    HW219110   2.234   1.716   5.804
 6071SOL     OW19111   4.623   6.083   5.227
 6071SOL    HW119112   4.548   6.077   5.162
 6071SOL    HW219113   4.587   6.104   5.318
 6072SOL     OW19114   0.829   1.018   1.893
 6072SOL    HW119115   0.807   0.994   1.798
 6072SOL    HW219116   0.848   1.116   1.898
 6073SOL     OW19117   6.669   3.722   0.574
 6073SOL    HW119118   6.621   3.671   0.503
 6073SOL    HW219119   6.679   3.666   0.656
 6074SOL     OW19120   0.937   6.810   4.416
 6074SOL    HW119121   0.912   6.870   4.339
 6074SOL    HW219122   1.005   6.856   4.473
 6075SOL     OW19123   0.250   2.325   6.235
 6075SOL    HW119124   0.282   2.373   6.317
 6075SOL    HW219125   0.208   2.238   6.263
 6076SOL     OW19126   2.574   6.110   5.127
 6076SOL    HW119127   2.563   6.057   5.212
 6076SOL    HW219128   2.635   6.060   5.065
 6077SOL     OW19129   5.159   5.309   1.839
 6077SOL    HW119130   5.141   5.234   1.776
 6077SOL    HW219131   5.159   5.275   1.933
 6078SOL     OW19132   3.987   4.918   1.948
 6078SOL    HW119133   4.043   4.917   2.031
 6078SOL    HW219134   4.026   4.854   1.882
 6079SOL     OW19135   3.167   3.690   6.294
 6079SOL    HW119136   3.221   3.609   6.273
 6079SOL    HW219137   3.105   3.709   6.218
 6080SOL     OW19138   0.528   1.387   1.975
 6080SOL    HW119139   0.456   1.325   1.944
 6080SOL    HW219140   0.531   1.388   2.075
 6081SOL     OW19141   6.182   3.799   4.825
 6081SOL    HW119142   6.205   3.876   4.766
 6081SOL    HW219143   6.245   3.724   4.808
 6082SOL     OW19144   4.064   1.590   3.786
 6082SOL    HW119145   3.991   1.558   3.725
 6082SOL    HW219146   4.079   1.522   3.858
 6083SOL     OW19147   0.879   5.770   6.353
 6083SOL    HW119148   0.858   5.752   6.449
 6083SOL    HW219149   0.977   5.760   6.338
 6084SOL     OW19150   0.134   5.626   4.097
 6084SOL    HW119151   0.040   5.590   4.095
 6084SOL    HW219152   0.143   5.692   4.172
 6085SOL     OW19153   0.059   4.460   0.531
 6085SOL    HW119154   7.011   4.401   0.570
 6085SOL    HW219155   0.093   4.420   0.445
 6086SOL     OW19156   3.433   1.437   5.319
 6086SOL    HW119157   3.380   1.519   5.299
 6086SOL    HW219158   3.415   1.408   5.414
 6087SOL     OW19159   5.067   6.723   6.993
 6087SOL    HW119160   5.130   6.763   6.926
 6087SOL    HW219161   5.109   6.642   0.012
 6088SOL     OW19162   6.434   5.977   4.719
 6088SOL    HW119163   6.457   5.983   4.816
 6088SOL    HW219164   6.514   6.003   4.664
 6089SOL     OW19165   0.467   3.818   1.472
 6089SOL    HW119166   0.506   3.741   1.421
 6089SOL    HW219167   0.444   3.892   1.408
 6090SOL     OW19168   1.607   6.381   6.164
 6090SOL    HW119169   1.637   6.439   6.088
 6090SOL    HW219170   1.558   6.302   6.128
 6091SOL     OW19171   1.019   1.427   2.452
 6091SOL    HW119172   0.941   1.365   2.443
 6091SOL    HW219173   1.103   1.374   2.459
 6092SOL     OW19174   2.865   0.323   3.176
 6092SOL    HW119175   2.793   0.336   3.244
 6092SOL    HW219176   2.935   0.261   3.214
 6093SOL     OW19177   1.387   2.523   2.719
 6093SOL    HW119178   1.429   2.469   2.792
 6093SOL    HW219179   1.438   2.608   2.706
 6094SOL     OW19180   3.288   1.120   1.051
 6094SOL    HW119181   3.292   1.172   1.136
 6094SOL    HW219182   3.228   1.165   0.986
 6095SOL     OW19183   4.742   2.323   6.959
 6095SOL    HW119184   4.809   2.250   6.973
 6095SOL    HW219185   4.738   2.347   6.862
 6096SOL     OW19186   5.725   0.204   4.508
 6096SOL    HW119187   5.676   0.117   4.505
 6096SOL    HW219188   5.718   0.249   4.419
 6097SOL     OW19189   1.413   0.539   2.198
 6097SOL    HW119190   1.513   0.538   2.190
 6097SOL    HW219191   1.374   0.468   2.138
 6098SOL     OW19192   0.881   2.355   5.680
 6098SOL    HW119193   0.877   2.280   5.615
 6098SOL    HW219194   0.857   2.441   5.634
 6099SOL     OW19195   6.058   5.799   6.840
 6099SOL    HW119196   6.076   5.730   6.911
 6099SOL    HW219197   6.070   5.758   6.750
 6100SOL     OW19198   5.649   2.861   6.716
 6100SOL    HW119199   5.590   2.929   6.760
 6100SOL    HW219200   5.600   2.774   6.710
 6101SOL     OW19201   6.397   1.606   5.535
 6101SOL    HW119202   6.401   1.692   5.485
 6101SOL    HW219203   6.302   1.581   5.550
 6102SOL     OW19204   3.976   0.709   4.003
 6102SOL    HW119205   3.988   0.808   4.004
 6102SOL    HW219206   3.905   0.683   4.069
 6103SOL     OW19207   0.237   0.994   3.740
 6103SOL    HW119208   0.312   1.059   3.724
 6103SOL    HW219209   0.228   0.976   3.837
 6104SOL     OW19210   6.587   2.018   6.076
 6104SOL    HW119211   6.523   2.028   6.000
 6104SOL    HW219212   6.615   1.922   6.084
 6105SOL     OW19213   3.182   7.005   5.972
 6105SOL    HW119214   3.089   6.977   5.950
 6105SOL    HW219215   3.226   0.019   5.890
 6106SOL     OW19216   1.433   4.905   5.680
 6106SOL    HW119217   1.470   4.987   5.637
 6106SOL    HW219218   1.384   4.851   5.611
 6107SOL     OW19219   2.637   5.233   4.407
 6107SOL    HW119220   2.553   5.240   4.353
 6107SOL    HW219221   2.615   5.244   4.504
 6108SOL     OW19222   1.025   2.569   3.310
 6108SOL    HW119223   1.048   2.562   3.407
 6108SOL    HW219224   1.104   2.541   3.255
 6109SOL     OW19225   5.254   2.844   6.666
 6109SOL    HW119226   5.318   2.783   6.619
 6109SOL    HW219227   5.258   2.827   6.764
 6110SOL     OW19228   3.273   3.029   6.750
 6110SOL    HW119229   3.291   3.116   6.706
 6110SOL    HW219230   3.255   2.959   6.681
 6111SOL     OW19231   1.955   4.938   2.557
 6111SOL    HW119232   1.920   4.847   2.536
 6111SOL    HW219233   2.004   4.974   2.477
 6112SOL     OW19234   3.280   1.488   3.193
 6112SOL    HW119235   3.356   1.437   3.234
 6112SOL    HW219236   3.194   1.454   3.229
 6113SOL     OW19237   0.138   0.837   6.147
 6113SOL    HW119238   0.229   0.878   6.150
 6113SOL    HW219239   0.070   0.909   6.131
 6114SOL     OW19240   5.204   4.241   1.110
 6114SOL    HW119241   5.145   4.167   1.141
 6114SOL    HW219242   5.255   4.213   1.029
 6115SOL     OW19243   5.339   6.051   2.623
 6115SOL    HW119244   5.409   6.119   2.647
 6115SOL    HW219245   5.374   5.959   2.641
 6116SOL     OW19246   2.798   1.423   1.419
 6116SOL    HW119247   2.788   1.512   1.375
 6116SOL    HW219248   2.837   1.358   1.353
 6117SOL     OW19249   0.203   0.456   5.487
 6117SOL    HW119250   0.135   0.486   5.419
 6117SOL    HW219251   0.286   0.428   5.440
 6118SOL     OW19252   6.902   1.258   1.881
 6118SOL    HW119253   6.917   1.283   1.977
 6118SOL    HW219254   6.908   1.339   1.824
 6119SOL     OW19255   0.223   3.776   4.355
 6119SOL    HW119256   0.206   3.862   4.307
 6119SOL    HW219257   0.209   3.788   4.453
 6120SOL     OW19258   3.493   6.924   3.120
 6120SOL    HW119259   3.512   6.869   3.201
 6120SOL    HW219260   3.486   6.865   3.040
 6121SOL     OW19261   6.967   2.490   4.072
 6121SOL    HW119262   6.911   2.427   4.018
 6121SOL    HW219263   6.988   2.449   4.160
 6122SOL     OW19264   3.145   6.525   2.097
 6122SOL    HW119265   3.086   6.591   2.049
 6122SOL    HW219266   3.146   6.439   2.046
 6123SOL     OW19267   6.663   0.465   0.377
 6123SOL    HW119268   6.734   0.506   0.435
 6123SOL    HW219269   6.693   0.375   0.346
 6124SOL     OW19270   3.422   0.341   5.362
 6124SOL    HW119271   3.469   0.372   5.444
 6124SOL    HW219272   3.385   0.421   5.313
 6125SOL     OW19273   2.356   5.837   0.899
 6125SOL    HW119274   2.415   5.816   0.822
 6125SOL    HW219275   2.338   5.935   0.902
 6126SOL     OW19276   5.793   6.160   4.041
 6126SOL    HW119277   5.869   6.097   4.056
 6126SOL    HW219278   5.773   6.210   4.125
 6127SOL     OW19279   2.229   6.991   1.876
 6127SOL    HW119280   2.206   0.034   1.949
 6127SOL    HW219281   2.328   6.980   1.872
 6128SOL     OW19282   6.741   3.454   0.366
 6128SOL    HW119283   6.663   3.448   0.428
 6128SOL    HW219284   6.767   3.550   0.355
 6129SOL     OW19285   6.091   4.483   3.563
 6129SOL    HW119286   6.121   4.578   3.572
 6129SOL    HW219287   6.051   4.470   3.473
 6130SOL     OW19288   6.338   2.289   4.122
 6130SOL    HW119289   6.430   2.325   4.107
 6130SOL    HW219290   6.283   2.355   4.172
 6131SOL     OW19291   0.041   1.414   5.614
 6131SOL    HW119292   0.084   1.475   5.547
 6131SOL    HW219293   0.012   1.330   5.568
 6132SOL     OW19294   4.682   0.762   0.579
 6132SOL    HW119295   4.724   0.834   0.635
 6132SOL    HW219296   4.719   0.673   0.606
 6133SOL     OW19297   0.668   2.723   2.445
 6133SOL    HW119298   0.636   2.659   2.515
 6133SOL    HW219299   0.681   2.813   2.485
 6134SOL     OW19300   3.993   3.619   0.053
 6134SOL    HW119301   4.014   3.560   0.131
 6134SOL    HW219302   3.939   3.569   7.008
 6135SOL     OW19303   6.502   6.645   2.726
 6135SOL    HW119304   6.559   6.709   2.674
 6135SOL    HW219305   6.465   6.691   2.807
 6136SOL     OW19306   0.518   2.077   2.564
 6136SOL    HW119307   0.590   2.126   2.613
 6136SOL    HW219308   0.544   2.065   2.468
 6137SOL     OW19309   4.260   0.893   5.208
 6137SOL    HW119310   4.310   0.882   5.294
 6137SOL    HW219311   4.230   0.988   5.198
 6138SOL     OW19312   3.668   6.539   2.722
 6138SOL    HW119313   3.643   6.457   2.775
 6138SOL    HW219314   3.603   6.552   2.647
 6139SOL     OW19315   2.142   3.228   4.588
 6139SOL    HW119316   2.111   3.233   4.493
 6139SOL    HW219317   2.120   3.314   4.635
 6140SOL     OW19318   0.563   6.060   1.321
 6140SOL    HW119319   0.548   6.010   1.406
 6140SOL    HW219320   0.656   6.099   1.321
 6141SOL     OW19321   5.944   6.045   5.337
 6141SOL    HW119322   5.974   6.122   5.282
 6141SOL    HW219323   6.023   5.989   5.361
 6142SOL     OW19324   6.942   5.250   0.717
 6142SOL    HW119325   6.947   5.233   0.815
 6142SOL    HW219326   7.021   5.209   0.672
 6143SOL     OW19327   6.235   5.212   6.747
 6143SOL    HW119328   6.170   5.247   6.815
 6143SOL    HW219329   6.326   5.248   6.767
 6144SOL     OW19330   6.897   4.811   2.236
 6144SOL    HW119331   6.996   4.806   2.223
 6144SOL    HW219332   6.851   4.745   2.177
 6145SOL     OW19333   4.787   6.118   3.893
 6145SOL    HW119334   4.836   6.056   3.955
 6145SOL    HW219335   4.853   6.177   3.847
 6146SOL     OW19336   4.351   0.976   3.399
 6146SOL    HW119337   4.334   0.894   3.345
 6146SOL    HW219338   4.379   0.950   3.491
 6147SOL     OW19339   1.902   3.949   3.589
 6147SOL    HW119340   1.996   3.928   3.616
 6147SOL    HW219341   1.845   3.869   3.606
 6148SOL     OW19342   0.072   0.530   5.041
 6148SOL    HW119343   0.049   0.606   4.981
 6148SOL    HW219344   0.066   0.444   4.990
 6149SOL     OW19345   3.560   5.044   3.000
 6149SOL    HW119346   3.591   5.008   2.912
 6149SOL    HW219347   3.470   5.008   3.021
 6150SOL     OW19348   4.122   4.953   6.870
 6150SOL    HW119349   4.098   4.892   6.945
 6150SOL    HW219350   4.220   4.972   6.873
 6151SOL     OW19351   6.560   4.050   4.328
 6151SOL    HW119352   6.533   3.986   4.400
 6151SOL    HW219353   6.480   4.077   4.276
 6152SOL     OW19354   5.456   4.420   5.144
 6152SOL    HW119355   5.435   4.329   5.178
 6152SOL    HW219356   5.521   4.414   5.068
 6153SOL     OW19357   4.623   3.831   1.648
 6153SOL    HW119358   4.699   3.821   1.584
 6153SOL    HW219359   4.554   3.892   1.609
 6154SOL     OW19360   4.936   1.494   2.050
 6154SOL    HW119361   4.879   1.452   1.980
 6154SOL    HW219362   4.939   1.593   2.035
 6155SOL     OW19363   1.620   2.469   4.001
 6155SOL    HW119364   1.577   2.543   4.052
 6155SOL    HW219365   1.562   2.444   3.923
 6156SOL     OW19366   4.631   5.240   2.396
 6156SOL    HW119367   4.656   5.281   2.308
 6156SOL    HW219368   4.682   5.155   2.409
 6157SOL     OW19369   1.419   1.615   4.176
 6157SOL    HW119370   1.459   1.694   4.222
 6157SOL    HW219371   1.447   1.532   4.223
 6158SOL     OW19372   4.459   0.624   6.422
 6158SOL    HW119373   4.387   0.690   6.403
 6158SOL    HW219374   4.523   0.663   6.489
 6159SOL     OW19375   4.414   1.805   0.505
 6159SOL    HW119376   4.420   1.901   0.477
 6159SOL    HW219377   4.321   1.771   0.490
 6160SOL     OW19378   5.697   5.879   0.631
 6160SOL    HW119379   5.631   5.808   0.607
 6160SOL    HW219380   5.780   5.836   0.666
 6161SOL     OW19381   5.868   1.915   6.091
 6161SOL    HW119382   5.779   1.924   6.046
 6161SOL    HW219383   5.874   1.827   6.137
 6162SOL     OW19384   0.869   5.378   4.509
 6162SOL    HW119385   0.942   5.342   4.451
 6162SOL    HW219386   0.807   5.433   4.453
 6163SOL     OW19387   5.430   5.759   1.615
 6163SOL    HW119388   5.333   5.736   1.607
 6163SOL    HW219389   5.456   5.758   1.711
 6164SOL     OW19390   1.959   3.598   1.659
 6164SOL    HW119391   1.883   3.544   1.695
 6164SOL    HW219392   2.032   3.537   1.628
 6165SOL     OW19393   3.326   6.967   6.663
 6165SOL    HW119394   3.318   0.033   6.711
 6165SOL    HW219395   3.393   6.909   6.710
 6166SOL     OW19396   3.906   0.905   4.927
 6166SOL    HW119397   3.987   0.953   4.894
 6166SOL    HW219398   3.826   0.936   4.876
 6167SOL     OW19399   6.980   4.530   1.924
 6167SOL    HW119400   6.944   4.522   2.017
 6167SOL    HW219401   6.904   4.527   1.858
 6168SOL     OW19402   0.201   3.758   1.041
 6168SOL    HW119403   0.205   3.658   1.032
 6168SOL    HW219404   0.294   3.795   1.043
 6169SOL     OW19405   0.723   3.353   2.567
 6169SOL    HW119406   0.781   3.349   2.485
 6169SOL    HW219407   0.627   3.361   2.539
 6170SOL     OW19408   0.798   3.535   5.095
 6170SOL    HW119409   0.868   3.548   5.025
 6170SOL    HW219410   0.716   3.586   5.071
 6171SOL     OW19411   0.473   1.638   0.392
 6171SOL    HW119412   0.500   1.734   0.399
 6171SOL    HW219413   0.555   1.581   0.385
 6172SOL     OW19414   1.392   2.663   2.419
 6172SOL    HW119415   1.383   2.582   2.478
 6172SOL    HW219416   1.424   2.635   2.329
 6173SOL     OW19417   6.465   5.411   3.242
 6173SOL    HW119418   6.548   5.418   3.187
 6173SOL    HW219419   6.488   5.382   3.335
 6174SOL     OW19420   4.371   5.168   3.773
 6174SOL    HW119421   4.321   5.113   3.705
 6174SOL    HW219422   4.359   5.265   3.753
 6175SOL     OW19423   3.524   0.917   4.443
 6175SOL    HW119424   3.478   1.005   4.455
 6175SOL    HW219425   3.468   0.844   4.482
 6176SOL     OW19426   4.429   3.702   5.310
 6176SOL    HW119427   4.505   3.668   5.254
 6176SOL    HW219428   4.357   3.738   5.251
 6177SOL     OW19429   4.920   2.063   1.621
 6177SOL    HW119430   4.995   2.118   1.584
 6177SOL    HW219431   4.838   2.118   1.628
 6178SOL     OW19432   4.817   3.862   2.151
 6178SOL    HW119433   4.840   3.781   2.205
 6178SOL    HW219434   4.794   3.834   2.058
 6179SOL     OW19435   6.465   4.843   1.492
 6179SOL    HW119436   6.451   4.819   1.396
 6179SOL    HW219437   6.555   4.812   1.521
 6180SOL     OW19438   3.544   4.728   0.482
 6180SOL    HW119439   3.501   4.819   0.480
 6180SOL    HW219440   3.616   4.724   0.412
 6181SOL     OW19441   4.619   6.402   5.852
 6181SOL    HW119442   4.717   6.410   5.832
 6181SOL    HW219443   4.595   6.305   5.861
 6182SOL     OW19444   4.586   2.471   6.503
 6182SOL    HW119445   4.499   2.502   6.465
 6182SOL    HW219446   4.642   2.434   6.429
 6183SOL     OW19447   1.806   2.391   1.801
 6183SOL    HW119448   1.728   2.370   1.743
 6183SOL    HW219449   1.871   2.314   1.798
 6184SOL     OW19450   3.068   0.363   5.955
 6184SOL    HW119451   3.062   0.404   6.046
 6184SOL    HW219452   3.155   0.316   5.945
 6185SOL     OW19453   2.423   4.218   5.733
 6185SOL    HW119454   2.374   4.296   5.773
 6185SOL    HW219455   2.380   4.133   5.764
 6186SOL     OW19456   6.774   1.132   1.669
 6186SOL    HW119457   6.791   1.195   1.594
 6186SOL    HW219458   6.817   1.166   1.753
 6187SOL     OW19459   4.731   2.918   5.023
 6187SOL    HW119460   4.644   2.871   5.009
 6187SOL    HW219461   4.807   2.855   5.006
 6188SOL     OW19462   1.637   1.874   5.342
 6188SOL    HW119463   1.711   1.868   5.409
 6188SOL    HW219464   1.581   1.954   5.361
 6189SOL     OW19465   3.835   5.522   2.665
 6189SOL    HW119466   3.905   5.526   2.594
 6189SOL    HW219467   3.862   5.455   2.734
 6190SOL     OW19468   6.132   2.761   5.506
 6190SOL    HW119469   6.137   2.855   5.540
 6190SOL    HW219470   6.206   2.707   5.546
 6191SOL     OW19471   2.525   2.999   5.563
 6191SOL    HW119472   2.436   2.957   5.545
 6191SOL    HW219473   2.545   3.065   5.490
 6192SOL     OW19474   2.414   2.064   6.357
 6192SOL    HW119475   2.422   2.143   6.296
 6192SOL    HW219476   2.341   2.004   6.325
 6193SOL     OW19477   4.942   5.951   0.744
 6193SOL    HW119478   4.983   6.004   0.669
 6193SOL    HW219479   4.961   5.854   0.729
 6194SOL     OW19480   6.497   0.341   6.320
 6194SOL    HW119481   6.552   0.406   6.372
 6194SOL    HW219482   6.407   0.332   6.362
 6195SOL     OW19483   5.704   6.608   4.967
 6195SOL    HW119484   5.610   6.575   4.955
 6195SOL    HW219485   5.765   6.559   4.905
 6196SOL     OW19486   4.584   4.782   2.964
 6196SOL    HW119487   4.568   4.824   2.875
 6196SOL    HW219488   4.524   4.703   2.974
 6197SOL     OW19489   2.458   5.094   2.671
 6197SOL    HW119490   2.451   4.995   2.667
 6197SOL    HW219491   2.436   5.133   2.582
 6198SOL     OW19492   5.255   6.240   7.012
 6198SOL    HW119493   5.342   6.191   7.021
 6198SOL    HW219494   5.239   6.295   0.072
 6199SOL     OW19495   0.196   0.923   0.183
 6199SOL    HW119496   0.130   0.958   0.249
 6199SOL    HW219497   0.283   0.972   0.194
 6200SOL     OW19498   0.786   1.281   2.813
 6200SOL    HW119499   0.784   1.207   2.746
 6200SOL    HW219500   0.765   1.244   2.903
 6201SOL     OW19501   0.497   3.808   4.265
 6201SOL    HW119502   0.411   3.777   4.303
 6201SOL    HW219503   0.572   3.753   4.303
 6202SOL     OW19504   5.950   1.557   3.067
 6202SOL    HW119505   6.004   1.640   3.059
 6202SOL    HW219506   5.863   1.569   3.020
 6203SOL     OW19507   6.179   5.297   2.171
 6203SOL    HW119508   6.176   5.337   2.079
 6203SOL    HW219509   6.236   5.215   2.169
 6204SOL     OW19510   0.898   6.240   5.023
 6204SOL    HW119511   0.935   6.313   5.081
 6204SOL    HW219512   0.916   6.151   5.066
 6205SOL     OW19513   5.260   4.599   1.726
 6205SOL    HW119514   5.239   4.611   1.629
 6205SOL    HW219515   5.177   4.573   1.775
 6206SOL     OW19516   5.280   1.920   3.271
 6206SOL    HW119517   5.363   1.866   3.261
 6206SOL    HW219518   5.290   2.007   3.223
 6207SOL     OW19519   1.542   5.835   4.976
 6207SOL    HW119520   1.598   5.764   4.934
 6207SOL    HW219521   1.561   5.923   4.931
 6208SOL     OW19522   3.205   2.135   5.647
 6208SOL    HW119523   3.147   2.214   5.669
 6208SOL    HW219524   3.295   2.167   5.618
 6209SOL     OW19525   3.426   4.823   1.005
 6209SOL    HW119526   3.426   4.789   0.911
 6209SOL    HW219527   3.520   4.827   1.040
 6210SOL     OW19528   5.233   3.583   2.713
 6210SOL    HW119529   5.298   3.613   2.783
 6210SOL    HW219530   5.227   3.483   2.713
 6211SOL     OW19531   4.367   5.813   6.008
 6211SOL    HW119532   4.303   5.806   5.931
 6211SOL    HW219533   4.342   5.747   6.078
 6212SOL     OW19534   2.514   4.760   4.327
 6212SOL    HW119535   2.496   4.760   4.228
 6212SOL    HW219536   2.428   4.746   4.376
 6213SOL     OW19537   4.782   6.370   0.583
 6213SOL    HW119538   4.786   6.324   0.494
 6213SOL    HW219539   4.874   6.372   0.623
 6214SOL     OW19540   5.283   5.667   5.901
 6214SOL    HW119541   5.291   5.753   5.952
 6214SOL    HW219542   5.374   5.638   5.871
 6215SOL     OW19543   4.360   3.197   6.518
 6215SOL    HW119544   4.281   3.243   6.479
 6215SOL    HW219545   4.335   3.155   6.604
 6216SOL     OW19546   6.098   2.606   3.365
 6216SOL    HW119547   6.162   2.541   3.324
 6216SOL    HW219548   6.145   2.661   3.434
 6217SOL     OW19549   0.955   4.728   2.191
 6217SOL    HW119550   0.954   4.751   2.289
 6217SOL    HW219551   1.048   4.734   2.156
 6218SOL     OW19552   4.303   6.537   0.251
 6218SOL    HW119553   4.248   6.562   0.330
 6218SOL    HW219554   4.247   6.540   0.168
 6219SOL     OW19555   1.806   0.650   5.325
 6219SOL    HW119556   1.854   0.718   5.270
 6219SOL    HW219557   1.870   0.579   5.354
 6220SOL     OW19558   3.294   1.208   6.996
 6220SOL    HW119559   3.297   1.108   6.997
 6220SOL    HW219560   3.199   1.239   6.990
 6221SOL     OW19561   6.339   6.798   6.730
 6221SOL    HW119562   6.245   6.830   6.725
 6221SOL    HW219563   6.352   6.746   6.815
 6222SOL     OW19564   5.832   0.539   2.485
 6222SOL    HW119565   5.849   0.638   2.483
 6222SOL    HW219566   5.904   0.495   2.538
 6223SOL     OW19567   0.709   4.945   3.725
 6223SOL    HW119568   0.728   5.025   3.667
 6223SOL    HW219569   0.717   4.862   3.670
 6224SOL     OW19570   4.400   1.026   5.902
 6224SOL    HW119571   4.378   0.946   5.958
 6224SOL    HW219572   4.425   0.997   5.810
 6225SOL     OW19573   4.027   1.341   6.157
 6225SOL    HW119574   4.018   1.286   6.074
 6225SOL    HW219575   4.025   1.280   6.237
 6226SOL     OW19576   1.390   1.677   3.888
 6226SOL    HW119577   1.383   1.650   3.984
 6226SOL    HW219578   1.319   1.744   3.867
 6227SOL     OW19579   3.050   4.513   5.361
 6227SOL    HW119580   2.974   4.536   5.299
 6227SOL    HW219581   3.076   4.418   5.348
 6228SOL     OW19582   1.286   2.346   4.136
 6228SOL    HW119583   1.289   2.408   4.215
 6228SOL    HW219584   1.226   2.269   4.156
 6229SOL     OW19585   0.193   2.809   5.282
 6229SOL    HW119586   0.216   2.786   5.188
 6229SOL    HW219587   0.248   2.888   5.311
 6230SOL     OW19588   1.181   1.933   3.283
 6230SOL    HW119589   1.128   1.881   3.215
 6230SOL    HW219590   1.197   1.876   3.363
 6231SOL     OW19591   5.313   4.895   0.350
 6231SOL    HW119592   5.355   4.960   0.287
 6231SOL    HW219593   5.279   4.816   0.299
 6232SOL     OW19594   6.277   0.942   0.795
 6232SOL    HW119595   6.355   0.937   0.857
 6232SOL    HW219596   6.304   0.909   0.705
 6233SOL     OW19597   0.207   3.320   1.867
 6233SOL    HW119598   0.198   3.366   1.779
 6233SOL    HW219599   0.299   3.282   1.876
 6234SOL     OW19600   0.343   0.483   5.129
 6234SOL    HW119601   0.249   0.513   5.111
 6234SOL    HW219602   0.405   0.529   5.066
 6235SOL     OW19603   0.073   0.554   2.000
 6235SOL    HW119604   0.049   0.474   1.946
 6235SOL    HW219605   0.169   0.549   2.026
 6236SOL     OW19606   6.904   4.240   0.613
 6236SOL    HW119607   6.880   4.163   0.554
 6236SOL    HW219608   6.962   4.208   0.687
 6237SOL     OW19609   3.686   6.962   0.618
 6237SOL    HW119610   3.589   6.963   0.595
 6237SOL    HW219611   3.712   0.026   0.662
 6238SOL     OW19612   3.516   6.754   3.352
 6238SOL    HW119613   3.593   6.693   3.371
 6238SOL    HW219614   3.441   6.733   3.415
 6239SOL     OW19615   3.463   6.824   1.669
 6239SOL    HW119616   3.444   6.874   1.753
 6239SOL    HW219617   3.425   6.732   1.675
 6240SOL     OW19618   3.138   4.046   4.724
 6240SOL    HW119619   3.214   4.063   4.662
 6240SOL    HW219620   3.054   4.029   4.672
 6241SOL     OW19621   3.625   0.309   3.632
 6241SOL    HW119622   3.698   0.289   3.697
 6241SOL    HW219623   3.608   0.230   3.573
 6242SOL     OW19624   2.107   1.807   3.386
 6242SOL    HW119625   2.089   1.894   3.433
 6242SOL    HW219626   2.180   1.759   3.435
 6243SOL     OW19627   6.657   0.814   5.529
 6243SOL    HW119628   6.707   0.743   5.480
 6243SOL    HW219629   6.564   0.821   5.492
 6244SOL     OW19630   5.334   4.105   2.770
 6244SOL    HW119631   5.389   4.038   2.720
 6244SOL    HW219632   5.320   4.074   2.864
 6245SOL     OW19633   0.914   5.137   1.888
 6245SOL    HW119634   0.891   5.118   1.983
 6245SOL    HW219635   0.941   5.233   1.878
 6246SOL     OW19636   1.234   6.855   4.259
 6246SOL    HW119637   1.231   6.756   4.240
 6246SOL    HW219638   1.158   6.900   4.213
 6247SOL     OW19639   1.397   5.474   3.291
 6247SOL    HW119640   1.489   5.467   3.251
 6247SOL    HW219641   1.397   5.431   3.381
 6248SOL     OW19642   3.821   3.458   6.909
 6248SOL    HW119643   3.731   3.453   6.953
 6248SOL    HW219644   3.863   3.368   6.910
 6249SOL     OW19645   0.171   2.691   1.445
 6249SOL    HW119646   0.239   2.764   1.449
 6249SOL    HW219647   0.083   2.726   1.475
 6250SOL     OW19648   0.044   6.769   0.689
 6250SOL    HW119649   7.018   6.691   0.649
 6250SOL    HW219650   0.114   6.801   0.625
 6251SOL     OW19651   3.699   6.053   4.603
 6251SOL    HW119652   3.602   6.069   4.586
 6251SOL    HW219653   3.709   5.996   4.684
 6252SOL     OW19654   2.661   5.188   0.226
 6252SOL    HW119655   2.563   5.203   0.211
 6252SOL    HW219656   2.712   5.231   0.151
 6253SOL     OW19657   2.696   5.019   4.704
 6253SOL    HW119658   2.730   4.939   4.754
 6253SOL    HW219659   2.721   5.011   4.608
 6254SOL     OW19660   1.128   6.205   1.060
 6254SOL    HW119661   1.081   6.125   1.023
 6254SOL    HW219662   1.189   6.176   1.134
 6255SOL     OW19663   1.857   2.791   1.133
 6255SOL    HW119664   1.804   2.872   1.110
 6255SOL    HW219665   1.795   2.713   1.143
 6256SOL     OW19666   4.667   5.480   2.514
 6256SOL    HW119667   4.601   5.551   2.538
 6256SOL    HW219668   4.619   5.401   2.476
 6257SOL     OW19669   4.095   3.375   0.476
 6257SOL    HW119670   4.034   3.301   0.448
 6257SOL    HW219671   4.135   3.418   0.395
 6258SOL     OW19672   3.769   6.845   5.329
 6258SOL    HW119673   3.688   6.812   5.280
 6258SOL    HW219674   3.760   6.943   5.346
 6259SOL     OW19675   1.545   1.773   5.716
 6259SOL    HW119676   1.543   1.827   5.800
 6259SOL    HW219677   1.625   1.713   5.717
 6260SOL     OW19678   1.590   0.610   0.734
 6260SOL    HW119679   1.662   0.652   0.790
 6260SOL    HW219680   1.593   0.648   0.642
 6261SOL     OW19681   5.128   0.158   1.319
 6261SOL    HW119682   5.129   0.161   1.419
 6261SOL    HW219683   5.146   0.250   1.284
 6262SOL     OW19684   0.079   6.249   3.094
 6262SOL    HW119685   0.110   6.164   3.050
 6262SOL    HW219686   0.156   6.311   3.106
 6263SOL     OW19687   6.984   6.666   4.699
 6263SOL    HW119688   6.980   6.715   4.786
 6263SOL    HW219689   6.900   6.684   4.647
 6264SOL     OW19690   0.938   6.878   1.224
 6264SOL    HW119691   0.914   6.872   1.127
 6264SOL    HW219692   0.926   6.788   1.267
 6265SOL     OW19693   3.963   2.709   0.741
 6265SOL    HW119694   4.004   2.767   0.671
 6265SOL    HW219695   3.971   2.613   0.713
 6266SOL     OW19696   3.698   6.363   3.191
 6266SOL    HW119697   3.681   6.441   3.132
 6266SOL    HW219698   3.779   6.314   3.160
 6267SOL     OW19699   0.939   6.572   4.953
 6267SOL    HW119700   0.849   6.537   4.928
 6267SOL    HW219701   0.969   6.529   5.038
 6268SOL     OW19702   3.493   0.007   2.126
 6268SOL    HW119703   3.559   6.954   2.120
 6268SOL    HW219704   3.457   0.012   2.219
 6269SOL     OW19705   5.816   6.059   1.446
 6269SOL    HW119706   5.731   6.101   1.415
 6269SOL    HW219707   5.796   5.971   1.488
 6270SOL     OW19708   0.270   6.726   0.145
 6270SOL    HW119709   0.332   6.662   0.190
 6270SOL    HW219710   0.189   6.676   0.113
 6271SOL     OW19711   5.655   2.425   6.544
 6271SOL    HW119712   5.591   2.355   6.513
 6271SOL    HW219713   5.739   2.421   6.489
 6272SOL     OW19714   6.777   0.281   6.662
 6272SOL    HW119715   6.680   0.259   6.650
 6272SOL    HW219716   6.786   0.362   6.719
 6273SOL     OW19717   0.616   6.056   3.091
 6273SOL    HW119718   0.576   6.064   3.182
 6273SOL    HW219719   0.592   6.137   3.037
 6274SOL     OW19720   2.945   6.591   4.679
 6274SOL    HW119721   2.870   6.528   4.697
 6274SOL    HW219722   2.910   6.684   4.673
 6275SOL     OW19723   2.702   6.025   0.364
 6275SOL    HW119724   2.771   6.095   0.347
 6275SOL    HW219725   2.700   5.962   0.286
 6276SOL     OW19726   3.863   5.883   3.714
 6276SOL    HW119727   3.908   5.797   3.739
 6276SOL    HW219728   3.916   5.930   3.645
 6277SOL     OW19729   4.873   1.849   1.465
 6277SOL    HW119730   4.895   1.923   1.528
 6277SOL    HW219731   4.893   1.761   1.508
 6278SOL     OW19732   3.562   0.465   5.580
 6278SOL    HW119733   3.470   0.497   5.602
 6278SOL    HW219734   3.603   0.424   5.661
 6279SOL     OW19735   3.451   5.707   0.586
 6279SOL    HW119736   3.385   5.673   0.653
 6279SOL    HW219737   3.411   5.700   0.494
 6280SOL     OW19738   0.022   1.548   6.891
 6280SOL    HW119739   7.014   1.474   6.830
 6280SOL    HW219740   6.969   1.613   6.902
 6281SOL     OW19741   6.044   4.365   4.164
 6281SOL    HW119742   6.064   4.371   4.262
 6281SOL    HW219743   6.035   4.457   4.126
 6282SOL     OW19744   6.375   3.440   5.036
 6282SOL    HW119745   6.459   3.486   5.010
 6282SOL    HW219746   6.296   3.495   5.007
 6283SOL     OW19747   0.871   5.478   4.815
 6283SOL    HW119748   0.803   5.518   4.753
 6283SOL    HW219749   0.826   5.451   4.900
 6284SOL     OW19750   0.899   4.909   6.587
 6284SOL    HW119751   0.819   4.946   6.540
 6284SOL    HW219752   0.874   4.884   6.681
 6285SOL     OW19753   2.097   3.623   3.620
 6285SOL    HW119754   1.999   3.639   3.609
 6285SOL    HW219755   2.112   3.549   3.686
 6286SOL     OW19756   6.725   3.518   5.196
 6286SOL    HW119757   6.635   3.481   5.216
 6286SOL    HW219758   6.737   3.605   5.244
 6287SOL     OW19759   4.297   4.555   5.604
 6287SOL    HW119760   4.315   4.461   5.574
 6287SOL    HW219761   4.361   4.581   5.676
 6288SOL     OW19762   4.151   3.622   0.352
 6288SOL    HW119763   4.116   3.715   0.351
 6288SOL    HW219764   4.200   3.606   0.437
 6289SOL     OW19765   2.574   4.160   0.151
 6289SOL    HW119766   2.559   4.109   0.067
 6289SOL    HW219767   2.581   4.258   0.130
 6290SOL     OW19768   6.460   5.424   6.837
 6290SOL    HW119769   6.508   5.436   6.924
 6290SOL    HW219770   6.523   5.389   6.768
 6291SOL     OW19771   3.490   3.106   3.048
 6291SOL    HW119772   3.587   3.083   3.035
 6291SOL    HW219773   3.474   3.127   3.144
 6292SOL     OW19774   1.628   2.536   4.929
 6292SOL    HW119775   1.623   2.486   4.842
 6292SOL    HW219776   1.720   2.573   4.941
 6293SOL     OW19777   4.698   1.697   0.601
 6293SOL    HW119778   4.698   1.607   0.644
 6293SOL    HW219779   4.605   1.733   0.598
 6294SOL     OW19780   3.526   0.423   3.267
 6294SOL    HW119781   3.582   0.505   3.261
 6294SOL    HW219782   3.447   0.432   3.207
 6295SOL     OW19783   5.095   4.910   4.623
 6295SOL    HW119784   5.006   4.867   4.639
 6295SOL    HW219785   5.153   4.896   4.703
 6296SOL     OW19786   0.690   3.980   6.232
 6296SOL    HW119787   0.776   4.015   6.194
 6296SOL    HW219788   0.652   3.910   6.171
 6297SOL     OW19789   6.257   0.330   5.141
 6297SOL    HW119790   6.322   0.405   5.126
 6297SOL    HW219791   6.228   0.330   5.237
 6298SOL     OW19792   5.881   4.541   6.838
 6298SOL    HW119793   5.889   4.624   6.893
 6298SOL    HW219794   5.850   4.466   6.895
 6299SOL     OW19795   5.429   2.326   2.543
 6299SOL    HW119796   5.409   2.350   2.448
 6299SOL    HW219797   5.376   2.246   2.569
 6300SOL     OW19798   4.275   1.004   6.193
 6300SOL    HW119799   4.276   1.104   6.190
 6300SOL    HW219800   4.241   0.974   6.283
 6301SOL     OW19801   3.204   6.710   6.658
 6301SOL    HW119802   3.241   6.801   6.638
 6301SOL    HW219803   3.213   6.652   6.577
 6302SOL     OW19804   2.212   1.929   5.208
 6302SOL    HW119805   2.296   1.921   5.154
 6302SOL    HW219806   2.177   1.838   5.228
 6303SOL     OW19807   1.057   6.637   5.710
 6303SOL    HW119808   1.132   6.690   5.671
 6303SOL    HW219809   1.091   6.583   5.787
 6304SOL     OW19810   4.228   1.657   3.573
 6304SOL    HW119811   4.175   1.630   3.492
 6304SOL    HW219812   4.176   1.636   3.655
 6305SOL     OW19813   6.329   6.030   6.568
 6305SOL    HW119814   6.273   6.112   6.560
 6305SOL    HW219815   6.307   5.967   6.493
 6306SOL     OW19816   0.266   3.526   3.637
 6306SOL    HW119817   0.209   3.562   3.710
 6306SOL    HW219818   0.219   3.451   3.590
 6307SOL     OW19819   3.820   3.686   4.054
 6307SOL    HW119820   3.786   3.609   3.999
 6307SOL    HW219821   3.859   3.755   3.993
 6308SOL     OW19822   0.397   1.974   5.725
 6308SOL    HW119823   0.424   1.934   5.637
 6308SOL    HW219824   0.358   2.064   5.710
 6309SOL     OW19825   0.327   6.495   4.034
 6309SOL    HW119826   0.329   6.400   4.002
 6309SOL    HW219827   0.419   6.524   4.059
 6310SOL     OW19828   1.690   6.956   3.176
 6310SOL    HW119829   1.649   6.959   3.085
 6310SOL    HW219830   1.760   6.884   3.179
 6311SOL     OW19831   5.164   0.697   6.761
 6311SOL    HW119832   5.155   0.686   6.662
 6311SOL    HW219833   5.077   0.677   6.805
 6312SOL     OW19834   2.719   6.951   6.406
 6312SOL    HW119835   2.746   6.963   6.502
 6312SOL    HW219836   2.790   6.902   6.357
 6313SOL     OW19837   5.679   6.665   3.518
 6313SOL    HW119838   5.777   6.667   3.494
 6313SOL    HW219839   5.652   6.754   3.552
 6314SOL     OW19840   3.247   7.000   1.223
 6314SOL    HW119841   3.200   0.033   1.292
 6314SOL    HW219842   3.312   6.938   1.266
 6315SOL     OW19843   1.858   2.654   4.925
 6315SOL    HW119844   1.944   2.657   4.873
 6315SOL    HW219845   1.848   2.739   4.976
 6316SOL     OW19846   4.907   2.132   5.796
 6316SOL    HW119847   4.907   2.045   5.747
 6316SOL    HW219848   4.860   2.201   5.741
 6317SOL     OW19849   5.417   4.386   2.860
 6317SOL    HW119850   5.389   4.473   2.818
 6317SOL    HW219851   5.384   4.310   2.804
 6318SOL     OW19852   6.286   0.499   6.804
 6318SOL    HW119853   6.217   0.447   6.853
 6318SOL    HW219854   6.323   0.571   6.863
 6319SOL     OW19855   5.681   2.391   4.673
 6319SOL    HW119856   5.765   2.444   4.666
 6319SOL    HW219857   5.627   2.400   4.589
 6320SOL     OW19858   0.053   0.316   3.715
 6320SOL    HW119859   6.989   0.272   3.689
 6320SOL    HW219860   0.046   0.415   3.700
 6321SOL     OW19861   5.449   3.283   0.588
 6321SOL    HW119862   5.469   3.293   0.491
 6321SOL    HW219863   5.520   3.227   0.631
 6322SOL     OW19864   2.705   2.019   0.649
 6322SOL    HW119865   2.666   2.102   0.688
 6322SOL    HW219866   2.687   2.018   0.550
 6323SOL     OW19867   2.428   3.465   1.242
 6323SOL    HW119868   2.331   3.449   1.258
 6323SOL    HW219869   2.439   3.514   1.155
 6324SOL     OW19870   4.508   1.249   0.689
 6324SOL    HW119871   4.545   1.190   0.617
 6324SOL    HW219872   4.472   1.192   0.763
 6325SOL     OW19873   1.969   2.867   2.340
 6325SOL    HW119874   2.018   2.949   2.368
 6325SOL    HW219875   2.011   2.830   2.257
 6326SOL     OW19876   4.714   4.844   5.576
 6326SOL    HW119877   4.769   4.922   5.606
 6326SOL    HW219878   4.617   4.865   5.587
 6327SOL     OW19879   0.514   1.695   3.060
 6327SOL    HW119880   0.450   1.734   2.994
 6327SOL    HW219881   0.515   1.595   3.052
 6328SOL     OW19882   5.160   4.257   6.697
 6328SOL    HW119883   5.177   4.181   6.760
 6328SOL    HW219884   5.137   4.339   6.750
 6329SOL     OW19885   1.253   2.928   4.678
 6329SOL    HW119886   1.244   2.867   4.599
 6329SOL    HW219887   1.322   2.891   4.740
 6330SOL     OW19888   5.695   0.694   3.222
 6330SOL    HW119889   5.688   0.656   3.130
 6330SOL    HW219890   5.613   0.748   3.242
 6331SOL     OW19891   6.296   3.047   4.956
 6331SOL    HW119892   6.254   2.996   4.881
 6331SOL    HW219893   6.393   3.060   4.936
 6332SOL     OW19894   1.575   2.022   1.730
 6332SOL    HW119895   1.663   2.066   1.715
 6332SOL    HW219896   1.588   1.935   1.777
 6333SOL     OW19897   4.631   6.923   0.146
 6333SOL    HW119898   4.694   6.973   0.206
 6333SOL    HW219899   4.679   6.847   0.104
 6334SOL     OW19900   2.390   1.601   2.055
 6334SOL    HW119901   2.316   1.630   1.995
 6334SOL    HW219902   2.475   1.591   2.003
 6335SOL     OW19903   4.985   1.068   0.868
 6335SOL    HW119904   5.029   1.128   0.801
 6335SOL    HW219905   4.960   1.122   0.949
 6336SOL     OW19906   0.128   5.024   6.509
 6336SOL    HW119907   0.135   4.924   6.518
 6336SOL    HW219908   0.032   5.052   6.520
 6337SOL     OW19909   4.165   5.378   5.042
 6337SOL    HW119910   4.204   5.437   4.971
 6337SOL    HW219911   4.192   5.413   5.132
 6338SOL     OW19912   3.250   1.844   4.586
 6338SOL    HW119913   3.307   1.904   4.642
 6338SOL    HW219914   3.297   1.826   4.499
 6339SOL     OW19915   0.796   3.323   2.828
 6339SOL    HW119916   0.809   3.348   2.732
 6339SOL    HW219917   0.723   3.254   2.834
 6340SOL     OW19918   2.616   4.018   1.490
 6340SOL    HW119919   2.544   4.060   1.544
 6340SOL    HW219920   2.582   3.995   1.399
 6341SOL     OW19921   0.550   3.204   3.548
 6341SOL    HW119922   0.558   3.294   3.505
 6341SOL    HW219923   0.472   3.155   3.509
 6342SOL     OW19924   3.175   1.182   1.559
 6342SOL    HW119925   3.104   1.245   1.592
 6342SOL    HW219926   3.235   1.157   1.635
 6343SOL     OW19927   3.403   6.777   6.953
 6343SOL    HW119928   3.474   6.837   6.917
 6343SOL    HW219929   3.394   6.696   6.895
 6344SOL     OW19930   6.254   2.385   3.725
 6344SOL    HW119931   6.237   2.335   3.640
 6344SOL    HW219932   6.269   2.320   3.799
 6345SOL     OW19933   4.859   3.285   1.403
 6345SOL    HW119934   4.880   3.257   1.497
 6345SOL    HW219935   4.902   3.221   1.339
 6346SOL     OW19936   6.873   4.163   5.244
 6346SOL    HW119937   6.962   4.193   5.279
 6346SOL    HW219938   6.872   4.064   5.235
 6347SOL     OW19939   2.713   2.277   2.188
 6347SOL    HW119940   2.666   2.191   2.167
 6347SOL    HW219941   2.781   2.296   2.116
 6348SOL     OW19942   0.680   1.857   5.824
 6348SOL    HW119943   0.743   1.784   5.798
 6348SOL    HW219944   0.725   1.945   5.812
 6349SOL     OW19945   1.428   0.251   0.007
 6349SOL    HW119946   1.346   0.307   7.021
 6349SOL    HW219947   1.415   0.166   6.979
 6350SOL     OW19948   0.667   5.183   2.746
 6350SOL    HW119949   0.594   5.203   2.812
 6350SOL    HW219950   0.707   5.269   2.714
 6351SOL     OW19951   6.049   4.658   3.814
 6351SOL    HW119952   6.061   4.739   3.757
 6351SOL    HW219953   6.096   4.580   3.773
 6352SOL     OW19954   3.056   0.968   3.895
 6352SOL    HW119955   3.011   0.954   3.807
 6352SOL    HW219956   3.111   0.888   3.917
 6353SOL     OW19957   2.279   5.050   0.209
 6353SOL    HW119958   2.312   4.959   0.234
 6353SOL    HW219959   2.249   5.048   0.113
 6354SOL     OW19960   4.532   5.347   3.013
 6354SOL    HW119961   4.598   5.314   2.945
 6354SOL    HW219962   4.447   5.372   2.967
 6355SOL     OW19963   3.257   5.625   0.732
 6355SOL    HW119964   3.216   5.689   0.797
 6355SOL    HW219965   3.202   5.541   0.730
 6356SOL     OW19966   5.222   4.771   0.102
 6356SOL    HW119967   5.130   4.739   0.082
 6356SOL    HW219968   5.220   4.869   0.120
 6357SOL     OW19969   5.851   2.592   1.326
 6357SOL    HW119970   5.906   2.511   1.308
 6357SOL    HW219971   5.780   2.570   1.393
 6358SOL     OW19972   1.046   1.703   6.998
 6358SOL    HW119973   0.956   1.688   6.958
 6358SOL    HW219974   1.040   1.697   0.076
 6359SOL     OW19975   6.222   6.902   0.482
 6359SOL    HW119976   6.267   6.936   0.399
 6359SOL    HW219977   6.288   6.901   0.557
 6360SOL     OW19978   0.105   2.807   3.759
 6360SOL    HW119979   0.191   2.845   3.726
 6360SOL    HW219980   0.108   2.799   3.859
 6361SOL     OW19981   0.315   0.445   0.213
 6361SOL    HW119982   0.291   0.357   0.174
 6361SOL    HW219983   0.253   0.515   0.178
 6362SOL     OW19984   1.257   6.238   6.589
 6362SOL    HW119985   1.354   6.215   6.595
 6362SOL    HW219986   1.245   6.319   6.532
 6363SOL     OW19987   2.683   5.165   3.756
 6363SOL    HW119988   2.774   5.206   3.740
 6363SOL    HW219989   2.671   5.150   3.854
 6364SOL     OW19990   2.098   2.558   4.764
 6364SOL    HW119991   2.174   2.614   4.797
 6364SOL    HW219992   2.097   2.471   4.814
 6365SOL     OW19993   6.051   5.293   5.328
 6365SOL    HW119994   5.973   5.233   5.316
 6365SOL    HW219995   6.036   5.379   5.279
 6366SOL     OW19996   6.480   6.559   4.679
 6366SOL    HW119997   6.577   6.587   4.679
 6366SOL    HW219998   6.426   6.630   4.724
 6367SOL     OW19999   2.910   2.062   2.902
 6367SOL    HW120000   2.883   2.091   2.994
 6367SOL    HW220001   3.004   2.089   2.885
 6368SOL     OW20002   4.507   4.480   4.195
 6368SOL    HW120003   4.604   4.463   4.211
 6368SOL    HW220004   4.464   4.510   4.280
 6369SOL     OW20005   2.286   6.261   5.730
 6369SOL    HW120006   2.215   6.220   5.786
 6369SOL    HW220007   2.359   6.195   5.714
 6370SOL     OW20008   4.874   3.716   3.265
 6370SOL    HW120009   4.927   3.758   3.192
 6370SOL    HW220010   4.863   3.618   3.247
 6371SOL     OW20011   5.450   3.519   1.763
 6371SOL    HW120012   5.508   3.524   1.682
 6371SOL    HW220013   5.483   3.585   1.831
 6372SOL     OW20014   0.530   1.090   2.987
 6372SOL    HW120015   0.514   1.189   2.992
 6372SOL    HW220016   0.628   1.072   2.992
 6373SOL     OW20017   5.761   4.067   1.696
 6373SOL    HW120018   5.801   4.067   1.788
 6373SOL    HW220019   5.662   4.054   1.704
 6374SOL     OW20020   4.485   3.046   0.163
 6374SOL    HW120021   4.441   3.124   0.207
 6374SOL    HW220022   4.448   2.961   0.202
 6375SOL     OW20023   1.123   2.771   2.171
 6375SOL    HW120024   1.180   2.779   2.089
 6375SOL    HW220025   1.047   2.708   2.154
 6376SOL     OW20026   4.443   1.392   5.744
 6376SOL    HW120027   4.503   1.472   5.754
 6376SOL    HW220028   4.387   1.382   5.826
 6377SOL     OW20029   6.975   0.786   5.890
 6377SOL    HW120030   6.977   0.769   5.988
 6377SOL    HW220031   7.018   0.874   5.871
 6378SOL     OW20032   4.947   6.089   3.144
 6378SOL    HW120033   4.860   6.045   3.126
 6378SOL    HW220034   5.007   6.079   3.065
 6379SOL     OW20035   1.588   4.788   5.288
 6379SOL    HW120036   1.577   4.717   5.357
 6379SOL    HW220037   1.527   4.768   5.211
 6380SOL     OW20038   0.917   2.749   4.722
 6380SOL    HW120039   0.936   2.813   4.648
 6380SOL    HW220040   1.003   2.723   4.767
 6381SOL     OW20041   4.016   2.850   0.500
 6381SOL    HW120042   4.072   2.914   0.447
 6381SOL    HW220043   3.920   2.875   0.493
 6382SOL     OW20044   2.735   1.781   1.633
 6382SOL    HW120045   2.712   1.875   1.659
 6382SOL    HW220046   2.718   1.768   1.535
 6383SOL     OW20047   1.694   2.798   2.416
 6383SOL    HW120048   1.660   2.890   2.436
 6383SOL    HW220049   1.791   2.802   2.393
 6384SOL     OW20050   5.828   2.175   2.273
 6384SOL    HW120051   5.869   2.219   2.194
 6384SOL    HW220052   5.788   2.244   2.334
 6385SOL     OW20053   6.834   3.894   1.209
 6385SOL    HW120054   6.755   3.954   1.226
 6385SOL    HW220055   6.917   3.950   1.205
 6386SOL     OW20056   1.858   4.061   0.347
 6386SOL    HW120057   1.920   4.024   0.416
 6386SOL    HW220058   1.782   4.109   0.393
 6387SOL     OW20059   6.114   1.392   0.442
 6387SOL    HW120060   6.070   1.391   0.352
 6387SOL    HW220061   6.047   1.415   0.512
 6388SOL     OW20062   6.682   4.722   2.797
 6388SOL    HW120063   6.629   4.777   2.733
 6388SOL    HW220064   6.651   4.627   2.794
 6389SOL     OW20065   1.704   6.750   0.407
 6389SOL    HW120066   1.675   6.835   0.362
 6389SOL    HW220067   1.659   6.673   0.363
 6390SOL     OW20068   6.731   0.519   0.038
 6390SOL    HW120069   6.708   0.610   0.005
 6390SOL    HW220070   6.751   0.524   0.136
 6391SOL     OW20071   1.242   1.551   5.735
 6391SOL    HW120072   1.335   1.518   5.717
 6391SOL    HW220073   1.190   1.479   5.781
 6392SOL     OW20074   3.464   5.778   3.808
 6392SOL    HW120075   3.454   5.871   3.773
 6392SOL    HW220076   3.500   5.781   3.901
 6393SOL     OW20077   5.578   6.673   2.077
 6393SOL    HW120078   5.480   6.676   2.098
 6393SOL    HW220079   5.600   6.743   2.009
 6394SOL     OW20080   1.113   4.696   0.997
 6394SOL    HW120081   1.021   4.724   0.969
 6394SOL    HW220082   1.108   4.616   1.057
 6395SOL     OW20083   0.046   4.042   2.560
 6395SOL    HW120084   0.075   4.005   2.648
 6395SOL    HW220085   0.006   3.969   2.505
 6396SOL     OW20086   6.759   3.380   6.363
 6396SOL    HW120087   6.701   3.362   6.442
 6396SOL    HW220088   6.711   3.350   6.280
 6397SOL     OW20089   6.453   1.200   2.822
 6397SOL    HW120090   6.485   1.105   2.817
 6397SOL    HW220091   6.366   1.208   2.773
 6398SOL     OW20092   1.634   6.508   1.287
 6398SOL    HW120093   1.607   6.419   1.250
 6398SOL    HW220094   1.554   6.567   1.291
 6399SOL     OW20095   1.748   0.027   6.734
 6399SOL    HW120096   1.716   6.964   6.777
 6399SOL    HW220097   1.819   0.005   6.667
 6400SOL     OW20098   1.988   5.724   2.915
 6400SOL    HW120099   1.940   5.810   2.898
 6400SOL    HW220100   1.999   5.675   2.829
 6401SOL     OW20101   4.420   4.543   3.147
 6401SOL    HW120102   4.433   4.466   3.084
 6401SOL    HW220103   4.488   4.539   3.220
 6402SOL     OW20104   1.113   3.274   3.229
 6402SOL    HW120105   1.073   3.233   3.311
 6402SOL    HW220106   1.182   3.212   3.191
 6403SOL     OW20107   5.738   6.105   4.987
 6403SOL    HW120108   5.751   6.204   4.994
 6403SOL    HW220109   5.662   6.086   4.925
 6404SOL     OW20110   3.595   1.159   2.830
 6404SOL    HW120111   3.662   1.091   2.801
 6404SOL    HW220112   3.629   1.251   2.811
 6405SOL     OW20113   4.853   1.672   3.819
 6405SOL    HW120114   4.846   1.721   3.732
 6405SOL    HW220115   4.941   1.690   3.861
 6406SOL     OW20116   1.205   2.862   2.436
 6406SOL    HW120117   1.171   2.841   2.344
 6406SOL    HW220118   1.287   2.808   2.454
 6407SOL     OW20119   1.897   6.494   3.340
 6407SOL    HW120120   1.960   6.510   3.416
 6407SOL    HW220121   1.946   6.504   3.253
 6408SOL     OW20122   6.877   0.695   1.348
 6408SOL    HW120123   6.826   0.779   1.331
 6408SOL    HW220124   6.882   0.642   1.264
 6409SOL     OW20125   6.100   5.051   3.938
 6409SOL    HW120126   6.024   5.037   4.002
 6409SOL    HW220127   6.187   5.045   3.987
 6410SOL     OW20128   2.342   1.594   5.854
 6410SOL    HW120129   2.440   1.614   5.851
 6410SOL    HW220130   2.328   1.495   5.862
 6411SOL     OW20131   0.124   3.021   1.722
 6411SOL    HW120132   0.066   3.096   1.752
 6411SOL    HW220133   0.069   2.953   1.673
 6412SOL     OW20134   3.240   1.018   6.637
 6412SOL    HW120135   3.200   1.105   6.664
 6412SOL    HW220136   3.170   0.946   6.638
 6413SOL     OW20137   4.114   5.004   4.518
 6413SOL    HW120138   4.119   4.939   4.594
 6413SOL    HW220139   4.119   4.954   4.431
 6414SOL     OW20140   0.560   6.367   6.377
 6414SOL    HW120141   0.589   6.364   6.281
 6414SOL    HW220142   0.475   6.419   6.384
 6415SOL     OW20143   1.222   3.450   2.973
 6415SOL    HW120144   1.208   3.528   3.034
 6415SOL    HW220145   1.197   3.366   3.020
 6416SOL     OW20146   3.013   0.021   6.609
 6416SOL    HW120147   3.069   6.994   6.675
 6416SOL    HW220148   2.917   0.016   6.636
 6417SOL     OW20149   5.335   2.154   1.237
 6417SOL    HW120150   5.375   2.239   1.273
 6417SOL    HW220151   5.386   2.076   1.273
 6418SOL     OW20152   4.891   4.493   2.206
 6418SOL    HW120153   4.825   4.419   2.194
 6418SOL    HW220154   4.975   4.457   2.247
 6419SOL     OW20155   0.724   6.792   5.688
 6419SOL    HW120156   0.634   6.819   5.654
 6419SOL    HW220157   0.754   6.859   5.757
 6420SOL     OW20158   1.305   2.628   3.867
 6420SOL    HW120159   1.313   2.632   3.967
 6420SOL    HW220160   1.332   2.538   3.835
 6421SOL     OW20161   5.740   0.279   1.028
 6421SOL    HW120162   5.771   0.248   0.938
 6421SOL    HW220163   5.643   0.302   1.023
 6422SOL     OW20164   7.012   1.871   5.795
 6422SOL    HW120165   0.064   1.811   5.762
 6422SOL    HW220166   6.962   1.908   5.717
 6423SOL     OW20167   3.388   5.846   4.533
 6423SOL    HW120168   3.323   5.858   4.608
 6423SOL    HW220169   3.420   5.935   4.502
 6424SOL     OW20170   0.687   3.291   4.864
 6424SOL    HW120171   0.681   3.312   4.961
 6424SOL    HW220172   0.719   3.197   4.851
 6425SOL     OW20173   0.011   5.389   2.890
 6425SOL    HW120174   0.110   5.400   2.901
 6425SOL    HW220175   6.997   5.464   2.835
 6426SOL     OW20176   5.294   4.966   4.208
 6426SOL    HW120177   5.287   5.016   4.294
 6426SOL    HW220178   5.357   5.014   4.146
 6427SOL     OW20179   3.174   4.054   2.811
 6427SOL    HW120180   3.167   4.010   2.722
 6427SOL    HW220181   3.209   4.147   2.799
 6428SOL     OW20182   5.407   2.478   0.390
 6428SOL    HW120183   5.400   2.475   0.490
 6428SOL    HW220184   5.488   2.529   0.364
 6429SOL     OW20185   1.619   0.480   5.453
 6429SOL    HW120186   1.669   0.537   5.388
 6429SOL    HW220187   1.521   0.487   5.433
 6430SOL     OW20188   6.901   0.544   5.664
 6430SOL    HW120189   6.942   0.472   5.721
 6430SOL    HW220190   6.950   0.630   5.677
 6431SOL     OW20191   4.522   5.130   3.152
 6431SOL    HW120192   4.593   5.063   3.133
 6431SOL    HW220193   4.535   5.211   3.094
 6432SOL     OW20194   3.504   3.895   6.149
 6432SOL    HW120195   3.586   3.841   6.167
 6432SOL    HW220196   3.445   3.893   6.229
 6433SOL     OW20197   2.969   5.548   0.032
 6433SOL    HW120198   3.038   5.478   0.052
 6433SOL    HW220199   2.887   5.530   0.086
 6434SOL     OW20200   2.845   6.520   6.298
 6434SOL    HW120201   2.782   6.473   6.236
 6434SOL    HW220202   2.867   6.610   6.261
 6435SOL     OW20203   5.966   6.869   0.584
 6435SOL    HW120204   6.059   6.866   0.546
 6435SOL    HW220205   5.902   6.898   0.514
 6436SOL     OW20206   0.612   3.022   3.780
 6436SOL    HW120207   0.613   3.081   3.700
 6436SOL    HW220208   0.705   3.013   3.816
 6437SOL     OW20209   0.591   1.750   5.160
 6437SOL    HW120210   0.503   1.792   5.181
 6437SOL    HW220211   0.641   1.731   5.244
 6438SOL     OW20212   1.065   5.413   6.475
 6438SOL    HW120213   1.071   5.346   6.401
 6438SOL    HW220214   1.143   5.476   6.469
 6439SOL     OW20215   6.406   0.927   3.494
 6439SOL    HW120216   6.356   0.996   3.546
 6439SOL    HW220217   6.448   0.971   3.414
 6440SOL     OW20218   2.204   0.938   6.839
 6440SOL    HW120219   2.294   0.905   6.811
 6440SOL    HW220220   2.210   0.974   6.932
 6441SOL     OW20221   0.133   1.076   3.109
 6441SOL    HW120222   0.178   1.108   3.193
 6441SOL    HW220223   0.100   1.155   3.057
 6442SOL     OW20224   2.477   2.256   4.810
 6442SOL    HW120225   2.530   2.334   4.843
 6442SOL    HW220226   2.512   2.172   4.853
 6443SOL     OW20227   3.819   2.030   6.381
 6443SOL    HW120228   3.732   1.984   6.395
 6443SOL    HW220229   3.892   1.962   6.370
 6444SOL     OW20230   0.609   2.357   4.948
 6444SOL    HW120231   0.621   2.262   4.977
 6444SOL    HW220232   0.554   2.406   5.016
 6445SOL     OW20233   3.517   3.718   3.034
 6445SOL    HW120234   3.440   3.660   3.063
 6445SOL    HW220235   3.567   3.672   2.960
 6446SOL     OW20236   1.468   1.786   6.817
 6446SOL    HW120237   1.537   1.851   6.848
 6446SOL    HW220238   1.428   1.819   6.731
 6447SOL     OW20239   0.070   4.187   1.536
 6447SOL    HW120240   0.055   4.155   1.630
 6447SOL    HW220241   0.166   4.214   1.526
 6448SOL     OW20242   5.097   5.142   1.476
 6448SOL    HW120243   5.136   5.133   1.568
 6448SOL    HW220244   5.014   5.198   1.480
 6449SOL     OW20245   1.896   5.627   1.288
 6449SOL    HW120246   1.866   5.572   1.210
 6449SOL    HW220247   1.875   5.579   1.373
 6450SOL     OW20248   0.539   4.495   0.638
 6450SOL    HW120249   0.638   4.509   0.642
 6450SOL    HW220250   0.517   4.400   0.658
 6451SOL     OW20251   3.382   1.824   6.906
 6451SOL    HW120252   3.480   1.804   6.909
 6451SOL    HW220253   3.357   1.857   6.815
 6452SOL     OW20254   5.139   3.660   2.456
 6452SOL    HW120255   5.048   3.699   2.472
 6452SOL    HW220256   5.180   3.635   2.544
 6453SOL     OW20257   3.505   6.808   0.862
 6453SOL    HW120258   3.437   6.824   0.790
 6453SOL    HW220259   3.498   6.881   0.930
 6454SOL     OW20260   0.019   1.594   2.758
 6454SOL    HW120261   0.011   1.619   2.661
 6454SOL    HW220262   0.061   1.504   2.767
 6455SOL     OW20263   6.613   4.139   3.229
 6455SOL    HW120264   6.541   4.138   3.299
 6455SOL    HW220265   6.642   4.233   3.213
 6456SOL     OW20266   0.725   0.465   2.726
 6456SOL    HW120267   0.637   0.439   2.766
 6456SOL    HW220268   0.798   0.416   2.773
 6457SOL     OW20269   4.800   7.000   1.933
 6457SOL    HW120270   4.737   0.050   1.904
 6457SOL    HW220271   4.888   7.012   1.887
 6458SOL     OW20272   1.093   5.339   4.313
 6458SOL    HW120273   1.036   5.296   4.244
 6458SOL    HW220274   1.189   5.328   4.288
 6459SOL     OW20275   6.273   2.531   3.024
 6459SOL    HW120276   6.353   2.581   3.059
 6459SOL    HW220277   6.292   2.498   2.932
 6460SOL     OW20278   6.502   5.500   5.719
 6460SOL    HW120279   6.542   5.409   5.706
 6460SOL    HW220280   6.484   5.541   5.630
 6461SOL     OW20281   3.782   4.456   0.222
 6461SOL    HW120282   3.772   4.550   0.254
 6461SOL    HW220283   3.783   4.455   0.122
 6462SOL     OW20284   1.403   3.555   4.231
 6462SOL    HW120285   1.360   3.615   4.297
 6462SOL    HW220286   1.368   3.575   4.139
 6463SOL     OW20287   5.630   0.096   0.675
 6463SOL    HW120288   5.600   0.112   0.581
 6463SOL    HW220289   5.699   0.163   0.700
 6464SOL     OW20290   0.893   6.076   4.771
 6464SOL    HW120291   0.960   6.012   4.811
 6464SOL    HW220292   0.882   6.155   4.832
 6465SOL     OW20293   5.747   2.402   2.095
 6465SOL    HW120294   5.663   2.421   2.044
 6465SOL    HW220295   5.825   2.412   2.034
 6466SOL     OW20296   0.122   3.063   6.423
 6466SOL    HW120297   0.140   3.104   6.512
 6466SOL    HW220298   0.133   2.964   6.428
 6467SOL     OW20299   4.148   1.076   1.069
 6467SOL    HW120300   4.101   1.140   1.009
 6467SOL    HW220301   4.227   1.122   1.111
 6468SOL     OW20302   3.726   6.442   1.010
 6468SOL    HW120303   3.815   6.457   1.053
 6468SOL    HW220304   3.708   6.515   0.944
 6469SOL     OW20305   2.891   2.253   4.122
 6469SOL    HW120306   2.960   2.183   4.138
 6469SOL    HW220307   2.818   2.216   4.065
 6470SOL     OW20308   5.950   2.130   0.793
 6470SOL    HW120309   6.022   2.070   0.759
 6470SOL    HW220310   5.862   2.101   0.756
 6471SOL     OW20311   0.622   6.548   4.544
 6471SOL    HW120312   0.719   6.541   4.519
 6471SOL    HW220313   0.566   6.527   4.464
 6472SOL     OW20314   6.709   6.277   2.572
 6472SOL    HW120315   6.706   6.279   2.472
 6472SOL    HW220316   6.803   6.268   2.603
 6473SOL     OW20317   1.825   1.519   4.645
 6473SOL    HW120318   1.871   1.606   4.660
 6473SOL    HW220319   1.846   1.456   4.720
 6474SOL     OW20320   4.041   5.122   5.606
 6474SOL    HW120321   4.031   5.080   5.515
 6474SOL    HW220322   4.005   5.215   5.603
 6475SOL     OW20323   5.289   5.042   3.258
 6475SOL    HW120324   5.335   5.021   3.345
 6475SOL    HW220325   5.219   5.112   3.274
 6476SOL     OW20326   3.281   2.355   6.494
 6476SOL    HW120327   3.356   2.315   6.441
 6476SOL    HW220328   3.317   2.431   6.550
 6477SOL     OW20329   6.485   5.339   0.727
 6477SOL    HW120330   6.440   5.282   0.659
 6477SOL    HW220331   6.419   5.405   0.764
 6478SOL     OW20332   2.581   5.739   1.487
 6478SOL    HW120333   2.616   5.774   1.400
 6478SOL    HW220334   2.554   5.815   1.545
 6479SOL     OW20335   2.992   5.409   4.537
 6479SOL    HW120336   3.033   5.333   4.588
 6479SOL    HW220337   3.048   5.491   4.551
 6480SOL     OW20338   2.186   1.473   0.175
 6480SOL    HW120339   2.095   1.443   0.206
 6480SOL    HW220340   2.209   1.559   0.221
 6481SOL     OW20341   3.325   2.580   1.737
 6481SOL    HW120342   3.244   2.636   1.752
 6481SOL    HW220343   3.404   2.624   1.780
 6482SOL     OW20344   6.767   2.514   5.638
 6482SOL    HW120345   6.827   2.457   5.581
 6482SOL    HW220346   6.802   2.608   5.638
 6483SOL     OW20347   1.102   5.943   4.049
 6483SOL    HW120348   1.038   6.018   4.037
 6483SOL    HW220349   1.064   5.875   4.111
 6484SOL     OW20350   2.846   1.618   2.501
 6484SOL    HW120351   2.904   1.566   2.564
 6484SOL    HW220352   2.901   1.686   2.453
 6485SOL     OW20353   2.173   6.053   4.728
 6485SOL    HW120354   2.262   6.069   4.685
 6485SOL    HW220355   2.142   5.960   4.707
 6486SOL     OW20356   1.098   4.615   2.982
 6486SOL    HW120357   1.007   4.618   2.941
 6486SOL    HW220358   1.090   4.620   3.081
 6487SOL     OW20359   0.996   5.768   4.271
 6487SOL    HW120360   1.058   5.707   4.321
 6487SOL    HW220361   0.987   5.854   4.321
 6488SOL     OW20362   4.481   5.940   5.014
 6488SOL    HW120363   4.470   5.943   4.915
 6488SOL    HW220364   4.470   5.846   5.046
 6489SOL     OW20365   3.492   2.738   5.961
 6489SOL    HW120366   3.419   2.669   5.973
 6489SOL    HW220367   3.546   2.716   5.880
 6490SOL     OW20368   2.484   1.433   6.125
 6490SOL    HW120369   2.568   1.395   6.089
 6490SOL    HW220370   2.492   1.533   6.132
 6491SOL     OW20371   2.279   0.558   1.318
 6491SOL    HW120372   2.379   0.557   1.326
 6491SOL    HW220373   2.239   0.493   1.383
 6492SOL     OW20374   3.838   3.920   4.283
 6492SOL    HW120375   3.857   3.965   4.195
 6492SOL    HW220376   3.883   3.972   4.357
 6493SOL     OW20377   1.487   4.760   6.474
 6493SOL    HW120378   1.523   4.676   6.514
 6493SOL    HW220379   1.558   4.803   6.418
 6494SOL     OW20380   6.095   6.152   2.674
 6494SOL    HW120381   6.012   6.097   2.683
 6494SOL    HW220382   6.072   6.249   2.678
 6495SOL     OW20383   6.527   6.949   4.761
 6495SOL    HW120384   6.496   0.021   4.741
 6495SOL    HW220385   6.612   6.953   4.814
 6496SOL     OW20386   5.047   6.624   1.330
 6496SOL    HW120387   5.061   6.716   1.294
 6496SOL    HW220388   4.988   6.572   1.268
 6497SOL     OW20389   1.046   1.549   1.237
 6497SOL    HW120390   1.082   1.473   1.292
 6497SOL    HW220391   0.949   1.563   1.259
 6498SOL     OW20392   0.576   4.011   4.081
 6498SOL    HW120393   0.601   3.970   3.993
 6498SOL    HW220394   0.536   3.940   4.140
 6499SOL     OW20395   5.447   3.770   4.336
 6499SOL    HW120396   5.522   3.728   4.388
 6499SOL    HW220397   5.474   3.862   4.307
 6500SOL     OW20398   0.570   3.680   2.403
 6500SOL    HW120399   0.503   3.721   2.342
 6500SOL    HW220400   0.661   3.681   2.360
 6501SOL     OW20401   0.051   1.624   1.203
 6501SOL    HW120402   0.006   1.705   1.164
 6501SOL    HW220403   0.093   1.571   1.130
 6502SOL     OW20404   6.435   3.814   1.436
 6502SOL    HW120405   6.491   3.825   1.354
 6502SOL    HW220406   6.349   3.864   1.425
 6503SOL     OW20407   6.761   1.560   5.187
 6503SOL    HW120408   6.670   1.602   5.178
 6503SOL    HW220409   6.822   1.625   5.232
 6504SOL     OW20410   4.677   6.577   6.684
 6504SOL    HW120411   4.744   6.521   6.635
 6504SOL    HW220412   4.669   6.546   6.778
 6505SOL     OW20413   5.340   6.818   6.904
 6505SOL    HW120414   5.398   6.892   6.939
 6505SOL    HW220415   5.388   6.731   6.910
 6506SOL     OW20416   6.970   3.155   3.617
 6506SOL    HW120417   6.899   3.216   3.582
 6506SOL    HW220418   6.929   3.069   3.645
 6507SOL     OW20419   2.937   5.542   6.268
 6507SOL    HW120420   2.944   5.461   6.210
 6507SOL    HW220421   2.842   5.556   6.295
 6508SOL     OW20422   1.707   6.606   2.462
 6508SOL    HW120423   1.648   6.686   2.473
 6508SOL    HW220424   1.651   6.525   2.445
 6509SOL     OW20425   4.685   1.208   5.372
 6509SOL    HW120426   4.710   1.220   5.468
 6509SOL    HW220427   4.664   1.112   5.354
 6510SOL     OW20428   4.595   6.121   6.386
 6510SOL    HW120429   4.559   6.161   6.301
 6510SOL    HW220430   4.555   6.169   6.464
 6511SOL     OW20431   4.049   0.858   5.622
 6511SOL    HW120432   4.021   0.843   5.527
 6511SOL    HW220433   4.109   0.783   5.650
 6512SOL     OW20434   2.967   6.476   2.663
 6512SOL    HW120435   2.923   6.389   2.640
 6512SOL    HW220436   3.006   6.470   2.755
 6513SOL     OW20437   2.712   6.020   4.335
 6513SOL    HW120438   2.735   6.013   4.238
 6513SOL    HW220439   2.763   5.951   4.386
 6514SOL     OW20440   5.698   0.496   4.910
 6514SOL    HW120441   5.605   0.463   4.897
 6514SOL    HW220442   5.758   0.419   4.929
 6515SOL     OW20443   1.842   4.287   2.316
 6515SOL    HW120444   1.906   4.256   2.245
 6515SOL    HW220445   1.778   4.353   2.277
 6516SOL     OW20446   6.963   3.228   1.742
 6516SOL    HW120447   6.963   3.273   1.831
 6516SOL    HW220448   6.918   3.287   1.675
 6517SOL     OW20449   0.352   2.239   0.728
 6517SOL    HW120450   0.410   2.293   0.790
 6517SOL    HW220451   0.339   2.148   0.766
 6518SOL     OW20452   6.721   0.699   1.805
 6518SOL    HW120453   6.645   0.762   1.792
 6518SOL    HW220454   6.783   0.705   1.727
 6519SOL     OW20455   0.469   0.599   3.128
 6519SOL    HW120456   0.483   0.577   3.031
 6519SOL    HW220457   0.474   0.699   3.140
 6520SOL     OW20458   7.018   5.765   6.486
 6520SOL    HW120459   0.024   5.855   6.453
 6520SOL    HW220460   0.076   5.716   6.523
 6521SOL     OW20461   1.567   2.906   2.842
 6521SOL    HW120462   1.612   2.911   2.932
 6521SOL    HW220463   1.544   2.999   2.812
 6522SOL     OW20464   2.606   4.569   5.632
 6522SOL    HW120465   2.654   4.651   5.664
 6522SOL    HW220466   2.671   4.508   5.588
 6523SOL     OW20467   4.797   6.753   6.966
 6523SOL    HW120468   4.890   6.716   6.969
 6523SOL    HW220469   4.796   6.837   6.912
 6524SOL     OW20470   3.079   2.702   1.752
 6524SOL    HW120471   3.040   2.630   1.809
 6524SOL    HW220472   3.014   2.778   1.745
 6525SOL     OW20473   2.361   5.503   3.201
 6525SOL    HW120474   2.402   5.527   3.289
 6525SOL    HW220475   2.414   5.431   3.157
 6526SOL     OW20476   0.360   6.921   0.977
 6526SOL    HW120477   0.358   7.011   0.933
 6526SOL    HW220478   0.348   6.931   1.075
 6527SOL     OW20479   0.295   1.971   0.300
 6527SOL    HW120480   0.229   1.910   0.342
 6527SOL    HW220481   0.342   2.024   0.370
 6528SOL     OW20482   6.694   1.637   6.409
 6528SOL    HW120483   6.756   1.699   6.360
 6528SOL    HW220484   6.601   1.674   6.408
 6529SOL     OW20485   0.470   0.516   2.829
 6529SOL    HW120486   0.433   0.461   2.754
 6529SOL    HW220487   0.428   0.607   2.829
 6530SOL     OW20488   0.427   2.212   1.620
 6530SOL    HW120489   0.501   2.276   1.643
 6530SOL    HW220490   0.342   2.246   1.659
 6531SOL     OW20491   4.152   3.410   5.480
 6531SOL    HW120492   4.187   3.503   5.467
 6531SOL    HW220493   4.180   3.352   5.403
 6532SOL     OW20494   1.860   1.447   0.619
 6532SOL    HW120495   1.771   1.452   0.573
 6532SOL    HW220496   1.886   1.351   0.629
 6533SOL     OW20497   4.188   5.683   0.249
 6533SOL    HW120498   4.103   5.693   0.301
 6533SOL    HW220499   4.244   5.765   0.262
 6534SOL     OW20500   5.244   4.819   1.511
 6534SOL    HW120501   5.342   4.811   1.529
 6534SOL    HW220502   5.220   4.761   1.434
 6535SOL     OW20503   5.922   4.108   4.354
 6535SOL    HW120504   5.884   4.020   4.325
 6535SOL    HW220505   5.862   4.182   4.324
 6536SOL     OW20506   0.343   2.043   5.406
 6536SOL    HW120507   0.384   2.041   5.315
 6536SOL    HW220508   0.282   2.122   5.413
 6537SOL     OW20509   7.006   4.899   4.474
 6537SOL    HW120510   0.039   4.882   4.556
 6537SOL    HW220511   6.931   4.833   4.469
 6538SOL     OW20512   1.528   3.722   5.748
 6538SOL    HW120513   1.502   3.647   5.688
 6538SOL    HW220514   1.563   3.798   5.694
 6539SOL     OW20515   5.013   0.366   6.870
 6539SOL    HW120516   5.064   0.281   6.857
 6539SOL    HW220517   4.979   0.398   6.781
 6540SOL     OW20518   2.052   2.816   6.215
 6540SOL    HW120519   2.077   2.912   6.228
 6540SOL    HW220520   1.981   2.810   6.145
 6541SOL     OW20521   5.080   2.464   5.695
 6541SOL    HW120522   5.147   2.409   5.745
 6541SOL    HW220523   4.996   2.472   5.749
 6542SOL     OW20524   1.073   3.573   4.594
 6542SOL    HW120525   1.052   3.650   4.654
 6542SOL    HW220526   1.144   3.517   4.637
 6543SOL     OW20527   3.498   2.478   5.383
 6543SOL    HW120528   3.589   2.456   5.420
 6543SOL    HW220529   3.456   2.394   5.348
 6544SOL     OW20530   0.329   6.429   2.482
 6544SOL    HW120531   0.246   6.484   2.472
 6544SOL    HW220532   0.305   6.335   2.504
 6545SOL     OW20533   4.333   6.746   0.610
 6545SOL    HW120534   4.426   6.769   0.581
 6545SOL    HW220535   4.316   6.783   0.701
 6546SOL     OW20536   4.226   4.232   6.887
 6546SOL    HW120537   4.206   4.329   6.872
 6546SOL    HW220538   4.318   4.212   6.853
 6547SOL     OW20539   4.453   0.492   5.764
 6547SOL    HW120540   4.515   0.427   5.807
 6547SOL    HW220541   4.446   0.472   5.666
 6548SOL     OW20542   1.129   2.978   6.599
 6548SOL    HW120543   1.162   2.975   6.693
 6548SOL    HW220544   1.062   3.051   6.589
 6549SOL     OW20545   4.576   0.400   2.095
 6549SOL    HW120546   4.496   0.359   2.140
 6549SOL    HW220547   4.659   0.373   2.144
 6550SOL     OW20548   6.998   6.965   3.739
 6550SOL    HW120549   7.000   6.951   3.838
 6550SOL    HW220550   6.962   6.884   3.694
 6551SOL     OW20551   2.686   3.509   1.552
 6551SOL    HW120552   2.647   3.590   1.594
 6551SOL    HW220553   2.785   3.521   1.542
 6552SOL     OW20554   2.243   0.064   0.336
 6552SOL    HW120555   2.226   0.056   0.237
 6552SOL    HW220556   2.218   0.156   0.366
 6553SOL     OW20557   1.062   1.577   2.938
 6553SOL    HW120558   1.072   1.520   3.019
 6553SOL    HW220559   1.064   1.520   2.856
 6554SOL     OW20560   2.694   1.007   5.269
 6554SOL    HW120561   2.691   0.993   5.368
 6554SOL    HW220562   2.621   1.071   5.242
 6555SOL     OW20563   6.077   1.755   4.024
 6555SOL    HW120564   6.109   1.833   4.077
 6555SOL    HW220565   5.983   1.734   4.050
 6556SOL     OW20566   6.226   3.406   2.438
 6556SOL    HW120567   6.166   3.485   2.420
 6556SOL    HW220568   6.175   3.336   2.487
 6557SOL     OW20569   2.488   0.486   2.452
 6557SOL    HW120570   2.457   0.509   2.544
 6557SOL    HW220571   2.564   0.545   2.427
 6558SOL     OW20572   5.561   5.371   0.226
 6558SOL    HW120573   5.651   5.336   0.253
 6558SOL    HW220574   5.523   5.425   0.301
 6559SOL     OW20575   6.973   3.539   6.356
 6559SOL    HW120576   6.898   3.474   6.370
 6559SOL    HW220577   6.997   3.543   6.260
 6560SOL     OW20578   3.867   4.433   0.637
 6560SOL    HW120579   3.922   4.517   0.628
 6560SOL    HW220580   3.889   4.371   0.562
 6561SOL     OW20581   4.070   4.436   0.926
 6561SOL    HW120582   3.976   4.468   0.925
 6561SOL    HW220583   4.088   4.389   1.013
 6562SOL     OW20584   5.506   2.382   1.314
 6562SOL    HW120585   5.526   2.359   1.410
 6562SOL    HW220586   5.486   2.480   1.307
 6563SOL     OW20587   4.980   0.687   6.056
 6563SOL    HW120588   4.974   0.702   6.155
 6563SOL    HW220589   4.889   0.670   6.019
 6564SOL     OW20590   6.094   3.460   2.041
 6564SOL    HW120591   5.997   3.455   2.062
 6564SOL    HW220592   6.110   3.428   1.947
 6565SOL     OW20593   6.387   6.466   3.048
 6565SOL    HW120594   6.386   6.552   3.098
 6565SOL    HW220595   6.482   6.434   3.037
 6566SOL     OW20596   3.417   5.210   2.022
 6566SOL    HW120597   3.352   5.284   2.004
 6566SOL    HW220598   3.367   5.127   2.048
 6567SOL     OW20599   4.648   0.872   1.697
 6567SOL    HW120600   4.653   0.886   1.598
 6567SOL    HW220601   4.658   0.960   1.743
 6568SOL     OW20602   4.028   2.167   3.094
 6568SOL    HW120603   4.046   2.175   3.192
 6568SOL    HW220604   4.106   2.202   3.042
 6569SOL     OW20605   1.052   3.512   6.355
 6569SOL    HW120606   1.043   3.415   6.336
 6569SOL    HW220607   1.148   3.537   6.358
 6570SOL     OW20608   4.105   1.506   2.783
 6570SOL    HW120609   4.048   1.430   2.753
 6570SOL    HW220610   4.112   1.504   2.883
 6571SOL     OW20611   2.880   4.979   2.497
 6571SOL    HW120612   2.899   4.977   2.399
 6571SOL    HW220613   2.796   4.929   2.516
 6572SOL     OW20614   0.454   3.693   4.590
 6572SOL    HW120615   0.487   3.643   4.670
 6572SOL    HW220616   0.513   3.674   4.511
 6573SOL     OW20617   1.277   1.417   3.464
 6573SOL    HW120618   1.316   1.328   3.438
 6573SOL    HW220619   1.311   1.443   3.554
 6574SOL     OW20620   2.535   6.333   3.631
 6574SOL    HW120621   2.484   6.330   3.544
 6574SOL    HW220622   2.506   6.413   3.683
 6575SOL     OW20623   0.657   6.370   3.015
 6575SOL    HW120624   0.756   6.378   3.013
 6575SOL    HW220625   0.620   6.424   3.091
 6576SOL     OW20626   3.130   5.361   0.690
 6576SOL    HW120627   3.048   5.358   0.633
 6576SOL    HW220628   3.160   5.268   0.711
 6577SOL     OW20629   1.761   2.105   3.817
 6577SOL    HW120630   1.703   2.034   3.777
 6577SOL    HW220631   1.792   2.168   3.746
 6578SOL     OW20632   0.587   5.883   1.920
 6578SOL    HW120633   0.636   5.965   1.950
 6578SOL    HW220634   0.607   5.866   1.823
 6579SOL     OW20635   6.986   2.159   3.919
 6579SOL    HW120636   0.061   2.138   3.935
 6579SOL    HW220637   6.929   2.098   3.975
 6580SOL     OW20638   0.971   1.433   0.782
 6580SOL    HW120639   1.037   1.450   0.854
 6580SOL    HW220640   0.883   1.407   0.822
 6581SOL     OW20641   1.404   0.873   0.619
 6581SOL    HW120642   1.503   0.884   0.617
 6581SOL    HW220643   1.362   0.956   0.653
 6582SOL     OW20644   6.513   0.266   2.816
 6582SOL    HW120645   6.561   0.338   2.767
 6582SOL    HW220646   6.564   0.242   2.899
 6583SOL     OW20647   5.175   6.294   5.080
 6583SOL    HW120648   5.139   6.384   5.107
 6583SOL    HW220649   5.175   6.233   5.159
 6584SOL     OW20650   3.458   2.501   0.642
 6584SOL    HW120651   3.367   2.531   0.612
 6584SOL    HW220652   3.466   2.514   0.741
 6585SOL     OW20653   6.825   6.824   0.111
 6585SOL    HW120654   6.747   6.779   0.154
 6585SOL    HW220655   6.836   6.790   0.018
 6586SOL     OW20656   6.613   1.719   6.065
 6586SOL    HW120657   6.613   1.620   6.050
 6586SOL    HW220658   6.568   1.740   6.152
 6587SOL     OW20659   1.289   4.929   6.346
 6587SOL    HW120660   1.374   4.889   6.379
 6587SOL    HW220661   1.214   4.864   6.359
 6588SOL     OW20662   0.709   3.489   1.037
 6588SOL    HW120663   0.710   3.413   0.972
 6588SOL    HW220664   0.728   3.574   0.989
 6589SOL     OW20665   5.021   1.237   2.496
 6589SOL    HW120666   5.114   1.229   2.532
 6589SOL    HW220667   5.004   1.161   2.433
 6590SOL     OW20668   0.382   0.183   5.339
 6590SOL    HW120669   0.418   0.145   5.425
 6590SOL    HW220670   0.393   0.282   5.339
 6591SOL     OW20671   5.522   6.227   3.707
 6591SOL    HW120672   5.592   6.298   3.714
 6591SOL    HW220673   5.431   6.269   3.712
 6592SOL     OW20674   5.192   0.485   2.989
 6592SOL    HW120675   5.095   0.465   3.005
 6592SOL    HW220676   5.247   0.437   3.058
 6593SOL     OW20677   2.907   2.231   2.392
 6593SOL    HW120678   2.984   2.201   2.336
 6593SOL    HW220679   2.829   2.252   2.334
 6594SOL     OW20680   3.679   1.716   5.788
 6594SOL    HW120681   3.713   1.719   5.694
 6594SOL    HW220682   3.755   1.725   5.852
 6595SOL     OW20683   1.178   3.215   5.456
 6595SOL    HW120684   1.112   3.151   5.494
 6595SOL    HW220685   1.244   3.166   5.399
 6596SOL     OW20686   3.659   6.319   3.485
 6596SOL    HW120687   3.681   6.351   3.393
 6596SOL    HW220688   3.682   6.390   3.551
 6597SOL     OW20689   1.722   5.177   2.029
 6597SOL    HW120690   1.683   5.221   1.948
 6597SOL    HW220691   1.711   5.078   2.021
 6598SOL     OW20692   2.074   4.326   4.051
 6598SOL    HW120693   2.125   4.407   4.080
 6598SOL    HW220694   2.002   4.354   3.987
 6599SOL     OW20695   4.820   6.309   0.093
 6599SOL    HW120696   4.830   6.215   0.059
 6599SOL    HW220697   4.755   6.310   0.169
 6600SOL     OW20698   3.948   6.678   4.450
 6600SOL    HW120699   3.976   6.583   4.455
 6600SOL    HW220700   3.906   6.705   4.537
 6601SOL     OW20701   0.485   2.156   3.337
 6601SOL    HW120702   0.432   2.233   3.371
 6601SOL    HW220703   0.474   2.150   3.238
 6602SOL     OW20704   2.369   0.148   1.125
 6602SOL    HW120705   2.443   0.157   1.192
 6602SOL    HW220706   2.370   0.056   1.087
 6603SOL     OW20707   0.855   3.058   3.915
 6603SOL    HW120708   0.947   3.019   3.913
 6603SOL    HW220709   0.838   3.099   4.005
 6604SOL     OW20710   1.817   0.515   1.276
 6604SOL    HW120711   1.796   0.472   1.188
 6604SOL    HW220712   1.753   0.590   1.292
 6605SOL     OW20713   5.688   5.889   2.544
 6605SOL    HW120714   5.596   5.863   2.573
 6605SOL    HW220715   5.718   5.968   2.597
 6606SOL     OW20716   6.950   4.635   2.794
 6606SOL    HW120717   6.853   4.660   2.791
 6606SOL    HW220718   7.005   4.712   2.762
 6607SOL     OW20719   6.602   5.324   3.668
 6607SOL    HW120720   6.513   5.318   3.622
 6607SOL    HW220721   6.589   5.312   3.767
 6608SOL     OW20722   6.808   0.311   0.891
 6608SOL    HW120723   6.815   0.227   0.946
 6608SOL    HW220724   6.757   0.292   0.807
 6609SOL     OW20725   5.128   1.437   6.042
 6609SOL    HW120726   5.046   1.483   6.076
 6609SOL    HW220727   5.159   1.370   6.110
 6610SOL     OW20728   2.464   6.428   0.322
 6610SOL    HW120729   2.542   6.478   0.286
 6610SOL    HW220730   2.410   6.488   0.381
 6611SOL     OW20731   5.290   2.799   3.391
 6611SOL    HW120732   5.300   2.897   3.372
 6611SOL    HW220733   5.274   2.750   3.305
 6612SOL     OW20734   6.572   2.268   6.217
 6612SOL    HW120735   6.642   2.321   6.170
 6612SOL    HW220736   6.542   2.193   6.158
 6613SOL     OW20737   5.523   0.088   5.880
 6613SOL    HW120738   5.620   0.069   5.870
 6613SOL    HW220739   5.497   0.162   5.817
 6614SOL     OW20740   4.869   6.890   0.593
 6614SOL    HW120741   4.951   6.925   0.547
 6614SOL    HW220742   4.882   6.793   0.615
 6615SOL     OW20743   2.110   5.498   0.523
 6615SOL    HW120744   2.117   5.408   0.567
 6615SOL    HW220745   2.201   5.525   0.490
 6616SOL     OW20746   4.556   0.032   6.075
 6616SOL    HW120747   4.647   7.012   6.082
 6616SOL    HW220748   4.526   0.030   5.979
 6617SOL     OW20749   4.407   6.235   3.285
 6617SOL    HW120750   4.494   6.251   3.331
 6617SOL    HW220751   4.341   6.305   3.312
 6618SOL     OW20752   1.093   1.302   2.784
 6618SOL    HW120753   1.072   1.263   2.874
 6618SOL    HW220754   1.013   1.297   2.725
 6619SOL     OW20755   4.291   0.083   3.755
 6619SOL    HW120756   4.318   0.165   3.806
 6619SOL    HW220757   4.363   0.059   3.690
 6620SOL     OW20758   2.130   3.404   4.242
 6620SOL    HW120759   2.126   3.463   4.323
 6620SOL    HW220760   2.073   3.323   4.257
 6621SOL     OW20761   3.874   2.828   5.270
 6621SOL    HW120762   3.800   2.850   5.206
 6621SOL    HW220763   3.928   2.910   5.288
 6622SOL     OW20764   6.563   5.803   2.052
 6622SOL    HW120765   6.513   5.804   2.139
 6622SOL    HW220766   6.652   5.761   2.066
 6623SOL     OW20767   3.485   4.105   4.820
 6623SOL    HW120768   3.504   4.007   4.815
 6623SOL    HW220769   3.430   4.124   4.902
 6624SOL     OW20770   0.709   3.764   5.846
 6624SOL    HW120771   0.688   3.681   5.795
 6624SOL    HW220772   0.808   3.775   5.851
 6625SOL     OW20773   5.638   2.232   4.899
 6625SOL    HW120774   5.610   2.156   4.839
 6625SOL    HW220775   5.645   2.315   4.844
 6626SOL     OW20776   3.089   6.643   5.842
 6626SOL    HW120777   3.106   6.725   5.896
 6626SOL    HW220778   3.003   6.601   5.872
 6627SOL     OW20779   1.819   6.248   3.863
 6627SOL    HW120780   1.831   6.326   3.924
 6627SOL    HW220781   1.722   6.236   3.843
 6628SOL     OW20782   4.980   4.659   3.954
 6628SOL    HW120783   4.997   4.745   3.906
 6628SOL    HW220784   5.061   4.635   4.008
 6629SOL     OW20785   4.327   5.435   6.565
 6629SOL    HW120786   4.394   5.501   6.599
 6629SOL    HW220787   4.350   5.411   6.470
 6630SOL     OW20788   3.376   1.358   1.920
 6630SOL    HW120789   3.331   1.310   1.996
 6630SOL    HW220790   3.352   1.455   1.922
 6631SOL     OW20791   2.175   5.531   4.339
 6631SOL    HW120792   2.217   5.511   4.250
 6631SOL    HW220793   2.244   5.519   4.411
 6632SOL     OW20794   1.471   1.188   0.999
 6632SOL    HW120795   1.536   1.175   1.075
 6632SOL    HW220796   1.381   1.153   1.026
 6633SOL     OW20797   2.587   4.859   5.960
 6633SOL    HW120798   2.576   4.916   5.880
 6633SOL    HW220799   2.675   4.879   6.003
 6634SOL     OW20800   4.687   1.853   4.770
 6634SOL    HW120801   4.738   1.803   4.841
 6634SOL    HW220802   4.610   1.797   4.739
 6635SOL     OW20803   4.813   4.077   3.367
 6635SOL    HW120804   4.785   3.982   3.380
 6635SOL    HW220805   4.902   4.079   3.320
 6636SOL     OW20806   3.227   1.731   1.026
 6636SOL    HW120807   3.297   1.664   1.001
 6636SOL    HW220808   3.266   1.798   1.088
 6637SOL     OW20809   2.963   0.425   6.209
 6637SOL    HW120810   2.921   0.334   6.218
 6637SOL    HW220811   2.906   0.482   6.150
 6638SOL     OW20812   3.294   3.567   3.107
 6638SOL    HW120813   3.225   3.572   3.178
 6638SOL    HW220814   3.293   3.476   3.065
 6639SOL     OW20815   3.517   3.641   6.385
 6639SOL    HW120816   3.507   3.699   6.466
 6639SOL    HW220817   3.614   3.625   6.368
 6640SOL     OW20818   0.004   2.351   4.995
 6640SOL    HW120819   6.959   2.283   5.023
 6640SOL    HW220820   0.063   2.314   4.924
 6641SOL     OW20821   3.734   1.578   0.094
 6641SOL    HW120822   3.821   1.533   0.074
 6641SOL    HW220823   3.686   1.526   0.166
 6642SOL     OW20824   2.221   5.272   6.182
 6642SOL    HW120825   2.166   5.188   6.193
 6642SOL    HW220826   2.295   5.255   6.117
 6643SOL     OW20827   6.445   6.778   0.652
 6643SOL    HW120828   6.445   6.710   0.579
 6643SOL    HW220829   6.495   6.742   0.731
 6644SOL     OW20830   1.818   5.869   3.262
 6644SOL    HW120831   1.878   5.806   3.311
 6644SOL    HW220832   1.865   5.957   3.251
 6645SOL     OW20833   6.090   3.035   0.681
 6645SOL    HW120834   6.067   2.941   0.706
 6645SOL    HW220835   6.057   3.054   0.589
 6646SOL     OW20836   4.498   0.897   5.700
 6646SOL    HW120837   4.464   0.806   5.724
 6646SOL    HW220838   4.592   0.907   5.730
 6647SOL     OW20839   4.168   6.613   1.034
 6647SOL    HW120840   4.130   6.655   0.951
 6647SOL    HW220841   4.265   6.635   1.041
 6648SOL     OW20842   3.232   5.922   4.751
 6648SOL    HW120843   3.138   5.921   4.786
 6648SOL    HW220844   3.287   5.986   4.805
 6649SOL     OW20845   5.894   3.132   6.257
 6649SOL    HW120846   5.934   3.088   6.338
 6649SOL    HW220847   5.955   3.119   6.179
 6650SOL     OW20848   4.035   1.559   4.872
 6650SOL    HW120849   4.026   1.643   4.819
 6650SOL    HW220850   3.956   1.500   4.855
 6651SOL     OW20851   1.834   2.036   6.484
 6651SOL    HW120852   1.850   2.104   6.412
 6651SOL    HW220853   1.901   2.049   6.557
 6652SOL     OW20854   0.766   4.802   0.031
 6652SOL    HW120855   0.751   4.708   7.021
 6652SOL    HW220856   0.786   4.861   6.975
 6653SOL     OW20857   4.999   2.894   0.851
 6653SOL    HW120858   4.934   2.880   0.926
 6653SOL    HW220859   4.964   2.966   0.790
 6654SOL     OW20860   0.372   5.316   2.642
 6654SOL    HW120861   0.442   5.358   2.584
 6654SOL    HW220862   0.381   5.217   2.639
 6655SOL     OW20863   0.197   6.126   2.315
 6655SOL    HW120864   0.274   6.145   2.376
 6655SOL    HW220865   0.223   6.145   2.221
 6656SOL     OW20866   5.285   2.335   2.910
 6656SOL    HW120867   5.246   2.253   2.867
 6656SOL    HW220868   5.293   2.408   2.842
 6657SOL     OW20869   5.933   3.002   4.838
 6657SOL    HW120870   5.843   2.966   4.813
 6657SOL    HW220871   5.954   2.977   4.932
 6658SOL     OW20872   6.680   0.024   5.935
 6658SOL    HW120873   6.655   0.035   6.032
 6658SOL    HW220874   6.695   0.114   5.894
 6659SOL     OW20875   1.010   3.684   1.751
 6659SOL    HW120876   1.065   3.644   1.678
 6659SOL    HW220877   1.011   3.783   1.744
 6660SOL     OW20878   1.787   5.471   1.495
 6660SOL    HW120879   1.795   5.373   1.477
 6660SOL    HW220880   1.739   5.485   1.581
 6661SOL     OW20881   2.729   0.794   4.969
 6661SOL    HW120882   2.809   0.852   4.955
 6661SOL    HW220883   2.654   0.825   4.911
 6662SOL     OW20884   1.876   0.909   0.563
 6662SOL    HW120885   1.857   0.895   0.661
 6662SOL    HW220886   1.910   0.823   0.524
 6663SOL     OW20887   0.574   6.597   4.824
 6663SOL    HW120888   0.602   6.593   4.728
 6663SOL    HW220889   0.629   6.533   4.877
 6664SOL     OW20890   2.287   0.579   0.759
 6664SOL    HW120891   2.200   0.613   0.724
 6664SOL    HW220892   2.297   0.482   0.736
 6665SOL     OW20893   1.450   6.600   5.518
 6665SOL    HW120894   1.531   6.650   5.491
 6665SOL    HW220895   1.401   6.568   5.437
 6666SOL     OW20896   6.189   5.311   5.581
 6666SOL    HW120897   6.175   5.306   5.482
 6666SOL    HW220898   6.284   5.289   5.603
 6667SOL     OW20899   6.620   6.360   5.940
 6667SOL    HW120900   6.578   6.449   5.961
 6667SOL    HW220901   6.610   6.341   5.843
 6668SOL     OW20902   6.808   6.004   1.105
 6668SOL    HW120903   6.825   6.001   1.006
 6668SOL    HW220904   6.895   5.990   1.154
 6669SOL     OW20905   3.511   2.158   1.533
 6669SOL    HW120906   3.441   2.193   1.595
 6669SOL    HW220907   3.600   2.158   1.579
 6670SOL     OW20908   3.613   0.993   6.178
 6670SOL    HW120909   3.538   0.946   6.226
 6670SOL    HW220910   3.673   0.925   6.137
 6671SOL     OW20911   5.692   6.553   7.010
 6671SOL    HW120912   5.677   6.469   0.041
 6671SOL    HW220913   5.749   6.532   6.930
 6672SOL     OW20914   1.060   2.593   0.298
 6672SOL    HW120915   1.129   2.620   0.365
 6672SOL    HW220916   1.104   2.565   0.213
 6673SOL     OW20917   4.717   4.196   3.600
 6673SOL    HW120918   4.653   4.273   3.600
 6673SOL    HW220919   4.725   4.159   3.508
 6674SOL     OW20920   0.650   3.398   0.038
 6674SOL    HW120921   0.672   3.333   6.987
 6674SOL    HW220922   0.585   3.466   0.004
 6675SOL     OW20923   6.301   2.442   0.378
 6675SOL    HW120924   6.261   2.527   0.412
 6675SOL    HW220925   6.335   2.389   0.456
 6676SOL     OW20926   0.540   3.209   3.040
 6676SOL    HW120927   0.614   3.276   3.042
 6676SOL    HW220928   0.464   3.243   3.096
 6677SOL     OW20929   0.671   1.119   6.413
 6677SOL    HW120930   0.576   1.150   6.415
 6677SOL    HW220931   0.674   1.021   6.390
 6678SOL     OW20932   2.529   4.815   0.862
 6678SOL    HW120933   2.571   4.894   0.906
 6678SOL    HW220934   2.591   4.736   0.869
 6679SOL     OW20935   3.890   0.967   3.851
 6679SOL    HW120936   3.947   0.946   3.772
 6679SOL    HW220937   3.947   0.993   3.929
 6680SOL     OW20938   4.523   6.479   6.432
 6680SOL    HW120939   4.507   6.396   6.485
 6680SOL    HW220940   4.584   6.539   6.484
 6681SOL     OW20941   4.838   5.339   1.117
 6681SOL    HW120942   4.765   5.271   1.122
 6681SOL    HW220943   4.804   5.421   1.072
 6682SOL     OW20944   2.282   4.892   6.755
 6682SOL    HW120945   2.332   4.820   6.706
 6682SOL    HW220946   2.328   4.980   6.742
 6683SOL     OW20947   5.957   3.156   5.933
 6683SOL    HW120948   5.987   3.237   5.883
 6683SOL    HW220949   5.880   3.114   5.886
 6684SOL     OW20950   4.003   6.530   2.196
 6684SOL    HW120951   3.966   6.548   2.105
 6684SOL    HW220952   4.074   6.460   2.189
 6685SOL     OW20953   5.131   2.470   6.061
 6685SOL    HW120954   5.195   2.514   5.997
 6685SOL    HW220955   5.104   2.381   6.024
 6686SOL     OW20956   5.948   5.792   3.621
 6686SOL    HW120957   5.868   5.776   3.679
 6686SOL    HW220958   5.984   5.884   3.639
 6687SOL     OW20959   0.480   2.536   2.029
 6687SOL    HW120960   0.423   2.619   2.031
 6687SOL    HW220961   0.537   2.533   2.111
 6688SOL     OW20962   4.077   4.392   0.267
 6688SOL    HW120963   3.987   4.389   0.225
 6688SOL    HW220964   4.107   4.486   0.278
 6689SOL     OW20965   4.292   3.474   6.026
 6689SOL    HW120966   4.335   3.561   6.005
 6689SOL    HW220967   4.360   3.401   6.019
 6690SOL     OW20968   0.940   6.811   0.482
 6690SOL    HW120969   0.946   6.723   0.435
 6690SOL    HW220970   0.863   6.864   0.446
 6691SOL     OW20971   2.011   0.210   2.375
 6691SOL    HW120972   2.086   0.217   2.308
 6691SOL    HW220973   2.042   0.244   2.464
 6692SOL     OW20974   4.197   4.062   1.769
 6692SOL    HW120975   4.283   4.100   1.802
 6692SOL    HW220976   4.175   3.979   1.820
 6693SOL     OW20977   4.386   2.159   4.827
 6693SOL    HW120978   4.383   2.259   4.824
 6693SOL    HW220979   4.481   2.129   4.831
 6694SOL     OW20980   4.336   6.590   1.290
 6694SOL    HW120981   4.298   6.677   1.321
 6694SOL    HW220982   4.369   6.538   1.369
 6695SOL     OW20983   2.502   2.360   6.823
 6695SOL    HW120984   2.446   2.292   6.870
 6695SOL    HW220985   2.543   2.319   6.742
 6696SOL     OW20986   3.731   2.926   3.739
 6696SOL    HW120987   3.650   2.983   3.730
 6696SOL    HW220988   3.759   2.922   3.835
 6697SOL     OW20989   4.741   2.383   3.109
 6697SOL    HW120990   4.809   2.381   3.183
 6697SOL    HW220991   4.768   2.451   3.041
 6698SOL     OW20992   3.530   3.313   0.701
 6698SOL    HW120993   3.430   3.319   0.700
 6698SOL    HW220994   3.558   3.218   0.688
 6699SOL     OW20995   2.230   6.803   5.336
 6699SOL    HW120996   2.183   6.772   5.253
 6699SOL    HW220997   2.199   6.750   5.414
 6700SOL     OW20998   6.438   1.433   1.217
 6700SOL    HW120999   6.444   1.526   1.180
 6700SOL    HW221000   6.345   1.399   1.209
 6701SOL     OW21001   5.509   6.249   1.587
 6701SOL    HW121002   5.412   6.238   1.611
 6701SOL    HW221003   5.566   6.226   1.666
 6702SOL     OW21004   1.961   2.516   2.017
 6702SOL    HW121005   2.059   2.506   1.998
 6702SOL    HW221006   1.931   2.608   1.993
 6703SOL     OW21007   0.823   1.079   0.252
 6703SOL    HW121008   0.785   1.118   0.168
 6703SOL    HW221009   0.921   1.098   0.257
 6704SOL     OW21010   3.922   2.229   4.376
 6704SOL    HW121011   3.892   2.209   4.283
 6704SOL    HW221012   4.009   2.279   4.373
 6705SOL     OW21013   5.974   2.772   0.667
 6705SOL    HW121014   5.877   2.757   0.645
 6705SOL    HW221015   5.997   2.723   0.751
 6706SOL     OW21016   1.400   5.890   0.516
 6706SOL    HW121017   1.402   5.790   0.523
 6706SOL    HW221018   1.352   5.928   0.595
 6707SOL     OW21019   5.196   6.927   3.616
 6707SOL    HW121020   5.234   6.841   3.649
 6707SOL    HW221021   5.103   6.938   3.652
 6708SOL     OW21022   5.741   5.358   1.342
 6708SOL    HW121023   5.815   5.382   1.405
 6708SOL    HW221024   5.674   5.302   1.390
 6709SOL     OW21025   0.388   5.414   3.266
 6709SOL    HW121026   0.424   5.335   3.217
 6709SOL    HW221027   0.464   5.473   3.295
 6710SOL     OW21028   4.466   0.836   0.058
 6710SOL    HW121029   4.483   0.911   0.122
 6710SOL    HW221030   4.378   0.851   0.012
 6711SOL     OW21031   4.871   6.350   5.761
 6711SOL    HW121032   4.942   6.283   5.786
 6711SOL    HW221033   4.911   6.419   5.701
 6712SOL     OW21034   5.809   3.248   1.388
 6712SOL    HW121035   5.886   3.187   1.406
 6712SOL    HW221036   5.829   3.339   1.423
 6713SOL     OW21037   1.174   0.740   3.163
 6713SOL    HW121038   1.132   0.660   3.120
 6713SOL    HW221039   1.103   0.799   3.201
 6714SOL     OW21040   5.895   1.692   0.548
 6714SOL    HW121041   5.950   1.775   0.557
 6714SOL    HW221042   5.834   1.684   0.626
 6715SOL     OW21043   1.760   6.977   1.144
 6715SOL    HW121044   1.837   6.945   1.200
 6715SOL    HW221045   1.794   0.015   1.072
 6716SOL     OW21046   0.527   5.440   2.232
 6716SOL    HW121047   0.584   5.472   2.308
 6716SOL    HW221048   0.519   5.512   2.163
 6717SOL     OW21049   2.127   2.323   6.227
 6717SOL    HW121050   2.056   2.376   6.273
 6717SOL    HW221051   2.111   2.225   6.244
 6718SOL     OW21052   4.748   0.126   1.024
 6718SOL    HW121053   4.770   0.121   0.926
 6718SOL    HW221054   4.721   0.036   1.057
 6719SOL     OW21055   2.365   6.885   0.542
 6719SOL    HW121056   2.429   6.893   0.465
 6719SOL    HW221057   2.283   6.938   0.523
 6720SOL     OW21058   2.295   0.928   4.101
 6720SOL    HW121059   2.268   0.980   4.019
 6720SOL    HW221060   2.363   0.980   4.152
 6721SOL     OW21061   6.740   6.731   0.673
 6721SOL    HW121062   6.738   6.774   0.763
 6721SOL    HW221063   6.799   6.650   0.675
 6722SOL     OW21064   0.085   2.805   6.992
 6722SOL    HW121065   0.059   2.715   0.006
 6722SOL    HW221066   0.003   2.862   6.983
 6723SOL     OW21067   1.497   6.946   5.364
 6723SOL    HW121068   1.458   6.925   5.454
 6723SOL    HW221069   1.595   6.923   5.364
 6724SOL     OW21070   2.234   2.611   6.205
 6724SOL    HW121071   2.173   2.685   6.235
 6724SOL    HW221072   2.215   2.529   6.258
 6725SOL     OW21073   6.964   2.127   2.419
 6725SOL    HW121074   6.906   2.063   2.368
 6725SOL    HW221075   0.008   2.169   2.357
 6726SOL     OW21076   0.321   2.191   3.801
 6726SOL    HW121077   0.393   2.124   3.820
 6726SOL    HW221078   0.245   2.145   3.755
 6727SOL     OW21079   0.116   4.505   6.083
 6727SOL    HW121080   0.124   4.457   6.170
 6727SOL    HW221081   0.041   4.571   6.088
 6728SOL     OW21082   4.151   1.958   2.617
 6728SOL    HW121083   4.146   2.002   2.528
 6728SOL    HW221084   4.166   1.860   2.605
 6729SOL     OW21085   7.010   1.585   0.733
 6729SOL    HW121086   6.947   1.662   0.745
 6729SOL    HW221087   0.041   1.573   0.817
 6730SOL     OW21088   1.888   0.174   0.973
 6730SOL    HW121089   1.968   0.156   1.030
 6730SOL    HW221090   1.915   0.175   0.877
 6731SOL     OW21091   1.435   0.124   0.828
 6731SOL    HW121092   1.363   0.089   0.889
 6731SOL    HW221093   1.496   0.049   0.803
 6732SOL     OW21094   5.414   4.703   4.723
 6732SOL    HW121095   5.373   4.612   4.717
 6732SOL    HW221096   5.352   4.764   4.772
 6733SOL     OW21097   3.752   5.640   5.984
 6733SOL    HW121098   3.729   5.571   6.053
 6733SOL    HW221099   3.820   5.603   5.921
 6734SOL     OW21100   5.503   2.398   5.851
 6734SOL    HW121101   5.564   2.341   5.795
 6734SOL    HW221102   5.517   2.377   5.947
 6735SOL     OW21103   5.817   3.396   4.571
 6735SOL    HW121104   5.865   3.450   4.640
 6735SOL    HW221105   5.795   3.454   4.493
 6736SOL     OW21106   3.395   3.690   5.969
 6736SOL    HW121107   3.306   3.657   5.938
 6736SOL    HW221108   3.385   3.779   6.012
 6737SOL     OW21109   1.560   3.356   1.112
 6737SOL    HW121110   1.656   3.329   1.127
 6737SOL    HW221111   1.517   3.292   1.048
 6738SOL     OW21112   1.855   5.743   4.362
 6738SOL    HW121113   1.798   5.790   4.294
 6738SOL    HW221114   1.939   5.795   4.377
 6739SOL     OW21115   5.916   5.881   3.946
 6739SOL    HW121116   5.981   5.912   4.015
 6739SOL    HW221117   5.827   5.866   3.989
 6740SOL     OW21118   6.424   0.801   5.776
 6740SOL    HW121119   6.520   0.793   5.748
 6740SOL    HW221120   6.371   0.841   5.701
 6741SOL     OW21121   3.503   2.173   5.564
 6741SOL    HW121122   3.468   2.169   5.470
 6741SOL    HW221123   3.590   2.223   5.565
 6742SOL     OW21124   5.307   5.590   3.476
 6742SOL    HW121125   5.398   5.627   3.493
 6742SOL    HW221126   5.242   5.665   3.464
 6743SOL     OW21127   3.728   3.751   6.156
 6743SOL    HW121128   3.792   3.801   6.097
 6743SOL    HW221129   3.752   3.654   6.157
 6744SOL     OW21130   0.453   6.515   5.256
 6744SOL    HW121131   0.419   6.554   5.170
 6744SOL    HW221132   0.553   6.504   5.250
 6745SOL     OW21133   6.526   6.076   3.873
 6745SOL    HW121134   6.578   6.123   3.801
 6745SOL    HW221135   6.537   5.977   3.863
 6746SOL     OW21136   0.953   0.093   3.645
 6746SOL    HW121137   1.028   0.144   3.603
 6746SOL    HW221138   0.965   7.018   3.627
 6747SOL     OW21139   6.122   0.360   0.002
 6747SOL    HW121140   6.066   0.282   6.997
 6747SOL    HW221141   6.084   0.401   0.085
 6748SOL     OW21142   3.719   1.756   3.157
 6748SOL    HW121143   3.777   1.831   3.188
 6748SOL    HW221144   3.683   1.777   3.066
 6749SOL     OW21145   4.066   4.109   0.986
 6749SOL    HW121146   4.138   4.047   1.016
 6749SOL    HW221147   4.066   4.191   1.043
 6750SOL     OW21148   3.002   1.920   4.460
 6750SOL    HW121149   2.973   2.016   4.456
 6750SOL    HW221150   3.085   1.912   4.514
 6751SOL     OW21151   4.554   0.721   3.451
 6751SOL    HW121152   4.586   0.733   3.357
 6751SOL    HW221153   4.556   0.809   3.498
 6752SOL     OW21154   2.081   0.274   2.634
 6752SOL    HW121155   2.107   0.358   2.681
 6752SOL    HW221156   2.022   0.220   2.694
 6753SOL     OW21157   3.664   1.531   6.299
 6753SOL    HW121158   3.761   1.544   6.319
 6753SOL    HW221159   3.616   1.507   6.383
 6754SOL     OW21160   6.656   0.681   0.860
 6754SOL    HW121161   6.598   0.662   0.781
 6754SOL    HW221162   6.733   0.739   0.831
 6755SOL     OW21163   4.309   3.715   1.211
 6755SOL    HW121164   4.241   3.757   1.271
 6755SOL    HW221165   4.385   3.679   1.266
 6756SOL     OW21166   3.568   6.432   5.489
 6756SOL    HW121167   3.531   6.353   5.538
 6756SOL    HW221168   3.667   6.436   5.501
 6757SOL     OW21169   3.626   2.559   0.424
 6757SOL    HW121170   3.716   2.516   0.415
 6757SOL    HW221171   3.591   2.545   0.516
 6758SOL     OW21172   6.199   2.954   1.774
 6758SOL    HW121173   6.182   3.045   1.739
 6758SOL    HW221174   6.174   2.950   1.871
 6759SOL     OW21175   0.323   3.275   2.646
 6759SOL    HW121176   0.370   3.333   2.580
 6759SOL    HW221177   0.364   3.184   2.646
 6760SOL     OW21178   6.581   3.825   2.426
 6760SOL    HW121179   6.625   3.737   2.411
 6760SOL    HW221180   6.482   3.814   2.423
 6761SOL     OW21181   6.259   2.668   5.106
 6761SOL    HW121182   6.220   2.735   5.169
 6761SOL    HW221183   6.359   2.674   5.109
 6762SOL     OW21184   0.515   4.835   4.040
 6762SOL    HW121185   0.416   4.824   4.032
 6762SOL    HW221186   0.562   4.768   3.982
 6763SOL     OW21187   5.768   5.021   4.014
 6763SOL    HW121188   5.786   4.929   3.978
 6763SOL    HW221189   5.674   5.026   4.048
 6764SOL     OW21190   2.746   5.336   1.509
 6764SOL    HW121191   2.678   5.332   1.436
 6764SOL    HW221192   2.745   5.426   1.551
 6765SOL     OW21193   5.633   5.078   3.021
 6765SOL    HW121194   5.555   5.136   3.047
 6765SOL    HW221195   5.688   5.125   2.952
 6766SOL     OW21196   5.430   6.637   5.460
 6766SOL    HW121197   5.450   6.694   5.539
 6766SOL    HW221198   5.396   6.548   5.491
 6767SOL     OW21199   3.125   0.654   1.578
 6767SOL    HW121200   3.124   0.708   1.662
 6767SOL    HW221201   3.069   0.572   1.591
 6768SOL     OW21202   1.985   0.421   5.369
 6768SOL    HW121203   1.986   0.392   5.273
 6768SOL    HW221204   1.919   0.366   5.419
 6769SOL     OW21205   3.287   1.539   0.552
 6769SOL    HW121206   3.306   1.545   0.454
 6769SOL    HW221207   3.215   1.605   0.576
 6770SOL     OW21208   6.948   0.804   2.047
 6770SOL    HW121209   6.974   0.720   2.000
 6770SOL    HW221210   6.973   0.798   2.144
 6771SOL     OW21211   4.977   2.438   3.240
 6771SOL    HW121212   5.006   2.396   3.326
 6771SOL    HW221213   4.942   2.530   3.258
 6772SOL     OW21214   3.885   1.956   3.222
 6772SOL    HW121215   3.855   1.996   3.308
 6772SOL    HW221216   3.921   2.028   3.162
 6773SOL     OW21217   6.550   5.226   2.546
 6773SOL    HW121218   6.547   5.281   2.630
 6773SOL    HW221219   6.645   5.199   2.529
 6774SOL     OW21220   0.843   2.151   5.471
 6774SOL    HW121221   0.781   2.198   5.409
 6774SOL    HW221222   0.895   2.081   5.421
 6775SOL     OW21223   2.405   2.748   1.772
 6775SOL    HW121224   2.493   2.776   1.732
 6775SOL    HW221225   2.332   2.806   1.735
 6776SOL     OW21226   4.399   5.191   0.353
 6776SOL    HW121227   4.430   5.169   0.446
 6776SOL    HW221228   4.299   5.188   0.351
 6777SOL     OW21229   4.507   4.371   0.019
 6777SOL    HW121230   4.468   4.464   0.020
 6777SOL    HW221231   4.504   4.335   6.948
 6778SOL     OW21232   6.014   4.673   2.089
 6778SOL    HW121233   5.998   4.662   1.991
 6778SOL    HW221234   5.946   4.736   2.126
 6779SOL     OW21235   6.276   5.607   6.682
 6779SOL    HW121236   6.323   5.544   6.744
 6779SOL    HW221237   6.323   5.607   6.593
 6780SOL     OW21238   1.224   3.156   2.153
 6780SOL    HW121239   1.129   3.133   2.175
 6780SOL    HW221240   1.240   3.145   2.055
 6781SOL     OW21241   6.445   1.066   4.274
 6781SOL    HW121242   6.472   0.984   4.223
 6781SOL    HW221243   6.401   1.040   4.359
 6782SOL     OW21244   6.943   0.389   3.413
 6782SOL    HW121245   0.005   0.335   3.421
 6782SOL    HW221246   6.954   0.459   3.342
 6783SOL     OW21247   6.363   1.940   5.931
 6783SOL    HW121248   6.292   1.928   5.861
 6783SOL    HW221249   6.338   1.890   6.013
 6784SOL     OW21250   2.386   3.867   0.870
 6784SOL    HW121251   2.398   3.961   0.900
 6784SOL    HW221252   2.428   3.854   0.780
 6785SOL     OW21253   5.415   4.987   3.532
 6785SOL    HW121254   5.512   4.964   3.542
 6785SOL    HW221255   5.399   5.079   3.566
 6786SOL     OW21256   2.061   2.074   6.961
 6786SOL    HW121257   1.993   2.086   0.012
 6786SOL    HW221258   2.016   2.076   6.872
 6787SOL     OW21259   1.787   2.748   1.522
 6787SOL    HW121260   1.761   2.752   1.619
 6787SOL    HW221261   1.761   2.834   1.477
 6788SOL     OW21262   2.116   4.200   1.472
 6788SOL    HW121263   2.087   4.174   1.380
 6788SOL    HW221264   2.036   4.206   1.532
 6789SOL     OW21265   6.896   5.497   3.768
 6789SOL    HW121266   6.798   5.517   3.765
 6789SOL    HW221267   6.921   5.441   3.689
 6790SOL     OW21268   0.786   3.699   1.488
 6790SOL    HW121269   0.725   3.637   1.537
 6790SOL    HW221270   0.811   3.775   1.548
 6791SOL     OW21271   3.698   2.322   1.362
 6791SOL    HW121272   3.770   2.359   1.421
 6791SOL    HW221273   3.626   2.282   1.418
 6792SOL     OW21274   6.419   5.928   5.163
 6792SOL    HW121275   6.475   5.916   5.081
 6792SOL    HW221276   6.472   5.898   5.243
 6793SOL     OW21277   1.267   1.699   1.041
 6793SOL    HW121278   1.245   1.787   0.999
 6793SOL    HW221279   1.188   1.667   1.094
 6794SOL     OW21280   4.919   1.831   6.092
 6794SOL    HW121281   5.014   1.845   6.120
 6794SOL    HW221282   4.858   1.884   6.151
 6795SOL     OW21283   2.216   6.819   1.656
 6795SOL    HW121284   2.131   6.774   1.629
 6795SOL    HW221285   2.196   6.899   1.712
 6796SOL     OW21286   6.264   0.929   2.031
 6796SOL    HW121287   6.257   1.028   2.048
 6796SOL    HW221288   6.273   0.912   1.933
 6797SOL     OW21289   5.545   2.481   1.929
 6797SOL    HW121290   5.526   2.393   1.886
 6797SOL    HW221291   5.459   2.524   1.957
 6798SOL     OW21292   4.749   6.819   2.160
 6798SOL    HW121293   4.810   6.840   2.084
 6798SOL    HW221294   4.728   6.904   2.209
 6799SOL     OW21295   6.294   6.298   1.374
 6799SOL    HW121296   6.315   6.234   1.448
 6799SOL    HW221297   6.213   6.267   1.324
 6800SOL     OW21298   1.961   3.869   1.600
 6800SOL    HW121299   1.978   3.937   1.672
 6800SOL    HW221300   1.971   3.777   1.638
 6801SOL     OW21301   0.467   0.129   2.981
 6801SOL    HW121302   0.467   0.097   2.886
 6801SOL    HW221303   0.553   0.174   3.001
 6802SOL     OW21304   3.419   5.521   0.946
 6802SOL    HW121305   3.425   5.423   0.927
 6802SOL    HW221306   3.369   5.566   0.871
 6803SOL     OW21307   5.078   3.292   6.192
 6803SOL    HW121308   5.111   3.349   6.116
 6803SOL    HW221309   5.054   3.350   6.269
 6804SOL     OW21310   3.662   5.212   3.753
 6804SOL    HW121311   3.697   5.120   3.736
 6804SOL    HW221312   3.686   5.272   3.677
 6805SOL     OW21313   6.626   4.742   6.570
 6805SOL    HW121314   6.671   4.676   6.629
 6805SOL    HW221315   6.533   4.712   6.551
 6806SOL     OW21316   5.714   0.431   4.257
 6806SOL    HW121317   5.712   0.530   4.240
 6806SOL    HW221318   5.629   0.390   4.224
 6807SOL     OW21319   3.433   3.222   6.910
 6807SOL    HW121320   3.467   3.175   6.991
 6807SOL    HW221321   3.404   3.154   6.842
 6808SOL     OW21322   6.939   1.927   4.591
 6808SOL    HW121323   6.877   1.896   4.663
 6808SOL    HW221324   6.941   2.027   4.590
 6809SOL     OW21325   1.458   3.058   1.414
 6809SOL    HW121326   1.409   2.996   1.353
 6809SOL    HW221327   1.459   3.150   1.374
 6810SOL     OW21328   1.905   0.554   2.300
 6810SOL    HW121329   1.903   0.483   2.371
 6810SOL    HW221330   1.933   0.640   2.341
 6811SOL     OW21331   5.793   3.768   0.777
 6811SOL    HW121332   5.889   3.786   0.757
 6811SOL    HW221333   5.775   3.670   0.767
 6812SOL     OW21334   3.225   3.321   3.036
 6812SOL    HW121335   3.263   3.228   3.040
 6812SOL    HW221336   3.227   3.353   2.941
 6813SOL     OW21337   4.988   2.332   2.742
 6813SOL    HW121338   5.015   2.291   2.829
 6813SOL    HW221339   4.918   2.275   2.699
 6814SOL     OW21340   3.299   1.869   5.890
 6814SOL    HW121341   3.283   1.832   5.798
 6814SOL    HW221342   3.365   1.944   5.884
 6815SOL     OW21343   3.183   6.905   1.539
 6815SOL    HW121344   3.279   6.884   1.556
 6815SOL    HW221345   3.127   6.864   1.611
 6816SOL     OW21346   0.515   6.984   6.799
 6816SOL    HW121347   0.447   7.017   6.733
 6816SOL    HW221348   0.470   6.923   6.865
 6817SOL     OW21349   1.797   2.647   3.328
 6817SOL    HW121350   1.754   2.570   3.376
 6817SOL    HW221351   1.858   2.612   3.257
 6818SOL     OW21352   3.201   5.409   2.034
 6818SOL    HW121353   3.154   5.341   2.091
 6818SOL    HW221354   3.191   5.500   2.074
 6819SOL     OW21355   5.001   0.989   4.477
 6819SOL    HW121356   4.966   1.073   4.437
 6819SOL    HW221357   5.033   1.007   4.570
 6820SOL     OW21358   2.144   5.890   2.639
 6820SOL    HW121359   2.154   5.801   2.684
 6820SOL    HW221360   2.201   5.892   2.557
 6821SOL     OW21361   3.371   1.293   4.191
 6821SOL    HW121362   3.446   1.279   4.126
 6821SOL    HW221363   3.393   1.368   4.253
 6822SOL     OW21364   5.855   2.594   6.734
 6822SOL    HW121365   5.822   2.542   6.812
 6822SOL    HW221366   5.802   2.568   6.652
 6823SOL     OW21367   3.859   3.052   4.723
 6823SOL    HW121368   3.927   3.124   4.711
 6823SOL    HW221369   3.839   3.008   4.635
 6824SOL     OW21370   0.746   2.367   6.765
 6824SOL    HW121371   0.797   2.447   6.734
 6824SOL    HW221372   0.694   2.391   6.847
 6825SOL     OW21373   5.174   0.063   2.369
 6825SOL    HW121374   5.214   6.993   2.369
 6825SOL    HW221375   5.086   0.062   2.417
 6826SOL     OW21376   2.083   4.052   2.646
 6826SOL    HW121377   2.125   3.975   2.695
 6826SOL    HW221378   2.000   4.021   2.600
 6827SOL     OW21379   4.476   5.360   6.343
 6827SOL    HW121380   4.573   5.339   6.356
 6827SOL    HW221381   4.443   5.313   6.261
 6828SOL     OW21382   2.790   2.447   1.688
 6828SOL    HW121383   2.711   2.401   1.728
 6828SOL    HW221384   2.857   2.467   1.759
 6829SOL     OW21385   4.382   6.681   4.297
 6829SOL    HW121386   4.353   6.627   4.376
 6829SOL    HW221387   4.481   6.694   4.300
 6830SOL     OW21388   4.870   1.220   4.140
 6830SOL    HW121389   4.891   1.174   4.054
 6830SOL    HW221390   4.823   1.306   4.121
 6831SOL     OW21391   1.294   0.784   6.851
 6831SOL    HW121392   1.340   0.871   6.836
 6831SOL    HW221393   1.328   0.716   6.786
 6832SOL     OW21394   2.238   4.416   1.285
 6832SOL    HW121395   2.183   4.373   1.357
 6832SOL    HW221396   2.332   4.383   1.292
 6833SOL     OW21397   4.051   4.051   6.405
 6833SOL    HW121398   4.028   4.067   6.309
 6833SOL    HW221399   4.116   3.975   6.412
 6834SOL     OW21400   5.001   6.318   0.723
 6834SOL    HW121401   5.050   6.392   0.769
 6834SOL    HW221402   5.051   6.232   0.735
 6835SOL     OW21403   3.366   0.310   4.090
 6835SOL    HW121404   3.337   0.404   4.111
 6835SOL    HW221405   3.371   0.298   3.991
 6836SOL     OW21406   2.757   5.506   0.173
 6836SOL    HW121407   2.698   5.513   0.092
 6836SOL    HW221408   2.702   5.479   0.252
 6837SOL     OW21409   1.043   1.891   2.638
 6837SOL    HW121410   1.007   1.975   2.597
 6837SOL    HW221411   1.137   1.906   2.668
 6838SOL     OW21412   2.987   6.388   0.435
 6838SOL    HW121413   3.017   6.303   0.479
 6838SOL    HW221414   2.889   6.401   0.450
 6839SOL     OW21415   5.182   0.757   0.151
 6839SOL    HW121416   5.158   0.739   0.247
 6839SOL    HW221417   5.272   0.719   0.131
 6840SOL     OW21418   3.162   1.302   4.733
 6840SOL    HW121419   3.259   1.322   4.741
 6840SOL    HW221420   3.127   1.270   4.822
 6841SOL     OW21421   4.919   4.235   6.545
 6841SOL    HW121422   5.015   4.232   6.573
 6841SOL    HW221423   4.890   4.144   6.515
 6842SOL     OW21424   2.999   4.034   1.255
 6842SOL    HW121425   2.996   4.019   1.156
 6842SOL    HW221426   3.094   4.026   1.287
 6843SOL     OW21427   6.096   6.705   0.775
 6843SOL    HW121428   6.025   6.663   0.832
 6843SOL    HW221429   6.055   6.776   0.719
 6844SOL     OW21430   5.455   0.553   4.379
 6844SOL    HW121431   5.527   0.579   4.315
 6844SOL    HW221432   5.407   0.634   4.411
 6845SOL     OW21433   6.184   3.836   3.216
 6845SOL    HW121434   6.114   3.769   3.192
 6845SOL    HW221435   6.240   3.857   3.136
 6846SOL     OW21436   3.821   3.267   0.367
 6846SOL    HW121437   3.813   3.215   0.282
 6846SOL    HW221438   3.823   3.365   0.347
 6847SOL     OW21439   6.917   3.454   5.002
 6847SOL    HW121440   6.835   3.463   5.058
 6847SOL    HW221441   6.925   3.533   4.942
 6848SOL     OW21442   5.016   4.750   3.436
 6848SOL    HW121443   5.052   4.677   3.378
 6848SOL    HW221444   4.941   4.797   3.389
 6849SOL     OW21445   4.715   4.068   5.276
 6849SOL    HW121446   4.751   4.006   5.207
 6849SOL    HW221447   4.788   4.127   5.311
 6850SOL     OW21448   5.479   3.206   2.999
 6850SOL    HW121449   5.517   3.142   3.066
 6850SOL    HW221450   5.420   3.156   2.935
 6851SOL     OW21451   0.014   2.120   3.143
 6851SOL    HW121452   0.027   2.070   3.229
 6851SOL    HW221453   6.959   2.080   3.093
 6852SOL     OW21454   2.677   4.698   1.301
 6852SOL    HW121455   2.615   4.667   1.373
 6852SOL    HW221456   2.647   4.787   1.267
 6853SOL     OW21457   5.756   4.603   6.591
 6853SOL    HW121458   5.793   4.583   6.682
 6853SOL    HW221459   5.717   4.695   6.591
 6854SOL     OW21460   5.237   0.728   5.375
 6854SOL    HW121461   5.153   0.716   5.428
 6854SOL    HW221462   5.304   0.780   5.429
 6855SOL     OW21463   4.191   6.082   3.803
 6855SOL    HW121464   4.114   6.065   3.741
 6855SOL    HW221465   4.277   6.069   3.753
 6856SOL     OW21466   0.302   2.336   4.912
 6856SOL    HW121467   0.394   2.352   4.878
 6856SOL    HW221468   0.263   2.423   4.943
 6857SOL     OW21469   1.484   2.787   6.576
 6857SOL    HW121470   1.564   2.732   6.600
 6857SOL    HW221471   1.503   2.840   6.493
 6858SOL     OW21472   4.150   4.245   1.504
 6858SOL    HW121473   4.238   4.274   1.467
 6858SOL    HW221474   4.152   4.255   1.604
 6859SOL     OW21475   1.047   1.338   1.419
 6859SOL    HW121476   1.018   1.373   1.508
 6859SOL    HW221477   0.999   1.253   1.399
 6860SOL     OW21478   0.328   4.894   1.195
 6860SOL    HW121479   0.310   4.797   1.180
 6860SOL    HW221480   0.421   4.905   1.231
 6861SOL     OW21481   4.760   4.032   6.447
 6861SOL    HW121482   4.713   3.948   6.474
 6861SOL    HW221483   4.722   4.067   6.362
 6862SOL     OW21484   0.615   5.776   5.397
 6862SOL    HW121485   0.666   5.804   5.316
 6862SOL    HW221486   0.664   5.808   5.479
 6863SOL     OW21487   6.449   6.637   5.921
 6863SOL    HW121488   6.363   6.600   5.885
 6863SOL    HW221489   6.516   6.641   5.848
 6864SOL     OW21490   2.741   4.829   5.373
 6864SOL    HW121491   2.716   4.733   5.387
 6864SOL    HW221492   2.818   4.836   5.310
 6865SOL     OW21493   0.431   6.575   4.315
 6865SOL    HW121494   0.497   6.563   4.241
 6865SOL    HW221495   0.365   6.499   4.313
 6866SOL     OW21496   5.820   5.146   2.834
 6866SOL    HW121497   5.917   5.131   2.855
 6866SOL    HW221498   5.800   5.244   2.838
 6867SOL     OW21499   2.050   3.675   1.897
 6867SOL    HW121500   2.123   3.617   1.934
 6867SOL    HW221501   2.040   3.656   1.799
 6868SOL     OW21502   2.025   6.709   6.075
 6868SOL    HW121503   2.064   6.626   6.114
 6868SOL    HW221504   1.977   6.686   5.990
 6869SOL     OW21505   5.015   0.891   5.836
 6869SOL    HW121506   5.047   0.862   5.926
 6869SOL    HW221507   5.069   0.846   5.765
 6870SOL     OW21508   0.305   4.622   1.204
 6870SOL    HW121509   0.257   4.593   1.121
 6870SOL    HW221510   0.370   4.551   1.231
 6871SOL     OW21511   6.085   4.273   2.912
 6871SOL    HW121512   6.088   4.175   2.932
 6871SOL    HW221513   6.004   4.313   2.954
 6872SOL     OW21514   0.424   2.584   1.664
 6872SOL    HW121515   0.374   2.658   1.709
 6872SOL    HW221516   0.384   2.496   1.692
 6873SOL     OW21517   0.222   3.224   4.345
 6873SOL    HW121518   0.155   3.217   4.271
 6873SOL    HW221519   0.293   3.289   4.320
 6874SOL     OW21520   6.705   4.911   3.435
 6874SOL    HW121521   6.636   4.919   3.363
 6874SOL    HW221522   6.779   4.977   3.419
 6875SOL     OW21523   2.073   1.815   2.640
 6875SOL    HW121524   1.985   1.772   2.617
 6875SOL    HW221525   2.133   1.746   2.681
 6876SOL     OW21526   4.100   0.062   3.444
 6876SOL    HW121527   4.169   0.073   3.516
 6876SOL    HW221528   4.034   0.138   3.450
 6877SOL     OW21529   3.185   4.517   1.385
 6877SOL    HW121530   3.167   4.464   1.303
 6877SOL    HW221531   3.198   4.455   1.463
 6878SOL     OW21532   2.925   1.791   3.920
 6878SOL    HW121533   2.952   1.873   3.869
 6878SOL    HW221534   3.004   1.732   3.932
 6879SOL     OW21535   2.018   2.819   0.559
 6879SOL    HW121536   2.045   2.738   0.611
 6879SOL    HW221537   2.017   2.797   0.461
 6880SOL     OW21538   0.810   5.884   5.569
 6880SOL    HW121539   0.897   5.841   5.547
 6880SOL    HW221540   0.818   5.935   5.654
 6881SOL     OW21541   1.227   3.766   1.508
 6881SOL    HW121542   1.134   3.799   1.495
 6881SOL    HW221543   1.245   3.690   1.445
 6882SOL     OW21544   2.665   0.376   0.419
 6882SOL    HW121545   2.657   0.475   0.431
 6882SOL    HW221546   2.761   0.349   0.428
 6883SOL     OW21547   5.102   1.866   0.498
 6883SOL    HW121548   5.139   1.898   0.411
 6883SOL    HW221549   5.176   1.848   0.562
 6884SOL     OW21550   0.983   4.252   3.224
 6884SOL    HW121551   1.070   4.300   3.210
 6884SOL    HW221552   0.934   4.246   3.137
 6885SOL     OW21553   4.341   4.901   3.258
 6885SOL    HW121554   4.434   4.902   3.223
 6885SOL    HW221555   4.314   4.807   3.279
 6886SOL     OW21556   0.029   1.309   4.612
 6886SOL    HW121557   0.109   1.370   4.611
 6886SOL    HW221558   0.039   1.241   4.540
 6887SOL     OW21559   4.505   5.625   6.695
 6887SOL    HW121560   4.541   5.633   6.788
 6887SOL    HW221561   4.525   5.710   6.645
 6888SOL     OW21562   5.130   5.199   6.667
 6888SOL    HW121563   5.179   5.266   6.610
 6888SOL    HW221564   5.147   5.107   6.632
 6889SOL     OW21565   1.501   2.718   6.188
 6889SOL    HW121566   1.435   2.737   6.115
 6889SOL    HW221567   1.528   2.804   6.231
 6890SOL     OW21568   4.223   6.311   2.259
 6890SOL    HW121569   4.257   6.218   2.273
 6890SOL    HW221570   4.203   6.353   2.347
 6891SOL     OW21571   1.778   3.841   1.377
 6891SOL    HW121572   1.690   3.857   1.421
 6891SOL    HW221573   1.852   3.860   1.441
 6892SOL     OW21574   3.798   1.879   4.305
 6892SOL    HW121575   3.769   1.785   4.323
 6892SOL    HW221576   3.786   1.900   4.208
 6893SOL     OW21577   4.894   3.823   6.938
 6893SOL    HW121578   4.932   3.809   6.847
 6893SOL    HW221579   4.942   3.899   6.983
 6894SOL     OW21580   5.883   4.730   1.498
 6894SOL    HW121581   5.951   4.657   1.500
 6894SOL    HW221582   5.820   4.714   1.422
 6895SOL     OW21583   1.868   5.214   1.343
 6895SOL    HW121584   1.857   5.223   1.244
 6895SOL    HW221585   1.844   5.120   1.371
 6896SOL     OW21586   3.154   1.838   3.533
 6896SOL    HW121587   3.169   1.828   3.435
 6896SOL    HW221588   3.216   1.907   3.570
 6897SOL     OW21589   4.956   3.628   4.864
 6897SOL    HW121590   4.933   3.688   4.787
 6897SOL    HW221591   4.896   3.649   4.942
 6898SOL     OW21592   4.050   1.416   1.546
 6898SOL    HW121593   4.091   1.415   1.454
 6898SOL    HW221594   3.954   1.443   1.539
 6899SOL     OW21595   4.351   6.059   2.010
 6899SOL    HW121596   4.305   6.046   2.098
 6899SOL    HW221597   4.445   6.088   2.025
 6900SOL     OW21598   6.882   5.284   4.626
 6900SOL    HW121599   6.874   5.203   4.684
 6900SOL    HW221600   6.813   5.281   4.554
 6901SOL     OW21601   6.061   6.360   6.330
 6901SOL    HW121602   5.982   6.363   6.391
 6901SOL    HW221603   6.039   6.409   6.245
 6902SOL     OW21604   6.472   5.478   6.217
 6902SOL    HW121605   6.519   5.390   6.208
 6902SOL    HW221606   6.539   5.552   6.210
 6903SOL     OW21607   3.478   4.811   5.169
 6903SOL    HW121608   3.450   4.854   5.083
 6903SOL    HW221609   3.419   4.732   5.187
 6904SOL     OW21610   5.912   0.367   6.053
 6904SOL    HW121611   5.984   0.424   6.092
 6904SOL    HW221612   5.838   0.425   6.019
 6905SOL     OW21613   5.416   5.836   6.953
 6905SOL    HW121614   5.420   5.870   6.859
 6905SOL    HW221615   5.497   5.867   7.003
 6906SOL     OW21616   4.115   1.374   3.935
 6906SOL    HW121617   4.181   1.420   3.995
 6906SOL    HW221618   4.035   1.347   3.989
 6907SOL     OW21619   5.882   2.284   1.352
 6907SOL    HW121620   5.838   2.208   1.306
 6907SOL    HW221621   5.842   2.296   1.443
 6908SOL     OW21622   1.982   5.464   6.190
 6908SOL    HW121623   2.064   5.413   6.218
 6908SOL    HW221624   1.987   5.484   6.092
 6909SOL     OW21625   5.129   3.768   0.592
 6909SOL    HW121626   5.220   3.767   0.551
 6909SOL    HW221627   5.082   3.852   0.565
 6910SOL     OW21628   1.099   3.547   3.205
 6910SOL    HW121629   1.118   3.454   3.235
 6910SOL    HW221630   1.076   3.604   3.285
 6911SOL     OW21631   4.162   0.000   3.998
 6911SOL    HW121632   4.210   0.015   3.911
 6911SOL    HW221633   4.223   6.974   4.062
 6912SOL     OW21634   3.006   3.162   6.112
 6912SOL    HW121635   3.034   3.236   6.173
 6912SOL    HW221636   2.940   3.103   6.159
 6913SOL     OW21637   5.509   6.116   4.811
 6913SOL    HW121638   5.418   6.112   4.852
 6913SOL    HW221639   5.504   6.164   4.724
 6914SOL     OW21640   5.564   4.393   3.967
 6914SOL    HW121641   5.604   4.456   4.034
 6914SOL    HW221642   5.637   4.341   3.923
 6915SOL     OW21643   6.948   2.655   1.873
 6915SOL    HW121644   6.954   2.664   1.972
 6915SOL    HW221645   0.013   2.685   1.832
 6916SOL     OW21646   5.609   1.138   0.716
 6916SOL    HW121647   5.703   1.117   0.744
 6916SOL    HW221648   5.587   1.090   0.632
 6917SOL     OW21649   4.020   6.853   1.166
 6917SOL    HW121650   3.942   6.903   1.130
 6917SOL    HW221651   4.049   6.784   1.099
 6918SOL     OW21652   0.331   2.542   4.105
 6918SOL    HW121653   0.373   2.606   4.040
 6918SOL    HW221654   0.371   2.452   4.093
 6919SOL     OW21655   5.847   5.309   4.393
 6919SOL    HW121656   5.920   5.376   4.380
 6919SOL    HW221657   5.838   5.288   4.490
 6920SOL     OW21658   4.800   6.341   4.972
 6920SOL    HW121659   4.856   6.421   4.994
 6920SOL    HW221660   4.859   6.261   4.964
 6921SOL     OW21661   4.654   6.227   3.438
 6921SOL    HW121662   4.627   6.302   3.498
 6921SOL    HW221663   4.636   6.140   3.483
 6922SOL     OW21664   1.801   5.983   5.841
 6922SOL    HW121665   1.766   5.897   5.802
 6922SOL    HW221666   1.724   6.046   5.854
 6923SOL     OW21667   5.069   5.772   2.439
 6923SOL    HW121668   5.074   5.790   2.537
 6923SOL    HW221669   5.160   5.751   2.404
 6924SOL     OW21670   2.303   4.551   0.016
 6924SOL    HW121671   2.269   4.458   0.028
 6924SOL    HW221672   2.242   4.601   6.976
 6925SOL     OW21673   5.321   5.516   4.606
 6925SOL    HW121674   5.295   5.466   4.689
 6925SOL    HW221675   5.342   5.451   4.533
 6926SOL     OW21676   2.726   2.336   0.533
 6926SOL    HW121677   2.760   2.322   0.626
 6926SOL    HW221678   2.801   2.329   0.468
 6927SOL     OW21679   3.904   2.430   5.760
 6927SOL    HW121680   3.914   2.526   5.786
 6927SOL    HW221681   3.842   2.384   5.825
 6928SOL     OW21682   5.568   5.516   1.146
 6928SOL    HW121683   5.540   5.612   1.153
 6928SOL    HW221684   5.635   5.496   1.218
 6929SOL     OW21685   4.903   5.889   2.282
 6929SOL    HW121686   4.962   5.836   2.344
 6929SOL    HW221687   4.808   5.875   2.307
 6930SOL     OW21688   1.406   0.862   1.581
 6930SOL    HW121689   1.451   0.944   1.617
 6930SOL    HW221690   1.314   0.885   1.550
 6931SOL     OW21691   1.615   1.265   2.339
 6931SOL    HW121692   1.714   1.255   2.331
 6931SOL    HW221693   1.594   1.346   2.393
 6932SOL     OW21694   4.588   6.857   0.522
 6932SOL    HW121695   4.540   6.892   0.442
 6932SOL    HW221696   4.669   6.912   0.539
 6933SOL     OW21697   3.432   6.231   5.622
 6933SOL    HW121698   3.405   6.295   5.694
 6933SOL    HW221699   3.498   6.166   5.659
 6934SOL     OW21700   4.754   3.276   6.129
 6934SOL    HW121701   4.791   3.242   6.215
 6934SOL    HW221702   4.791   3.223   6.053
 6935SOL     OW21703   4.648   5.809   2.329
 6935SOL    HW121704   4.632   5.748   2.251
 6935SOL    HW221705   4.616   5.765   2.413
 6936SOL     OW21706   6.432   3.271   4.051
 6936SOL    HW121707   6.470   3.196   4.105
 6936SOL    HW221708   6.499   3.346   4.047
 6937SOL     OW21709   6.100   6.379   1.048
 6937SOL    HW121710   6.084   6.286   1.082
 6937SOL    HW221711   6.182   6.380   0.991
 6938SOL     OW21712   0.052   2.310   4.275
 6938SOL    HW121713   0.085   2.346   4.363
 6938SOL    HW221714   0.084   2.216   4.263
 6939SOL     OW21715   0.043   5.294   2.532
 6939SOL    HW121716   0.031   5.378   2.585
 6939SOL    HW221717   0.141   5.283   2.511
 6940SOL     OW21718   3.600   0.691   0.321
 6940SOL    HW121719   3.623   0.600   0.355
 6940SOL    HW221720   3.652   0.759   0.372
 6941SOL     OW21721   3.416   3.829   1.942
 6941SOL    HW121722   3.367   3.744   1.922
 6941SOL    HW221723   3.500   3.809   1.992
 6942SOL     OW21724   5.833   6.443   2.375
 6942SOL    HW121725   5.837   6.528   2.322
 6942SOL    HW221726   5.889   6.373   2.330
 6943SOL     OW21727   3.891   5.685   1.097
 6943SOL    HW121728   3.893   5.639   1.185
 6943SOL    HW221729   3.972   5.660   1.044
 6944SOL     OW21730   1.128   5.526   6.015
 6944SOL    HW121731   1.045   5.472   6.010
 6944SOL    HW221732   1.195   5.480   6.073
 6945SOL     OW21733   6.990   1.882   1.147
 6945SOL    HW121734   6.906   1.934   1.166
 6945SOL    HW221735   0.041   1.914   1.208
 6946SOL     OW21736   4.221   6.831   1.374
 6946SOL    HW121737   4.185   6.853   1.465
 6946SOL    HW221738   4.152   6.853   1.305
 6947SOL     OW21739   3.909   5.197   6.521
 6947SOL    HW121740   3.903   5.295   6.540
 6947SOL    HW221741   3.996   5.178   6.475
 6948SOL     OW21742   1.131   6.391   0.850
 6948SOL    HW121743   1.103   6.336   0.929
 6948SOL    HW221744   1.110   6.487   0.867
 6949SOL     OW21745   2.897   0.467   3.475
 6949SOL    HW121746   2.826   0.435   3.412
 6949SOL    HW221747   2.880   0.428   3.566
 6950SOL     OW21748   1.304   0.801   4.978
 6950SOL    HW121749   1.341   0.892   4.964
 6950SOL    HW221750   1.336   0.765   5.066
 6951SOL     OW21751   0.681   5.718   6.150
 6951SOL    HW121752   0.614   5.782   6.187
 6951SOL    HW221753   0.766   5.726   6.201
 6952SOL     OW21754   1.478   5.256   3.458
 6952SOL    HW121755   1.409   5.184   3.447
 6952SOL    HW221756   1.534   5.262   3.376
 6953SOL     OW21757   5.119   6.537   0.835
 6953SOL    HW121758   5.178   6.538   0.754
 6953SOL    HW221759   5.175   6.537   0.918
 6954SOL     OW21760   0.940   4.681   1.642
 6954SOL    HW121761   0.850   4.723   1.630
 6954SOL    HW221762   0.966   4.686   1.738
 6955SOL     OW21763   4.972   0.654   2.442
 6955SOL    HW121764   5.053   0.712   2.452
 6955SOL    HW221765   4.996   0.572   2.390
 6956SOL     OW21766   4.851   5.927   3.420
 6956SOL    HW121767   4.761   5.911   3.462
 6956SOL    HW221768   4.838   5.963   3.328
 6957SOL     OW21769   6.187   5.923   0.342
 6957SOL    HW121770   6.206   5.985   0.265
 6957SOL    HW221771   6.089   5.909   0.351
 6958SOL     OW21772   4.090   3.230   4.760
 6958SOL    HW121773   4.190   3.225   4.764
 6958SOL    HW221774   4.056   3.280   4.839
 6959SOL     OW21775   1.840   3.393   3.326
 6959SOL    HW121776   1.860   3.310   3.273
 6959SOL    HW221777   1.807   3.464   3.264
 6960SOL     OW21778   1.823   4.074   0.852
 6960SOL    HW121779   1.847   3.988   0.896
 6960SOL    HW221780   1.786   4.138   0.920
 6961SOL     OW21781   6.336   1.098   4.946
 6961SOL    HW121782   6.334   1.023   4.879
 6961SOL    HW221783   6.371   1.063   5.033
 6962SOL     OW21784   4.391   5.767   0.942
 6962SOL    HW121785   4.394   5.754   1.041
 6962SOL    HW221786   4.482   5.752   0.904
 6963SOL     OW21787   5.177   5.498   0.875
 6963SOL    HW121788   5.198   5.489   0.972
 6963SOL    HW221789   5.260   5.481   0.821
 6964SOL     OW21790   3.755   1.026   5.830
 6964SOL    HW121791   3.808   0.961   5.884
 6964SOL    HW221792   3.753   0.997   5.734
 6965SOL     OW21793   1.800   1.617   6.610
 6965SOL    HW121794   1.769   1.706   6.642
 6965SOL    HW221795   1.721   1.559   6.591
 6966SOL     OW21796   0.500   0.787   2.806
 6966SOL    HW121797   0.592   0.749   2.798
 6966SOL    HW221798   0.505   0.878   2.847
 6967SOL     OW21799   3.424   1.136   5.731
 6967SOL    HW121800   3.353   1.106   5.668
 6967SOL    HW221801   3.446   1.062   5.794
 6968SOL     OW21802   3.039   1.328   3.637
 6968SOL    HW121803   3.109   1.270   3.595
 6968SOL    HW221804   2.967   1.346   3.570
 6969SOL     OW21805   3.162   2.360   1.382
 6969SOL    HW121806   3.197   2.453   1.369
 6969SOL    HW221807   3.150   2.342   1.479
 6970SOL     OW21808   4.073   3.816   5.624
 6970SOL    HW121809   4.021   3.768   5.694
 6970SOL    HW221810   4.015   3.828   5.543
 6971SOL     OW21811   5.917   4.646   1.171
 6971SOL    HW121812   5.946   4.610   1.083
 6971SOL    HW221813   5.836   4.597   1.203
 6972SOL     OW21814   4.918   4.248   2.902
 6972SOL    HW121815   4.974   4.301   2.838
 6972SOL    HW221816   4.821   4.267   2.886
 6973SOL     OW21817   0.851   2.334   3.333
 6973SOL    HW121818   0.841   2.335   3.433
 6973SOL    HW221819   0.912   2.407   3.305
 6974SOL     OW21820   3.200   3.934   2.564
 6974SOL    HW121821   3.163   3.849   2.528
 6974SOL    HW221822   3.269   3.970   2.501
 6975SOL     OW21823   1.378   6.854   4.598
 6975SOL    HW121824   1.408   6.808   4.514
 6975SOL    HW221825   1.283   6.882   4.588
 6976SOL     OW21826   6.609   4.835   6.136
 6976SOL    HW121827   6.529   4.891   6.115
 6976SOL    HW221828   6.581   4.739   6.141
 6977SOL     OW21829   3.730   3.475   0.778
 6977SOL    HW121830   3.709   3.563   0.735
 6977SOL    HW221831   3.666   3.406   0.745
 6978SOL     OW21832   5.146   2.331   1.934
 6978SOL    HW121833   5.060   2.340   1.883
 6978SOL    HW221834   5.150   2.240   1.975
 6979SOL     OW21835   1.009   4.110   0.970
 6979SOL    HW121836   0.994   4.047   1.046
 6979SOL    HW221837   1.077   4.071   0.908
 6980SOL     OW21838   1.801   1.113   3.505
 6980SOL    HW121839   1.893   1.148   3.524
 6980SOL    HW221840   1.802   1.013   3.513
 6981SOL     OW21841   3.633   3.334   5.720
 6981SOL    HW121842   3.653   3.327   5.623
 6981SOL    HW221843   3.590   3.250   5.752
 6982SOL     OW21844   1.160   1.196   4.468
 6982SOL    HW121845   1.103   1.151   4.399
 6982SOL    HW221846   1.211   1.127   4.520
 6983SOL     OW21847   4.460   1.430   4.813
 6983SOL    HW121848   4.429   1.433   4.908
 6983SOL    HW221849   4.460   1.523   4.776
 6984SOL     OW21850   2.546   1.549   3.299
 6984SOL    HW121851   2.553   1.634   3.352
 6984SOL    HW221852   2.450   1.523   3.291
 6985SOL     OW21853   6.026   5.129   0.862
 6985SOL    HW121854   6.108   5.071   0.854
 6985SOL    HW221855   5.972   5.099   0.941
 6986SOL     OW21856   3.306   0.179   6.873
 6986SOL    HW121857   3.208   0.196   6.882
 6986SOL    HW221858   3.349   0.255   6.824
 6987SOL     OW21859   6.616   1.155   6.462
 6987SOL    HW121860   6.562   1.072   6.454
 6987SOL    HW221861   6.664   1.173   6.376
 6988SOL     OW21862   1.377   0.207   6.232
 6988SOL    HW121863   1.320   0.286   6.209
 6988SOL    HW221864   1.397   0.207   6.330
 6989SOL     OW21865   0.611   4.641   2.997
 6989SOL    HW121866   0.617   4.728   2.948
 6989SOL    HW221867   0.520   4.631   3.037
 6990SOL     OW21868   4.365   3.215   0.904
 6990SOL    HW121869   4.285   3.259   0.863
 6990SOL    HW221870   4.335   3.151   0.975
 6991SOL     OW21871   4.707   4.292   3.203
 6991SOL    HW121872   4.689   4.288   3.105
 6991SOL    HW221873   4.727   4.200   3.237
 6992SOL     OW21874   5.785   0.054   6.804
 6992SOL    HW121875   5.881   0.081   6.800
 6992SOL    HW221876   5.738   0.110   6.873
 6993SOL     OW21877   5.947   0.538   2.218
 6993SOL    HW121878   5.918   0.451   2.178
 6993SOL    HW221879   5.927   0.537   2.316
 6994SOL     OW21880   0.926   2.203   4.051
 6994SOL    HW121881   1.014   2.158   4.069
 6994SOL    HW221882   0.916   2.282   4.112
 6995SOL     OW21883   0.627   3.759   6.699
 6995SOL    HW121884   0.649   3.771   6.602
 6995SOL    HW221885   0.601   3.664   6.717
 6996SOL     OW21886   2.035   0.480   0.118
 6996SOL    HW121887   2.034   0.487   0.019
 6996SOL    HW221888   2.101   0.410   0.146
 6997SOL     OW21889   0.516   5.080   5.066
 6997SOL    HW121890   0.496   4.984   5.048
 6997SOL    HW221891   0.484   5.104   5.157
 6998SOL     OW21892   1.804   1.658   1.548
 6998SOL    HW121893   1.816   1.575   1.602
 6998SOL    HW221894   1.706   1.674   1.534
 6999SOL     OW21895   1.745   2.659   5.870
 6999SOL    HW121896   1.645   2.662   5.873
 6999SOL    HW221897   1.776   2.565   5.887
 7000SOL     OW21898   6.243   6.768   2.389
 7000SOL    HW121899   6.201   6.756   2.479
 7000SOL    HW221900   6.280   6.681   2.357
 7001SOL     OW21901   0.701   3.271   5.137
 7001SOL    HW121902   0.779   3.211   5.155
 7001SOL    HW221903   0.734   3.362   5.111
 7002SOL     OW21904   1.981   5.425   4.503
 7002SOL    HW121905   1.995   5.473   4.417
 7002SOL    HW221906   2.034   5.340   4.502
 7003SOL     OW21907   4.691   6.037   1.287
 7003SOL    HW121908   4.784   6.073   1.283
 7003SOL    HW221909   4.636   6.076   1.213
 7004SOL     OW21910   0.335   6.138   1.099
 7004SOL    HW121911   0.347   6.132   1.198
 7004SOL    HW221912   0.297   6.228   1.076
 7005SOL     OW21913   1.264   0.673   0.867
 7005SOL    HW121914   1.280   0.647   0.772
 7005SOL    HW221915   1.329   0.744   0.894
 7006SOL     OW21916   5.903   5.622   3.367
 7006SOL    HW121917   5.923   5.678   3.448
 7006SOL    HW221918   5.919   5.676   3.284
 7007SOL     OW21919   4.007   0.447   4.576
 7007SOL    HW121920   4.042   0.445   4.482
 7007SOL    HW221921   3.912   0.477   4.576
 7008SOL     OW21922   0.443   4.001   4.563
 7008SOL    HW121923   0.371   4.025   4.498
 7008SOL    HW221924   0.480   3.911   4.538
 7009SOL     OW21925   3.950   6.595   2.541
 7009SOL    HW121926   3.873   6.604   2.477
 7009SOL    HW221927   4.036   6.594   2.489
 7010SOL     OW21928   5.164   3.983   3.722
 7010SOL    HW121929   5.176   3.916   3.795
 7010SOL    HW221930   5.101   3.946   3.653
 7011SOL     OW21931   3.699   0.223   7.002
 7011SOL    HW121932   3.727   0.319   7.010
 7011SOL    HW221933   3.764   0.166   0.031
 7012SOL     OW21934   0.759   1.587   1.207
 7012SOL    HW121935   0.778   1.667   1.150
 7012SOL    HW221936   0.672   1.601   1.255
 7013SOL     OW21937   1.181   6.709   6.517
 7013SOL    HW121938   1.265   6.743   6.558
 7013SOL    HW221939   1.132   6.651   6.582
 7014SOL     OW21940   5.509   3.029   6.915
 7014SOL    HW121941   5.426   2.974   6.915
 7014SOL    HW221942   5.552   3.025   7.005
 7015SOL     OW21943   6.013   4.145   1.571
 7015SOL    HW121944   6.060   4.145   1.659
 7015SOL    HW221945   5.921   4.107   1.582
 7016SOL     OW21946   4.094   4.742   1.206
 7016SOL    HW121947   4.117   4.807   1.279
 7016SOL    HW221948   4.125   4.651   1.232
 7017SOL     OW21949   3.024   5.424   3.240
 7017SOL    HW121950   3.023   5.336   3.286
 7017SOL    HW221951   2.971   5.418   3.155
 7018SOL     OW21952   5.014   3.661   4.427
 7018SOL    HW121953   5.085   3.596   4.455
 7018SOL    HW221954   4.952   3.617   4.362
 7019SOL     OW21955   4.003   4.261   0.482
 7019SOL    HW121956   4.079   4.235   0.542
 7019SOL    HW221957   4.039   4.291   0.394
 7020SOL     OW21958   6.823   4.142   5.660
 7020SOL    HW121959   6.852   4.129   5.754
 7020SOL    HW221960   6.723   4.132   5.654
 7021SOL     OW21961   1.841   2.875   4.193
 7021SOL    HW121962   1.760   2.933   4.183
 7021SOL    HW221963   1.910   2.924   4.247
 7022SOL     OW21964   4.901   6.954   6.824
 7022SOL    HW121965   4.980   6.967   6.765
 7022SOL    HW221966   4.846   0.016   6.825
 7023SOL     OW21967   0.485   3.186   1.572
 7023SOL    HW121968   0.469   3.228   1.483
 7023SOL    HW221969   0.557   3.117   1.563
 7024SOL     OW21970   3.226   3.305   4.250
 7024SOL    HW121971   3.224   3.389   4.305
 7024SOL    HW221972   3.143   3.252   4.267
 7025SOL     OW21973   4.123   0.733   1.227
 7025SOL    HW121974   4.196   0.799   1.215
 7025SOL    HW221975   4.056   0.743   1.154
 7026SOL     OW21976   3.453   2.087   2.120
 7026SOL    HW121977   3.544   2.118   2.092
 7026SOL    HW221978   3.404   2.049   2.042
 7027SOL     OW21979   2.552   5.739   4.183
 7027SOL    HW121980   2.617   5.808   4.153
 7027SOL    HW221981   2.470   5.743   4.125
 7028SOL     OW21982   3.707   0.755   3.813
 7028SOL    HW121983   3.773   0.826   3.836
 7028SOL    HW221984   3.732   0.670   3.859
 7029SOL     OW21985   4.632   3.855   5.467
 7029SOL    HW121986   4.582   3.793   5.405
 7029SOL    HW221987   4.661   3.936   5.416
 7030SOL     OW21988   0.399   1.173   4.340
 7030SOL    HW121989   0.362   1.113   4.410
 7030SOL    HW221990   0.425   1.261   4.380
 7031SOL     OW21991   3.989   6.066   6.932
 7031SOL    HW121992   4.012   6.078   6.835
 7031SOL    HW221993   4.026   5.979   6.965
 7032SOL     OW21994   4.464   1.648   3.731
 7032SOL    HW121995   4.391   1.646   3.662
 7032SOL    HW221996   4.553   1.637   3.685
 7033SOL     OW21997   1.176   2.872   3.400
 7033SOL    HW121998   1.228   2.950   3.434
 7033SOL    HW221999   1.226   2.830   3.324
 7034SOL     OW22000   0.021   1.329   2.683
 7034SOL    HW122001   6.964   1.334   2.621
 7034SOL    HW222002   0.105   1.321   2.629
 7035SOL     OW22003   1.904   0.359   0.579
 7035SOL    HW122004   1.870   0.357   0.485
 7035SOL    HW222005   1.831   0.331   0.642
 7036SOL     OW22006   6.833   1.365   2.305
 7036SOL    HW122007   6.908   1.322   2.255
 7036SOL    HW222008   6.815   1.456   2.266
 7037SOL     OW22009   1.007   1.070   6.235
 7037SOL    HW122010   0.959   1.157   6.244
 7037SOL    HW222011   1.034   1.036   6.325
 7038SOL     OW22012   2.564   4.684   4.936
 7038SOL    HW122013   2.663   4.673   4.939
 7038SOL    HW222014   2.541   4.781   4.933
 7039SOL     OW22015   0.362   5.742   3.249
 7039SOL    HW122016   0.455   5.707   3.251
 7039SOL    HW222017   0.338   5.768   3.155
 7040SOL     OW22018   4.493   2.692   6.031
 7040SOL    HW122019   4.468   2.775   5.983
 7040SOL    HW222020   4.535   2.715   6.119
 7041SOL     OW22021   0.086   1.550   3.031
 7041SOL    HW122022   0.062   1.578   2.938
 7041SOL    HW222023   0.029   1.601   3.096
 7042SOL     OW22024   4.148   5.917   4.465
 7042SOL    HW122025   4.099   5.845   4.416
 7042SOL    HW222026   4.215   5.959   4.404
 7043SOL     OW22027   2.628   5.261   3.409
 7043SOL    HW122028   2.639   5.207   3.492
 7043SOL    HW222029   2.645   5.357   3.429
 7044SOL     OW22030   5.232   6.070   5.556
 7044SOL    HW122031   5.192   6.135   5.491
 7044SOL    HW222032   5.158   6.024   5.607
 7045SOL     OW22033   5.137   5.756   2.115
 7045SOL    HW122034   5.211   5.715   2.168
 7045SOL    HW222035   5.102   5.690   2.049
 7046SOL     OW22036   3.523   1.561   3.574
 7046SOL    HW122037   3.450   1.576   3.641
 7046SOL    HW222038   3.603   1.525   3.621
 7047SOL     OW22039   6.884   0.645   1.605
 7047SOL    HW122040   6.888   0.656   1.505
 7047SOL    HW222041   6.977   0.634   1.641
 7048SOL     OW22042   5.833   6.848   4.790
 7048SOL    HW122043   5.829   6.948   4.783
 7048SOL    HW222044   5.840   6.821   4.886
 7049SOL     OW22045   3.540   1.672   1.453
 7049SOL    HW122046   3.565   1.677   1.549
 7049SOL    HW222047   3.450   1.629   1.444
 7050SOL     OW22048   3.947   3.823   1.082
 7050SOL    HW122049   3.976   3.851   1.173
 7050SOL    HW222050   4.014   3.759   1.044
 7051SOL     OW22051   6.692   6.548   1.216
 7051SOL    HW122052   6.670   6.452   1.232
 7051SOL    HW222053   6.781   6.555   1.170
 7052SOL     OW22054   6.328   0.705   4.379
 7052SOL    HW122055   6.346   0.783   4.439
 7052SOL    HW222056   6.323   0.737   4.284
 7053SOL     OW22057   1.420   3.881   4.282
 7053SOL    HW122058   1.358   3.817   4.235
 7053SOL    HW222059   1.368   3.961   4.311
 7054SOL     OW22060   0.162   6.949   1.187
 7054SOL    HW122061   0.132   6.902   1.270
 7054SOL    HW222062   0.119   6.907   1.108
 7055SOL     OW22063   2.816   0.543   0.100
 7055SOL    HW122064   2.901   0.580   0.063
 7055SOL    HW222065   2.829   0.447   0.125
 7056SOL     OW22066   6.866   5.336   1.287
 7056SOL    HW122067   6.884   5.257   1.229
 7056SOL    HW222068   6.952   5.375   1.319
 7057SOL     OW22069   3.121   5.302   3.875
 7057SOL    HW122070   3.168   5.273   3.959
 7057SOL    HW222071   3.169   5.264   3.796
 7058SOL     OW22072   5.278   1.970   6.222
 7058SOL    HW122073   5.260   1.883   6.175
 7058SOL    HW222074   5.317   2.035   6.158
 7059SOL     OW22075   1.436   1.107   4.128
 7059SOL    HW122076   1.530   1.141   4.123
 7059SOL    HW222077   1.423   1.034   4.061
 7060SOL     OW22078   3.794   6.961   1.035
 7060SOL    HW122079   3.732   6.935   1.109
 7060SOL    HW222080   3.742   7.002   0.960
 7061SOL     OW22081   0.226   2.728   3.387
 7061SOL    HW122082   0.253   2.662   3.457
 7061SOL    HW222083   0.302   2.791   3.370
 7062SOL     OW22084   3.834   2.053   5.218
 7062SOL    HW122085   3.898   2.119   5.258
 7062SOL    HW222086   3.880   1.965   5.205
 7063SOL     OW22087   1.283   0.489   1.437
 7063SOL    HW122088   1.324   0.547   1.366
 7063SOL    HW222089   1.317   0.396   1.426
 7064SOL     OW22090   4.289   1.819   6.349
 7064SOL    HW122091   4.196   1.783   6.343
 7064SOL    HW222092   4.286   1.911   6.388
 7065SOL     OW22093   3.099   4.076   5.006
 7065SOL    HW122094   3.122   4.077   4.909
 7065SOL    HW222095   3.173   4.118   5.059
 7066SOL     OW22096   4.262   6.720   5.682
 7066SOL    HW122097   4.278   6.640   5.741
 7066SOL    HW222098   4.221   6.793   5.736
 7067SOL     OW22099   1.213   3.888   5.983
 7067SOL    HW122100   1.312   3.880   5.967
 7067SOL    HW222101   1.178   3.801   6.018
 7068SOL     OW22102   5.617   3.990   4.312
 7068SOL    HW122103   5.637   4.066   4.250
 7068SOL    HW222104   5.610   4.025   4.406
 7069SOL     OW22105   5.521   1.971   5.336
 7069SOL    HW122106   5.570   1.906   5.394
 7069SOL    HW222107   5.521   1.939   5.242
 7070SOL     OW22108   0.874   6.084   4.079
 7070SOL    HW122109   0.796   6.146   4.081
 7070SOL    HW222110   0.849   5.999   4.035
 7071SOL     OW22111   4.354   5.941   6.428
 7071SOL    HW122112   4.332   6.036   6.407
 7071SOL    HW222113   4.453   5.932   6.443
 7072SOL     OW22114   2.631   4.781   0.038
 7072SOL    HW122115   2.542   4.764   0.081
 7072SOL    HW222116   2.638   4.725   6.977
 7073SOL     OW22117   3.314   0.426   3.093
 7073SOL    HW122118   3.272   0.343   3.055
 7073SOL    HW222119   3.313   0.498   3.023
 7074SOL     OW22120   6.366   3.231   2.916
 7074SOL    HW122121   6.462   3.258   2.927
 7074SOL    HW222122   6.359   3.132   2.919
 7075SOL     OW22123   2.879   5.294   4.321
 7075SOL    HW122124   2.931   5.327   4.400
 7075SOL    HW222125   2.782   5.315   4.334
 7076SOL     OW22126   5.952   2.431   0.641
 7076SOL    HW122127   5.994   2.492   0.573
 7076SOL    HW222128   6.005   2.347   0.647
 7077SOL     OW22129   2.231   4.102   3.546
 7077SOL    HW122130   2.190   4.090   3.456
 7077SOL    HW222131   2.201   4.029   3.607
 7078SOL     OW22132   5.933   6.608   1.105
 7078SOL    HW122133   5.921   6.620   1.204
 7078SOL    HW222134   5.973   6.518   1.087
 7079SOL     OW22135   1.378   6.543   3.442
 7079SOL    HW122136   1.462   6.569   3.395
 7079SOL    HW222137   1.304   6.604   3.415
 7080SOL     OW22138   3.873   2.114   4.128
 7080SOL    HW122139   3.935   2.036   4.143
 7080SOL    HW222140   3.896   2.159   4.042
 7081SOL     OW22141   1.066   5.612   0.462
 7081SOL    HW122142   1.026   5.574   0.379
 7081SOL    HW222143   1.131   5.684   0.438
 7082SOL     OW22144   6.712   4.152   0.266
 7082SOL    HW122145   6.746   4.128   0.357
 7082SOL    HW222146   6.742   4.083   0.200
 7083SOL     OW22147   0.254   1.372   2.176
 7083SOL    HW122148   0.195   1.453   2.181
 7083SOL    HW222149   0.350   1.401   2.181
 7084SOL     OW22150   0.534   5.537   5.374
 7084SOL    HW122151   0.562   5.632   5.392
 7084SOL    HW222152   0.569   5.478   5.447
 7085SOL     OW22153   6.398   2.373   2.833
 7085SOL    HW122154   6.400   2.349   2.736
 7085SOL    HW222155   6.491   2.398   2.863
 7086SOL     OW22156   5.468   0.863   6.481
 7086SOL    HW122157   5.542   0.919   6.517
 7086SOL    HW222158   5.505   0.785   6.431
 7087SOL     OW22159   5.415   4.014   2.332
 7087SOL    HW122160   5.330   3.964   2.345
 7087SOL    HW222161   5.492   3.956   2.357
 7088SOL     OW22162   5.093   2.545   5.413
 7088SOL    HW122163   5.125   2.461   5.457
 7088SOL    HW222164   5.092   2.619   5.481
 7089SOL     OW22165   2.126   4.109   3.291
 7089SOL    HW122166   2.181   4.140   3.213
 7089SOL    HW222167   2.032   4.139   3.278
 7090SOL     OW22168   2.341   1.889   0.441
 7090SOL    HW122169   2.421   1.853   0.488
 7090SOL    HW222170   2.312   1.825   0.370
 7091SOL     OW22171   0.716   0.985   1.636
 7091SOL    HW122172   0.717   0.994   1.536
 7091SOL    HW222173   0.647   1.045   1.674
 7092SOL     OW22174   3.995   3.212   5.673
 7092SOL    HW122175   4.004   3.117   5.644
 7092SOL    HW222176   3.933   3.260   5.610
 7093SOL     OW22177   3.380   3.894   1.667
 7093SOL    HW122178   3.333   3.816   1.625
 7093SOL    HW222179   3.411   3.868   1.758
 7094SOL     OW22180   1.546   0.194   5.746
 7094SOL    HW122181   1.467   0.136   5.723
 7094SOL    HW222182   1.562   0.190   5.844
 7095SOL     OW22183   3.335   4.679   6.071
 7095SOL    HW122184   3.359   4.582   6.080
 7095SOL    HW222185   3.411   4.729   6.031
 7096SOL     OW22186   6.150   0.610   1.860
 7096SOL    HW122187   6.171   0.704   1.832
 7096SOL    HW222188   6.235   0.562   1.882
 7097SOL     OW22189   5.363   1.070   1.610
 7097SOL    HW122190   5.444   1.096   1.662
 7097SOL    HW222191   5.295   1.029   1.672
 7098SOL     OW22192   1.366   5.783   5.826
 7098SOL    HW122193   1.418   5.854   5.777
 7098SOL    HW222194   1.269   5.807   5.824
 7099SOL     OW22195   3.711   2.015   4.532
 7099SOL    HW122196   3.756   1.962   4.460
 7099SOL    HW222197   3.775   2.082   4.569
 7100SOL     OW22198   6.381   3.217   0.507
 7100SOL    HW122199   6.407   3.126   0.473
 7100SOL    HW222200   6.311   3.255   0.447
 7101SOL     OW22201   2.695   0.886   5.530
 7101SOL    HW122202   2.741   0.944   5.597
 7101SOL    HW222203   2.748   0.802   5.516
 7102SOL     OW22204   5.670   0.372   1.423
 7102SOL    HW122205   5.717   0.375   1.511
 7102SOL    HW222206   5.710   0.299   1.367
 7103SOL     OW22207   5.527   5.247   1.525
 7103SOL    HW122208   5.501   5.303   1.603
 7103SOL    HW222209   5.477   5.276   1.444
 7104SOL     OW22210   6.060   3.722   2.329
 7104SOL    HW122211   6.011   3.788   2.385
 7104SOL    HW222212   6.064   3.755   2.234
 7105SOL     OW22213   3.666   3.727   4.416
 7105SOL    HW122214   3.613   3.680   4.346
 7105SOL    HW222215   3.733   3.787   4.373
 7106SOL     OW22216   3.642   3.040   1.311
 7106SOL    HW122217   3.548   3.059   1.338
 7106SOL    HW222218   3.688   3.126   1.289
 7107SOL     OW22219   3.898   0.601   1.007
 7107SOL    HW122220   3.972   0.547   0.967
 7107SOL    HW222221   3.820   0.602   0.943
 7108SOL     OW22222   2.778   6.259   2.555
 7108SOL    HW122223   2.807   6.215   2.640
 7108SOL    HW222224   2.795   6.197   2.478
 7109SOL     OW22225   1.597   1.249   6.896
 7109SOL    HW122226   1.600   1.149   6.884
 7109SOL    HW222227   1.686   1.281   6.927
 7110SOL     OW22228   3.339   5.840   4.247
 7110SOL    HW122229   3.345   5.927   4.198
 7110SOL    HW222230   3.320   5.858   4.344
 7111SOL     OW22231   1.585   1.922   4.055
 7111SOL    HW122232   1.599   2.021   4.061
 7111SOL    HW222233   1.672   1.879   4.031
 7112SOL     OW22234   1.862   4.539   4.436
 7112SOL    HW122235   1.886   4.617   4.493
 7112SOL    HW222236   1.769   4.551   4.401
 7113SOL     OW22237   3.388   4.133   5.100
 7113SOL    HW122238   3.371   4.041   5.137
 7113SOL    HW222239   3.476   4.166   5.134
 7114SOL     OW22240   4.840   5.255   1.411
 7114SOL    HW122241   4.742   5.240   1.422
 7114SOL    HW222242   4.872   5.207   1.329
 7115SOL     OW22243   5.274   3.601   6.733
 7115SOL    HW122244   5.255   3.564   6.824
 7115SOL    HW222245   5.362   3.566   6.700
 7116SOL     OW22246   5.544   4.276   3.247
 7116SOL    HW122247   5.454   4.239   3.270
 7116SOL    HW222248   5.536   4.338   3.169
 7117SOL     OW22249   0.133   0.068   4.525
 7117SOL    HW122250   0.203   0.108   4.465
 7117SOL    HW222251   0.172   0.052   4.615
 7118SOL     OW22252   4.088   4.165   5.555
 7118SOL    HW122253   4.090   4.081   5.501
 7118SOL    HW222254   4.134   4.149   5.643
 7119SOL     OW22255   5.384   0.976   5.120
 7119SOL    HW122256   5.330   1.012   5.044
 7119SOL    HW222257   5.442   0.901   5.086
 7120SOL     OW22258   4.269   1.701   2.020
 7120SOL    HW122259   4.351   1.738   2.063
 7120SOL    HW222260   4.287   1.608   1.988
 7121SOL     OW22261   0.333   6.360   3.121
 7121SOL    HW122262   0.387   6.284   3.084
 7121SOL    HW222263   0.393   6.439   3.136
 7122SOL     OW22264   1.861   0.317   5.671
 7122SOL    HW122265   1.844   0.410   5.702
 7122SOL    HW222266   1.943   0.281   5.715
 7123SOL     OW22267   0.403   4.942   3.814
 7123SOL    HW122268   0.430   4.951   3.718
 7123SOL    HW222269   0.484   4.955   3.872
 7124SOL     OW22270   0.838   2.409   1.478
 7124SOL    HW122271   0.902   2.332   1.472
 7124SOL    HW222272   0.769   2.389   1.547
 7125SOL     OW22273   1.320   1.326   1.691
 7125SOL    HW122274   1.332   1.264   1.768
 7125SOL    HW222275   1.361   1.287   1.609
 7126SOL     OW22276   4.481   5.832   0.536
 7126SOL    HW122277   4.485   5.917   0.484
 7126SOL    HW222278   4.386   5.799   0.539
 7127SOL     OW22279   2.614   6.218   5.558
 7127SOL    HW122280   2.702   6.173   5.540
 7127SOL    HW222281   2.540   6.161   5.523
 7128SOL     OW22282   3.929   3.635   6.443
 7128SOL    HW122283   4.011   3.662   6.392
 7128SOL    HW222284   3.872   3.716   6.458
 7129SOL     OW22285   1.431   1.300   1.400
 7129SOL    HW122286   1.512   1.271   1.349
 7129SOL    HW222287   1.380   1.219   1.431
 7130SOL     OW22288   3.636   6.241   4.316
 7130SOL    HW122289   3.691   6.257   4.398
 7130SOL    HW222290   3.676   6.292   4.239
 7131SOL     OW22291   3.364   1.019   1.692
 7131SOL    HW122292   3.458   1.054   1.691
 7131SOL    HW222293   3.360   0.935   1.638
 7132SOL     OW22294   5.202   4.131   0.302
 7132SOL    HW122295   5.233   4.226   0.309
 7132SOL    HW222296   5.275   4.075   0.263
 7133SOL     OW22297   4.315   4.803   4.491
 7133SOL    HW122298   4.249   4.819   4.417
 7133SOL    HW222299   4.405   4.838   4.463
 7134SOL     OW22300   5.312   6.674   2.142
 7134SOL    HW122301   5.325   6.737   2.219
 7134SOL    HW222302   5.258   6.718   2.071
 7135SOL     OW22303   2.110   3.190   2.765
 7135SOL    HW122304   2.130   3.280   2.726
 7135SOL    HW222305   2.133   3.189   2.862
 7136SOL     OW22306   3.042   1.750   1.361
 7136SOL    HW122307   2.987   1.710   1.288
 7136SOL    HW222308   3.027   1.849   1.363
 7137SOL     OW22309   2.958   1.888   0.598
 7137SOL    HW122310   2.864   1.875   0.567
 7137SOL    HW222311   2.959   1.943   0.681
 7138SOL     OW22312   2.012   1.208   0.943
 7138SOL    HW122313   2.039   1.297   0.905
 7138SOL    HW222314   1.974   1.151   0.870
 7139SOL     OW22315   5.653   4.775   1.964
 7139SOL    HW122316   5.724   4.803   1.900
 7139SOL    HW222317   5.689   4.776   2.058
 7140SOL     OW22318   6.243   4.306   1.016
 7140SOL    HW122319   6.220   4.368   0.941
 7140SOL    HW222320   6.172   4.235   1.023
 7141SOL     OW22321   4.433   6.873   1.194
 7141SOL    HW122322   4.375   6.874   1.275
 7141SOL    HW222323   4.523   6.912   1.217
 7142SOL     OW22324   3.143   0.550   3.695
 7142SOL    HW122325   3.203   0.613   3.645
 7142SOL    HW222326   3.184   0.459   3.698
 7143SOL     OW22327   1.772   3.904   0.111
 7143SOL    HW122328   1.798   3.977   0.175
 7143SOL    HW222329   1.844   3.836   0.106
 7144SOL     OW22330   0.511   1.023   3.378
 7144SOL    HW122331   0.585   1.071   3.332
 7144SOL    HW222332   0.502   1.059   3.471
 7145SOL     OW22333   3.994   0.964   6.800
 7145SOL    HW122334   4.012   1.058   6.827
 7145SOL    HW222335   3.906   0.934   6.837
 7146SOL     OW22336   1.526   1.704   6.133
 7146SOL    HW122337   1.466   1.728   6.056
 7146SOL    HW222338   1.578   1.785   6.160
 7147SOL     OW22339   6.323   5.806   3.170
 7147SOL    HW122340   6.405   5.857   3.142
 7147SOL    HW222341   6.311   5.814   3.269
 7148SOL     OW22342   6.107   5.814   1.843
 7148SOL    HW122343   6.158   5.878   1.900
 7148SOL    HW222344   6.055   5.864   1.774
 7149SOL     OW22345   0.671   5.278   3.702
 7149SOL    HW122346   0.620   5.271   3.616
 7149SOL    HW222347   0.609   5.262   3.779
 7150SOL     OW22348   3.498   3.081   0.142
 7150SOL    HW122349   3.474   2.985   0.150
 7150SOL    HW222350   3.462   3.132   0.219
 7151SOL     OW22351   3.142   6.558   0.862
 7151SOL    HW122352   3.165   6.528   0.954
 7151SOL    HW222353   3.185   6.647   0.845
 7152SOL     OW22354   6.152   1.153   6.480
 7152SOL    HW122355   6.185   1.146   6.575
 7152SOL    HW222356   6.156   1.063   6.437
 7153SOL     OW22357   3.915   5.228   2.226
 7153SOL    HW122358   3.835   5.191   2.178
 7153SOL    HW222359   3.905   5.212   2.324
 7154SOL     OW22360   3.902   0.345   2.988
 7154SOL    HW122361   3.864   0.437   2.973
 7154SOL    HW222362   3.932   0.307   2.901
 7155SOL     OW22363   3.079   3.109   1.098
 7155SOL    HW122364   3.027   3.195   1.101
 7155SOL    HW222365   3.166   3.124   1.051
 7156SOL     OW22366   4.891   3.397   2.464
 7156SOL    HW122367   4.835   3.479   2.480
 7156SOL    HW222368   4.877   3.364   2.371
 7157SOL     OW22369   6.977   4.428   1.496
 7157SOL    HW122370   0.005   4.341   1.494
 7157SOL    HW222371   0.018   4.503   1.477
 7158SOL     OW22372   6.592   0.151   3.518
 7158SOL    HW122373   6.652   0.208   3.575
 7158SOL    HW222374   6.504   0.138   3.566
 7159SOL     OW22375   0.751   4.495   4.247
 7159SOL    HW122376   0.759   4.425   4.176
 7159SOL    HW222377   0.751   4.585   4.205
 7160SOL     OW22378   6.271   6.474   2.544
 7160SOL    HW122379   6.307   6.381   2.536
 7160SOL    HW222380   6.342   6.534   2.582
 7161SOL     OW22381   3.812   4.020   3.107
 7161SOL    HW122382   3.758   3.938   3.122
 7161SOL    HW222383   3.755   4.091   3.064
 7162SOL     OW22384   0.400   4.747   6.974
 7162SOL    HW122385   0.439   4.778   0.040
 7162SOL    HW222386   0.401   4.823   6.909
 7163SOL     OW22387   2.478   0.369   2.794
 7163SOL    HW122388   2.558   0.350   2.852
 7163SOL    HW222389   2.482   0.463   2.762
 7164SOL     OW22390   1.794   0.642   4.833
 7164SOL    HW122391   1.700   0.617   4.857
 7164SOL    HW222392   1.817   0.603   4.744
 7165SOL     OW22393   5.941   5.666   2.146
 7165SOL    HW122394   5.979   5.614   2.223
 7165SOL    HW222395   5.966   5.762   2.156
 7166SOL     OW22396   5.899   0.710   6.715
 7166SOL    HW122397   5.812   0.755   6.735
 7166SOL    HW222398   5.955   0.771   6.659
 7167SOL     OW22399   5.129   2.473   5.147
 7167SOL    HW122400   5.156   2.547   5.085
 7167SOL    HW222401   5.089   2.513   5.230
 7168SOL     OW22402   2.754   1.984   2.606
 7168SOL    HW122403   2.843   1.940   2.609
 7168SOL    HW222404   2.762   2.079   2.638
 7169SOL     OW22405   0.671   4.246   4.847
 7169SOL    HW122406   0.659   4.151   4.819
 7169SOL    HW222407   0.584   4.281   4.883
 7170SOL     OW22408   3.802   6.264   2.326
 7170SOL    HW122409   3.723   6.256   2.386
 7170SOL    HW222410   3.822   6.360   2.309
 7171SOL     OW22411   6.172   3.875   1.112
 7171SOL    HW122412   6.106   3.932   1.063
 7171SOL    HW222413   6.265   3.900   1.084
 7172SOL     OW22414   1.959   1.737   5.111
 7172SOL    HW122415   1.864   1.709   5.121
 7172SOL    HW222416   2.019   1.660   5.132
 7173SOL     OW22417   6.388   5.297   0.189
 7173SOL    HW122418   6.451   5.298   0.111
 7173SOL    HW222419   6.438   5.319   0.273
 7174SOL     OW22420   6.649   4.704   0.652
 7174SOL    HW122421   6.685   4.614   0.673
 7174SOL    HW222422   6.724   4.768   0.637
 7175SOL     OW22423   6.713   3.459   5.578
 7175SOL    HW122424   6.713   3.403   5.661
 7175SOL    HW222425   6.687   3.402   5.499
 7176SOL     OW22426   0.611   0.981   4.236
 7176SOL    HW122427   0.531   1.012   4.287
 7176SOL    HW222428   0.622   1.035   4.153
 7177SOL     OW22429   1.498   5.433   5.456
 7177SOL    HW122430   1.471   5.471   5.544
 7177SOL    HW222431   1.587   5.389   5.464
 7178SOL     OW22432   1.214   1.184   6.121
 7178SOL    HW122433   1.145   1.127   6.165
 7178SOL    HW222434   1.187   1.280   6.128
 7179SOL     OW22435   1.652   4.023   4.639
 7179SOL    HW122436   1.612   3.932   4.623
 7179SOL    HW222437   1.658   4.039   4.738
 7180SOL     OW22438   2.416   4.126   0.950
 7180SOL    HW122439   2.476   4.173   1.015
 7180SOL    HW222440   2.321   4.156   0.966
 7181SOL     OW22441   2.066   1.463   6.234
 7181SOL    HW122442   2.117   1.546   6.213
 7181SOL    HW222443   1.968   1.483   6.229
 7182SOL     OW22444   0.511   3.460   3.485
 7182SOL    HW122445   0.451   3.502   3.554
 7182SOL    HW222446   0.488   3.495   3.395
 7183SOL     OW22447   2.189   6.009   1.979
 7183SOL    HW122448   2.125   6.076   2.017
 7183SOL    HW222449   2.137   5.929   1.947
 7184SOL     OW22450   6.002   0.973   4.077
 7184SOL    HW122451   6.085   1.024   4.101
 7184SOL    HW222452   5.953   1.023   4.006
 7185SOL     OW22453   5.502   1.117   5.632
 7185SOL    HW122454   5.488   1.085   5.726
 7185SOL    HW222455   5.473   1.045   5.568
 7186SOL     OW22456   0.111   1.024   1.154
 7186SOL    HW122457   0.018   1.059   1.151
 7186SOL    HW222458   0.166   1.068   1.082
 7187SOL     OW22459   3.040   3.568   5.259
 7187SOL    HW122460   3.069   3.485   5.213
 7187SOL    HW222461   2.943   3.561   5.284
 7188SOL     OW22462   4.784   4.828   0.250
 7188SOL    HW122463   4.776   4.840   0.151
 7188SOL    HW222464   4.798   4.731   0.271
 7189SOL     OW22465   6.024   3.368   5.369
 7189SOL    HW122466   6.028   3.339   5.274
 7189SOL    HW222467   5.941   3.333   5.412
 7190SOL     OW22468   6.025   5.949   1.631
 7190SOL    HW122469   6.074   5.890   1.567
 7190SOL    HW222470   5.939   5.978   1.591
 7191SOL     OW22471   0.387   3.881   3.285
 7191SOL    HW122472   0.459   3.946   3.261
 7191SOL    HW222473   0.298   3.925   3.276
 7192SOL     OW22474   1.155   4.612   6.437
 7192SOL    HW122475   1.121   4.706   6.433
 7192SOL    HW222476   1.210   4.600   6.519
 7193SOL     OW22477   2.808   1.733   2.810
 7193SOL    HW122478   2.853   1.732   2.721
 7193SOL    HW222479   2.797   1.827   2.841
 7194SOL     OW22480   2.468   2.445   0.221
 7194SOL    HW122481   2.426   2.420   0.134
 7194SOL    HW222482   2.526   2.525   0.208
 7195SOL     OW22483   6.254   4.127   6.639
 7195SOL    HW122484   6.299   4.205   6.596
 7195SOL    HW222485   6.218   4.066   6.569
 7196SOL     OW22486   3.085   3.982   1.615
 7196SOL    HW122487   3.149   3.948   1.545
 7196SOL    HW222488   3.076   4.081   1.606
 7197SOL     OW22489   0.858   4.061   5.956
 7197SOL    HW122490   0.932   4.016   5.906
 7197SOL    HW222491   0.793   4.098   5.890
 7198SOL     OW22492   0.065   0.800   6.838
 7198SOL    HW122493   0.014   0.767   6.759
 7198SOL    HW222494   0.111   0.722   6.883
 7199SOL     OW22495   0.807   0.315   2.489
 7199SOL    HW122496   0.745   0.355   2.556
 7199SOL    HW222497   0.857   0.388   2.443
 7200SOL     OW22498   1.712   3.196   0.636
 7200SOL    HW122499   1.720   3.104   0.675
 7200SOL    HW222500   1.684   3.189   0.540
 7201SOL     OW22501   0.356   5.488   4.182
 7201SOL    HW122502   0.358   5.500   4.281
 7201SOL    HW222503   0.263   5.506   4.148
 7202SOL     OW22504   5.308   6.907   5.933
 7202SOL    HW122505   5.321   6.860   6.020
 7202SOL    HW222506   5.379   6.977   5.922
 7203SOL     OW22507   0.767   1.289   1.881
 7203SOL    HW122508   0.847   1.340   1.914
 7203SOL    HW222509   0.683   1.336   1.910
 7204SOL     OW22510   6.834   1.450   6.568
 7204SOL    HW122511   6.766   1.399   6.620
 7204SOL    HW222512   6.788   1.509   6.502
 7205SOL     OW22513   1.312   3.829   4.704
 7205SOL    HW122514   1.355   3.915   4.732
 7205SOL    HW222515   1.383   3.764   4.676
 7206SOL     OW22516   1.376   1.599   1.705
 7206SOL    HW122517   1.292   1.654   1.706
 7206SOL    HW222518   1.353   1.503   1.689
 7207SOL     OW22519   2.736   1.139   3.919
 7207SOL    HW122520   2.684   1.213   3.876
 7207SOL    HW222521   2.834   1.157   3.908
 7208SOL     OW22522   4.854   0.188   4.437
 7208SOL    HW122523   4.935   0.133   4.414
 7208SOL    HW222524   4.787   0.130   4.483
 7209SOL     OW22525   2.278   2.917   2.392
 7209SOL    HW122526   2.251   2.934   2.487
 7209SOL    HW222527   2.291   2.819   2.377
 7210SOL     OW22528   3.588   2.131   3.983
 7210SOL    HW122529   3.554   2.126   3.889
 7210SOL    HW222530   3.674   2.182   3.984
 7211SOL     OW22531   2.882   6.019   5.339
 7211SOL    HW122532   2.904   5.980   5.250
 7211SOL    HW222533   2.910   6.115   5.341
 7212SOL     OW22534   0.458   6.586   6.193
 7212SOL    HW122535   0.382   6.547   6.244
 7212SOL    HW222536   0.501   6.515   6.137
 7213SOL     OW22537   3.587   5.954   6.196
 7213SOL    HW122538   3.680   5.962   6.162
 7213SOL    HW222539   3.581   5.993   6.288
 7214SOL     OW22540   6.893   1.271   5.803
 7214SOL    HW122541   6.864   1.220   5.722
 7214SOL    HW222542   6.876   1.369   5.789
 7215SOL     OW22543   6.190   2.486   4.213
 7215SOL    HW122544   6.209   2.564   4.272
 7215SOL    HW222545   6.127   2.513   4.140
 7216SOL     OW22546   3.176   5.925   2.080
 7216SOL    HW122547   3.127   6.008   2.053
 7216SOL    HW222548   3.253   5.950   2.140
 7217SOL     OW22549   1.420   3.590   3.436
 7217SOL    HW122550   1.411   3.682   3.397
 7217SOL    HW222551   1.453   3.527   3.366
 7218SOL     OW22552   6.781   3.031   4.261
 7218SOL    HW122553   6.852   3.007   4.195
 7218SOL    HW222554   6.779   2.963   4.334
 7219SOL     OW22555   2.916   6.885   2.310
 7219SOL    HW122556   2.936   6.917   2.217
 7219SOL    HW222557   2.903   6.964   2.370
 7220SOL     OW22558   6.543   4.856   3.936
 7220SOL    HW122559   6.447   4.883   3.936
 7220SOL    HW222560   6.592   4.910   4.005
 7221SOL     OW22561   3.366   6.118   4.871
 7221SOL    HW122562   3.434   6.075   4.931
 7221SOL    HW222563   3.414   6.177   4.805
 7222SOL     OW22564   5.926   6.929   3.175
 7222SOL    HW122565   5.903   7.017   3.134
 7222SOL    HW222566   5.849   6.866   3.162
 7223SOL     OW22567   2.923   0.956   0.927
 7223SOL    HW122568   2.832   0.984   0.960
 7223SOL    HW222569   2.923   0.957   0.827
 7224SOL     OW22570   4.711   2.573   4.667
 7224SOL    HW122571   4.750   2.548   4.755
 7224SOL    HW222572   4.774   2.633   4.618
 7225SOL     OW22573   1.666   6.607   0.813
 7225SOL    HW122574   1.701   6.655   0.733
 7225SOL    HW222575   1.709   6.643   0.895
 7226SOL     OW22576   6.224   0.417   1.522
 7226SOL    HW122577   6.161   0.384   1.592
 7226SOL    HW222578   6.174   0.436   1.438
 7227SOL     OW22579   3.032   1.749   1.979
 7227SOL    HW122580   2.953   1.799   2.016
 7227SOL    HW222581   3.044   1.773   1.883
 7228SOL     OW22582   1.450   1.250   3.207
 7228SOL    HW122583   1.401   1.179   3.155
 7228SOL    HW222584   1.451   1.335   3.154
 7229SOL     OW22585   0.733   6.918   4.592
 7229SOL    HW122586   0.814   6.871   4.559
 7229SOL    HW222587   0.657   6.902   4.529
 7230SOL     OW22588   3.048   5.774   3.515
 7230SOL    HW122589   3.126   5.821   3.475
 7230SOL    HW222590   3.069   5.676   3.525
 7231SOL     OW22591   4.557   0.585   0.124
 7231SOL    HW122592   4.640   0.633   0.152
 7231SOL    HW222593   4.506   0.641   0.058
 7232SOL     OW22594   4.908   6.507   2.633
 7232SOL    HW122595   4.955   6.486   2.719
 7232SOL    HW222596   4.976   6.528   2.562
 7233SOL     OW22597   1.116   1.263   5.114
 7233SOL    HW122598   1.097   1.168   5.092
 7233SOL    HW222599   1.193   1.295   5.059
 7234SOL     OW22600   5.725   3.367   2.619
 7234SOL    HW122601   5.790   3.315   2.675
 7234SOL    HW222602   5.636   3.367   2.663
 7235SOL     OW22603   6.440   4.500   1.837
 7235SOL    HW122604   6.392   4.568   1.782
 7235SOL    HW222605   6.392   4.487   1.923
 7236SOL     OW22606   2.412   2.519   2.820
 7236SOL    HW122607   2.361   2.471   2.748
 7236SOL    HW222608   2.505   2.483   2.824
 7237SOL     OW22609   3.754   0.087   6.117
 7237SOL    HW122610   3.664   0.046   6.132
 7237SOL    HW222611   3.797   0.107   6.205
 7238SOL     OW22612   4.701   2.278   6.108
 7238SOL    HW122613   4.769   2.309   6.175
 7238SOL    HW222614   4.700   2.341   6.030
 7239SOL     OW22615   1.025   3.181   1.702
 7239SOL    HW122616   0.959   3.115   1.737
 7239SOL    HW222617   1.110   3.134   1.679
 7240SOL     OW22618   0.073   1.313   6.482
 7240SOL    HW122619   7.013   1.369   6.476
 7240SOL    HW222620   0.069   1.255   6.563
 7241SOL     OW22621   2.486   0.178   0.514
 7241SOL    HW122622   2.555   0.236   0.470
 7241SOL    HW222623   2.485   0.088   0.471
 7242SOL     OW22624   6.942   5.333   6.408
 7242SOL    HW122625   6.933   5.325   6.309
 7242SOL    HW222626   6.906   5.421   6.438
 7243SOL     OW22627   6.876   4.619   6.126
 7243SOL    HW122628   6.819   4.643   6.048
 7243SOL    HW222629   6.833   4.651   6.210
 7244SOL     OW22630   0.572   0.202   1.434
 7244SOL    HW122631   0.598   0.264   1.360
 7244SOL    HW222632   0.549   0.112   1.396
 7245SOL     OW22633   0.865   3.115   5.659
 7245SOL    HW122634   0.947   3.063   5.633
 7245SOL    HW222635   0.822   3.152   5.577
 7246SOL     OW22636   1.680   0.230   3.579
 7246SOL    HW122637   1.768   0.247   3.623
 7246SOL    HW222638   1.695   0.184   3.491
 7247SOL     OW22639   2.806   1.727   5.358
 7247SOL    HW122640   2.776   1.798   5.422
 7247SOL    HW222641   2.741   1.721   5.282
 7248SOL     OW22642   3.208   0.748   2.750
 7248SOL    HW122643   3.295   0.793   2.768
 7248SOL    HW222644   3.172   0.708   2.834
 7249SOL     OW22645   5.143   5.042   1.753
 7249SOL    HW122646   5.105   4.993   1.831
 7249SOL    HW222647   5.237   5.011   1.736
 7250SOL     OW22648   5.134   5.438   5.979
 7250SOL    HW122649   5.201   5.366   5.999
 7250SOL    HW222650   5.181   5.526   5.971
 7251SOL     OW22651   1.107   6.882   4.607
 7251SOL    HW122652   1.091   6.969   4.655
 7251SOL    HW222653   1.106   6.807   4.674
 7252SOL     OW22654   3.218   3.653   1.886
 7252SOL    HW122655   3.220   3.654   1.786
 7252SOL    HW222656   3.128   3.685   1.918
 7253SOL     OW22657   1.815   5.901   6.709
 7253SOL    HW122658   1.804   5.983   6.766
 7253SOL    HW222659   1.818   5.927   6.613
 7254SOL     OW22660   5.504   5.060   4.697
 7254SOL    HW122661   5.569   4.985   4.688
 7254SOL    HW222662   5.520   5.108   4.783
 7255SOL     OW22663   4.377   3.560   0.163
 7255SOL    HW122664   4.381   3.575   0.065
 7255SOL    HW222665   4.300   3.611   0.202
 7256SOL     OW22666   3.336   5.699   5.423
 7256SOL    HW122667   3.403   5.716   5.351
 7256SOL    HW222668   3.246   5.686   5.383
 7257SOL     OW22669   0.130   2.105   3.636
 7257SOL    HW122670   0.035   2.073   3.628
 7257SOL    HW222671   0.191   2.038   3.594
 7258SOL     OW22672   4.653   2.203   2.913
 7258SOL    HW122673   4.683   2.265   2.986
 7258SOL    HW222674   4.602   2.127   2.953
 7259SOL     OW22675   1.837   3.552   2.052
 7259SOL    HW122676   1.933   3.577   2.044
 7259SOL    HW222677   1.829   3.458   2.084
 7260SOL     OW22678   5.745   1.775   2.007
 7260SOL    HW122679   5.792   1.710   2.067
 7260SOL    HW222680   5.746   1.741   1.913
 7261SOL     OW22681   0.729   4.881   1.641
 7261SOL    HW122682   0.685   4.970   1.658
 7261SOL    HW222683   0.783   4.886   1.558
 7262SOL     OW22684   5.446   2.271   6.468
 7262SOL    HW122685   5.403   2.182   6.482
 7262SOL    HW222686   5.392   2.324   6.403
 7263SOL     OW22687   0.420   6.389   6.746
 7263SOL    HW122688   0.401   6.392   6.844
 7263SOL    HW222689   0.336   6.406   6.695
 7264SOL     OW22690   5.346   1.439   0.711
 7264SOL    HW122691   5.393   1.371   0.768
 7264SOL    HW222692   5.382   1.530   0.730
 7265SOL     OW22693   5.627   4.765   6.072
 7265SOL    HW122694   5.573   4.819   6.007
 7265SOL    HW222695   5.635   4.671   6.038
 7266SOL     OW22696   5.383   1.270   3.159
 7266SOL    HW122697   5.346   1.199   3.100
 7266SOL    HW222698   5.483   1.268   3.156
 7267SOL     OW22699   6.476   6.252   5.223
 7267SOL    HW122700   6.523   6.317   5.164
 7267SOL    HW222701   6.412   6.197   5.168
 7268SOL     OW22702   6.898   5.777   4.671
 7268SOL    HW122703   6.809   5.734   4.656
 7268SOL    HW222704   6.901   5.816   4.764
 7269SOL     OW22705   1.886   6.298   6.013
 7269SOL    HW122706   1.951   6.254   6.075
 7269SOL    HW222707   1.819   6.350   6.066
 7270SOL     OW22708   0.639   2.971   5.174
 7270SOL    HW122709   0.702   3.049   5.184
 7270SOL    HW222710   0.595   2.976   5.084
 7271SOL     OW22711   1.402   5.115   4.095
 7271SOL    HW122712   1.440   5.184   4.033
 7271SOL    HW222713   1.425   5.024   4.060
 7272SOL     OW22714   6.331   5.881   2.494
 7272SOL    HW122715   6.411   5.933   2.522
 7272SOL    HW222716   6.268   5.872   2.572
 7273SOL     OW22717   6.264   3.918   0.669
 7273SOL    HW122718   6.253   3.873   0.580
 7273SOL    HW222719   6.269   4.017   0.656
 7274SOL     OW22720   0.581   5.122   6.629
 7274SOL    HW122721   0.492   5.161   6.604
 7274SOL    HW222722   0.619   5.173   6.706
 7275SOL     OW22723   6.901   5.184   3.009
 7275SOL    HW122724   6.926   5.088   2.998
 7275SOL    HW222725   6.973   5.242   2.969
 7276SOL     OW22726   4.535   0.943   3.635
 7276SOL    HW122727   4.623   0.990   3.624
 7276SOL    HW222728   4.534   0.894   3.723
 7277SOL     OW22729   4.831   0.436   4.389
 7277SOL    HW122730   4.802   0.492   4.466
 7277SOL    HW222731   4.844   0.342   4.418
 7278SOL     OW22732   3.846   2.893   1.061
 7278SOL    HW122733   3.836   2.891   1.160
 7278SOL    HW222734   3.899   2.814   1.031
 7279SOL     OW22735   4.155   4.857   6.569
 7279SOL    HW122736   4.112   4.876   6.658
 7279SOL    HW222737   4.084   4.829   6.504
 7280SOL     OW22738   0.183   1.675   3.740
 7280SOL    HW122739   0.203   1.600   3.803
 7280SOL    HW222740   0.266   1.698   3.688
 7281SOL     OW22741   2.696   1.786   6.410
 7281SOL    HW122742   2.763   1.722   6.372
 7281SOL    HW222743   2.668   1.755   6.501
 7282SOL     OW22744   5.381   5.556   3.204
 7282SOL    HW122745   5.467   5.585   3.163
 7282SOL    HW222746   5.380   5.582   3.301
 7283SOL     OW22747   4.376   1.396   2.641
 7283SOL    HW122748   4.296   1.439   2.683
 7283SOL    HW222749   4.431   1.352   2.712
 7284SOL     OW22750   0.393   3.039   6.237
 7284SOL    HW122751   0.446   3.078   6.162
 7284SOL    HW222752   0.390   2.939   6.228
 7285SOL     OW22753   5.126   3.098   2.328
 7285SOL    HW122754   5.195   3.132   2.265
 7285SOL    HW222755   5.040   3.084   2.280
 7286SOL     OW22756   2.923   0.704   0.317
 7286SOL    HW122757   2.868   0.781   0.284
 7286SOL    HW222758   2.890   0.619   0.275
 7287SOL     OW22759   6.912   2.470   5.979
 7287SOL    HW122760   6.966   2.517   5.909
 7287SOL    HW222761   6.907   2.372   5.958
 7288SOL     OW22762   3.136   0.615   0.439
 7288SOL    HW122763   3.222   0.603   0.391
 7288SOL    HW222764   3.072   0.667   0.383
 7289SOL     OW22765   4.867   2.695   4.497
 7289SOL    HW122766   4.853   2.606   4.453
 7289SOL    HW222767   4.959   2.727   4.479
 7290SOL     OW22768   3.764   0.379   5.424
 7290SOL    HW122769   3.737   0.389   5.520
 7290SOL    HW222770   3.695   0.420   5.365
 7291SOL     OW22771   2.072   6.887   0.765
 7291SOL    HW122772   2.085   6.983   0.739
 7291SOL    HW222773   2.021   6.840   0.693
 7292SOL     OW22774   3.823   0.971   3.108
 7292SOL    HW122775   3.904   0.938   3.060
 7292SOL    HW222776   3.811   0.920   3.193
 7293SOL     OW22777   1.090   2.180   4.751
 7293SOL    HW122778   1.091   2.206   4.847
 7293SOL    HW222779   1.018   2.232   4.704
 7294SOL     OW22780   2.799   4.960   6.923
 7294SOL    HW122781   2.896   4.937   6.917
 7294SOL    HW222782   2.748   4.882   6.961
 7295SOL     OW22783   0.979   2.402   0.791
 7295SOL    HW122784   0.980   2.416   0.692
 7295SOL    HW222785   0.898   2.447   0.830
 7296SOL     OW22786   3.109   5.537   1.795
 7296SOL    HW122787   3.142   5.467   1.858
 7296SOL    HW222788   3.034   5.500   1.740
 7297SOL     OW22789   3.871   6.631   1.644
 7297SOL    HW122790   3.915   6.605   1.558
 7297SOL    HW222791   3.853   6.730   1.644
 7298SOL     OW22792   5.092   4.489   5.448
 7298SOL    HW122793   5.181   4.508   5.489
 7298SOL    HW222794   5.036   4.438   5.513
 7299SOL     OW22795   0.693   1.477   0.363
 7299SOL    HW122796   0.789   1.486   0.386
 7299SOL    HW222797   0.671   1.381   0.348
 7300SOL     OW22798   6.613   5.788   3.305
 7300SOL    HW122799   6.596   5.793   3.404
 7300SOL    HW222800   6.592   5.876   3.264
 7301SOL     OW22801   5.810   0.959   5.080
 7301SOL    HW122802   5.750   1.003   5.013
 7301SOL    HW222803   5.905   0.976   5.055
 7302SOL     OW22804   0.994   1.926   5.305
 7302SOL    HW122805   1.080   1.901   5.261
 7302SOL    HW222806   0.954   2.004   5.258
 7303SOL     OW22807   3.710   0.535   0.532
 7303SOL    HW122808   3.689   0.437   0.523
 7303SOL    HW222809   3.695   0.564   0.626
 7304SOL     OW22810   4.191   4.680   0.937
 7304SOL    HW122811   4.157   4.721   1.022
 7304SOL    HW222812   4.180   4.581   0.941
 7305SOL     OW22813   5.091   1.064   0.266
 7305SOL    HW122814   5.035   1.056   0.184
 7305SOL    HW222815   5.097   0.975   0.312
 7306SOL     OW22816   4.945   2.172   1.147
 7306SOL    HW122817   4.862   2.193   1.198
 7306SOL    HW222818   4.946   2.225   1.061
 7307SOL     OW22819   2.272   6.705   1.981
 7307SOL    HW122820   2.318   6.722   2.068
 7307SOL    HW222821   2.253   6.793   1.936
 7308SOL     OW22822   6.831   3.030   5.906
 7308SOL    HW122823   6.756   3.070   5.852
 7308SOL    HW222824   6.906   3.005   5.845
 7309SOL     OW22825   4.795   5.578   1.313
 7309SOL    HW122826   4.839   5.489   1.313
 7309SOL    HW222827   4.696   5.567   1.299
 7310SOL     OW22828   2.371   4.118   1.546
 7310SOL    HW122829   2.358   4.058   1.625
 7310SOL    HW222830   2.297   4.103   1.481
 7311SOL     OW22831   2.701   2.074   1.550
 7311SOL    HW122832   2.644   2.155   1.567
 7311SOL    HW222833   2.778   2.099   1.491
 7312SOL     OW22834   0.727   3.246   4.604
 7312SOL    HW122835   0.700   3.259   4.699
 7312SOL    HW222836   0.827   3.255   4.596
 7313SOL     OW22837   2.241   1.280   6.096
 7313SOL    HW122838   2.169   1.331   6.143
 7313SOL    HW222839   2.329   1.324   6.113
 7314SOL     OW22840   6.768   5.585   6.397
 7314SOL    HW122841   6.786   5.680   6.423
 7314SOL    HW222842   6.811   5.566   6.309
 7315SOL     OW22843   6.436   0.402   2.452
 7315SOL    HW122844   6.449   0.311   2.493
 7315SOL    HW222845   6.524   0.437   2.420
 7316SOL     OW22846   2.995   3.746   6.110
 7316SOL    HW122847   3.002   3.845   6.105
 7316SOL    HW222848   2.921   3.715   6.049
 7317SOL     OW22849   5.184   1.530   2.967
 7317SOL    HW122850   5.202   1.578   3.052
 7317SOL    HW222851   5.122   1.453   2.983
 7318SOL     OW22852   1.650   0.928   1.415
 7318SOL    HW122853   1.603   0.956   1.498
 7318SOL    HW222854   1.749   0.926   1.431
 7319SOL     OW22855   6.953   4.117   6.298
 7319SOL    HW122856   6.889   4.093   6.371
 7319SOL    HW222857   7.017   4.186   6.331
 7320SOL     OW22858   6.277   3.903   2.371
 7320SOL    HW122859   6.231   3.818   2.395
 7320SOL    HW222860   6.210   3.977   2.368
 7321SOL     OW22861   2.547   0.640   5.812
 7321SOL    HW122862   2.527   0.725   5.860
 7321SOL    HW222863   2.646   0.630   5.800
 7322SOL     OW22864   6.948   2.817   3.009
 7322SOL    HW122865   7.020   2.749   3.026
 7322SOL    HW222866   6.873   2.801   3.073
 7323SOL     OW22867   1.813   2.005   2.227
 7323SOL    HW122868   1.835   1.933   2.162
 7323SOL    HW222869   1.871   2.085   2.209
 7324SOL     OW22870   4.661   6.303   2.304
 7324SOL    HW122871   4.704   6.297   2.394
 7324SOL    HW222872   4.647   6.399   2.279
 7325SOL     OW22873   3.421   6.945   0.562
 7325SOL    HW122874   3.341   6.898   0.598
 7325SOL    HW222875   3.403   6.974   0.468
 7326SOL     OW22876   3.065   5.673   5.332
 7326SOL    HW122877   3.048   5.734   5.255
 7326SOL    HW222878   2.980   5.660   5.384
 7327SOL     OW22879   5.904   1.664   6.228
 7327SOL    HW122880   5.963   1.679   6.308
 7327SOL    HW222881   5.933   1.581   6.181
 7328SOL     OW22882   3.729   0.840   6.527
 7328SOL    HW122883   3.706   0.743   6.534
 7328SOL    HW222884   3.647   0.895   6.545
 7329SOL     OW22885   5.828   3.743   1.392
 7329SOL    HW122886   5.845   3.830   1.438
 7329SOL    HW222887   5.777   3.759   1.308
 7330SOL     OW22888   2.327   2.201   6.962
 7330SOL    HW122889   2.237   2.163   6.942
 7330SOL    HW222890   2.370   2.149   0.014
 7331SOL     OW22891   5.327   6.950   2.004
 7331SOL    HW122892   5.403   6.922   2.063
 7331SOL    HW222893   5.347   6.924   1.909
 7332SOL     OW22894   2.201   6.198   0.350
 7332SOL    HW122895   2.297   6.186   0.324
 7332SOL    HW222896   2.143   6.148   0.286
 7333SOL     OW22897   0.613   2.498   2.270
 7333SOL    HW122898   0.653   2.558   2.338
 7333SOL    HW222899   0.515   2.489   2.286
 7334SOL     OW22900   2.784   5.657   5.909
 7334SOL    HW122901   2.835   5.685   5.828
 7334SOL    HW222902   2.751   5.738   5.958
 7335SOL     OW22903   1.952   2.517   3.154
 7335SOL    HW122904   1.902   2.440   3.114
 7335SOL    HW222905   2.041   2.526   3.109
 7336SOL     OW22906   1.632   6.994   2.899
 7336SOL    HW122907   1.626   0.051   2.837
 7336SOL    HW222908   1.555   6.932   2.883
 7337SOL     OW22909   7.001   3.336   2.012
 7337SOL    HW122910   0.076   3.326   1.988
 7337SOL    HW222911   6.991   3.403   2.086
 7338SOL     OW22912   6.453   2.165   1.546
 7338SOL    HW122913   6.418   2.092   1.605
 7338SOL    HW222914   6.534   2.206   1.589
 7339SOL     OW22915   5.887   6.970   4.002
 7339SOL    HW122916   5.876   6.980   4.101
 7339SOL    HW222917   5.842   0.024   3.955
 7340SOL     OW22918   2.460   1.100   0.880
 7340SOL    HW122919   2.382   1.087   0.941
 7340SOL    HW222920   2.542   1.061   0.922
 7341SOL     OW22921   0.088   3.136   6.698
 7341SOL    HW122922   0.117   3.042   6.717
 7341SOL    HW222923   0.004   3.155   6.747
 7342SOL     OW22924   0.303   1.786   1.300
 7342SOL    HW122925   0.236   1.712   1.305
 7342SOL    HW222926   0.257   1.874   1.308
 7343SOL     OW22927   5.831   3.700   0.449
 7343SOL    HW122928   5.846   3.613   0.497
 7343SOL    HW222929   5.893   3.706   0.371
 7344SOL     OW22930   0.799   1.203   6.675
 7344SOL    HW122931   0.765   1.151   6.597
 7344SOL    HW222932   0.852   1.142   6.735
 7345SOL     OW22933   4.619   4.567   5.998
 7345SOL    HW122934   4.558   4.614   5.933
 7345SOL    HW222935   4.650   4.481   5.957
 7346SOL     OW22936   4.173   5.733   2.062
 7346SOL    HW122937   4.258   5.706   2.016
 7346SOL    HW222938   4.117   5.787   1.998
 7347SOL     OW22939   1.117   1.611   0.455
 7347SOL    HW122940   1.086   1.529   0.503
 7347SOL    HW222941   1.216   1.619   0.463
 7348SOL     OW22942   1.453   4.094   4.033
 7348SOL    HW122943   1.420   4.120   3.942
 7348SOL    HW222944   1.551   4.076   4.028
 7349SOL     OW22945   4.638   0.960   1.439
 7349SOL    HW122946   4.659   1.049   1.480
 7349SOL    HW222947   4.680   0.956   1.348
 7350SOL     OW22948   2.653   2.378   5.597
 7350SOL    HW122949   2.606   2.464   5.576
 7350SOL    HW222950   2.751   2.389   5.578
 7351SOL     OW22951   5.558   5.640   4.790
 7351SOL    HW122952   5.542   5.733   4.759
 7351SOL    HW222953   5.519   5.628   4.881
 7352SOL     OW22954   2.033   1.799   3.117
 7352SOL    HW122955   2.062   1.780   3.211
 7352SOL    HW222956   2.112   1.798   3.056
 7353SOL     OW22957   0.419   0.449   5.992
 7353SOL    HW122958   0.361   0.529   6.000
 7353SOL    HW222959   0.395   0.382   6.062
 7354SOL     OW22960   1.073   1.704   4.432
 7354SOL    HW122961   1.096   1.724   4.337
 7354SOL    HW222962   1.061   1.790   4.482
 7355SOL     OW22963   1.469   0.850   0.948
 7355SOL    HW122964   1.537   0.826   0.878
 7355SOL    HW222965   1.515   0.898   1.023
 7356SOL     OW22966   3.858   3.376   6.393
 7356SOL    HW122967   3.858   3.340   6.300
 7356SOL    HW222968   3.882   3.474   6.391
 7357SOL     OW22969   3.121   6.420   1.797
 7357SOL    HW122970   3.050   6.385   1.736
 7357SOL    HW222971   3.211   6.389   1.767
 7358SOL     OW22972   6.393   3.248   2.308
 7358SOL    HW122973   6.351   3.321   2.362
 7358SOL    HW222974   6.358   3.160   2.340
 7359SOL     OW22975   4.293   1.948   5.595
 7359SOL    HW122976   4.283   1.989   5.504
 7359SOL    HW222977   4.233   1.995   5.659
 7360SOL     OW22978   3.201   3.220   5.371
 7360SOL    HW122979   3.124   3.278   5.396
 7360SOL    HW222980   3.286   3.268   5.391
 7361SOL     OW22981   5.051   0.442   2.653
 7361SOL    HW122982   5.146   0.432   2.623
 7361SOL    HW222983   5.007   0.516   2.601
 7362SOL     OW22984   1.287   6.004   6.415
 7362SOL    HW122985   1.241   6.082   6.458
 7362SOL    HW222986   1.375   6.034   6.377
 7363SOL     OW22987   4.058   1.663   1.186
 7363SOL    HW122988   4.099   1.753   1.198
 7363SOL    HW222989   4.052   1.641   1.089
 7364SOL     OW22990   4.442   0.914   1.999
 7364SOL    HW122991   4.476   0.822   1.979
 7364SOL    HW222992   4.519   0.976   2.010
 7365SOL     OW22993   0.395   6.282   1.651
 7365SOL    HW122994   0.298   6.271   1.671
 7365SOL    HW222995   0.425   6.372   1.680
 7366SOL     OW22996   2.542   6.681   5.825
 7366SOL    HW122997   2.574   6.591   5.796
 7366SOL    HW222998   2.446   6.675   5.853
 7367SOL     OW22999   4.752   2.830   0.963
 7367SOL    HW123000   4.708   2.740   0.955
 7367SOL    HW223001   4.691   2.893   1.011
 7368SOL     OW23002   3.896   2.964   2.679
 7368SOL    HW123003   3.838   2.932   2.604
 7368SOL    HW223004   3.944   3.047   2.651
 7369SOL     OW23005   2.665   2.294   1.229
 7369SOL    HW123006   2.688   2.198   1.215
 7369SOL    HW223007   2.729   2.334   1.295
 7370SOL     OW23008   2.112   1.480   5.223
 7370SOL    HW123009   2.023   1.455   5.185
 7370SOL    HW223010   2.112   1.468   5.322
 7371SOL     OW23011   2.362   6.676   3.420
 7371SOL    HW123012   2.437   6.660   3.354
 7371SOL    HW223013   2.348   6.774   3.432
 7372SOL     OW23014   4.225   0.141   4.269
 7372SOL    HW123015   4.155   0.186   4.213
 7372SOL    HW223016   4.182   0.076   4.331
 7373SOL     OW23017   6.151   1.663   4.395
 7373SOL    HW123018   6.190   1.576   4.367
 7373SOL    HW223019   6.066   1.647   4.446
 7374SOL     OW23020   2.624   2.289   5.298
 7374SOL    HW123021   2.684   2.341   5.359
 7374SOL    HW223022   2.678   2.231   5.238
 7375SOL     OW23023   2.335   2.413   2.229
 7375SOL    HW123024   2.270   2.343   2.260
 7375SOL    HW223025   2.312   2.440   2.135
 7376SOL     OW23026   1.691   1.608   1.123
 7376SOL    HW123027   1.623   1.680   1.129
 7376SOL    HW223028   1.655   1.532   1.068
 7377SOL     OW23029   5.065   4.911   0.608
 7377SOL    HW123030   5.158   4.891   0.640
 7377SOL    HW223031   5.069   4.950   0.516
 7378SOL     OW23032   0.863   0.051   5.023
 7378SOL    HW123033   0.961   0.063   5.032
 7378SOL    HW223034   0.824   0.028   5.113
 7379SOL     OW23035   3.580   1.492   2.427
 7379SOL    HW123036   3.655   1.521   2.486
 7379SOL    HW223037   3.501   1.469   2.484
 7380SOL     OW23038   0.703   4.631   3.878
 7380SOL    HW123039   0.794   4.664   3.854
 7380SOL    HW223040   0.711   4.547   3.933
 7381SOL     OW23041   4.357   3.056   0.462
 7381SOL    HW123042   4.288   3.114   0.419
 7381SOL    HW223043   4.359   2.967   0.416
 7382SOL     OW23044   6.892   0.953   4.721
 7382SOL    HW123045   6.954   0.969   4.644
 7382SOL    HW223046   6.888   1.036   4.778
 7383SOL     OW23047   2.779   6.249   1.145
 7383SOL    HW123048   2.861   6.264   1.090
 7383SOL    HW223049   2.804   6.230   1.239
 7384SOL     OW23050   6.914   6.384   2.885
 7384SOL    HW123051   6.980   6.345   2.950
 7384SOL    HW223052   6.941   6.360   2.792
 7385SOL     OW23053   2.911   5.388   2.347
 7385SOL    HW123054   2.959   5.476   2.351
 7385SOL    HW223055   2.976   5.313   2.356
 7386SOL     OW23056   6.899   2.819   6.650
 7386SOL    HW123057   6.893   2.740   6.712
 7386SOL    HW223058   6.988   2.863   6.661
 7387SOL     OW23059   6.750   5.054   5.758
 7387SOL    HW123060   6.713   5.146   5.753
 7387SOL    HW223061   6.743   5.021   5.852
 7388SOL     OW23062   1.071   4.861   2.471
 7388SOL    HW123063   1.000   4.913   2.519
 7388SOL    HW223064   1.157   4.912   2.474
 7389SOL     OW23065   6.339   4.070   6.098
 7389SOL    HW123066   6.266   4.124   6.139
 7389SOL    HW223067   6.304   3.980   6.073
 7390SOL     OW23068   2.106   2.068   2.039
 7390SOL    HW123069   2.132   2.110   1.952
 7390SOL    HW223070   2.025   2.115   2.075
 7391SOL     OW23071   3.884   3.453   3.353
 7391SOL    HW123072   3.878   3.421   3.258
 7391SOL    HW223073   3.954   3.401   3.401
 7392SOL     OW23074   3.115   6.070   6.715
 7392SOL    HW123075   3.079   6.000   6.653
 7392SOL    HW223076   3.095   6.045   6.810
 7393SOL     OW23077   5.928   4.682   3.177
 7393SOL    HW123078   5.844   4.648   3.136
 7393SOL    HW223079   5.978   4.606   3.219
 7394SOL     OW23080   1.576   3.030   5.573
 7394SOL    HW123081   1.641   2.959   5.546
 7394SOL    HW223082   1.550   3.017   5.669
 7395SOL     OW23083   2.088   3.653   1.101
 7395SOL    HW123084   2.060   3.612   1.188
 7395SOL    HW223085   2.129   3.743   1.118
 7396SOL     OW23086   2.023   6.759   1.142
 7396SOL    HW123087   2.098   6.766   1.077
 7396SOL    HW223088   2.047   6.806   1.227
 7397SOL     OW23089   4.670   5.617   4.594
 7397SOL    HW123090   4.690   5.642   4.689
 7397SOL    HW223091   4.636   5.523   4.591
 7398SOL     OW23092   1.292   5.052   3.432
 7398SOL    HW123093   1.200   5.028   3.462
 7398SOL    HW223094   1.357   4.985   3.468
 7399SOL     OW23095   0.644   2.237   4.143
 7399SOL    HW123096   0.672   2.255   4.237
 7399SOL    HW223097   0.721   2.202   4.091
 7400SOL     OW23098   4.151   2.727   6.075
 7400SOL    HW123099   4.209   2.646   6.088
 7400SOL    HW223100   4.197   2.791   6.013
 7401SOL     OW23101   1.001   3.099   3.420
 7401SOL    HW123102   0.957   3.101   3.510
 7401SOL    HW223103   1.055   3.015   3.412
 7402SOL     OW23104   3.264   4.092   6.164
 7402SOL    HW123105   3.348   4.037   6.167
 7402SOL    HW223106   3.249   4.135   6.253
 7403SOL     OW23107   1.414   4.023   2.410
 7403SOL    HW123108   1.345   4.096   2.410
 7403SOL    HW223109   1.418   3.981   2.501
 7404SOL     OW23110   2.782   4.870   1.880
 7404SOL    HW123111   2.755   4.925   1.960
 7404SOL    HW223112   2.790   4.774   1.906
 7405SOL     OW23113   3.901   4.923   4.196
 7405SOL    HW123114   3.866   4.895   4.285
 7405SOL    HW223115   3.825   4.929   4.131
 7406SOL     OW23116   0.798   1.680   4.399
 7406SOL    HW123117   0.798   1.680   4.299
 7406SOL    HW223118   0.890   1.697   4.432
 7407SOL     OW23119   1.109   6.760   5.071
 7407SOL    HW123120   1.187   6.778   5.012
 7407SOL    HW223121   1.039   6.710   5.020
 7408SOL     OW23122   3.852   3.876   5.916
 7408SOL    HW123123   3.889   3.788   5.889
 7408SOL    HW223124   3.822   3.926   5.835
 7409SOL     OW23125   5.477   3.105   6.583
 7409SOL    HW123126   5.399   3.084   6.642
 7409SOL    HW223127   5.526   3.184   6.619
 7410SOL     OW23128   0.632   0.741   0.015
 7410SOL    HW123129   0.657   0.740   6.940
 7410SOL    HW223130   0.599   0.650   0.042
 7411SOL     OW23131   2.285   1.093   0.051
 7411SOL    HW123132   2.253   1.168   7.015
 7411SOL    HW223133   2.320   1.130   0.137
 7412SOL     OW23134   4.395   0.112   1.457
 7412SOL    HW123135   4.333   0.170   1.404
 7412SOL    HW223136   4.342   0.049   1.513
 7413SOL     OW23137   4.279   5.002   3.993
 7413SOL    HW123138   4.315   5.064   3.924
 7413SOL    HW223139   4.179   5.004   3.991
 7414SOL     OW23140   2.148   0.865   3.431
 7414SOL    HW123141   2.067   0.818   3.466
 7414SOL    HW223142   2.123   0.923   3.354
 7415SOL     OW23143   2.042   4.357   5.104
 7415SOL    HW123144   2.110   4.304   5.054
 7415SOL    HW223145   2.059   4.455   5.090
 7416SOL     OW23146   2.563   0.407   2.164
 7416SOL    HW123147   2.519   0.384   2.251
 7416SOL    HW223148   2.499   0.458   2.107
 7417SOL     OW23149   2.015   2.200   1.754
 7417SOL    HW123150   2.023   2.191   1.655
 7417SOL    HW223151   2.106   2.215   1.794
 7418SOL     OW23152   1.564   5.455   6.760
 7418SOL    HW123153   1.609   5.529   6.709
 7418SOL    HW223154   1.468   5.479   6.776
 7419SOL     OW23155   6.677   3.819   3.989
 7419SOL    HW123156   6.715   3.794   4.077
 7419SOL    HW223157   6.578   3.830   3.997
 7420SOL     OW23158   0.056   6.519   0.901
 7420SOL    HW123159   0.020   6.543   0.991
 7420SOL    HW223160   7.009   6.540   0.831
 7421SOL     OW23161   4.123   3.625   1.031
 7421SOL    HW123162   4.214   3.642   1.069
 7421SOL    HW223163   4.079   3.551   1.082
 7422SOL     OW23164   0.358   4.440   2.145
 7422SOL    HW123165   0.364   4.408   2.051
 7422SOL    HW223166   0.286   4.509   2.152
 7423SOL     OW23167   6.425   2.313   5.645
 7423SOL    HW123168   6.445   2.352   5.555
 7423SOL    HW223169   6.326   2.317   5.661
 7424SOL     OW23170   6.834   1.570   5.829
 7424SOL    HW123171   6.933   1.564   5.840
 7424SOL    HW223172   6.808   1.540   5.737
 7425SOL     OW23173   5.062   0.060   0.519
 7425SOL    HW123174   5.075   0.155   0.492
 7425SOL    HW223175   5.149   0.012   0.517
 7426SOL     OW23176   3.026   1.774   5.214
 7426SOL    HW123177   2.984   1.844   5.156
 7426SOL    HW223178   2.957   1.734   5.273
 7427SOL     OW23179   4.752   0.821   4.428
 7427SOL    HW123180   4.836   0.846   4.475
 7427SOL    HW223181   4.775   0.778   4.340
 7428SOL     OW23182   4.043   0.331   5.254
 7428SOL    HW123183   4.015   0.324   5.158
 7428SOL    HW223184   3.966   0.309   5.313
 7429SOL     OW23185   0.628   6.215   3.495
 7429SOL    HW123186   0.676   6.128   3.487
 7429SOL    HW223187   0.648   6.256   3.584
 7430SOL     OW23188   0.176   3.673   1.311
 7430SOL    HW123189   0.273   3.657   1.331
 7430SOL    HW223190   0.167   3.712   1.219
 7431SOL     OW23191   1.087   2.387   2.952
 7431SOL    HW123192   1.120   2.425   2.866
 7431SOL    HW223193   1.162   2.386   3.018
 7432SOL     OW23194   1.950   0.305   3.245
 7432SOL    HW123195   2.002   0.274   3.165
 7432SOL    HW223196   1.993   0.386   3.283
 7433SOL     OW23197   4.003   6.184   6.313
 7433SOL    HW123198   3.993   6.086   6.330
 7433SOL    HW223199   3.933   6.234   6.362
 7434SOL     OW23200   4.920   5.251   5.710
 7434SOL    HW123201   4.909   5.247   5.809
 7434SOL    HW223202   5.000   5.306   5.687
 7435SOL     OW23203   4.868   6.495   1.162
 7435SOL    HW123204   4.799   6.447   1.216
 7435SOL    HW223205   4.823   6.558   1.099
 7436SOL     OW23206   4.681   4.071   6.197
 7436SOL    HW123207   4.625   4.071   6.114
 7436SOL    HW223208   4.777   4.061   6.171
 7437SOL     OW23209   3.000   5.909   0.322
 7437SOL    HW123210   3.021   5.884   0.228
 7437SOL    HW223211   2.957   5.999   0.323
 7438SOL     OW23212   0.735   6.975   6.979
 7438SOL    HW123213   0.670   7.009   6.911
 7438SOL    HW223214   0.755   6.879   6.961
 7439SOL     OW23215   1.799   6.756   6.278
 7439SOL    HW123216   1.866   6.745   6.206
 7439SOL    HW223217   1.757   6.846   6.272
 7440SOL     OW23218   6.663   2.641   4.069
 7440SOL    HW123219   6.725   2.617   3.994
 7440SOL    HW223220   6.709   2.628   4.156
 7441SOL     OW23221   5.812   0.231   4.949
 7441SOL    HW123222   5.899   0.271   4.976
 7441SOL    HW223223   5.826   0.171   4.870
 7442SOL     OW23224   6.201   1.463   0.095
 7442SOL    HW123225   6.129   1.440   0.161
 7442SOL    HW223226   6.241   1.551   0.120
 7443SOL     OW23227   5.860   5.657   1.803
 7443SOL    HW123228   5.956   5.674   1.824
 7443SOL    HW223229   5.839   5.560   1.818
 7444SOL     OW23230   5.549   1.731   0.176
 7444SOL    HW123231   5.475   1.679   0.133
 7444SOL    HW223232   5.530   1.740   0.274
 7445SOL     OW23233   3.270   0.649   1.180
 7445SOL    HW123234   3.242   0.737   1.142
 7445SOL    HW223235   3.362   0.656   1.219
 7446SOL     OW23236   5.544   2.390   0.054
 7446SOL    HW123237   5.595   2.405   0.138
 7446SOL    HW223238   5.485   2.310   0.064
 7447SOL     OW23239   6.522   4.860   0.186
 7447SOL    HW123240   6.620   4.863   0.165
 7447SOL    HW223241   6.486   4.769   0.163
 7448SOL     OW23242   6.147   6.629   4.655
 7448SOL    HW123243   6.200   6.597   4.577
 7448SOL    HW223244   6.203   6.689   4.711
 7449SOL     OW23245   0.770   5.355   1.098
 7449SOL    HW123246   0.822   5.438   1.076
 7449SOL    HW223247   0.683   5.381   1.139
 7450SOL     OW23248   5.945   2.599   4.665
 7450SOL    HW123249   5.854   2.614   4.627
 7450SOL    HW223250   5.972   2.503   4.652
 7451SOL     OW23251   6.311   6.197   2.453
 7451SOL    HW123252   6.388   6.143   2.488
 7451SOL    HW223253   6.225   6.148   2.470
 7452SOL     OW23254   5.696   5.869   4.082
 7452SOL    HW123255   5.648   5.940   4.134
 7452SOL    HW223256   5.687   5.781   4.129
 7453SOL     OW23257   4.847   5.034   4.781
 7453SOL    HW123258   4.797   5.066   4.701
 7453SOL    HW223259   4.825   4.939   4.799
 7454SOL     OW23260   2.370   2.083   1.307
 7454SOL    HW123261   2.383   2.181   1.319
 7454SOL    HW223262   2.383   2.059   1.211
 7455SOL     OW23263   6.578   2.830   2.137
 7455SOL    HW123264   6.678   2.822   2.133
 7455SOL    HW223265   6.551   2.924   2.114
 7456SOL     OW23266   1.727   1.085   4.805
 7456SOL    HW123267   1.665   1.059   4.879
 7456SOL    HW223268   1.761   1.002   4.759
 7457SOL     OW23269   3.085   0.452   4.779
 7457SOL    HW123270   3.136   0.437   4.694
 7457SOL    HW223271   2.988   0.435   4.763
 7458SOL     OW23272   2.122   0.305   5.805
 7458SOL    HW123273   2.167   0.394   5.797
 7458SOL    HW223274   2.137   0.267   5.896
 7459SOL     OW23275   5.921   1.215   2.427
 7459SOL    HW123276   5.964   1.268   2.355
 7459SOL    HW223277   5.860   1.147   2.387
 7460SOL     OW23278   0.758   5.706   0.138
 7460SOL    HW123279   0.830   5.775   0.144
 7460SOL    HW223280   0.669   5.751   0.127
 7461SOL     OW23281   6.440   6.845   6.215
 7461SOL    HW123282   6.465   6.750   6.198
 7461SOL    HW223283   6.417   6.889   6.128
 7462SOL     OW23284   1.623   4.442   2.203
 7462SOL    HW123285   1.572   4.499   2.267
 7462SOL    HW223286   1.582   4.351   2.200
 7463SOL     OW23287   3.060   4.487   6.926
 7463SOL    HW123288   3.081   4.461   6.832
 7463SOL    HW223289   2.966   4.460   6.948
 7464SOL     OW23290   5.593   0.040   5.560
 7464SOL    HW123291   5.670   0.092   5.522
 7464SOL    HW223292   5.624   6.970   5.585
 7465SOL     OW23293   2.439   5.134   6.731
 7465SOL    HW123294   2.395   5.189   6.660
 7465SOL    HW223295   2.504   5.191   6.781
 7466SOL     OW23296   6.802   0.632   5.408
 7466SOL    HW123297   6.846   0.602   5.493
 7466SOL    HW223298   6.869   0.631   5.334
 7467SOL     OW23299   0.497   2.402   5.808
 7467SOL    HW123300   0.589   2.441   5.820
 7467SOL    HW223301   0.475   2.344   5.887
 7468SOL     OW23302   5.585   3.108   4.209
 7468SOL    HW123303   5.533   3.103   4.124
 7468SOL    HW223304   5.530   3.073   4.284
 7469SOL     OW23305   0.091   1.135   6.702
 7469SOL    HW123306   0.186   1.150   6.673
 7469SOL    HW223307   0.079   1.040   6.729
 7470SOL     OW23308   5.413   3.730   3.642
 7470SOL    HW123309   5.447   3.763   3.730
 7470SOL    HW223310   5.475   3.659   3.607
 7471SOL     OW23311   5.256   6.472   6.147
 7471SOL    HW123312   5.161   6.461   6.118
 7471SOL    HW223313   5.259   6.496   6.244
 7472SOL     OW23314   6.853   1.071   5.593
 7472SOL    HW123315   6.946   1.039   5.610
 7472SOL    HW223316   6.796   0.994   5.565
 7473SOL     OW23317   5.285   5.354   3.838
 7473SOL    HW123318   5.273   5.453   3.852
 7473SOL    HW223319   5.201   5.306   3.865
 7474SOL     OW23320   6.586   1.921   6.502
 7474SOL    HW123321   6.586   1.955   6.597
 7474SOL    HW223322   6.645   1.980   6.446
 7475SOL     OW23323   4.445   2.461   1.881
 7475SOL    HW123324   4.504   2.528   1.836
 7475SOL    HW223325   4.425   2.386   1.818
 7476SOL     OW23326   2.766   1.464   2.884
 7476SOL    HW123327   2.806   1.550   2.853
 7476SOL    HW223328   2.839   1.404   2.918
 7477SOL     OW23329   6.894   2.445   4.535
 7477SOL    HW123330   6.908   2.492   4.622
 7477SOL    HW223331   6.982   2.431   4.490
 7478SOL     OW23332   5.974   3.642   5.250
 7478SOL    HW123333   6.020   3.586   5.318
 7478SOL    HW223334   5.929   3.719   5.294
 7479SOL     OW23335   4.814   2.368   2.085
 7479SOL    HW123336   4.890   2.361   2.149
 7479SOL    HW223337   4.745   2.431   2.121
 7480SOL     OW23338   1.835   4.667   2.492
 7480SOL    HW123339   1.736   4.682   2.487
 7480SOL    HW223340   1.862   4.648   2.586
 7481SOL     OW23341   5.680   4.887   0.766
 7481SOL    HW123342   5.759   4.826   0.782
 7481SOL    HW223343   5.677   4.911   0.669
 7482SOL     OW23344   4.624   2.691   2.666
 7482SOL    HW123345   4.526   2.708   2.681
 7482SOL    HW223346   4.661   2.761   2.605
 7483SOL     OW23347   4.987   3.364   4.671
 7483SOL    HW123348   4.925   3.300   4.717
 7483SOL    HW223349   4.975   3.456   4.709
 7484SOL     OW23350   1.739   5.978   4.520
 7484SOL    HW123351   1.727   6.057   4.581
 7484SOL    HW223352   1.787   5.905   4.568
 7485SOL     OW23353   2.599   0.383   4.845
 7485SOL    HW123354   2.521   0.341   4.799
 7485SOL    HW223355   2.584   0.383   4.943
 7486SOL     OW23356   0.983   6.213   6.856
 7486SOL    HW123357   0.917   6.230   6.782
 7486SOL    HW223358   1.068   6.262   6.836
 7487SOL     OW23359   2.913   0.719   3.730
 7487SOL    HW123360   2.967   0.635   3.722
 7487SOL    HW223361   2.969   0.797   3.706
 7488SOL     OW23362   1.727   5.673   4.864
 7488SOL    HW123363   1.772   5.605   4.922
 7488SOL    HW223364   1.648   5.630   4.818
 7489SOL     OW23365   6.331   2.918   6.812
 7489SOL    HW123366   6.257   2.871   6.859
 7489SOL    HW223367   6.294   2.975   6.739
 7490SOL     OW23368   1.433   0.271   3.341
 7490SOL    HW123369   1.406   0.268   3.437
 7490SOL    HW223370   1.527   0.240   3.332
 7491SOL     OW23371   4.443   2.927   6.805
 7491SOL    HW123372   4.533   2.896   6.835
 7491SOL    HW223373   4.440   3.027   6.809
 7492SOL     OW23374   2.210   0.527   3.616
 7492SOL    HW123375   2.145   0.576   3.674
 7492SOL    HW223376   2.299   0.571   3.619
 7493SOL     OW23377   6.319   2.440   6.065
 7493SOL    HW123378   6.416   2.448   6.043
 7493SOL    HW223379   6.307   2.442   6.164
 7494SOL     OW23380   5.954   1.726   3.478
 7494SOL    HW123381   5.874   1.723   3.417
 7494SOL    HW223382   5.959   1.640   3.529
 7495SOL     OW23383   1.063   3.056   6.086
 7495SOL    HW123384   1.037   2.964   6.116
 7495SOL    HW223385   1.057   3.119   6.163
 7496SOL     OW23386   5.996   3.747   4.168
 7496SOL    HW123387   5.898   3.760   4.151
 7496SOL    HW223388   6.046   3.760   4.083
 7497SOL     OW23389   1.560   4.935   1.172
 7497SOL    HW123390   1.550   5.025   1.131
 7497SOL    HW223391   1.469   4.898   1.195
 7498SOL     OW23392   3.241   0.995   4.239
 7498SOL    HW123393   3.280   1.079   4.275
 7498SOL    HW223394   3.147   1.010   4.210
 7499SOL     OW23395   4.263   2.178   3.525
 7499SOL    HW123396   4.255   2.268   3.568
 7499SOL    HW223397   4.309   2.187   3.437
 7500SOL     OW23398   3.498   5.762   3.183
 7500SOL    HW123399   3.439   5.772   3.262
 7500SOL    HW223400   3.580   5.818   3.194
 7501SOL     OW23401   5.310   4.294   3.917
 7501SOL    HW123402   5.268   4.302   4.007
 7501SOL    HW223403   5.403   4.328   3.919
 7502SOL     OW23404   3.050   0.188   4.393
 7502SOL    HW123405   2.974   0.252   4.405
 7502SOL    HW223406   3.021   0.112   4.335
 7503SOL     OW23407   2.877   6.625   1.284
 7503SOL    HW123408   2.801   6.574   1.245
 7503SOL    HW223409   2.858   6.723   1.281
 7504SOL     OW23410   0.457   6.141   3.307
 7504SOL    HW123411   0.419   6.060   3.353
 7504SOL    HW223412   0.515   6.191   3.371
 7505SOL     OW23413   1.461   2.458   6.087
 7505SOL    HW123414   1.489   2.389   6.154
 7505SOL    HW223415   1.472   2.549   6.126
 7506SOL     OW23416   4.900   2.652   4.024
 7506SOL    HW123417   4.808   2.688   4.040
 7506SOL    HW223418   4.924   2.663   3.928
 7507SOL     OW23419   5.890   2.170   3.066
 7507SOL    HW123420   5.955   2.246   3.076
 7507SOL    HW223421   5.907   2.123   2.979
 7508SOL     OW23422   2.416   5.192   0.662
 7508SOL    HW123423   2.343   5.206   0.596
 7508SOL    HW223424   2.485   5.130   0.623
 7509SOL     OW23425   6.109   3.342   0.390
 7509SOL    HW123426   6.096   3.304   0.299
 7509SOL    HW223427   6.021   3.372   0.427
 7510SOL     OW23428   3.966   3.632   4.546
 7510SOL    HW123429   3.998   3.547   4.502
 7510SOL    HW223430   3.874   3.654   4.513
 7511SOL     OW23431   3.073   6.129   3.024
 7511SOL    HW123432   3.052   6.059   3.092
 7511SOL    HW223433   3.101   6.214   3.070
 7512SOL     OW23434   2.687   1.009   6.779
 7512SOL    HW123435   2.621   1.013   6.855
 7512SOL    HW223436   2.672   1.086   6.717
 7513SOL     OW23437   1.469   1.030   2.309
 7513SOL    HW123438   1.500   0.975   2.386
 7513SOL    HW223439   1.527   1.111   2.300
 7514SOL     OW23440   2.453   4.857   2.949
 7514SOL    HW123441   2.379   4.796   2.978
 7514SOL    HW223442   2.523   4.805   2.901
 7515SOL     OW23443   6.850   5.061   4.769
 7515SOL    HW123444   6.944   5.059   4.803
 7515SOL    HW223445   6.801   4.979   4.801
 7516SOL     OW23446   0.591   5.358   5.913
 7516SOL    HW123447   0.559   5.306   5.992
 7516SOL    HW223448   0.623   5.448   5.944
 7517SOL     OW23449   0.640   1.959   0.399
 7517SOL    HW123450   0.588   2.039   0.429
 7517SOL    HW223451   0.611   1.933   0.307
 7518SOL     OW23452   5.209   3.474   3.786
 7518SOL    HW123453   5.111   3.461   3.769
 7518SOL    HW223454   5.252   3.511   3.703
 7519SOL     OW23455   6.738   6.696   4.598
 7519SOL    HW123456   6.729   6.604   4.560
 7519SOL    HW223457   6.652   6.746   4.587
 7520SOL     OW23458   2.173   0.466   2.801
 7520SOL    HW123459   2.244   0.401   2.774
 7520SOL    HW223460   2.179   0.548   2.745
 7521SOL     OW23461   5.706   2.830   4.867
 7521SOL    HW123462   5.711   2.804   4.964
 7521SOL    HW223463   5.675   2.751   4.814
 7522SOL     OW23464   1.573   0.549   5.941
 7522SOL    HW123465   1.518   0.568   6.022
 7522SOL    HW223466   1.513   0.516   5.868
 7523SOL     OW23467   4.931   0.754   6.355
 7523SOL    HW123468   4.898   0.845   6.382
 7523SOL    HW223469   5.003   0.725   6.419
 7524SOL     OW23470   0.650   2.710   5.248
 7524SOL    HW123471   0.647   2.804   5.212
 7524SOL    HW223472   0.590   2.703   5.327
 7525SOL     OW23473   4.297   7.018   6.840
 7525SOL    HW123474   4.317   0.043   6.754
 7525SOL    HW223475   4.368   0.017   6.907
 7526SOL     OW23476   2.852   3.167   1.760
 7526SOL    HW123477   2.908   3.165   1.843
 7526SOL    HW223478   2.769   3.221   1.777
 7527SOL     OW23479   3.323   5.556   3.870
 7527SOL    HW123480   3.379   5.635   3.845
 7527SOL    HW223481   3.380   5.474   3.872
 7528SOL     OW23482   6.059   2.284   6.873
 7528SOL    HW123483   6.152   2.314   6.851
 7528SOL    HW223484   6.017   2.242   6.793
 7529SOL     OW23485   5.472   1.957   4.442
 7529SOL    HW123486   5.384   2.001   4.459
 7529SOL    HW223487   5.464   1.859   4.457
 7530SOL     OW23488   5.936   2.701   2.175
 7530SOL    HW123489   5.976   2.624   2.126
 7530SOL    HW223490   6.004   2.741   2.237
 7531SOL     OW23491   5.283   3.369   4.006
 7531SOL    HW123492   5.237   3.386   3.919
 7531SOL    HW223493   5.356   3.436   4.020
 7532SOL     OW23494   4.473   6.140   0.659
 7532SOL    HW123495   4.483   6.121   0.561
 7532SOL    HW223496   4.398   6.086   0.696
 7533SOL     OW23497   3.557   1.969   1.836
 7533SOL    HW123498   3.627   2.041   1.828
 7533SOL    HW223499   3.466   2.011   1.835
 7534SOL     OW23500   5.346   5.781   4.541
 7534SOL    HW123501   5.356   5.684   4.567
 7534SOL    HW223502   5.403   5.800   4.461
 7535SOL     OW23503   1.726   6.566   5.181
 7535SOL    HW123504   1.739   6.493   5.248
 7535SOL    HW223505   1.781   6.547   5.100
 7536SOL     OW23506   4.744   5.376   3.915
 7536SOL    HW123507   4.698   5.465   3.918
 7536SOL    HW223508   4.802   5.371   3.834
 7537SOL     OW23509   1.959   4.704   2.763
 7537SOL    HW123510   2.051   4.682   2.794
 7537SOL    HW223511   1.935   4.797   2.792
 7538SOL     OW23512   2.056   2.538   1.633
 7538SOL    HW123513   2.019   2.572   1.547
 7538SOL    HW223514   1.985   2.485   1.681
 7539SOL     OW23515   1.481   4.156   3.740
 7539SOL    HW123516   1.577   4.152   3.713
 7539SOL    HW223517   1.450   4.251   3.739
 7540SOL     OW23518   4.355   6.980   4.566
 7540SOL    HW123519   4.262   6.983   4.529
 7540SOL    HW223520   4.392   6.888   4.555
 7541SOL     OW23521   0.479   4.170   6.057
 7541SOL    HW123522   0.538   4.100   6.097
 7541SOL    HW223523   0.485   4.253   6.112
 7542SOL     OW23524   6.478   6.180   0.231
 7542SOL    HW123525   6.491   6.183   0.132
 7542SOL    HW223526   6.502   6.089   0.265
 7543SOL     OW23527   3.327   1.278   5.082
 7543SOL    HW123528   3.333   1.306   5.178
 7543SOL    HW223529   3.412   1.231   5.056
 7544SOL     OW23530   6.775   2.549   4.308
 7544SOL    HW123531   6.802   2.483   4.378
 7544SOL    HW223532   6.734   2.630   4.352
 7545SOL     OW23533   0.946   6.496   6.146
 7545SOL    HW123534   0.998   6.419   6.183
 7545SOL    HW223535   0.881   6.529   6.215
 7546SOL     OW23536   4.700   2.222   1.276
 7546SOL    HW123537   4.645   2.143   1.302
 7546SOL    HW223538   4.644   2.305   1.281
 7547SOL     OW23539   5.085   1.046   1.184
 7547SOL    HW123540   5.149   1.016   1.112
 7547SOL    HW223541   5.136   1.080   1.262
 7548SOL     OW23542   4.823   2.378   6.338
 7548SOL    HW123543   4.854   2.468   6.310
 7548SOL    HW223544   4.894   2.335   6.394
 7549SOL     OW23545   3.591   3.204   6.261
 7549SOL    HW123546   3.506   3.182   6.309
 7549SOL    HW223547   3.574   3.276   6.194
 7550SOL     OW23548   1.950   4.717   3.387
 7550SOL    HW123549   1.998   4.804   3.380
 7550SOL    HW223550   2.014   4.645   3.412
 7551SOL     OW23551   5.877   3.131   5.267
 7551SOL    HW123552   5.951   3.156   5.203
 7551SOL    HW223553   5.825   3.055   5.230
 7552SOL     OW23554   1.723   6.040   4.257
 7552SOL    HW123555   1.734   6.003   4.349
 7552SOL    HW223556   1.626   6.043   4.233
 7553SOL     OW23557   4.787   6.788   5.710
 7553SOL    HW123558   4.695   6.812   5.679
 7553SOL    HW223559   4.844   6.871   5.714
 7554SOL     OW23560   4.850   0.562   6.701
 7554SOL    HW123561   4.835   0.476   6.651
 7554SOL    HW223562   4.781   0.629   6.673
 7555SOL     OW23563   3.094   5.575   6.526
 7555SOL    HW123564   3.037   5.528   6.458
 7555SOL    HW223565   3.040   5.594   6.608
 7556SOL     OW23566   2.583   1.874   0.124
 7556SOL    HW123567   2.527   1.957   0.118
 7556SOL    HW223568   2.540   1.809   0.186
 7557SOL     OW23569   4.860   0.310   6.219
 7557SOL    HW123570   4.953   0.297   6.254
 7557SOL    HW223571   4.827   0.400   6.247
 7558SOL     OW23572   2.065   3.039   4.261
 7558SOL    HW123573   2.118   3.044   4.176
 7558SOL    HW223574   2.109   2.976   4.324
 7559SOL     OW23575   3.942   2.695   5.883
 7559SOL    HW123576   3.986   2.727   5.799
 7559SOL    HW223577   4.002   2.715   5.961
 7560SOL     OW23578   5.697   0.123   0.251
 7560SOL    HW123579   5.630   0.146   0.322
 7560SOL    HW223580   5.741   0.036   0.273
 7561SOL     OW23581   6.384   2.698   5.648
 7561SOL    HW123582   6.453   2.763   5.679
 7561SOL    HW223583   6.399   2.609   5.692
 7562SOL     OW23584   0.760   4.715   5.418
 7562SOL    HW123585   0.836   4.650   5.416
 7562SOL    HW223586   0.732   4.737   5.324
 7563SOL     OW23587   2.554   6.200   1.811
 7563SOL    HW123588   2.569   6.277   1.748
 7563SOL    HW223589   2.456   6.184   1.820
 7564SOL     OW23590   3.680   0.232   4.237
 7564SOL    HW123591   3.621   0.233   4.318
 7564SOL    HW223592   3.691   0.138   4.205
 7565SOL     OW23593   5.474   3.745   6.014
 7565SOL    HW123594   5.440   3.710   5.927
 7565SOL    HW223595   5.574   3.734   6.018
 7566SOL     OW23596   5.583   5.103   2.158
 7566SOL    HW123597   5.679   5.073   2.149
 7566SOL    HW223598   5.540   5.104   2.068
 7567SOL     OW23599   1.166   1.303   5.868
 7567SOL    HW123600   1.166   1.283   5.966
 7567SOL    HW223601   1.246   1.261   5.825
 7568SOL     OW23602   5.343   4.655   2.166
 7568SOL    HW123603   5.338   4.687   2.071
 7568SOL    HW223604   5.437   4.630   2.187
 7569SOL     OW23605   3.180   4.849   6.278
 7569SOL    HW123606   3.257   4.784   6.274
 7569SOL    HW223607   3.130   4.845   6.191
 7570SOL     OW23608   5.845   3.547   4.337
 7570SOL    HW123609   5.868   3.628   4.283
 7570SOL    HW223610   5.926   3.492   4.351
 7571SOL     OW23611   4.906   3.428   3.222
 7571SOL    HW123612   4.936   3.448   3.129
 7571SOL    HW223613   4.906   3.329   3.237
 7572SOL     OW23614   5.240   0.753   2.994
 7572SOL    HW123615   5.156   0.773   3.044
 7572SOL    HW223616   5.238   0.658   2.961
 7573SOL     OW23617   6.214   0.605   5.853
 7573SOL    HW123618   6.291   0.648   5.806
 7573SOL    HW223619   6.237   0.589   5.949
 7574SOL     OW23620   5.842   1.204   4.168
 7574SOL    HW123621   5.831   1.265   4.090
 7574SOL    HW223622   5.895   1.124   4.140
 7575SOL     OW23623   5.847   6.928   0.333
 7575SOL    HW123624   5.827   6.847   0.278
 7575SOL    HW223625   5.921   6.981   0.291
 7576SOL     OW23626   5.025   2.619   7.014
 7576SOL    HW123627   4.965   2.572   0.058
 7576SOL    HW223628   5.114   2.635   0.035
 7577SOL     OW23629   0.414   6.208   0.142
 7577SOL    HW123630   0.402   6.298   0.099
 7577SOL    HW223631   0.502   6.169   0.114
 7578SOL     OW23632   1.816   5.284   2.603
 7578SOL    HW123633   1.737   5.266   2.544
 7578SOL    HW223634   1.807   5.374   2.644
 7579SOL     OW23635   0.179   1.344   1.373
 7579SOL    HW123636   0.201   1.273   1.440
 7579SOL    HW223637   0.220   1.430   1.402
 7580SOL     OW23638   0.837   4.240   3.483
 7580SOL    HW123639   0.752   4.292   3.495
 7580SOL    HW223640   0.854   4.227   3.385
 7581SOL     OW23641   0.701   1.407   1.497
 7581SOL    HW123642   0.784   1.446   1.536
 7581SOL    HW223643   0.699   1.424   1.399
 7582SOL     OW23644   4.087   1.922   4.144
 7582SOL    HW123645   4.147   1.889   4.217
 7582SOL    HW223646   4.134   1.913   4.056
 7583SOL     OW23647   5.362   3.129   2.152
 7583SOL    HW123648   5.436   3.156   2.213
 7583SOL    HW223649   5.363   3.187   2.071
 7584SOL     OW23650   1.727   0.490   2.757
 7584SOL    HW123651   1.704   0.393   2.755
 7584SOL    HW223652   1.687   0.535   2.677
 7585SOL     OW23653   1.531   2.247   6.236
 7585SOL    HW123654   1.623   2.208   6.234
 7585SOL    HW223655   1.464   2.175   6.254
 7586SOL     OW23656   1.628   6.443   3.156
 7586SOL    HW123657   1.669   6.360   3.117
 7586SOL    HW223658   1.638   6.441   3.255
 7587SOL     OW23659   2.893   1.497   6.839
 7587SOL    HW123660   2.929   1.586   6.813
 7587SOL    HW223661   2.853   1.452   6.759
 7588SOL     OW23662   1.902   2.323   3.697
 7588SOL    HW123663   1.929   2.332   3.601
 7588SOL    HW223664   1.958   2.385   3.753
 7589SOL     OW23665   6.883   0.678   2.593
 7589SOL    HW123666   6.959   0.616   2.571
 7589SOL    HW223667   6.920   0.763   2.631
 7590SOL     OW23668   5.601   1.082   0.411
 7590SOL    HW123669   5.520   1.073   0.352
 7590SOL    HW223670   5.633   0.991   0.437
 7591SOL     OW23671   5.421   4.086   0.130
 7591SOL    HW123672   5.441   4.181   0.108
 7591SOL    HW223673   5.387   4.040   0.048
 7592SOL     OW23674   6.093   4.959   4.945
 7592SOL    HW123675   6.144   5.001   4.870
 7592SOL    HW223676   6.129   4.867   4.961
 7593SOL     OW23677   6.853   3.194   6.833
 7593SOL    HW123678   6.850   3.283   6.877
 7593SOL    HW223679   6.765   3.174   6.791
 7594SOL     OW23680   1.151   4.750   1.431
 7594SOL    HW123681   1.097   4.718   1.509
 7594SOL    HW223682   1.220   4.815   1.463
 7595SOL     OW23683   6.456   2.980   6.440
 7595SOL    HW123684   6.417   2.889   6.452
 7595SOL    HW223685   6.556   2.975   6.450
 7596SOL     OW23686   3.077   6.518   4.465
 7596SOL    HW123687   3.027   6.535   4.550
 7596SOL    HW223688   3.115   6.603   4.431
 7597SOL     OW23689   2.028   6.584   3.103
 7597SOL    HW123690   2.117   6.623   3.079
 7597SOL    HW223691   2.024   6.489   3.071
 7598SOL     OW23692   6.098   0.717   3.583
 7598SOL    HW123693   6.040   0.791   3.618
 7598SOL    HW223694   6.044   0.632   3.578
 7599SOL     OW23695   5.333   2.720   1.580
 7599SOL    HW123696   5.428   2.744   1.602
 7599SOL    HW223697   5.306   2.639   1.632
 7600SOL     OW23698   0.835   0.739   3.662
 7600SOL    HW123699   0.751   0.705   3.621
 7600SOL    HW223700   0.914   0.698   3.616
 7601SOL     OW23701   2.758   5.040   2.078
 7601SOL    HW123702   2.810   5.124   2.094
 7601SOL    HW223703   2.660   5.060   2.082
 7602SOL     OW23704   1.307   3.176   6.450
 7602SOL    HW123705   1.365   3.216   6.520
 7602SOL    HW223706   1.257   3.098   6.488
 7603SOL     OW23707   2.100   6.457   6.166
 7603SOL    HW123708   2.178   6.399   6.140
 7603SOL    HW223709   2.047   6.411   6.238
 7604SOL     OW23710   0.877   2.147   5.158
 7604SOL    HW123711   0.926   2.191   5.082
 7604SOL    HW223712   0.791   2.109   5.125
 7605SOL     OW23713   1.572   0.589   0.444
 7605SOL    HW123714   1.622   0.574   0.359
 7605SOL    HW223715   1.557   0.501   0.490
 7606SOL     OW23716   5.633   3.215   5.045
 7606SOL    HW123717   5.635   3.184   4.950
 7606SOL    HW223718   5.641   3.135   5.106
 7607SOL     OW23719   4.106   5.091   0.116
 7607SOL    HW123720   4.086   5.039   0.033
 7607SOL    HW223721   4.201   5.076   0.143
 7608SOL     OW23722   5.731   2.636   0.644
 7608SOL    HW123723   5.688   2.675   0.725
 7608SOL    HW223724   5.792   2.562   0.671
 7609SOL     OW23725   0.983   3.389   3.749
 7609SOL    HW123726   1.069   3.431   3.778
 7609SOL    HW223727   0.927   3.368   3.829
 7610SOL     OW23728   3.973   4.448   5.721
 7610SOL    HW123729   4.028   4.465   5.640
 7610SOL    HW223730   3.876   4.450   5.697
 7611SOL     OW23731   5.197   3.692   1.013
 7611SOL    HW123732   5.178   3.598   0.987
 7611SOL    HW223733   5.112   3.734   1.047
 7612SOL     OW23734   4.643   2.703   3.075
 7612SOL    HW123735   4.544   2.700   3.070
 7612SOL    HW223736   4.681   2.706   2.983
 7613SOL     OW23737   0.059   1.660   1.663
 7613SOL    HW123738   0.068   1.596   1.739
 7613SOL    HW223739   0.000   1.619   1.593
 7614SOL     OW23740   5.322   3.473   1.248
 7614SOL    HW123741   5.291   3.537   1.177
 7614SOL    HW223742   5.276   3.495   1.334
 7615SOL     OW23743   4.984   4.084   6.130
 7615SOL    HW123744   5.058   4.151   6.129
 7615SOL    HW223745   4.981   4.036   6.042
 7616SOL     OW23746   6.830   6.883   4.390
 7616SOL    HW123747   6.798   6.799   4.433
 7616SOL    HW223748   6.926   6.873   4.365
 7617SOL     OW23749   5.312   5.908   3.729
 7617SOL    HW123750   5.397   5.946   3.766
 7617SOL    HW223751   5.264   5.979   3.678
 7618SOL     OW23752   0.783   2.671   6.962
 7618SOL    HW123753   0.798   2.745   0.006
 7618SOL    HW223754   0.827   2.588   6.996
 7619SOL     OW23755   0.199   2.590   4.338
 7619SOL    HW123756   0.252   2.675   4.345
 7619SOL    HW223757   0.231   2.537   4.259
 7620SOL     OW23758   4.532   5.555   1.112
 7620SOL    HW123759   4.505   5.585   1.204
 7620SOL    HW223760   4.457   5.504   1.070
 7621SOL     OW23761   0.612   0.844   1.257
 7621SOL    HW123762   0.576   0.911   1.322
 7621SOL    HW223763   0.561   0.758   1.266
 7622SOL     OW23764   4.683   5.004   6.244
 7622SOL    HW123765   4.719   4.911   6.254
 7622SOL    HW223766   4.594   5.001   6.199
 7623SOL     OW23767   4.687   4.499   1.249
 7623SOL    HW123768   4.620   4.491   1.176
 7623SOL    HW223769   4.748   4.420   1.248
 7624SOL     OW23770   6.906   3.583   3.546
 7624SOL    HW123771   6.825   3.619   3.593
 7624SOL    HW223772   6.973   3.656   3.536
 7625SOL     OW23773   6.553   1.537   0.104
 7625SOL    HW123774   6.527   1.440   0.104
 7625SOL    HW223775   6.470   1.593   0.113
 7626SOL     OW23776   6.427   1.016   6.055
 7626SOL    HW123777   6.431   0.917   6.047
 7626SOL    HW223778   6.507   1.056   6.009
 7627SOL     OW23779   3.335   2.523   0.107
 7627SOL    HW123780   3.391   2.442   0.123
 7627SOL    HW223781   3.286   2.547   0.192
 7628SOL     OW23782   4.024   2.800   1.734
 7628SOL    HW123783   3.996   2.723   1.676
 7628SOL    HW223784   3.952   2.870   1.732
 7629SOL     OW23785   0.162   4.038   3.575
 7629SOL    HW123786   0.172   4.097   3.496
 7629SOL    HW223787   0.203   4.081   3.655
 7630SOL     OW23788   0.610   0.855   6.298
 7630SOL    HW123789   0.687   0.852   6.234
 7630SOL    HW223790   0.623   0.786   6.369
 7631SOL     OW23791   1.199   1.479   5.417
 7631SOL    HW123792   1.230   1.534   5.496
 7631SOL    HW223793   1.247   1.510   5.335
 7632SOL     OW23794   4.360   4.880   0.604
 7632SOL    HW123795   4.343   4.781   0.604
 7632SOL    HW223796   4.273   4.929   0.608
 7633SOL     OW23797   5.025   0.322   1.747
 7633SOL    HW123798   4.959   0.393   1.718
 7633SOL    HW223799   5.007   0.298   1.842
 7634SOL     OW23800   2.544   1.445   1.536
 7634SOL    HW123801   2.549   1.367   1.598
 7634SOL    HW223802   2.636   1.465   1.501
 7635SOL     OW23803   3.190   4.931   4.400
 7635SOL    HW123804   3.179   4.839   4.438
 7635SOL    HW223805   3.113   4.988   4.429
 7636SOL     OW23806   1.055   4.054   4.021
 7636SOL    HW123807   1.027   4.027   3.929
 7636SOL    HW223808   1.053   3.974   4.081
 7637SOL     OW23809   2.197   6.269   2.798
 7637SOL    HW123810   2.153   6.179   2.792
 7637SOL    HW223811   2.296   6.257   2.807
 7638SOL     OW23812   1.425   5.430   2.620
 7638SOL    HW123813   1.451   5.350   2.675
 7638SOL    HW223814   1.344   5.473   2.660
 7639SOL     OW23815   0.342   1.350   0.616
 7639SOL    HW123816   0.366   1.391   0.704
 7639SOL    HW223817   0.401   1.271   0.599
 7640SOL     OW23818   2.555   2.878   6.610
 7640SOL    HW123819   2.497   2.812   6.563
 7640SOL    HW223820   2.650   2.850   6.603
 7641SOL     OW23821   6.609   3.956   2.695
 7641SOL    HW123822   6.708   3.967   2.689
 7641SOL    HW223823   6.581   3.870   2.653
 7642SOL     OW23824   5.284   1.163   2.613
 7642SOL    HW123825   5.338   1.233   2.661
 7642SOL    HW223826   5.286   1.078   2.664
 7643SOL     OW23827   5.134   1.491   2.615
 7643SOL    HW123828   5.227   1.466   2.586
 7643SOL    HW223829   5.119   1.588   2.598
 7644SOL     OW23830   4.871   3.053   2.245
 7644SOL    HW123831   4.799   3.067   2.313
 7644SOL    HW223832   4.829   3.028   2.158
 7645SOL     OW23833   4.267   3.644   5.518
 7645SOL    HW123834   4.226   3.726   5.557
 7645SOL    HW223835   4.341   3.670   5.456
 7646SOL     OW23836   0.520   2.373   3.796
 7646SOL    HW123837   0.530   2.402   3.701
 7646SOL    HW223838   0.439   2.315   3.804
 7647SOL     OW23839   0.291   3.143   4.618
 7647SOL    HW123840   0.260   3.220   4.674
 7647SOL    HW223841   0.321   3.176   4.529
 7648SOL     OW23842   2.502   1.711   2.782
 7648SOL    HW123843   2.468   1.734   2.691
 7648SOL    HW223844   2.602   1.709   2.780
 7649SOL     OW23845   1.311   0.911   4.285
 7649SOL    HW123846   1.378   0.837   4.299
 7649SOL    HW223847   1.354   0.984   4.232
 7650SOL     OW23848   6.252   0.530   0.985
 7650SOL    HW123849   6.223   0.512   1.079
 7650SOL    HW223850   6.345   0.497   0.972
 7651SOL     OW23851   2.640   6.369   4.215
 7651SOL    HW123852   2.721   6.327   4.174
 7651SOL    HW223853   2.558   6.338   4.168
 7652SOL     OW23854   6.025   2.623   4.991
 7652SOL    HW123855   6.020   2.685   4.912
 7652SOL    HW223856   6.115   2.629   5.033
 7653SOL     OW23857   1.440   1.658   0.164
 7653SOL    HW123858   1.383   1.578   0.183
 7653SOL    HW223859   1.503   1.638   0.089
 7654SOL     OW23860   5.200   3.201   4.601
 7654SOL    HW123861   5.151   3.280   4.638
 7654SOL    HW223862   5.137   3.123   4.593
 7655SOL     OW23863   3.394   0.282   3.799
 7655SOL    HW123864   3.479   0.308   3.755
 7655SOL    HW223865   3.355   0.201   3.754
 7656SOL     OW23866   5.028   2.712   6.531
 7656SOL    HW123867   5.110   2.758   6.566
 7656SOL    HW223868   5.004   2.637   6.593
 7657SOL     OW23869   2.270   2.389   3.991
 7657SOL    HW123870   2.274   2.361   3.895
 7657SOL    HW223871   2.239   2.312   4.047
 7658SOL     OW23872   2.876   0.356   0.722
 7658SOL    HW123873   2.813   0.431   0.744
 7658SOL    HW223874   2.968   0.392   0.711
 7659SOL     OW23875   4.790   4.117   6.787
 7659SOL    HW123876   4.726   4.048   6.752
 7659SOL    HW223877   4.830   4.167   6.710
 7660SOL     OW23878   6.372   5.342   4.100
 7660SOL    HW123879   6.319   5.412   4.052
 7660SOL    HW223880   6.331   5.326   4.190
 7661SOL     OW23881   5.130   2.249   5.479
 7661SOL    HW123882   5.134   2.252   5.579
 7661SOL    HW223883   5.222   2.241   5.442
 7662SOL     OW23884   1.165   2.659   3.045
 7662SOL    HW123885   1.163   2.749   3.001
 7662SOL    HW223886   1.089   2.604   3.011
 7663SOL     OW23887   5.038   5.522   6.474
 7663SOL    HW123888   4.951   5.511   6.521
 7663SOL    HW223889   5.064   5.436   6.430
 7664SOL     OW23890   3.982   1.347   2.458
 7664SOL    HW123891   3.974   1.317   2.553
 7664SOL    HW223892   4.052   1.292   2.411
 7665SOL     OW23893   5.614   1.260   4.276
 7665SOL    HW123894   5.706   1.233   4.248
 7665SOL    HW223895   5.546   1.218   4.215
 7666SOL     OW23896   0.205   4.685   3.725
 7666SOL    HW123897   0.238   4.776   3.753
 7666SOL    HW223898   0.132   4.656   3.787
 7667SOL     OW23899   4.453   0.342   2.896
 7667SOL    HW123900   4.493   0.364   2.984
 7667SOL    HW223901   4.515   0.371   2.823
 7668SOL     OW23902   2.576   4.941   1.199
 7668SOL    HW123903   2.563   4.962   1.103
 7668SOL    HW223904   2.544   5.018   1.255
 7669SOL     OW23905   4.823   0.909   5.038
 7669SOL    HW123906   4.799   1.003   5.065
 7669SOL    HW223907   4.874   0.866   5.112
 7670SOL     OW23908   1.141   5.923   0.424
 7670SOL    HW123909   1.074   5.966   0.484
 7670SOL    HW223910   1.232   5.955   0.446
 7671SOL     OW23911   4.018   0.365   2.295
 7671SOL    HW123912   3.925   0.401   2.299
 7671SOL    HW223913   4.082   0.438   2.271
 7672SOL     OW23914   6.645   5.201   3.425
 7672SOL    HW123915   6.664   5.120   3.480
 7672SOL    HW223916   6.624   5.278   3.485
 7673SOL     OW23917   1.939   5.530   2.300
 7673SOL    HW123918   2.027   5.528   2.347
 7673SOL    HW223919   1.894   5.441   2.311
 7674SOL     OW23920   4.606   0.495   4.062
 7674SOL    HW123921   4.540   0.565   4.090
 7674SOL    HW223922   4.618   0.430   4.137
 7675SOL     OW23923   5.237   6.293   3.663
 7675SOL    HW123924   5.184   6.377   3.649
 7675SOL    HW223925   5.188   6.216   3.622
 7676SOL     OW23926   3.086   2.235   6.001
 7676SOL    HW123927   3.040   2.303   6.057
 7676SOL    HW223928   3.030   2.152   5.996
 7677SOL     OW23929   0.515   4.213   0.745
 7677SOL    HW123930   0.448   4.246   0.811
 7677SOL    HW223931   0.604   4.203   0.791
 7678SOL     OW23932   1.853   3.185   5.578
 7678SOL    HW123933   1.850   3.095   5.622
 7678SOL    HW223934   1.768   3.201   5.528
 7679SOL     OW23935   1.753   5.308   5.558
 7679SOL    HW123936   1.710   5.265   5.638
 7679SOL    HW223937   1.791   5.237   5.499
 7680SOL     OW23938   1.681   0.586   0.160
 7680SOL    HW123939   1.609   0.650   0.134
 7680SOL    HW223940   1.769   0.633   0.161
 7681SOL     OW23941   2.920   1.067   0.109
 7681SOL    HW123942   2.871   1.007   0.171
 7681SOL    HW223943   2.948   1.016   0.028
 7682SOL     OW23944   4.503   0.779   2.486
 7682SOL    HW123945   4.556   0.706   2.442
 7682SOL    HW223946   4.453   0.831   2.417
 7683SOL     OW23947   0.564   1.591   4.948
 7683SOL    HW123948   0.558   1.657   5.023
 7683SOL    HW223949   0.504   1.513   4.966
 7684SOL     OW23950   3.712   2.400   0.763
 7684SOL    HW123951   3.622   2.378   0.723
 7684SOL    HW223952   3.698   2.455   0.845
 7685SOL     OW23953   3.330   1.827   6.627
 7685SOL    HW123954   3.312   1.765   6.551
 7685SOL    HW223955   3.258   1.896   6.631
 7686SOL     OW23956   6.293   6.963   4.391
 7686SOL    HW123957   6.220   6.898   4.411
 7686SOL    HW223958   6.331   6.942   4.301
 7687SOL     OW23959   4.979   5.495   4.930
 7687SOL    HW123960   5.041   5.530   4.860
 7687SOL    HW223961   4.977   5.395   4.927
 7688SOL     OW23962   0.117   5.987   6.409
 7688SOL    HW123963   0.118   5.960   6.313
 7688SOL    HW223964   0.197   6.043   6.429
 7689SOL     OW23965   5.100   6.690   3.384
 7689SOL    HW123966   5.170   6.698   3.313
 7689SOL    HW223967   5.108   6.768   3.447
 7690SOL     OW23968   5.128   5.514   0.520
 7690SOL    HW123969   5.137   5.599   0.573
 7690SOL    HW223970   5.119   5.437   0.583
 7691SOL     OW23971   5.505   4.054   1.852
 7691SOL    HW123972   5.463   4.070   1.762
 7691SOL    HW223973   5.491   4.133   1.910
 7692SOL     OW23974   0.505   5.967   1.612
 7692SOL    HW123975   0.409   5.996   1.614
 7692SOL    HW223976   0.563   6.044   1.638
 7693SOL     OW23977   3.090   0.484   1.319
 7693SOL    HW123978   3.005   0.530   1.344
 7693SOL    HW223979   3.148   0.546   1.266
 7694SOL     OW23980   5.766   2.860   4.366
 7694SOL    HW123981   5.826   2.894   4.293
 7694SOL    HW223982   5.706   2.933   4.397
 7695SOL     OW23983   6.092   0.516   1.278
 7695SOL    HW123984   6.141   0.600   1.299
 7695SOL    HW223985   6.001   0.519   1.318
 7696SOL     OW23986   6.201   1.789   6.285
 7696SOL    HW123987   6.201   1.713   6.219
 7696SOL    HW223988   6.180   1.874   6.237
 7697SOL     OW23989   2.848   0.838   2.472
 7697SOL    HW123990   2.944   0.816   2.488
 7697SOL    HW223991   2.819   0.803   2.383
 7698SOL     OW23992   6.633   1.236   5.456
 7698SOL    HW123993   6.687   1.182   5.521
 7698SOL    HW223994   6.646   1.333   5.475
 7699SOL     OW23995   2.510   5.439   6.640
 7699SOL    HW123996   2.432   5.485   6.682
 7699SOL    HW223997   2.565   5.396   6.712
 7700SOL     OW23998   4.134   6.005   3.301
 7700SOL    HW123999   4.154   6.044   3.211
 7700SOL    HW224000   4.127   5.906   3.294
 7701SOL     OW24001   0.310   2.667   6.463
 7701SOL    HW124002   0.368   2.744   6.490
 7701SOL    HW224003   0.214   2.688   6.486
 7702SOL     OW24004   4.379   5.703   5.153
 7702SOL    HW124005   4.445   5.651   5.207
 7702SOL    HW224006   4.343   5.646   5.079
 7703SOL     OW24007   6.150   6.217   5.832
 7703SOL    HW124008   6.164   6.303   5.783
 7703SOL    HW224009   6.068   6.223   5.888
 7704SOL     OW24010   6.209   1.766   3.423
 7704SOL    HW124011   6.231   1.718   3.508
 7704SOL    HW224012   6.110   1.767   3.409
 7705SOL     OW24013   2.535   5.402   1.357
 7705SOL    HW124014   2.589   5.429   1.278
 7705SOL    HW224015   2.447   5.451   1.355
 7706SOL     OW24016   3.804   3.303   3.994
 7706SOL    HW124017   3.902   3.320   4.006
 7706SOL    HW224018   3.792   3.224   3.933
 7707SOL     OW24019   0.434   4.474   6.857
 7707SOL    HW124020   0.507   4.425   6.904
 7707SOL    HW224021   0.435   4.570   6.884
 7708SOL     OW24022   1.522   6.709   4.298
 7708SOL    HW124023   1.430   6.676   4.277
 7708SOL    HW224024   1.542   6.790   4.244
 7709SOL     OW24025   6.685   4.989   2.106
 7709SOL    HW124026   6.766   4.932   2.120
 7709SOL    HW224027   6.627   4.949   2.036
 7710SOL     OW24028   1.914   2.148   0.672
 7710SOL    HW124029   1.925   2.049   0.660
 7710SOL    HW224030   1.993   2.196   0.633
 7711SOL     OW24031   5.264   5.921   5.996
 7711SOL    HW124032   5.303   5.995   6.052
 7711SOL    HW224033   5.167   5.940   5.979
 7712SOL     OW24034   6.037   4.560   0.511
 7712SOL    HW124035   6.134   4.539   0.514
 7712SOL    HW224036   5.992   4.500   0.444
 7713SOL     OW24037   1.810   3.309   0.861
 7713SOL    HW124038   1.784   3.271   0.772
 7713SOL    HW224039   1.889   3.258   0.897
 7714SOL     OW24040   0.320   6.253   5.061
 7714SOL    HW124041   0.325   6.232   5.159
 7714SOL    HW224042   0.324   6.352   5.049
 7715SOL     OW24043   2.582   2.274   6.565
 7715SOL    HW124044   2.499   2.298   6.515
 7715SOL    HW224045   2.662   2.298   6.511
 7716SOL     OW24046   6.056   5.402   0.754
 7716SOL    HW124047   6.149   5.439   0.750
 7716SOL    HW224048   6.050   5.336   0.829
 7717SOL     OW24049   1.212   1.885   5.174
 7717SOL    HW124050   1.297   1.914   5.217
 7717SOL    HW224051   1.218   1.901   5.075
 7718SOL     OW24052   0.012   4.054   3.250
 7718SOL    HW124053   0.046   4.051   3.156
 7718SOL    HW224054   0.067   4.117   3.303
 7719SOL     OW24055   0.829   4.285   5.098
 7719SOL    HW124056   0.776   4.260   5.017
 7719SOL    HW224057   0.922   4.249   5.090
 7720SOL     OW24058   6.121   2.010   6.161
 7720SOL    HW124059   6.028   1.976   6.148
 7720SOL    HW224060   6.138   2.087   6.099
 7721SOL     OW24061   0.359   6.720   2.722
 7721SOL    HW124062   0.355   6.716   2.622
 7721SOL    HW224063   0.297   6.791   2.755
 7722SOL     OW24064   1.862   5.214   3.883
 7722SOL    HW124065   1.894   5.246   3.973
 7722SOL    HW224066   1.773   5.170   3.893
 7723SOL     OW24067   4.388   3.762   6.471
 7723SOL    HW124068   4.382   3.830   6.545
 7723SOL    HW224069   4.349   3.800   6.387
 7724SOL     OW24070   3.192   4.251   0.039
 7724SOL    HW124071   3.132   4.329   0.016
 7724SOL    HW224072   3.136   4.176   0.075
 7725SOL     OW24073   5.970   2.017   2.855
 7725SOL    HW124074   5.946   1.963   2.774
 7725SOL    HW224075   6.028   2.093   2.828
 7726SOL     OW24076   1.317   3.572   6.372
 7726SOL    HW124077   1.350   3.632   6.446
 7726SOL    HW224078   1.390   3.509   6.345
 7727SOL     OW24079   5.943   3.112   1.773
 7727SOL    HW124080   5.857   3.147   1.735
 7727SOL    HW224081   5.939   3.114   1.873
 7728SOL     OW24082   2.247   3.014   4.699
 7728SOL    HW124083   2.209   3.101   4.669
 7728SOL    HW224084   2.293   3.026   4.787
 7729SOL     OW24085   5.873   1.567   2.174
 7729SOL    HW124086   5.947   1.500   2.184
 7729SOL    HW224087   5.804   1.551   2.244
 7730SOL     OW24088   0.034   4.795   6.700
 7730SOL    HW124089   7.018   4.712   6.659
 7730SOL    HW224090   0.047   4.780   6.798
 7731SOL     OW24091   6.541   6.815   0.333
 7731SOL    HW124092   6.592   6.731   0.316
 7731SOL    HW224093   6.445   6.802   0.308
 7732SOL     OW24094   3.976   0.476   0.629
 7732SOL    HW124095   3.879   0.476   0.606
 7732SOL    HW224096   4.024   0.407   0.574
 7733SOL     OW24097   6.350   5.071   2.461
 7733SOL    HW124098   6.334   5.057   2.363
 7733SOL    HW224099   6.415   5.146   2.474
 7734SOL     OW24100   2.077   4.439   4.573
 7734SOL    HW124101   2.058   4.522   4.626
 7734SOL    HW224102   2.007   4.427   4.502
 7735SOL     OW24103   5.899   5.734   0.080
 7735SOL    HW124104   5.821   5.672   0.088
 7735SOL    HW224105   5.978   5.684   0.044
 7736SOL     OW24106   2.264   3.232   0.558
 7736SOL    HW124107   2.164   3.230   0.550
 7736SOL    HW224108   2.295   3.325   0.576
 7737SOL     OW24109   3.362   6.312   1.736
 7737SOL    HW124110   3.436   6.253   1.769
 7737SOL    HW224111   3.396   6.372   1.665
 7738SOL     OW24112   2.600   5.439   0.375
 7738SOL    HW124113   2.521   5.490   0.409
 7738SOL    HW224114   2.579   5.342   0.373
 7739SOL     OW24115   1.837   1.993   1.752
 7739SOL    HW124116   1.900   2.070   1.747
 7739SOL    HW224117   1.845   1.939   1.668
 7740SOL     OW24118   1.797   0.943   2.692
 7740SOL    HW124119   1.825   0.849   2.711
 7740SOL    HW224120   1.746   0.979   2.770
 7741SOL     OW24121   0.462   3.581   5.504
 7741SOL    HW124122   0.418   3.524   5.574
 7741SOL    HW224123   0.497   3.664   5.546
 7742SOL     OW24124   4.540   1.863   3.872
 7742SOL    HW124125   4.505   1.783   3.823
 7742SOL    HW224126   4.521   1.945   3.818
 7743SOL     OW24127   5.035   1.068   6.740
 7743SOL    HW124128   5.134   1.056   6.755
 7743SOL    HW224129   4.985   1.004   6.798
 7744SOL     OW24130   1.159   5.919   3.213
 7744SOL    HW124131   1.136   5.894   3.119
 7744SOL    HW224132   1.242   5.870   3.241
 7745SOL     OW24133   2.576   0.339   0.159
 7745SOL    HW124134   2.599   0.341   0.256
 7745SOL    HW224135   2.583   0.245   0.126
 7746SOL     OW24136   1.275   0.189   0.562
 7746SOL    HW124137   1.200   0.149   0.509
 7746SOL    HW224138   1.277   0.147   0.653
 7747SOL     OW24139   6.986   6.189   1.645
 7747SOL    HW124140   6.932   6.243   1.709
 7747SOL    HW224141   6.930   6.164   1.566
 7748SOL     OW24142   3.236   4.089   3.894
 7748SOL    HW124143   3.165   4.105   3.826
 7748SOL    HW224144   3.324   4.076   3.849
 7749SOL     OW24145   3.881   3.965   3.678
 7749SOL    HW124146   3.947   3.974   3.603
 7749SOL    HW224147   3.806   4.029   3.663
 7750SOL     OW24148   6.063   5.972   6.107
 7750SOL    HW124149   6.105   6.053   6.149
 7750SOL    HW224150   6.133   5.902   6.092
 7751SOL     OW24151   0.750   2.298   2.676
 7751SOL    HW124152   0.796   2.290   2.765
 7751SOL    HW224153   0.729   2.394   2.658
 7752SOL     OW24154   5.378   6.369   5.563
 7752SOL    HW124155   5.406   6.348   5.657
 7752SOL    HW224156   5.279   6.379   5.559
 7753SOL     OW24157   2.987   1.000   3.636
 7753SOL    HW124158   3.077   0.978   3.599
 7753SOL    HW224159   2.919   0.997   3.562
 7754SOL     OW24160   5.406   0.085   1.638
 7754SOL    HW124161   5.474   0.082   1.711
 7754SOL    HW224162   5.383   0.180   1.618
 7755SOL     OW24163   1.339   1.754   5.915
 7755SOL    HW124164   1.325   1.680   5.849
 7755SOL    HW224165   1.281   1.832   5.890
 7756SOL     OW24166   3.040   5.667   2.394
 7756SOL    HW124167   3.127   5.706   2.425
 7756SOL    HW224168   2.965   5.723   2.428
 7757SOL     OW24169   5.218   6.055   4.073
 7757SOL    HW124170   5.299   6.089   4.027
 7757SOL    HW224171   5.235   6.048   4.172
 7758SOL     OW24172   2.022   2.127   6.666
 7758SOL    HW124173   2.115   2.102   6.636
 7758SOL    HW224174   2.008   2.225   6.654
 7759SOL     OW24175   1.568   1.555   4.837
 7759SOL    HW124176   1.546   1.539   4.741
 7759SOL    HW224177   1.494   1.607   4.880
 7760SOL     OW24178   5.890   3.193   2.312
 7760SOL    HW124179   5.885   3.146   2.400
 7760SOL    HW224180   5.892   3.292   2.327
 7761SOL     OW24181   1.796   6.778   5.874
 7761SOL    HW124182   1.793   6.808   5.779
 7761SOL    HW224183   1.785   6.858   5.934
 7762SOL     OW24184   4.091   0.585   4.805
 7762SOL    HW124185   4.052   0.555   4.718
 7762SOL    HW224186   4.018   0.594   4.872
 7763SOL     OW24187   1.538   1.706   1.540
 7763SOL    HW124188   1.514   1.654   1.458
 7763SOL    HW224189   1.476   1.682   1.614
 7764SOL     OW24190   3.634   3.218   2.702
 7764SOL    HW124191   3.604   3.189   2.611
 7764SOL    HW224192   3.616   3.316   2.713
 7765SOL     OW24193   6.165   3.061   4.496
 7765SOL    HW124194   6.142   2.963   4.503
 7765SOL    HW224195   6.114   3.111   4.566
 7766SOL     OW24196   4.882   1.912   0.709
 7766SOL    HW124197   4.959   1.894   0.648
 7766SOL    HW224198   4.811   1.843   0.695
 7767SOL     OW24199   3.771   6.635   3.467
 7767SOL    HW124200   3.775   6.614   3.565
 7767SOL    HW224201   3.804   6.728   3.451
 7768SOL     OW24202   4.170   5.375   2.140
 7768SOL    HW124203   4.247   5.313   2.124
 7768SOL    HW224204   4.099   5.327   2.191
 7769SOL     OW24205   4.806   1.956   1.875
 7769SOL    HW124206   4.801   2.025   1.948
 7769SOL    HW224207   4.833   2.001   1.790
 7770SOL     OW24208   1.239   4.117   2.646
 7770SOL    HW124209   1.179   4.083   2.574
 7770SOL    HW224210   1.249   4.216   2.638
 7771SOL     OW24211   2.455   2.751   5.249
 7771SOL    HW124212   2.355   2.752   5.238
 7771SOL    HW224213   2.491   2.844   5.240
 7772SOL     OW24214   4.707   0.679   3.675
 7772SOL    HW124215   4.713   0.581   3.694
 7772SOL    HW224216   4.657   0.694   3.590
 7773SOL     OW24217   2.972   5.329   5.279
 7773SOL    HW124218   2.953   5.427   5.270
 7773SOL    HW224219   3.051   5.316   5.338
 7774SOL     OW24220   6.274   2.437   6.343
 7774SOL    HW124221   6.198   2.458   6.404
 7774SOL    HW224222   6.294   2.339   6.347
 7775SOL     OW24223   3.636   6.577   3.029
 7775SOL    HW124224   3.610   6.599   2.935
 7775SOL    HW224225   3.671   6.660   3.074
 7776SOL     OW24226   3.362   3.899   6.384
 7776SOL    HW124227   3.299   3.822   6.392
 7776SOL    HW224228   3.429   3.896   6.458
 7777SOL     OW24229   2.691   1.384   5.147
 7777SOL    HW124230   2.747   1.355   5.069
 7777SOL    HW224231   2.606   1.331   5.149
 7778SOL     OW24232   4.952   6.533   0.346
 7778SOL    HW124233   4.858   6.566   0.350
 7778SOL    HW224234   5.013   6.598   0.392
 7779SOL     OW24235   3.144   2.953   0.387
 7779SOL    HW124236   3.171   2.857   0.393
 7779SOL    HW224237   3.192   3.005   0.457
 7780SOL     OW24238   1.751   5.430   4.682
 7780SOL    HW124239   1.688   5.505   4.660
 7780SOL    HW224240   1.829   5.433   4.619
 7781SOL     OW24241   1.756   4.720   6.823
 7781SOL    HW124242   1.813   4.792   6.783
 7781SOL    HW224243   1.764   4.637   6.768
 7782SOL     OW24244   1.563   3.979   5.873
 7782SOL    HW124245   1.622   3.995   5.794
 7782SOL    HW224246   1.562   4.061   5.931
 7783SOL     OW24247   1.894   5.733   5.736
 7783SOL    HW124248   1.991   5.750   5.754
 7783SOL    HW224249   1.873   5.759   5.642
 7784SOL     OW24250   2.397   2.720   0.543
 7784SOL    HW124251   2.399   2.818   0.524
 7784SOL    HW224252   2.360   2.672   0.464
 7785SOL     OW24253   1.264   6.595   4.214
 7785SOL    HW124254   1.309   6.523   4.161
 7785SOL    HW224255   1.179   6.560   4.253
 7786SOL     OW24256   3.006   5.858   6.569
 7786SOL    HW124257   3.080   5.791   6.578
 7786SOL    HW224258   2.918   5.810   6.570
 7787SOL     OW24259   2.390   3.492   5.636
 7787SOL    HW124260   2.422   3.403   5.604
 7787SOL    HW224261   2.290   3.493   5.637
 7788SOL     OW24262   1.604   6.783   1.736
 7788SOL    HW124263   1.693   6.817   1.767
 7788SOL    HW224264   1.537   6.857   1.739
 7789SOL     OW24265   2.954   0.009   0.095
 7789SOL    HW124266   2.973   0.053   0.007
 7789SOL    HW224267   3.040   7.018   0.145
 7790SOL     OW24268   5.796   4.796   2.214
 7790SOL    HW124269   5.755   4.760   2.297
 7790SOL    HW224270   5.789   4.896   2.214
 7791SOL     OW24271   2.969   6.374   3.762
 7791SOL    HW124272   2.931   6.437   3.830
 7791SOL    HW224273   2.900   6.354   3.693
 7792SOL     OW24274   1.072   5.758   5.874
 7792SOL    HW124275   1.024   5.828   5.926
 7792SOL    HW224276   1.108   5.689   5.938
 7793SOL     OW24277   2.096   0.904   6.351
 7793SOL    HW124278   2.131   0.986   6.396
 7793SOL    HW224279   2.042   0.851   6.415
 7794SOL     OW24280   4.945   5.060   3.457
 7794SOL    HW124281   4.911   5.024   3.544
 7794SOL    HW224282   4.983   5.151   3.471
 7795SOL     OW24283   1.819   3.543   5.456
 7795SOL    HW124284   1.849   3.635   5.433
 7795SOL    HW224285   1.870   3.477   5.400
 7796SOL     OW24286   3.178   3.815   3.392
 7796SOL    HW124287   3.268   3.805   3.348
 7796SOL    HW224288   3.188   3.866   3.477
 7797SOL     OW24289   0.960   6.357   3.014
 7797SOL    HW124290   1.009   6.323   3.094
 7797SOL    HW224291   1.025   6.377   2.941
 7798SOL     OW24292   1.361   5.039   6.061
 7798SOL    HW124293   1.402   4.991   6.138
 7798SOL    HW224294   1.421   5.113   6.030
 7799SOL     OW24295   6.722   6.618   1.471
 7799SOL    HW124296   6.719   6.616   1.371
 7799SOL    HW224297   6.816   6.603   1.502
 7800SOL     OW24298   1.865   5.509   0.380
 7800SOL    HW124299   1.798   5.519   0.454
 7800SOL    HW224300   1.955   5.488   0.418
 7801SOL     OW24301   2.499   2.271   1.656
 7801SOL    HW124302   2.438   2.192   1.657
 7801SOL    HW224303   2.512   2.305   1.749
 7802SOL     OW24304   5.357   2.111   1.581
 7802SOL    HW124305   5.419   2.041   1.547
 7802SOL    HW224306   5.269   2.069   1.604
 7803SOL     OW24307   4.747   3.014   6.340
 7803SOL    HW124308   4.651   3.032   6.320
 7803SOL    HW224309   4.801   3.022   6.256
 7804SOL     OW24310   5.774   1.554   3.752
 7804SOL    HW124311   5.761   1.627   3.820
 7804SOL    HW224312   5.724   1.578   3.669
 7805SOL     OW24313   5.385   1.340   1.048
 7805SOL    HW124314   5.302   1.365   1.098
 7805SOL    HW224315   5.364   1.266   0.984
 7806SOL     OW24316   5.888   2.432   5.772
 7806SOL    HW124317   5.813   2.485   5.732
 7806SOL    HW224318   5.961   2.494   5.799
 7807SOL     OW24319   6.868   4.339   6.106
 7807SOL    HW124320   6.877   4.436   6.128
 7807SOL    HW224321   6.818   4.293   6.179
 7808SOL     OW24322   0.224   2.931   4.356
 7808SOL    HW124323   0.263   3.023   4.358
 7808SOL    HW224324   0.178   2.912   4.443
 7809SOL     OW24325   2.229   5.831   4.942
 7809SOL    HW124326   2.216   5.842   4.844
 7809SOL    HW224327   2.232   5.920   4.987
 7810SOL     OW24328   3.543   0.071   5.070
 7810SOL    HW124329   3.621   0.043   5.014
 7810SOL    HW224330   3.552   0.167   5.093
 7811SOL     OW24331   0.374   4.939   3.526
 7811SOL    HW124332   0.417   4.880   3.457
 7811SOL    HW224333   0.275   4.929   3.521
 7812SOL     OW24334   1.461   1.988   3.586
 7812SOL    HW124335   1.554   1.965   3.616
 7812SOL    HW224336   1.465   2.064   3.521
 7813SOL     OW24337   3.738   2.281   6.631
 7813SOL    HW124338   3.696   2.356   6.580
 7813SOL    HW224339   3.809   2.318   6.691
 7814SOL     OW24340   6.359   3.553   3.812
 7814SOL    HW124341   6.356   3.640   3.763
 7814SOL    HW224342   6.280   3.497   3.787
 7815SOL     OW24343   4.813   0.146   6.630
 7815SOL    HW124344   4.779   0.193   6.712
 7815SOL    HW224345   4.766   0.181   6.549
 7816SOL     OW24346   0.992   2.740   6.562
 7816SOL    HW124347   1.023   2.719   6.470
 7816SOL    HW224348   1.031   2.827   6.591
 7817SOL     OW24349   5.485   4.031   3.680
 7817SOL    HW124350   5.386   4.036   3.668
 7817SOL    HW224351   5.507   4.014   3.776
 7818SOL     OW24352   4.121   1.089   2.936
 7818SOL    HW124353   4.055   1.162   2.916
 7818SOL    HW224354   4.166   1.108   3.023
 7819SOL     OW24355   6.510   3.076   2.044
 7819SOL    HW124356   6.500   3.137   1.966
 7819SOL    HW224357   6.424   3.070   2.094
 7820SOL     OW24358   1.132   2.488   4.587
 7820SOL    HW124359   1.197   2.558   4.558
 7820SOL    HW224360   1.044   2.531   4.605
 7821SOL     OW24361   4.938   6.256   1.011
 7821SOL    HW124362   4.918   6.342   1.059
 7821SOL    HW224363   4.931   6.270   0.913
 7822SOL     OW24364   0.586   0.877   5.559
 7822SOL    HW124365   0.539   0.814   5.497
 7822SOL    HW224366   0.671   0.907   5.516
 7823SOL     OW24367   2.733   3.817   5.315
 7823SOL    HW124368   2.784   3.892   5.357
 7823SOL    HW224369   2.650   3.852   5.273
 7824SOL     OW24370   5.975   1.975   4.448
 7824SOL    HW124371   5.962   1.893   4.504
 7824SOL    HW224372   5.891   1.994   4.397
 7825SOL     OW24373   1.508   3.033   0.430
 7825SOL    HW124374   1.524   3.124   0.392
 7825SOL    HW224375   1.422   2.996   0.393
 7826SOL     OW24376   5.974   1.213   1.218
 7826SOL    HW124377   5.914   1.291   1.239
 7826SOL    HW224378   5.922   1.143   1.170
 7827SOL     OW24379   1.998   6.029   0.962
 7827SOL    HW124380   1.933   5.993   0.896
 7827SOL    HW224381   2.020   5.959   1.030
 7828SOL     OW24382   6.287   4.437   0.552
 7828SOL    HW124383   6.361   4.448   0.485
 7828SOL    HW224384   6.321   4.463   0.643
 7829SOL     OW24385   2.367   3.738   1.255
 7829SOL    HW124386   2.404   3.645   1.246
 7829SOL    HW224387   2.306   3.742   1.334
 7830SOL     OW24388   2.651   4.984   5.709
 7830SOL    HW124389   2.640   5.069   5.760
 7830SOL    HW224390   2.592   4.985   5.629
 7831SOL     OW24391   1.390   0.245   1.479
 7831SOL    HW124392   1.307   0.190   1.494
 7831SOL    HW224393   1.470   0.185   1.483
 7832SOL     OW24394   6.380   0.448   4.808
 7832SOL    HW124395   6.345   0.460   4.715
 7832SOL    HW224396   6.335   0.513   4.870
 7833SOL     OW24397   0.712   0.702   5.210
 7833SOL    HW124398   0.762   0.787   5.192
 7833SOL    HW224399   0.776   0.632   5.240
 7834SOL     OW24400   6.863   1.376   3.928
 7834SOL    HW124401   6.909   1.287   3.934
 7834SOL    HW224402   6.927   1.444   3.892
 7835SOL     OW24403   3.610   1.847   5.363
 7835SOL    HW124404   3.523   1.881   5.328
 7835SOL    HW224405   3.686   1.892   5.316
 7836SOL     OW24406   3.133   3.640   4.940
 7836SOL    HW124407   3.056   3.701   4.960
 7836SOL    HW224408   3.108   3.546   4.964
 7837SOL     OW24409   4.612   5.679   6.932
 7837SOL    HW124410   4.616   5.580   6.943
 7837SOL    HW224411   4.705   5.716   6.929
 7838SOL     OW24412   4.245   6.904   0.834
 7838SOL    HW124413   4.148   6.881   0.825
 7838SOL    HW224414   4.254   7.000   0.859
 7839SOL     OW24415   6.189   4.290   4.728
 7839SOL    HW124416   6.265   4.230   4.753
 7839SOL    HW224417   6.225   4.381   4.707
 7840SOL     OW24418   0.052   3.430   4.348
 7840SOL    HW124419   0.142   3.400   4.382
 7840SOL    HW224420   7.003   3.402   4.413
 7841SOL     OW24421   4.006   1.847   6.333
 7841SOL    HW124422   3.986   1.752   6.355
 7841SOL    HW224423   4.041   1.852   6.239
 7842SOL     OW24424   2.379   1.451   2.758
 7842SOL    HW124425   2.282   1.474   2.769
 7842SOL    HW224426   2.432   1.535   2.744
 7843SOL     OW24427   0.129   5.626   3.423
 7843SOL    HW124428   0.163   5.666   3.339
 7843SOL    HW224429   0.107   5.699   3.488
 7844SOL     OW24430   2.838   0.532   2.434
 7844SOL    HW124431   2.768   0.603   2.426
 7844SOL    HW224432   2.847   0.483   2.347
 7845SOL     OW24433   4.936   1.740   2.783
 7845SOL    HW124434   4.925   1.642   2.772
 7845SOL    HW224435   4.924   1.786   2.695
 7846SOL     OW24436   1.195   2.505   1.226
 7846SOL    HW124437   1.133   2.435   1.262
 7846SOL    HW224438   1.162   2.536   1.137
 7847SOL     OW24439   6.379   1.309   3.256
 7847SOL    HW124440   6.373   1.367   3.174
 7847SOL    HW224441   6.313   1.340   3.324
 7848SOL     OW24442   3.611   4.974   0.832
 7848SOL    HW124443   3.599   5.021   0.920
 7848SOL    HW224444   3.531   4.990   0.774
 7849SOL     OW24445   6.899   4.085   4.569
 7849SOL    HW124446   6.918   4.182   4.555
 7849SOL    HW224447   6.885   4.040   4.481
 7850SOL     OW24448   0.662   1.327   3.690
 7850SOL    HW124449   0.705   1.293   3.607
 7850SOL    HW224450   0.647   1.425   3.682
 7851SOL     OW24451   0.026   2.245   1.637
 7851SOL    HW124452   0.073   2.160   1.661
 7851SOL    HW224453   7.008   2.286   1.719
 7852SOL     OW24454   3.257   1.575   0.245
 7852SOL    HW124455   3.257   1.475   0.243
 7852SOL    HW224456   3.216   1.610   0.160
 7853SOL     OW24457   5.141   2.832   1.272
 7853SOL    HW124458   5.129   2.741   1.234
 7853SOL    HW224459   5.061   2.889   1.249
 7854SOL     OW24460   3.119   3.007   5.548
 7854SOL    HW124461   3.133   2.942   5.473
 7854SOL    HW224462   3.130   3.100   5.513
 7855SOL     OW24463   4.140   6.459   4.726
 7855SOL    HW124464   4.073   6.395   4.763
 7855SOL    HW224465   4.232   6.428   4.749
 7856SOL     OW24466   0.029   5.812   5.305
 7856SOL    HW124467   0.039   5.713   5.313
 7856SOL    HW224468   6.955   5.835   5.290
 7857SOL     OW24469   4.717   2.859   0.564
 7857SOL    HW124470   4.774   2.794   0.615
 7857SOL    HW224471   4.684   2.930   0.626
 7858SOL     OW24472   6.751   6.429   4.482
 7858SOL    HW124473   6.680   6.397   4.419
 7858SOL    HW224474   6.738   6.386   4.571
 7859SOL     OW24475   4.418   3.181   6.947
 7859SOL    HW124476   4.463   3.271   6.945
 7859SOL    HW224477   4.457   3.126   7.021
 7860SOL     OW24478   4.543   0.938   4.241
 7860SOL    HW124479   4.492   0.855   4.220
 7860SOL    HW224480   4.632   0.914   4.280
 7861SOL     OW24481   3.006   5.070   1.732
 7861SOL    HW124482   3.080   5.011   1.761
 7861SOL    HW224483   2.923   5.050   1.785
 7862SOL     OW24484   2.175   5.065   2.417
 7862SOL    HW124485   2.188   5.003   2.340
 7862SOL    HW224486   2.250   5.131   2.420
 7863SOL     OW24487   0.262   3.839   3.870
 7863SOL    HW124488   0.335   3.813   3.933
 7863SOL    HW224489   0.294   3.912   3.810
 7864SOL     OW24490   0.561   5.358   5.627
 7864SOL    HW124491   0.464   5.335   5.625
 7864SOL    HW224492   0.595   5.355   5.721
 7865SOL     OW24493   6.466   5.723   4.146
 7865SOL    HW124494   6.383   5.722   4.202
 7865SOL    HW224495   6.541   5.763   4.200
 7866SOL     OW24496   1.109   0.475   5.698
 7866SOL    HW124497   1.021   0.521   5.699
 7866SOL    HW224498   1.123   0.430   5.609
 7867SOL     OW24499   6.343   5.941   3.453
 7867SOL    HW124500   6.362   5.845   3.473
 7867SOL    HW224501   6.317   5.988   3.538
 7868SOL     OW24502   4.313   6.153   1.269
 7868SOL    HW124503   4.394   6.160   1.211
 7868SOL    HW224504   4.331   6.090   1.344
 7869SOL     OW24505   5.502   4.406   6.292
 7869SOL    HW124506   5.506   4.471   6.368
 7869SOL    HW224507   5.492   4.313   6.328
 7870SOL     OW24508   5.082   6.384   4.500
 7870SOL    HW124509   4.996   6.428   4.473
 7870SOL    HW224510   5.141   6.377   4.420
 7871SOL     OW24511   4.734   2.436   1.575
 7871SOL    HW124512   4.681   2.469   1.496
 7871SOL    HW224513   4.702   2.345   1.600
 7872SOL     OW24514   1.812   3.837   2.912
 7872SOL    HW124515   1.778   3.859   2.820
 7872SOL    HW224516   1.847   3.919   2.956
 7873SOL     OW24517   6.552   0.167   0.193
 7873SOL    HW124518   6.521   0.087   0.142
 7873SOL    HW224519   6.529   0.250   0.142
 7874SOL     OW24520   4.567   2.610   0.882
 7874SOL    HW124521   4.560   2.630   0.784
 7874SOL    HW224522   4.563   2.511   0.896
 7875SOL     OW24523   4.358   2.465   0.098
 7875SOL    HW124524   4.396   2.531   0.033
 7875SOL    HW224525   4.268   2.496   0.129
 7876SOL     OW24526   1.407   6.097   3.626
 7876SOL    HW124527   1.327   6.151   3.653
 7876SOL    HW224528   1.464   6.151   3.564
 7877SOL     OW24529   0.412   1.474   2.746
 7877SOL    HW124530   0.495   1.530   2.739
 7877SOL    HW224531   0.390   1.460   2.843
 7878SOL     OW24532   4.551   4.394   3.925
 7878SOL    HW124533   4.615   4.468   3.945
 7878SOL    HW224534   4.498   4.372   4.007
 7879SOL     OW24535   3.835   5.291   2.837
 7879SOL    HW124536   3.790   5.242   2.762
 7879SOL    HW224537   3.786   5.272   2.922
 7880SOL     OW24538   1.936   4.086   1.836
 7880SOL    HW124539   1.966   4.176   1.866
 7880SOL    HW224540   1.974   4.016   1.897
 7881SOL     OW24541   5.143   4.299   4.676
 7881SOL    HW124542   5.098   4.376   4.720
 7881SOL    HW224543   5.161   4.320   4.580
 7882SOL     OW24544   1.744   3.754   1.892
 7882SOL    HW124545   1.844   3.761   1.896
 7882SOL    HW224546   1.715   3.667   1.932
 7883SOL     OW24547   1.188   0.419   6.174
 7883SOL    HW124548   1.170   0.476   6.254
 7883SOL    HW224549   1.134   0.451   6.096
 7884SOL     OW24550   1.487   3.974   4.908
 7884SOL    HW124551   1.558   3.919   4.952
 7884SOL    HW224552   1.408   3.982   4.969
 7885SOL     OW24553   6.733   5.672   1.136
 7885SOL    HW124554   6.683   5.734   1.197
 7885SOL    HW224555   6.724   5.578   1.170
 7886SOL     OW24556   4.052   6.052   6.628
 7886SOL    HW124557   4.089   6.144   6.612
 7886SOL    HW224558   4.038   6.007   6.539
 7887SOL     OW24559   3.594   2.393   6.160
 7887SOL    HW124560   3.508   2.366   6.115
 7887SOL    HW224561   3.580   2.476   6.213
 7888SOL     OW24562   6.214   0.298   5.438
 7888SOL    HW124563   6.135   0.322   5.494
 7888SOL    HW224564   6.278   0.375   5.435
 7889SOL     OW24565   2.033   4.669   2.310
 7889SOL    HW124566   1.961   4.664   2.379
 7889SOL    HW224567   2.010   4.609   2.233
 7890SOL     OW24568   1.679   3.598   2.993
 7890SOL    HW124569   1.717   3.682   2.956
 7890SOL    HW224570   1.588   3.582   2.954
 7891SOL     OW24571   1.389   3.854   3.308
 7891SOL    HW124572   1.313   3.900   3.264
 7891SOL    HW224573   1.439   3.918   3.366
 7892SOL     OW24574   1.922   2.404   4.071
 7892SOL    HW124575   1.847   2.427   4.010
 7892SOL    HW224576   1.995   2.471   4.060
 7893SOL     OW24577   6.639   0.018   2.678
 7893SOL    HW124578   6.678   0.109   2.691
 7893SOL    HW224579   6.707   6.979   2.638
 7894SOL     OW24580   2.606   6.403   1.602
 7894SOL    HW124581   2.544   6.384   1.526
 7894SOL    HW224582   2.587   6.494   1.639
 7895SOL     OW24583   6.550   1.308   5.803
 7895SOL    HW124584   6.460   1.349   5.815
 7895SOL    HW224585   6.595   1.349   5.724
 7896SOL     OW24586   5.142   4.030   6.846
 7896SOL    HW124587   5.074   4.014   6.775
 7896SOL    HW224588   5.096   4.035   6.935
 7897SOL     OW24589   2.406   4.122   6.232
 7897SOL    HW124590   2.439   4.061   6.160
 7897SOL    HW224591   2.481   4.144   6.294
 7898SOL     OW24592   5.406   2.281   4.044
 7898SOL    HW124593   5.378   2.377   4.055
 7898SOL    HW224594   5.476   2.276   3.972
 7899SOL     OW24595   5.980   1.523   1.677
 7899SOL    HW124596   5.955   1.431   1.707
 7899SOL    HW224597   6.067   1.520   1.627
 7900SOL     OW24598   1.436   5.761   1.373
 7900SOL    HW124599   1.504   5.803   1.313
 7900SOL    HW224600   1.344   5.776   1.336
 7901SOL     OW24601   4.763   0.546   6.301
 7901SOL    HW124602   4.667   0.572   6.304
 7901SOL    HW224603   4.819   0.623   6.331
 7902SOL     OW24604   5.815   5.350   1.874
 7902SOL    HW124605   5.715   5.350   1.869
 7902SOL    HW224606   5.845   5.382   1.964
 7903SOL     OW24607   6.323   2.120   0.769
 7903SOL    HW124608   6.420   2.113   0.746
 7903SOL    HW224609   6.312   2.134   0.868
 7904SOL     OW24610   5.722   0.573   3.454
 7904SOL    HW124611   5.802   0.513   3.446
 7904SOL    HW224612   5.708   0.620   3.367
 7905SOL     OW24613   4.266   1.720   0.075
 7905SOL    HW124614   4.346   1.661   0.087
 7905SOL    HW224615   4.297   1.813   0.056
 7906SOL     OW24616   0.717   5.845   0.370
 7906SOL    HW124617   0.801   5.829   0.318
 7906SOL    HW224618   0.733   5.824   0.467
 7907SOL     OW24619   6.167   2.048   3.734
 7907SOL    HW124620   6.185   2.031   3.831
 7907SOL    HW224621   6.088   1.995   3.705
 7908SOL     OW24622   1.108   1.437   4.198
 7908SOL    HW124623   1.202   1.470   4.207
 7908SOL    HW224624   1.109   1.348   4.152
 7909SOL     OW24625   5.380   4.132   4.990
 7909SOL    HW124626   5.369   4.033   4.986
 7909SOL    HW224627   5.471   4.155   5.024
 7910SOL     OW24628   2.990   2.777   5.672
 7910SOL    HW124629   3.010   2.869   5.638
 7910SOL    HW224630   2.955   2.720   5.598
 7911SOL     OW24631   1.061   3.201   6.311
 7911SOL    HW124632   1.010   3.145   6.376
 7911SOL    HW224633   1.155   3.212   6.342
 7912SOL     OW24634   0.413   5.343   0.561
 7912SOL    HW124635   0.435   5.433   0.598
 7912SOL    HW224636   0.468   5.326   0.478
 7913SOL     OW24637   1.568   5.054   0.727
 7913SOL    HW124638   1.486   5.045   0.784
 7913SOL    HW224639   1.636   4.986   0.756
 7914SOL     OW24640   0.402   4.920   6.697
 7914SOL    HW124641   0.461   5.000   6.692
 7914SOL    HW224642   0.310   4.948   6.724
 7915SOL     OW24643   4.767   2.811   2.463
 7915SOL    HW124644   4.767   2.742   2.390
 7915SOL    HW224645   4.858   2.853   2.469
 7916SOL     OW24646   6.057   3.905   5.536
 7916SOL    HW124647   6.154   3.924   5.549
 7916SOL    HW224648   6.029   3.831   5.598
 7917SOL     OW24649   3.109   3.017   4.232
 7917SOL    HW124650   3.189   2.971   4.270
 7917SOL    HW224651   3.086   2.976   4.144
 7918SOL     OW24652   0.176   1.556   0.956
 7918SOL    HW124653   0.266   1.597   0.951
 7918SOL    HW224654   0.184   1.457   0.946
 7919SOL     OW24655   0.533   4.325   3.297
 7919SOL    HW124656   0.516   4.228   3.282
 7919SOL    HW224657   0.600   4.358   3.230
 7920SOL     OW24658   0.511   5.102   1.432
 7920SOL    HW124659   0.448   5.071   1.503
 7920SOL    HW224660   0.556   5.186   1.461
 7921SOL     OW24661   3.740   5.773   0.608
 7921SOL    HW124662   3.778   5.688   0.644
 7921SOL    HW224663   3.640   5.771   0.614
 7922SOL     OW24664   6.605   5.609   0.540
 7922SOL    HW124665   6.581   5.657   0.456
 7922SOL    HW224666   6.532   5.621   0.607
 7923SOL     OW24667   2.851   0.321   2.612
 7923SOL    HW124668   2.874   0.358   2.702
 7923SOL    HW224669   2.837   0.396   2.547
 7924SOL     OW24670   3.921   6.167   3.143
 7924SOL    HW124671   3.908   6.075   3.105
 7924SOL    HW224672   3.964   6.226   3.074
 7925SOL     OW24673   0.460   1.712   6.466
 7925SOL    HW124674   0.400   1.773   6.414
 7925SOL    HW224675   0.406   1.638   6.506
 7926SOL     OW24676   4.695   1.077   4.646
 7926SOL    HW124677   4.692   1.049   4.550
 7926SOL    HW224678   4.605   1.109   4.674
 7927SOL     OW24679   3.912   5.693   4.554
 7927SOL    HW124680   3.819   5.729   4.544
 7927SOL    HW224681   3.936   5.639   4.474
 7928SOL     OW24682   1.114   3.408   4.139
 7928SOL    HW124683   1.198   3.421   4.192
 7928SOL    HW224684   1.055   3.342   4.186
 7929SOL     OW24685   4.228   4.070   5.311
 7929SOL    HW124686   4.319   4.102   5.286
 7929SOL    HW224687   4.217   3.975   5.281
 7930SOL     OW24688   4.582   5.598   4.032
 7930SOL    HW124689   4.649   5.668   4.057
 7930SOL    HW224690   4.538   5.564   4.114
 7931SOL     OW24691   1.310   1.833   6.620
 7931SOL    HW124692   1.322   1.929   6.595
 7931SOL    HW224693   1.216   1.817   6.650
 7932SOL     OW24694   2.741   6.744   0.412
 7932SOL    HW124695   2.717   6.720   0.506
 7932SOL    HW224696   2.705   6.836   0.392
 7933SOL     OW24697   6.976   6.913   0.340
 7933SOL    HW124698   6.937   6.929   0.249
 7933SOL    HW224699   6.902   6.911   0.408
 7934SOL     OW24700   2.420   4.669   6.650
 7934SOL    HW124701   2.493   4.682   6.717
 7934SOL    HW224702   2.408   4.571   6.633
 7935SOL     OW24703   5.025   5.462   6.980
 7935SOL    HW124704   5.091   5.491   6.911
 7935SOL    HW224705   5.061   5.483   0.050
 7936SOL     OW24706   3.548   5.447   2.374
 7936SOL    HW124707   3.564   5.351   2.350
 7936SOL    HW224708   3.550   5.458   2.473
 7937SOL     OW24709   5.501   6.941   3.905
 7937SOL    HW124710   5.526   6.847   3.879
 7937SOL    HW224711   5.457   6.986   3.828
 7938SOL     OW24712   5.781   4.741   5.264
 7938SOL    HW124713   5.824   4.822   5.302
 7938SOL    HW224714   5.794   4.739   5.165
 7939SOL     OW24715   0.560   2.126   5.968
 7939SOL    HW124716   0.475   2.178   5.983
 7939SOL    HW224717   0.624   2.183   5.917
 7940SOL     OW24718   2.154   4.470   2.433
 7940SOL    HW124719   2.074   4.423   2.471
 7940SOL    HW224720   2.123   4.540   2.368
 7941SOL     OW24721   7.020   6.809   1.351
 7941SOL    HW124722   7.009   6.758   1.436
 7941SOL    HW224723   6.948   6.878   1.344
 7942SOL     OW24724   6.664   6.450   3.000
 7942SOL    HW124725   6.625   6.463   2.909
 7942SOL    HW224726   6.755   6.412   2.992
 7943SOL     OW24727   5.649   1.956   1.047
 7943SOL    HW124728   5.690   2.036   1.093
 7943SOL    HW224729   5.619   1.983   0.956
 7944SOL     OW24730   0.265   3.136   0.709
 7944SOL    HW124731   0.355   3.156   0.670
 7944SOL    HW224732   0.203   3.213   0.694
 7945SOL     OW24733   5.612   6.749   2.637
 7945SOL    HW124734   5.547   6.820   2.609
 7945SOL    HW224735   5.660   6.780   2.720
 7946SOL     OW24736   2.038   2.831   5.886
 7946SOL    HW124737   2.090   2.916   5.888
 7946SOL    HW224738   2.096   2.756   5.854
 7947SOL     OW24739   3.684   2.871   6.486
 7947SOL    HW124740   3.589   2.892   6.509
 7947SOL    HW224741   3.710   2.919   6.402
 7948SOL     OW24742   0.332   6.547   1.229
 7948SOL    HW124743   0.270   6.570   1.153
 7948SOL    HW224744   0.310   6.605   1.308
 7949SOL     OW24745   4.348   4.658   3.652
 7949SOL    HW124746   4.406   4.732   3.686
 7949SOL    HW224747   4.269   4.646   3.712
 7950SOL     OW24748   4.893   5.448   3.633
 7950SOL    HW124749   4.974   5.433   3.577
 7950SOL    HW224750   4.819   5.389   3.601
 7951SOL     OW24751   2.139   3.758   0.800
 7951SOL    HW124752   2.130   3.745   0.701
 7951SOL    HW224753   2.221   3.811   0.820
 7952SOL     OW24754   0.404   3.253   6.813
 7952SOL    HW124755   0.391   3.163   6.772
 7952SOL    HW224756   0.357   3.257   6.901
 7953SOL     OW24757   2.189   2.986   3.424
 7953SOL    HW124758   2.231   2.978   3.333
 7953SOL    HW224759   2.143   2.900   3.447
 7954SOL     OW24760   4.640   4.648   5.375
 7954SOL    HW124761   4.635   4.563   5.427
 7954SOL    HW224762   4.675   4.721   5.434
 7955SOL     OW24763   1.353   6.366   5.931
 7955SOL    HW124764   1.363   6.279   5.882
 7955SOL    HW224765   1.384   6.441   5.873
 7956SOL     OW24766   1.086   6.369   2.546
 7956SOL    HW124767   1.119   6.293   2.491
 7956SOL    HW224768   0.992   6.390   2.520
 7957SOL     OW24769   1.902   1.182   0.602
 7957SOL    HW124770   1.999   1.195   0.581
 7957SOL    HW224771   1.882   1.085   0.613
 7958SOL     OW24772   3.123   5.665   4.616
 7958SOL    HW124773   3.038   5.691   4.570
 7958SOL    HW224774   3.161   5.745   4.662
 7959SOL     OW24775   4.330   5.321   1.110
 7959SOL    HW124776   4.321   5.314   1.209
 7959SOL    HW224777   4.239   5.335   1.069
 7960SOL     OW24778   3.649   1.384   0.679
 7960SOL    HW124779   3.557   1.356   0.704
 7960SOL    HW224780   3.705   1.395   0.761
 7961SOL     OW24781   1.165   6.247   0.241
 7961SOL    HW124782   1.158   6.307   0.161
 7961SOL    HW224783   1.100   6.172   0.231
 7962SOL     OW24784   2.006   0.467   6.852
 7962SOL    HW124785   2.033   0.554   6.809
 7962SOL    HW224786   1.951   0.414   6.788
 7963SOL     OW24787   6.030   0.684   4.098
 7963SOL    HW124788   6.013   0.782   4.095
 7963SOL    HW224789   6.079   0.661   4.182
 7964SOL     OW24790   6.129   5.277   3.783
 7964SOL    HW124791   6.043   5.269   3.733
 7964SOL    HW224792   6.141   5.196   3.842
 7965SOL     OW24793   3.455   2.677   6.451
 7965SOL    HW124794   3.528   2.661   6.384
 7965SOL    HW224795   3.459   2.607   6.521
 7966SOL     OW24796   0.477   3.222   5.300
 7966SOL    HW124797   0.456   3.319   5.294
 7966SOL    HW224798   0.533   3.194   5.222
 7967SOL     OW24799   3.104   6.454   4.106
 7967SOL    HW124800   3.183   6.459   4.044
 7967SOL    HW224801   3.136   6.441   4.200
 7968SOL     OW24802   2.448   2.693   3.537
 7968SOL    HW124803   2.443   2.792   3.543
 7968SOL    HW224804   2.378   2.660   3.473
 7969SOL     OW24805   4.686   0.012   2.299
 7969SOL    HW124806   4.692   0.111   2.289
 7969SOL    HW224807   4.654   7.011   2.391
 7970SOL     OW24808   6.878   3.262   2.664
 7970SOL    HW124809   6.788   3.289   2.632
 7970SOL    HW224810   6.948   3.314   2.615
 7971SOL     OW24811   3.489   1.712   1.068
 7971SOL    HW124812   3.465   1.761   1.152
 7971SOL    HW224813   3.578   1.668   1.080
 7972SOL     OW24814   0.758   4.288   1.312
 7972SOL    HW124815   0.854   4.290   1.283
 7972SOL    HW224816   0.753   4.270   1.410
 7973SOL     OW24817   5.238   3.291   2.747
 7973SOL    HW124818   5.164   3.270   2.684
 7973SOL    HW224819   5.325   3.287   2.698
 7974SOL     OW24820   5.562   0.219   5.064
 7974SOL    HW124821   5.527   0.285   4.998
 7974SOL    HW224822   5.662   0.230   5.072
 7975SOL     OW24823   5.584   0.470   3.836
 7975SOL    HW124824   5.558   0.557   3.796
 7975SOL    HW224825   5.665   0.482   3.895
 7976SOL     OW24826   0.645   0.681   5.764
 7976SOL    HW124827   0.613   0.639   5.849
 7976SOL    HW224828   0.582   0.658   5.690
 7977SOL     OW24829   4.528   5.640   2.083
 7977SOL    HW124830   4.608   5.580   2.084
 7977SOL    HW224831   4.461   5.609   2.150
 7978SOL     OW24832   5.834   3.730   5.739
 7978SOL    HW124833   5.760   3.765   5.682
 7978SOL    HW224834   5.795   3.681   5.817
 7979SOL     OW24835   3.086   0.691   5.360
 7979SOL    HW124836   3.094   0.766   5.294
 7979SOL    HW224837   2.991   0.660   5.365
 7980SOL     OW24838   2.938   6.274   0.016
 7980SOL    HW124839   2.996   6.352   0.040
 7980SOL    HW224840   2.993   6.190   0.020
 7981SOL     OW24841   0.491   5.771   2.498
 7981SOL    HW124842   0.426   5.784   2.423
 7981SOL    HW224843   0.575   5.821   2.478
 7982SOL     OW24844   6.667   1.490   0.652
 7982SOL    HW124845   6.727   1.411   0.649
 7982SOL    HW224846   6.705   1.559   0.714
 7983SOL     OW24847   5.350   1.984   2.868
 7983SOL    HW124848   5.422   1.965   2.934
 7983SOL    HW224849   5.284   1.908   2.867
 7984SOL     OW24850   1.716   2.120   1.407
 7984SOL    HW124851   1.796   2.070   1.438
 7984SOL    HW224852   1.700   2.199   1.467
 7985SOL     OW24853   2.284   6.983   3.708
 7985SOL    HW124854   2.216   6.916   3.740
 7985SOL    HW224855   2.291   6.977   3.609
 7986SOL     OW24856   3.513   1.000   6.600
 7986SOL    HW124857   3.413   1.007   6.602
 7986SOL    HW224858   3.552   1.082   6.559
 7987SOL     OW24859   0.482   3.513   6.742
 7987SOL    HW124860   0.488   3.434   6.803
 7987SOL    HW224861   0.387   3.535   6.725
 7988SOL     OW24862   1.749   1.983   4.564
 7988SOL    HW124863   1.741   2.034   4.479
 7988SOL    HW224864   1.658   1.966   4.602
 7989SOL     OW24865   3.415   2.251   5.290
 7989SOL    HW124866   3.478   2.213   5.222
 7989SOL    HW224867   3.332   2.283   5.245
 7990SOL     OW24868   6.425   4.101   3.733
 7990SOL    HW124869   6.494   4.073   3.667
 7990SOL    HW224870   6.469   4.150   3.809
 7991SOL     OW24871   6.583   1.229   5.195
 7991SOL    HW124872   6.606   1.230   5.293
 7991SOL    HW224873   6.585   1.322   5.159
 7992SOL     OW24874   1.358   6.466   0.554
 7992SOL    HW124875   1.361   6.564   0.537
 7992SOL    HW224876   1.450   6.433   0.576
 7993SOL     OW24877   1.496   5.878   6.684
 7993SOL    HW124878   1.586   5.854   6.647
 7993SOL    HW224879   1.426   5.820   6.643
 7994SOL     OW24880   4.579   0.721   3.160
 7994SOL    HW124881   4.589   0.621   3.155
 7994SOL    HW224882   4.586   0.760   3.068
 7995SOL     OW24883   4.147   5.710   3.329
 7995SOL    HW124884   4.226   5.651   3.310
 7995SOL    HW224885   4.063   5.656   3.321
 7996SOL     OW24886   2.598   6.349   4.519
 7996SOL    HW124887   2.634   6.371   4.429
 7996SOL    HW224888   2.612   6.426   4.580
 7997SOL     OW24889   0.143   1.290   0.970
 7997SOL    HW124890   0.065   1.273   1.030
 7997SOL    HW224891   0.226   1.254   1.013
 7998SOL     OW24892   4.094   5.390   1.001
 7998SOL    HW124893   4.132   5.481   1.011
 7998SOL    HW224894   4.107   5.358   0.907
 7999SOL     OW24895   1.151   0.567   6.415
 7999SOL    HW124896   1.249   0.570   6.430
 7999SOL    HW224897   1.104   0.551   6.502
 8000SOL     OW24898   5.636   0.689   6.908
 8000SOL    HW124899   5.545   0.651   6.926
 8000SOL    HW224900   5.633   0.789   6.917
 8001SOL     OW24901   3.413   6.364   1.470
 8001SOL    HW124902   3.412   6.388   1.373
 8001SOL    HW224903   3.336   6.303   1.491
 8002SOL     OW24904   0.284   2.889   5.660
 8002SOL    HW124905   0.297   2.794   5.687
 8002SOL    HW224906   0.328   2.905   5.572
 8003SOL     OW24907   2.437   4.602   2.054
 8003SOL    HW124908   2.417   4.696   2.082
 8003SOL    HW224909   2.370   4.540   2.094
 8004SOL     OW24910   1.674   4.427   3.112
 8004SOL    HW124911   1.710   4.456   3.023
 8004SOL    HW224912   1.593   4.482   3.134
 8005SOL     OW24913   3.266   1.620   1.950
 8005SOL    HW124914   3.197   1.688   1.974
 8005SOL    HW224915   3.342   1.625   2.015
 8006SOL     OW24916   2.672   6.625   0.669
 8006SOL    HW124917   2.618   6.685   0.726
 8006SOL    HW224918   2.769   6.634   0.693
 8007SOL     OW24919   1.185   6.639   3.947
 8007SOL    HW124920   1.139   6.553   3.925
 8007SOL    HW224921   1.198   6.645   4.046
 8008SOL     OW24922   4.828   6.714   5.978
 8008SOL    HW124923   4.853   6.803   6.019
 8008SOL    HW224924   4.811   6.726   5.881
 8009SOL     OW24925   6.044   0.464   3.548
 8009SOL    HW124926   5.963   0.417   3.512
 8009SOL    HW224927   6.113   0.397   3.574
 8010SOL     OW24928   1.571   1.589   6.975
 8010SOL    HW124929   1.580   1.497   6.938
 8010SOL    HW224930   1.549   1.652   6.901
 8011SOL     OW24931   2.544   2.932   1.585
 8011SOL    HW124932   2.573   2.844   1.546
 8011SOL    HW224933   2.562   3.004   1.519
 8012SOL     OW24934   2.184   5.747   1.422
 8012SOL    HW124935   2.232   5.818   1.372
 8012SOL    HW224936   2.116   5.788   1.483
 8013SOL     OW24937   0.709   5.269   4.714
 8013SOL    HW124938   0.784   5.287   4.650
 8013SOL    HW224939   0.742   5.208   4.786
 8014SOL     OW24940   0.949   6.448   5.189
 8014SOL    HW124941   0.995   6.457   5.277
 8014SOL    HW224942   0.853   6.474   5.198
 8015SOL     OW24943   2.895   1.561   0.099
 8015SOL    HW124944   2.962   1.594   0.165
 8015SOL    HW224945   2.929   1.578   0.006
 8016SOL     OW24946   4.149   0.162   6.321
 8016SOL    HW124947   4.112   0.255   6.329
 8016SOL    HW224948   4.246   0.163   6.347
 8017SOL     OW24949   6.596   5.045   6.539
 8017SOL    HW124950   6.627   4.953   6.563
 8017SOL    HW224951   6.500   5.043   6.511
 8018SOL     OW24952   4.079   2.525   6.340
 8018SOL    HW124953   4.013   2.599   6.353
 8018SOL    HW224954   4.040   2.439   6.372
 8019SOL     OW24955   1.983   4.136   0.004
 8019SOL    HW124956   1.898   4.189   0.004
 8019SOL    HW224957   1.970   4.053   6.972
 8020SOL     OW24958   6.433   6.345   0.968
 8020SOL    HW124959   6.411   6.295   0.885
 8020SOL    HW224960   6.503   6.296   1.020
 8021SOL     OW24961   1.412   2.384   1.836
 8021SOL    HW124962   1.468   2.409   1.915
 8021SOL    HW224963   1.471   2.352   1.761
 8022SOL     OW24964   4.199   0.451   2.852
 8022SOL    HW124965   4.296   0.452   2.875
 8022SOL    HW224966   4.182   0.383   2.781
 8023SOL     OW24967   6.210   5.868   3.825
 8023SOL    HW124968   6.112   5.863   3.845
 8023SOL    HW224969   6.233   5.960   3.793
 8024SOL     OW24970   2.803   4.772   0.237
 8024SOL    HW124971   2.743   4.780   0.158
 8024SOL    HW224972   2.898   4.781   0.208
 8025SOL     OW24973   2.847   6.053   5.614
 8025SOL    HW124974   2.897   5.990   5.673
 8025SOL    HW224975   2.863   6.030   5.518
 8026SOL     OW24976   0.695   4.367   7.013
 8026SOL    HW124977   0.741   4.445   6.972
 8026SOL    HW224978   0.705   4.286   6.955
 8027SOL     OW24979   4.559   2.219   5.435
 8027SOL    HW124980   4.644   2.229   5.383
 8027SOL    HW224981   4.572   2.150   5.506
 8028SOL     OW24982   3.696   4.499   6.095
 8028SOL    HW124983   3.599   4.484   6.117
 8028SOL    HW224984   3.704   4.531   6.001
 8029SOL     OW24985   5.633   3.583   0.170
 8029SOL    HW124986   5.671   3.675   0.179
 8029SOL    HW224987   5.585   3.574   0.083
 8030SOL     OW24988   5.738   4.089   6.283
 8030SOL    HW124989   5.681   4.041   6.350
 8030SOL    HW224990   5.818   4.033   6.262
 8031SOL     OW24991   4.808   5.851   2.592
 8031SOL    HW124992   4.864   5.786   2.642
 8031SOL    HW224993   4.711   5.835   2.614
 8032SOL     OW24994   5.704   4.388   5.602
 8032SOL    HW124995   5.793   4.342   5.612
 8032SOL    HW224996   5.658   4.391   5.690
 8033SOL     OW24997   5.245   3.220   6.979
 8033SOL    HW124998   5.296   3.187   6.899
 8033SOL    HW224999   5.163   3.163   6.991
 8034SOL     OW25000   6.091   1.252   5.428
 8034SOL    HW125001   6.189   1.255   5.445
 8034SOL    HW225002   6.068   1.168   5.380
 8035SOL     OW25003   4.712   6.903   5.189
 8035SOL    HW125004   4.631   6.962   5.194
 8035SOL    HW225005   4.793   6.958   5.209
 8036SOL     OW25006   0.802   3.999   2.628
 8036SOL    HW125007   0.822   3.907   2.594
 8036SOL    HW225008   0.709   4.001   2.665
 8037SOL     OW25009   1.456   3.914   1.892
 8037SOL    HW125010   1.460   3.817   1.916
 8037SOL    HW225011   1.433   3.923   1.796
 8038SOL     OW25012   4.766   1.237   2.637
 8038SOL    HW125013   4.697   1.300   2.601
 8038SOL    HW225014   4.829   1.212   2.563
 8039SOL     OW25015   1.315   0.076   3.163
 8039SOL    HW125016   1.372   0.155   3.186
 8039SOL    HW225017   1.301   0.072   3.064
 8040SOL     OW25018   1.473   6.052   1.115
 8040SOL    HW125019   1.411   6.012   1.183
 8040SOL    HW225020   1.496   5.983   1.047
 8041SOL     OW25021   3.086   2.098   2.240
 8041SOL    HW125022   3.184   2.104   2.262
 8041SOL    HW225023   3.075   2.069   2.145
 8042SOL     OW25024   3.725   3.012   2.862
 8042SOL    HW125025   3.787   2.964   2.799
 8042SOL    HW225026   3.696   3.098   2.821
 8043SOL     OW25027   3.759   6.278   0.702
 8043SOL    HW125028   3.783   6.279   0.799
 8043SOL    HW225029   3.796   6.361   0.659
 8044SOL     OW25030   3.331   3.563   0.652
 8044SOL    HW125031   3.376   3.556   0.741
 8044SOL    HW225032   3.395   3.602   0.585
 8045SOL     OW25033   5.420   0.796   2.069
 8045SOL    HW125034   5.498   0.833   2.119
 8045SOL    HW225035   5.452   0.752   1.985
 8046SOL     OW25036   6.624   4.980   6.920
 8046SOL    HW125037   6.664   5.025   7.000
 8046SOL    HW225038   6.685   4.991   6.841
 8047SOL     OW25039   3.864   4.809   5.163
 8047SOL    HW125040   3.797   4.875   5.198
 8047SOL    HW225041   3.867   4.730   5.225
 8048SOL     OW25042   5.063   1.163   5.771
 8048SOL    HW125043   5.041   1.070   5.801
 8048SOL    HW225044   5.092   1.160   5.675
 8049SOL     OW25045   1.171   6.964   1.392
 8049SOL    HW125046   1.244   6.919   1.444
 8049SOL    HW225047   1.144   6.905   1.316
 8050SOL     OW25048   0.797   4.058   2.154
 8050SOL    HW125049   0.816   3.996   2.078
 8050SOL    HW225050   0.708   4.101   2.142
 8051SOL     OW25051   5.015   6.490   3.162
 8051SOL    HW125052   4.992   6.410   3.216
 8051SOL    HW225053   5.056   6.560   3.221
 8052SOL     OW25054   3.465   1.263   2.193
 8052SOL    HW125055   3.523   1.244   2.273
 8052SOL    HW225056   3.514   1.324   2.131
 8053SOL     OW25057   3.944   3.794   2.822
 8053SOL    HW125058   3.988   3.802   2.912
 8053SOL    HW225059   4.010   3.817   2.751
 8054SOL     OW25060   5.739   6.314   4.270
 8054SOL    HW125061   5.711   6.304   4.366
 8054SOL    HW225062   5.834   6.345   4.267
 8055SOL     OW25063   0.502   0.301   5.770
 8055SOL    HW125064   0.460   0.346   5.849
 8055SOL    HW225065   0.572   0.237   5.802
 8056SOL     OW25066   4.256   1.130   3.948
 8056SOL    HW125067   4.343   1.170   3.977
 8056SOL    HW225068   4.196   1.202   3.914
 8057SOL     OW25069   2.321   1.234   2.340
 8057SOL    HW125070   2.300   1.327   2.309
 8057SOL    HW225071   2.419   1.226   2.357
 8058SOL     OW25072   2.998   0.416   2.846
 8058SOL    HW125073   3.043   0.333   2.879
 8058SOL    HW225074   3.006   0.488   2.915
 8059SOL     OW25075   4.103   2.254   4.783
 8059SOL    HW125076   4.133   2.169   4.826
 8059SOL    HW225077   4.093   2.325   4.852
 8060SOL     OW25078   0.184   1.249   4.093
 8060SOL    HW125079   0.230   1.174   4.046
 8060SOL    HW225080   0.224   1.262   4.184
 8061SOL     OW25081   6.620   6.753   1.952
 8061SOL    HW125082   6.621   6.812   1.871
 8061SOL    HW225083   6.528   6.717   1.966
 8062SOL     OW25084   2.487   4.406   4.065
 8062SOL    HW125085   2.573   4.438   4.106
 8062SOL    HW225086   2.432   4.360   4.135
 8063SOL     OW25087   2.049   3.165   0.992
 8063SOL    HW125088   2.057   3.130   1.085
 8063SOL    HW225089   2.037   3.088   0.929
 8064SOL     OW25090   0.597   4.911   1.252
 8064SOL    HW125091   0.571   4.983   1.315
 8064SOL    HW225092   0.649   4.950   1.175
 8065SOL     OW25093   4.539   6.415   3.612
 8065SOL    HW125094   4.523   6.514   3.605
 8065SOL    HW225095   4.533   6.387   3.707
 8066SOL     OW25096   1.356   1.529   6.750
 8066SOL    HW125097   1.378   1.616   6.795
 8066SOL    HW225098   1.276   1.489   6.794
 8067SOL     OW25099   4.785   3.003   1.548
 8067SOL    HW125100   4.711   3.067   1.564
 8067SOL    HW225101   4.757   2.935   1.480
 8068SOL     OW25102   6.653   5.303   6.664
 8068SOL    HW125103   6.740   5.337   6.630
 8068SOL    HW225104   6.627   5.221   6.611
 8069SOL     OW25105   2.019   5.986   1.520
 8069SOL    HW125106   1.966   6.059   1.478
 8069SOL    HW225107   1.961   5.936   1.586
 8070SOL     OW25108   2.824   3.804   0.617
 8070SOL    HW125109   2.923   3.799   0.604
 8070SOL    HW225110   2.779   3.742   0.553
 8071SOL     OW25111   2.924   6.149   4.929
 8071SOL    HW125112   2.915   6.227   4.992
 8071SOL    HW225113   2.930   6.183   4.835
 8072SOL     OW25114   3.295   1.304   0.232
 8072SOL    HW125115   3.287   1.284   0.134
 8072SOL    HW225116   3.280   1.220   0.284
 8073SOL     OW25117   4.759   6.810   6.603
 8073SOL    HW125118   4.794   6.831   6.695
 8073SOL    HW225119   4.700   6.730   6.608
 8074SOL     OW25120   3.039   2.657   6.701
 8074SOL    HW125121   3.090   2.722   6.645
 8074SOL    HW225122   3.070   2.662   6.796
 8075SOL     OW25123   6.539   0.965   1.512
 8075SOL    HW125124   6.587   1.003   1.591
 8075SOL    HW225125   6.474   1.032   1.477
 8076SOL     OW25126   4.237   2.501   5.769
 8076SOL    HW125127   4.283   2.493   5.858
 8076SOL    HW225128   4.302   2.479   5.696
 8077SOL     OW25129   0.847   6.325   2.063
 8077SOL    HW125130   0.903   6.292   2.139
 8077SOL    HW225131   0.844   6.425   2.064
 8078SOL     OW25132   6.199   1.799   1.000
 8078SOL    HW125133   6.170   1.788   0.905
 8078SOL    HW225134   6.282   1.746   1.016
 8079SOL     OW25135   5.194   2.000   3.768
 8079SOL    HW125136   5.117   1.951   3.812
 8079SOL    HW225137   5.269   1.936   3.752
 8080SOL     OW25138   0.887   3.800   0.472
 8080SOL    HW125139   0.950   3.723   0.482
 8080SOL    HW225140   0.797   3.775   0.509
 8081SOL     OW25141   5.011   0.333   5.148
 8081SOL    HW125142   5.108   0.312   5.165
 8081SOL    HW225143   4.978   0.277   5.071
 8082SOL     OW25144   6.276   1.448   2.187
 8082SOL    HW125145   6.322   1.432   2.100
 8082SOL    HW225146   6.318   1.527   2.232
 8083SOL     OW25147   5.312   2.857   2.047
 8083SOL    HW125148   5.330   2.951   2.076
 8083SOL    HW225149   5.216   2.835   2.066
 8084SOL     OW25150   5.555   6.681   0.799
 8084SOL    HW125151   5.610   6.764   0.802
 8084SOL    HW225152   5.559   6.635   0.887
 8085SOL     OW25153   5.887   0.183   2.607
 8085SOL    HW125154   5.890   0.089   2.642
 8085SOL    HW225155   5.797   0.200   2.566
 8086SOL     OW25156   4.182   0.462   3.964
 8086SOL    HW125157   4.121   0.389   3.932
 8086SOL    HW225158   4.127   0.541   3.992
 8087SOL     OW25159   1.909   1.574   1.286
 8087SOL    HW125160   1.897   1.608   1.380
 8087SOL    HW225161   1.824   1.587   1.235
 8088SOL     OW25162   5.779   1.679   1.759
 8088SOL    HW125163   5.851   1.744   1.732
 8088SOL    HW225164   5.818   1.588   1.767
 8089SOL     OW25165   5.554   1.995   0.797
 8089SOL    HW125166   5.512   1.905   0.785
 8089SOL    HW225167   5.610   2.017   0.718
 8090SOL     OW25168   4.483   1.722   6.217
 8090SOL    HW125169   4.455   1.650   6.154
 8090SOL    HW225170   4.405   1.746   6.276
 8091SOL     OW25171   2.808   3.756   6.397
 8091SOL    HW125172   2.761   3.751   6.309
 8091SOL    HW225173   2.898   3.796   6.386
 8092SOL     OW25174   0.973   1.869   4.802
 8092SOL    HW125175   1.008   1.783   4.838
 8092SOL    HW225176   1.040   1.942   4.819
 8093SOL     OW25177   5.437   5.717   1.905
 8093SOL    HW125178   5.374   5.787   1.939
 8093SOL    HW225179   5.425   5.633   1.958
 8094SOL     OW25180   1.934   4.121   4.693
 8094SOL    HW125181   2.032   4.116   4.711
 8094SOL    HW225182   1.893   4.030   4.705
 8095SOL     OW25183   6.018   3.795   3.894
 8095SOL    HW125184   6.082   3.850   3.839
 8095SOL    HW225185   5.927   3.800   3.853
 8096SOL     OW25186   3.518   5.380   3.919
 8096SOL    HW125187   3.543   5.305   3.858
 8096SOL    HW225188   3.595   5.443   3.928
 8097SOL     OW25189   5.214   0.680   3.943
 8097SOL    HW125190   5.140   0.615   3.960
 8097SOL    HW225191   5.274   0.645   3.872
 8098SOL     OW25192   1.824   6.627   4.412
 8098SOL    HW125193   1.779   6.555   4.360
 8098SOL    HW225194   1.796   6.716   4.377
 8099SOL     OW25195   6.210   0.690   4.730
 8099SOL    HW125196   6.204   0.598   4.690
 8099SOL    HW225197   6.164   0.691   4.819
 8100SOL     OW25198   0.039   6.629   0.060
 8100SOL    HW125199   0.073   6.587   6.998
 8100SOL    HW225200   6.968   6.662   0.046
 8101SOL     OW25201   2.235   0.320   4.721
 8101SOL    HW125202   2.154   0.312   4.662
 8101SOL    HW225203   2.222   0.395   4.786
 8102SOL     OW25204   1.445   5.268   5.919
 8102SOL    HW125205   1.513   5.211   5.872
 8102SOL    HW225206   1.379   5.302   5.852
 8103SOL     OW25207   4.266   1.392   1.037
 8103SOL    HW125208   4.182   1.340   1.025
 8103SOL    HW225209   4.293   1.433   0.950
 8104SOL     OW25210   2.761   6.747   5.975
 8104SOL    HW125211   2.673   6.739   5.929
 8104SOL    HW225212   2.802   6.657   5.986
 8105SOL     OW25213   1.967   2.396   3.453
 8105SOL    HW125214   1.961   2.489   3.489
 8105SOL    HW225215   2.039   2.392   3.384
 8106SOL     OW25216   2.335   5.756   4.018
 8106SOL    HW125217   2.284   5.833   4.055
 8106SOL    HW225218   2.353   5.771   3.921
 8107SOL     OW25219   1.365   6.302   5.389
 8107SOL    HW125220   1.408   6.339   5.306
 8107SOL    HW225221   1.289   6.242   5.363
 8108SOL     OW25222   6.217   2.657   4.423
 8108SOL    HW125223   6.294   2.640   4.485
 8108SOL    HW225224   6.153   2.720   4.467
 8109SOL     OW25225   1.339   4.121   4.616
 8109SOL    HW125226   1.414   4.182   4.590
 8109SOL    HW225227   1.307   4.071   4.536
 8110SOL     OW25228   3.436   6.592   0.693
 8110SOL    HW125229   3.380   6.662   0.648
 8110SOL    HW225230   3.499   6.636   0.757
 8111SOL     OW25231   3.519   0.194   5.820
 8111SOL    HW125232   3.550   0.126   5.753
 8111SOL    HW225233   3.598   0.233   5.867
 8112SOL     OW25234   1.899   1.364   5.112
 8112SOL    HW125235   1.870   1.294   5.177
 8112SOL    HW225236   1.859   1.345   5.022
 8113SOL     OW25237   2.168   3.041   0.064
 8113SOL    HW125238   2.143   3.118   0.123
 8113SOL    HW225239   2.246   2.992   0.103
 8114SOL     OW25240   2.113   3.091   2.260
 8114SOL    HW125241   2.117   3.077   2.161
 8114SOL    HW225242   2.196   3.055   2.302
 8115SOL     OW25243   3.824   1.186   1.532
 8115SOL    HW125244   3.894   1.134   1.483
 8115SOL    HW225245   3.771   1.240   1.467
 8116SOL     OW25246   4.761   6.645   4.606
 8116SOL    HW125247   4.853   6.610   4.588
 8116SOL    HW225248   4.755   6.677   4.700
 8117SOL     OW25249   2.075   1.588   3.677
 8117SOL    HW125250   2.158   1.624   3.634
 8117SOL    HW225251   2.065   1.628   3.768
 8118SOL     OW25252   0.197   3.621   6.161
 8118SOL    HW125253   0.117   3.571   6.130
 8118SOL    HW225254   0.173   3.717   6.178
 8119SOL     OW25255   0.251   5.855   5.174
 8119SOL    HW125256   0.163   5.852   5.221
 8119SOL    HW225257   0.236   5.856   5.075
 8120SOL     OW25258   4.053   4.306   6.610
 8120SOL    HW125259   3.976   4.265   6.660
 8120SOL    HW225260   4.095   4.236   6.553
 8121SOL     OW25261   6.392   5.675   3.472
 8121SOL    HW125262   6.329   5.655   3.547
 8121SOL    HW225263   6.405   5.593   3.416
 8122SOL     OW25264   0.318   5.004   2.214
 8122SOL    HW125265   0.386   5.037   2.148
 8122SOL    HW225266   0.245   4.956   2.164
 8123SOL     OW25267   0.312   0.206   0.087
 8123SOL    HW125268   0.308   0.212   7.009
 8123SOL    HW225269   0.219   0.194   0.123
 8124SOL     OW25270   0.572   6.469   1.452
 8124SOL    HW125271   0.643   6.411   1.411
 8124SOL    HW225272   0.578   6.561   1.413
 8125SOL     OW25273   6.668   5.253   3.154
 8125SOL    HW125274   6.669   5.226   3.250
 8125SOL    HW225275   6.692   5.174   3.097
 8126SOL     OW25276   6.576   4.056   1.847
 8126SOL    HW125277   6.618   3.972   1.812
 8126SOL    HW225278   6.520   4.035   1.927
 8127SOL     OW25279   2.180   6.060   0.751
 8127SOL    HW125280   2.182   5.974   0.700
 8127SOL    HW225281   2.126   6.048   0.835
 8128SOL     OW25282   3.041   2.749   6.971
 8128SOL    HW125283   2.951   2.774   6.934
 8128SOL    HW225284   3.031   2.668   0.008
 8129SOL     OW25285   4.765   0.989   6.443
 8129SOL    HW125286   4.706   1.003   6.364
 8129SOL    HW225287   4.784   1.077   6.487
 8130SOL     OW25288   0.849   4.854   6.155
 8130SOL    HW125289   0.794   4.936   6.140
 8130SOL    HW225290   0.882   4.819   6.067
 8131SOL     OW25291   2.574   0.642   0.431
 8131SOL    HW125292   2.625   0.706   0.488
 8131SOL    HW225293   2.477   0.664   0.435
 8132SOL     OW25294   5.639   6.274   6.388
 8132SOL    HW125295   5.604   6.345   6.326
 8132SOL    HW225296   5.681   6.201   6.334
 8133SOL     OW25297   3.687   4.893   2.360
 8133SOL    HW125298   3.701   4.858   2.268
 8133SOL    HW225299   3.598   4.937   2.366
 8134SOL     OW25300   1.703   1.177   4.170
 8134SOL    HW125301   1.697   1.272   4.139
 8134SOL    HW225302   1.760   1.172   4.252
 8135SOL     OW25303   2.509   5.411   2.174
 8135SOL    HW125304   2.557   5.452   2.251
 8135SOL    HW225305   2.493   5.480   2.103
 8136SOL     OW25306   4.471   4.937   2.767
 8136SOL    HW125307   4.433   5.001   2.834
 8136SOL    HW225308   4.430   4.955   2.677
 8137SOL     OW25309   2.397   1.979   4.348
 8137SOL    HW125310   2.451   1.961   4.430
 8137SOL    HW225311   2.387   2.078   4.336
 8138SOL     OW25312   5.649   1.974   1.740
 8138SOL    HW125313   5.647   2.010   1.833
 8138SOL    HW225314   5.741   1.940   1.719
 8139SOL     OW25315   1.571   2.791   3.323
 8139SOL    HW125316   1.493   2.752   3.275
 8139SOL    HW225317   1.648   2.728   3.319
 8140SOL     OW25318   3.657   0.272   0.433
 8140SOL    HW125319   3.671   0.201   0.365
 8140SOL    HW225320   3.569   0.317   0.416
 8141SOL     OW25321   5.019   0.240   5.556
 8141SOL    HW125322   5.087   0.308   5.530
 8141SOL    HW225323   5.039   0.207   5.648
 8142SOL     OW25324   1.780   5.272   0.996
 8142SOL    HW125325   1.796   5.260   0.898
 8142SOL    HW225326   1.686   5.244   1.018
 8143SOL     OW25327   5.108   4.873   1.018
 8143SOL    HW125328   5.147   4.782   1.024
 8143SOL    HW225329   5.102   4.913   1.110
 8144SOL     OW25330   1.143   6.169   5.351
 8144SOL    HW125331   1.104   6.169   5.259
 8144SOL    HW225332   1.073   6.140   5.417
 8145SOL     OW25333   5.092   4.333   0.800
 8145SOL    HW125334   5.051   4.356   0.712
 8145SOL    HW225335   5.116   4.235   0.800
 8146SOL     OW25336   6.423   6.995   5.567
 8146SOL    HW125337   6.341   0.026   5.587
 8146SOL    HW225338   6.398   6.910   5.519
 8147SOL     OW25339   6.852   0.805   0.712
 8147SOL    HW125340   6.922   0.798   0.783
 8147SOL    HW225341   6.886   0.861   0.636
 8148SOL     OW25342   3.939   4.549   6.772
 8148SOL    HW125343   3.920   4.621   6.706
 8148SOL    HW225344   3.975   4.469   6.723
 8149SOL     OW25345   1.243   6.224   4.302
 8149SOL    HW125346   1.182   6.302   4.319
 8149SOL    HW225347   1.276   6.189   4.390
 8150SOL     OW25348   0.775   3.252   1.202
 8150SOL    HW125349   0.855   3.254   1.262
 8150SOL    HW225350   0.756   3.344   1.169
 8151SOL     OW25351   5.655   5.539   4.178
 8151SOL    HW125352   5.754   5.527   4.164
 8151SOL    HW225353   5.605   5.475   4.120
 8152SOL     OW25354   5.236   2.230   3.184
 8152SOL    HW125355   5.257   2.247   3.088
 8152SOL    HW225356   5.297   2.286   3.241
 8153SOL     OW25357   0.197   0.801   3.150
 8153SOL    HW125358   0.296   0.793   3.150
 8153SOL    HW225359   0.171   0.897   3.146
 8154SOL     OW25360   3.107   0.701   2.998
 8154SOL    HW125361   3.190   0.695   3.053
 8154SOL    HW225362   3.033   0.653   3.045
 8155SOL     OW25363   1.257   4.148   2.020
 8155SOL    HW125364   1.357   4.136   2.016
 8155SOL    HW225365   1.216   4.070   2.066
 8156SOL     OW25366   4.768   6.287   1.652
 8156SOL    HW125367   4.721   6.208   1.692
 8156SOL    HW225368   4.714   6.370   1.668
 8157SOL     OW25369   6.054   4.591   5.995
 8157SOL    HW125370   6.060   4.664   5.927
 8157SOL    HW225371   5.963   4.548   5.989
 8158SOL     OW25372   5.287   4.980   6.572
 8158SOL    HW125373   5.239   4.978   6.484
 8158SOL    HW225374   5.320   4.888   6.593
 8159SOL     OW25375   3.514   5.489   5.805
 8159SOL    HW125376   3.490   5.573   5.757
 8159SOL    HW225377   3.483   5.495   5.900
 8160SOL     OW25378   4.054   0.249   3.884
 8160SOL    HW125379   4.043   0.163   3.935
 8160SOL    HW225380   4.059   0.230   3.786
 8161SOL     OW25381   5.924   3.922   6.147
 8161SOL    HW125382   5.943   3.872   6.231
 8161SOL    HW225383   6.004   3.975   6.120
 8162SOL     OW25384   0.210   5.139   0.066
 8162SOL    HW125385   0.284   5.189   0.021
 8162SOL    HW225386   0.139   5.204   0.095
 8163SOL     OW25387   3.031   4.748   5.909
 8163SOL    HW125388   2.972   4.764   5.989
 8163SOL    HW225389   3.123   4.725   5.939
 8164SOL     OW25390   4.734   1.286   0.390
 8164SOL    HW125391   4.823   1.328   0.409
 8164SOL    HW225392   4.717   1.213   0.457
 8165SOL     OW25393   6.752   3.977   6.447
 8165SOL    HW125394   6.725   3.945   6.357
 8165SOL    HW225395   6.722   3.912   6.516
 8166SOL     OW25396   2.281   1.456   3.282
 8166SOL    HW125397   2.239   1.388   3.342
 8166SOL    HW225398   2.264   1.433   3.187
 8167SOL     OW25399   0.038   0.588   3.722
 8167SOL    HW125400   0.001   0.640   3.645
 8167SOL    HW225401   0.137   0.602   3.728
 8168SOL     OW25402   2.541   6.820   1.290
 8168SOL    HW125403   2.482   6.882   1.239
 8168SOL    HW225404   2.635   6.829   1.257
 8169SOL     OW25405   3.774   1.909   0.421
 8169SOL    HW125406   3.721   1.877   0.500
 8169SOL    HW225407   3.872   1.899   0.441
 8170SOL     OW25408   6.723   4.755   1.569
 8170SOL    HW125409   6.741   4.827   1.635
 8170SOL    HW225410   6.759   4.668   1.603
 8171SOL     OW25411   1.427   1.428   5.993
 8171SOL    HW125412   1.462   1.396   5.905
 8171SOL    HW225413   1.486   1.502   6.026
 8172SOL     OW25414   0.280   2.403   1.815
 8172SOL    HW125415   0.183   2.377   1.811
 8172SOL    HW225416   0.304   2.426   1.909
 8173SOL     OW25417   5.949   1.878   2.609
 8173SOL    HW125418   5.922   1.782   2.601
 8173SOL    HW225419   5.940   1.923   2.520
 8174SOL     OW25420   1.140   6.423   2.806
 8174SOL    HW125421   1.093   6.511   2.792
 8174SOL    HW225422   1.144   6.374   2.720
 8175SOL     OW25423   0.428   2.767   4.315
 8175SOL    HW125424   0.492   2.762   4.239
 8175SOL    HW225425   0.367   2.846   4.303
 8176SOL     OW25426   2.215   4.382   1.669
 8176SOL    HW125427   2.308   4.354   1.693
 8176SOL    HW225428   2.182   4.326   1.593
 8177SOL     OW25429   3.985   1.245   3.546
 8177SOL    HW125430   4.028   1.163   3.584
 8177SOL    HW225431   3.909   1.273   3.605
 8178SOL     OW25432   3.102   6.483   1.181
 8178SOL    HW125433   3.026   6.537   1.216
 8178SOL    HW225434   3.076   6.387   1.174
 8179SOL     OW25435   5.769   1.573   4.509
 8179SOL    HW125436   5.842   1.618   4.560
 8179SOL    HW225437   5.707   1.527   4.572
 8180SOL     OW25438   5.851   0.613   0.074
 8180SOL    HW125439   5.864   0.686   0.142
 8180SOL    HW225440   5.783   0.641   0.007
 8181SOL     OW25441   0.980   0.678   0.853
 8181SOL    HW125442   0.939   0.618   0.922
 8181SOL    HW225443   1.071   0.646   0.830
 8182SOL     OW25444   3.380   3.733   4.273
 8182SOL    HW125445   3.313   3.750   4.200
 8182SOL    HW225446   3.334   3.741   4.362
 8183SOL     OW25447   6.436   1.734   4.289
 8183SOL    HW125448   6.472   1.645   4.316
 8183SOL    HW225449   6.512   1.800   4.283
 8184SOL     OW25450   0.788   0.149   0.376
 8184SOL    HW125451   0.743   0.117   0.293
 8184SOL    HW225452   0.781   0.249   0.381
 8185SOL     OW25453   2.266   0.381   0.215
 8185SOL    HW125454   2.352   0.332   0.199
 8185SOL    HW225455   2.217   0.339   0.290
 8186SOL     OW25456   2.665   4.157   5.327
 8186SOL    HW125457   2.760   4.135   5.301
 8186SOL    HW225458   2.603   4.094   5.280
 8187SOL     OW25459   2.131   1.139   4.712
 8187SOL    HW125460   2.083   1.112   4.628
 8187SOL    HW225461   2.097   1.228   4.742
 8188SOL     OW25462   4.700   2.676   3.711
 8188SOL    HW125463   4.647   2.614   3.769
 8188SOL    HW225464   4.795   2.645   3.707
 8189SOL     OW25465   5.454   5.456   2.039
 8189SOL    HW125466   5.543   5.421   2.065
 8189SOL    HW225467   5.382   5.410   2.091
 8190SOL     OW25468   4.860   4.061   3.785
 8190SOL    HW125469   4.828   4.087   3.876
 8190SOL    HW225470   4.796   4.094   3.717
 8191SOL     OW25471   4.348   5.221   2.487
 8191SOL    HW125472   4.324   5.305   2.536
 8191SOL    HW225473   4.445   5.224   2.461
 8192SOL     OW25474   1.453   5.417   2.347
 8192SOL    HW125475   1.448   5.505   2.300
 8192SOL    HW225476   1.455   5.431   2.446
 8193SOL     OW25477   6.229   4.726   5.019
 8193SOL    HW125478   6.208   4.746   5.115
 8193SOL    HW225479   6.327   4.739   5.004
 8194SOL     OW25480   4.549   0.819   0.989
 8194SOL    HW125481   4.571   0.727   0.957
 8194SOL    HW225482   4.482   0.813   1.064
 8195SOL     OW25483   6.316   0.655   3.727
 8195SOL    HW125484   6.237   0.680   3.671
 8195SOL    HW225485   6.383   0.605   3.672
 8196SOL     OW25486   4.450   6.805   6.786
 8196SOL    HW125487   4.359   6.839   6.807
 8196SOL    HW225488   4.489   6.760   6.866
 8197SOL     OW25489   3.707   1.821   1.304
 8197SOL    HW125490   3.761   1.897   1.341
 8197SOL    HW225491   3.636   1.796   1.369
 8198SOL     OW25492   3.554   6.451   1.962
 8198SOL    HW125493   3.562   6.477   1.866
 8198SOL    HW225494   3.595   6.361   1.975
 8199SOL     OW25495   5.374   3.245   5.960
 8199SOL    HW125496   5.342   3.337   5.980
 8199SOL    HW225497   5.353   3.222   5.865
 8200SOL     OW25498   6.035   4.532   1.444
 8200SOL    HW125499   6.001   4.491   1.360
 8200SOL    HW225500   6.127   4.497   1.464
 8201SOL     OW25501   6.981   0.820   5.196
 8201SOL    HW125502   6.923   0.785   5.123
 8201SOL    HW225503   6.940   0.903   5.234
 8202SOL     OW25504   6.818   5.728   3.130
 8202SOL    HW125505   6.821   5.628   3.129
 8202SOL    HW225506   6.739   5.759   3.184
 8203SOL     OW25507   1.881   2.506   7.008
 8203SOL    HW125508   1.928   2.496   0.074
 8203SOL    HW225509   1.852   2.601   6.996
 8204SOL     OW25510   3.969   4.060   0.219
 8204SOL    HW125511   3.909   4.040   0.141
 8204SOL    HW225512   4.048   4.112   0.188
 8205SOL     OW25513   6.814   3.946   0.073
 8205SOL    HW125514   6.759   3.863   0.071
 8205SOL    HW225515   6.908   3.925   0.046
 8206SOL     OW25516   4.661   1.874   6.801
 8206SOL    HW125517   4.631   1.865   6.706
 8206SOL    HW225518   4.596   1.930   6.852
 8207SOL     OW25519   3.636   3.739   3.757
 8207SOL    HW125520   3.648   3.737   3.658
 8207SOL    HW225521   3.662   3.650   3.795
 8208SOL     OW25522   1.205   0.487   1.037
 8208SOL    HW125523   1.253   0.480   1.125
 8208SOL    HW225524   1.233   0.570   0.990
 8209SOL     OW25525   0.107   0.662   4.605
 8209SOL    HW125526   0.137   0.569   4.585
 8209SOL    HW225527   0.134   0.722   4.531
 8210SOL     OW25528   2.486   2.276   0.439
 8210SOL    HW125529   2.566   2.291   0.496
 8210SOL    HW225530   2.490   2.337   0.360
 8211SOL     OW25531   3.937   4.579   1.477
 8211SOL    HW125532   4.011   4.636   1.441
 8211SOL    HW225533   3.864   4.637   1.511
 8212SOL     OW25534   1.557   2.451   3.146
 8212SOL    HW125535   1.592   2.497   3.064
 8212SOL    HW225536   1.631   2.399   3.189
 8213SOL     OW25537   0.089   4.632   1.380
 8213SOL    HW125538   0.105   4.717   1.429
 8213SOL    HW225539   0.161   4.620   1.311
 8214SOL     OW25540   6.057   5.069   4.458
 8214SOL    HW125541   6.103   5.015   4.528
 8214SOL    HW225542   5.986   5.126   4.501
 8215SOL     OW25543   3.900   5.340   5.594
 8215SOL    HW125544   3.919   5.378   5.504
 8215SOL    HW225545   3.805   5.361   5.619
 8216SOL     OW25546   5.484   5.733   4.283
 8216SOL    HW125547   5.527   5.651   4.244
 8216SOL    HW225548   5.401   5.755   4.232
 8217SOL     OW25549   1.849   5.333   0.647
 8217SOL    HW125550   1.934   5.286   0.624
 8217SOL    HW225551   1.869   5.415   0.701
 8218SOL     OW25552   6.870   0.375   6.412
 8218SOL    HW125553   6.856   0.352   6.509
 8218SOL    HW225554   6.918   0.463   6.405
 8219SOL     OW25555   4.398   1.950   0.001
 8219SOL    HW125556   4.384   1.955   6.924
 8219SOL    HW225557   4.476   2.007   0.027
 8220SOL     OW25558   3.689   3.281   3.521
 8220SOL    HW125559   3.622   3.230   3.467
 8220SOL    HW225560   3.746   3.336   3.459
 8221SOL     OW25561   5.148   5.939   4.654
 8221SOL    HW125562   5.155   5.958   4.752
 8221SOL    HW225563   5.234   5.898   4.622
 8222SOL     OW25564   5.408   1.688   2.123
 8222SOL    HW125565   5.401   1.785   2.098
 8222SOL    HW225566   5.503   1.658   2.114
 8223SOL     OW25567   1.643   4.461   5.981
 8223SOL    HW125568   1.717   4.406   5.943
 8223SOL    HW225569   1.657   4.557   5.957
 8224SOL     OW25570   6.673   1.646   2.892
 8224SOL    HW125571   6.622   1.624   2.975
 8224SOL    HW225572   6.751   1.584   2.884
 8225SOL     OW25573   3.725   1.221   6.784
 8225SOL    HW125574   3.682   1.228   6.874
 8225SOL    HW225575   3.655   1.198   6.716
 8226SOL     OW25576   4.238   6.562   1.847
 8226SOL    HW125577   4.219   6.468   1.818
 8226SOL    HW225578   4.267   6.563   1.942
 8227SOL     OW25579   6.877   2.241   3.499
 8227SOL    HW125580   6.783   2.274   3.484
 8227SOL    HW225581   6.934   2.317   3.528
 8228SOL     OW25582   6.856   1.939   5.594
 8228SOL    HW125583   6.867   2.005   5.520
 8228SOL    HW225584   6.781   1.968   5.654
 8229SOL     OW25585   3.751   4.240   0.836
 8229SOL    HW125586   3.793   4.317   0.788
 8229SOL    HW225587   3.741   4.263   0.933
 8230SOL     OW25588   3.783   6.944   4.983
 8230SOL    HW125589   3.880   6.952   4.961
 8230SOL    HW225590   3.758   6.847   4.989
 8231SOL     OW25591   4.137   5.244   0.443
 8231SOL    HW125592   4.199   5.321   0.452
 8231SOL    HW225593   4.044   5.274   0.463
 8232SOL     OW25594   4.969   1.773   0.922
 8232SOL    HW125595   4.956   1.806   1.016
 8232SOL    HW225596   4.929   1.839   0.858
 8233SOL     OW25597   0.973   6.192   6.276
 8233SOL    HW125598   1.038   6.223   6.346
 8233SOL    HW225599   1.013   6.115   6.226
 8234SOL     OW25600   2.458   4.049   6.928
 8234SOL    HW125601   2.458   4.061   6.828
 8234SOL    HW225602   2.404   3.968   6.952
 8235SOL     OW25603   0.646   3.641   0.567
 8235SOL    HW125604   0.587   3.630   0.488
 8235SOL    HW225605   0.715   3.569   0.568
 8236SOL     OW25606   6.897   4.389   6.943
 8236SOL    HW125607   6.883   4.360   0.016
 8236SOL    HW225608   6.987   4.432   6.934
 8237SOL     OW25609   4.358   6.408   4.375
 8237SOL    HW125610   4.267   6.371   4.356
 8237SOL    HW225611   4.384   6.384   4.469
 8238SOL     OW25612   1.225   4.971   6.989
 8238SOL    HW125613   1.230   4.984   6.890
 8238SOL    HW225614   1.130   4.971   7.018
 8239SOL     OW25615   6.351   1.199   5.521
 8239SOL    HW125616   6.346   1.241   5.611
 8239SOL    HW225617   6.436   1.228   5.475
 8240SOL     OW25618   3.369   4.031   2.357
 8240SOL    HW125619   3.460   4.016   2.319
 8240SOL    HW225620   3.341   4.126   2.339
 8241SOL     OW25621   4.174   0.167   7.021
 8241SOL    HW125622   4.206   0.117   6.941
 8241SOL    HW225623   4.252   0.206   0.048
 8242SOL     OW25624   0.558   4.923   5.717
 8242SOL    HW125625   0.484   4.952   5.657
 8242SOL    HW225626   0.646   4.947   5.676
 8243SOL     OW25627   1.009   2.273   0.238
 8243SOL    HW125628   0.986   2.183   0.275
 8243SOL    HW225629   1.050   2.329   0.310
 8244SOL     OW25630   1.395   0.028   4.334
 8244SOL    HW125631   1.312   6.996   4.318
 8244SOL    HW225632   1.473   7.001   4.296
 8245SOL     OW25633   4.448   2.243   2.616
 8245SOL    HW125634   4.504   2.299   2.554
 8245SOL    HW225635   4.469   2.146   2.601
 8246SOL     OW25636   0.636   3.601   6.165
 8246SOL    HW125637   0.582   3.675   6.125
 8246SOL    HW225638   0.726   3.636   6.192
 8247SOL     OW25639   0.443   0.110   2.435
 8247SOL    HW125640   0.371   0.064   2.383
 8247SOL    HW225641   0.523   0.123   2.376
 8248SOL     OW25642   6.399   5.098   4.834
 8248SOL    HW125643   6.421   5.161   4.908
 8248SOL    HW225644   6.436   5.007   4.855
 8249SOL     OW25645   1.918   2.927   5.032
 8249SOL    HW125646   1.989   2.900   5.097
 8249SOL    HW225647   1.948   3.008   4.982
 8250SOL     OW25648   3.575   4.113   2.178
 8250SOL    HW125649   3.486   4.108   2.133
 8250SOL    HW225650   3.611   4.206   2.170
 8251SOL     OW25651   6.224   3.377   3.359
 8251SOL    HW125652   6.312   3.359   3.314
 8251SOL    HW225653   6.153   3.320   3.318
 8252SOL     OW25654   3.203   1.710   5.623
 8252SOL    HW125655   3.128   1.773   5.641
 8252SOL    HW225656   3.285   1.761   5.599
 8253SOL     OW25657   4.594   4.403   5.471
 8253SOL    HW125658   4.552   4.394   5.561
 8253SOL    HW225659   4.569   4.325   5.414
 8254SOL     OW25660   4.452   4.832   5.052
 8254SOL    HW125661   4.402   4.787   4.978
 8254SOL    HW225662   4.476   4.925   5.025
 8255SOL     OW25663   2.725   6.425   4.789
 8255SOL    HW125664   2.708   6.407   4.886
 8255SOL    HW225665   2.724   6.339   4.739
 8256SOL     OW25666   6.117   0.340   2.388
 8256SOL    HW125667   6.102   0.390   2.474
 8256SOL    HW225668   6.183   0.266   2.404
 8257SOL     OW25669   6.164   3.976   3.763
 8257SOL    HW125670   6.247   4.030   3.749
 8257SOL    HW225671   6.088   4.020   3.715
 8258SOL     OW25672   5.379   1.810   0.677
 8258SOL    HW125673   5.373   1.760   0.764
 8258SOL    HW225674   5.333   1.898   0.686
 8259SOL     OW25675   4.222   1.924   3.653
 8259SOL    HW125676   4.172   2.004   3.620
 8259SOL    HW225677   4.197   1.844   3.598
 8260SOL     OW25678   2.771   6.331   1.969
 8260SOL    HW125679   2.853   6.274   1.959
 8260SOL    HW225680   2.697   6.294   1.913
 8261SOL     OW25681   6.015   1.228   1.932
 8261SOL    HW125682   6.029   1.221   1.834
 8261SOL    HW225683   5.935   1.285   1.951
 8262SOL     OW25684   0.670   2.951   0.277
 8262SOL    HW125685   0.644   3.042   0.246
 8262SOL    HW225686   0.612   2.882   0.233
 8263SOL     OW25687   1.597   2.018   6.889
 8263SOL    HW125688   1.562   2.097   6.838
 8263SOL    HW225689   1.556   2.017   6.980
 8264SOL     OW25690   2.478   6.274   2.814
 8264SOL    HW125691   2.496   6.190   2.763
 8264SOL    HW225692   2.565   6.319   2.835
 8265SOL     OW25693   0.501   6.738   0.636
 8265SOL    HW125694   0.512   6.671   0.562
 8265SOL    HW225695   0.576   6.728   0.701
 8266SOL     OW25696   2.254   1.309   3.739
 8266SOL    HW125697   2.272   1.391   3.793
 8266SOL    HW225698   2.175   1.324   3.680
 8267SOL     OW25699   1.409   2.758   0.864
 8267SOL    HW125700   1.340   2.774   0.934
 8267SOL    HW225701   1.433   2.660   0.863
 8268SOL     OW25702   2.077   6.747   5.690
 8268SOL    HW125703   2.129   6.809   5.748
 8268SOL    HW225704   2.054   6.664   5.741
 8269SOL     OW25705   4.377   2.335   2.129
 8269SOL    HW125706   4.398   2.241   2.101
 8269SOL    HW225707   4.397   2.397   2.054
 8270SOL     OW25708   2.902   6.689   5.330
 8270SOL    HW125709   2.908   6.592   5.352
 8270SOL    HW225710   2.848   6.702   5.247
 8271SOL     OW25711   6.207   0.257   3.220
 8271SOL    HW125712   6.240   0.264   3.126
 8271SOL    HW225713   6.157   0.340   3.243
 8272SOL     OW25714   4.648   1.722   1.848
 8272SOL    HW125715   4.608   1.734   1.757
 8272SOL    HW225716   4.677   1.811   1.883
 8273SOL     OW25717   3.083   6.974   0.412
 8273SOL    HW125718   3.165   7.013   0.369
 8273SOL    HW225719   3.109   6.894   0.466
 8274SOL     OW25720   4.999   4.939   3.155
 8274SOL    HW125721   5.075   4.886   3.116
 8274SOL    HW225722   5.023   4.969   3.247
 8275SOL     OW25723   4.997   1.529   5.493
 8275SOL    HW125724   4.953   1.462   5.552
 8275SOL    HW225725   4.927   1.583   5.446
 8276SOL     OW25726   0.977   2.032   3.555
 8276SOL    HW125727   1.052   2.000   3.611
 8276SOL    HW225728   0.969   2.131   3.562
 8277SOL     OW25729   6.742   6.936   0.496
 8277SOL    HW125730   6.737   6.878   0.578
 8277SOL    HW225731   6.668   6.913   0.434
 8278SOL     OW25732   2.346   2.149   5.697
 8278SOL    HW125733   2.295   2.166   5.612
 8278SOL    HW225734   2.431   2.101   5.676
 8279SOL     OW25735   1.599   6.951   4.197
 8279SOL    HW125736   1.597   7.003   4.111
 8279SOL    HW225737   1.695   6.933   4.221
 8280SOL     OW25738   2.399   3.668   0.440
 8280SOL    HW125739   2.468   3.626   0.382
 8280SOL    HW225740   2.346   3.597   0.487
 8281SOL     OW25741   2.610   4.919   1.575
 8281SOL    HW125742   2.596   4.981   1.497
 8281SOL    HW225743   2.703   4.929   1.609
 8282SOL     OW25744   4.984   3.592   0.108
 8282SOL    HW125745   4.926   3.668   0.081
 8282SOL    HW225746   4.966   3.567   0.203
 8283SOL     OW25747   1.688   5.674   6.651
 8283SOL    HW125748   1.655   5.692   6.559
 8283SOL    HW225749   1.760   5.740   6.674
 8284SOL     OW25750   0.996   3.577   0.862
 8284SOL    HW125751   0.906   3.617   0.877
 8284SOL    HW225752   1.059   3.610   0.933
 8285SOL     OW25753   2.910   3.390   4.502
 8285SOL    HW125754   2.919   3.378   4.600
 8285SOL    HW225755   2.878   3.482   4.482
 8286SOL     OW25756   6.046   2.668   6.201
 8286SOL    HW125757   6.089   2.642   6.288
 8286SOL    HW225758   6.106   2.732   6.152
 8287SOL     OW25759   1.906   5.654   3.922
 8287SOL    HW125760   1.864   5.685   4.008
 8287SOL    HW225761   1.942   5.733   3.873
 8288SOL     OW25762   3.322   1.864   1.621
 8288SOL    HW125763   3.327   1.769   1.652
 8288SOL    HW225764   3.414   1.902   1.612
 8289SOL     OW25765   0.521   5.483   1.035
 8289SOL    HW125766   0.487   5.505   1.126
 8289SOL    HW225767   0.561   5.565   0.993
 8290SOL     OW25768   6.175   1.394   1.247
 8290SOL    HW125769   6.136   1.483   1.222
 8290SOL    HW225770   6.114   1.321   1.215
 8291SOL     OW25771   5.140   6.267   5.843
 8291SOL    HW125772   5.162   6.361   5.816
 8291SOL    HW225773   5.200   6.203   5.793
 8292SOL     OW25774   2.545   6.651   6.961
 8292SOL    HW125775   2.596   6.648   0.026
 8292SOL    HW225776   2.449   6.632   6.980
 8293SOL     OW25777   3.469   6.211   0.061
 8293SOL    HW125778   3.449   6.306   0.085
 8293SOL    HW225779   3.543   6.178   0.120
 8294SOL     OW25780   5.462   4.154   4.653
 8294SOL    HW125781   5.454   4.254   4.650
 8294SOL    HW225782   5.543   4.129   4.705
 8295SOL     OW25783   5.200   5.484   1.457
 8295SOL    HW125784   5.121   5.427   1.479
 8295SOL    HW225785   5.270   5.429   1.412
 8296SOL     OW25786   1.470   5.701   6.054
 8296SOL    HW125787   1.417   5.717   5.971
 8296SOL    HW225788   1.565   5.684   6.030
 8297SOL     OW25789   6.258   3.048   2.445
 8297SOL    HW125790   6.210   3.109   2.508
 8297SOL    HW225791   6.298   2.972   2.496
 8298SOL     OW25792   6.071   1.639   1.198
 8298SOL    HW125793   6.115   1.693   1.126
 8298SOL    HW225794   6.009   1.698   1.251
 8299SOL     OW25795   6.465   2.870   1.789
 8299SOL    HW125796   6.368   2.887   1.806
 8299SOL    HW225797   6.519   2.941   1.833
 8300SOL     OW25798   0.221   5.891   4.890
 8300SOL    HW125799   0.312   5.930   4.900
 8300SOL    HW225800   0.165   5.950   4.833
 8301SOL     OW25801   4.170   1.781   1.788
 8301SOL    HW125802   4.232   1.743   1.720
 8301SOL    HW225803   4.210   1.770   1.879
 8302SOL     OW25804   6.141   6.091   0.114
 8302SOL    HW125805   6.167   6.185   0.136
 8302SOL    HW225806   6.195   6.059   0.036
 8303SOL     OW25807   6.411   0.548   4.094
 8303SOL    HW125808   6.377   0.603   4.170
 8303SOL    HW225809   6.348   0.473   4.076
 8304SOL     OW25810   0.194   3.404   0.690
 8304SOL    HW125811   0.121   3.442   0.634
 8304SOL    HW225812   0.255   3.477   0.721
 8305SOL     OW25813   4.306   5.238   4.597
 8305SOL    HW125814   4.327   5.268   4.504
 8305SOL    HW225815   4.239   5.163   4.593
 8306SOL     OW25816   6.770   2.952   6.148
 8306SOL    HW125817   6.810   2.980   6.061
 8306SOL    HW225818   6.796   3.017   6.219
 8307SOL     OW25819   3.707   5.198   1.458
 8307SOL    HW125820   3.665   5.259   1.525
 8307SOL    HW225821   3.803   5.183   1.482
 8308SOL     OW25822   4.004   5.281   1.308
 8308SOL    HW125823   3.974   5.376   1.314
 8308SOL    HW225824   3.986   5.246   1.216
 8309SOL     OW25825   6.364   4.995   4.091
 8309SOL    HW125826   6.460   5.013   4.114
 8309SOL    HW225827   6.308   5.005   4.173
 8310SOL     OW25828   0.236   4.543   0.932
 8310SOL    HW125829   0.202   4.583   0.847
 8310SOL    HW225830   0.242   4.444   0.923
 8311SOL     OW25831   0.644   1.818   3.926
 8311SOL    HW125832   0.632   1.758   4.006
 8311SOL    HW225833   0.735   1.858   3.928
 8312SOL     OW25834   4.793   0.013   0.343
 8312SOL    HW125835   4.845   7.009   0.424
 8312SOL    HW225836   4.813   0.107   0.318
 8313SOL     OW25837   5.033   0.864   1.936
 8313SOL    HW125838   4.949   0.837   1.983
 8313SOL    HW225839   5.096   0.905   2.001
 8314SOL     OW25840   4.427   0.903   0.524
 8314SOL    HW125841   4.339   0.857   0.515
 8314SOL    HW225842   4.499   0.835   0.541
 8315SOL     OW25843   4.072   3.362   1.116
 8315SOL    HW125844   4.036   3.283   1.067
 8315SOL    HW225845   4.024   3.371   1.204
 8316SOL     OW25846   0.280   2.069   2.074
 8316SOL    HW125847   0.345   2.144   2.078
 8316SOL    HW225848   0.327   1.985   2.048
 8317SOL     OW25849   2.089   2.388   2.651
 8317SOL    HW125850   2.188   2.389   2.636
 8317SOL    HW225851   2.060   2.477   2.688
 8318SOL     OW25852   4.445   1.188   4.709
 8318SOL    HW125853   4.419   1.168   4.615
 8318SOL    HW225854   4.443   1.286   4.725
 8319SOL     OW25855   2.306   1.551   6.407
 8319SOL    HW125856   2.260   1.474   6.361
 8319SOL    HW225857   2.394   1.568   6.364
 8320SOL     OW25858   3.154   3.240   1.548
 8320SOL    HW125859   3.066   3.202   1.519
 8320SOL    HW225860   3.140   3.298   1.628
 8321SOL     OW25861   0.161   0.648   0.148
 8321SOL    HW125862   0.104   0.621   0.226
 8321SOL    HW225863   0.183   0.745   0.155
 8322SOL     OW25864   0.411   0.402   0.797
 8322SOL    HW125865   0.452   0.429   0.709
 8322SOL    HW225866   0.352   0.323   0.783
 8323SOL     OW25867   5.905   5.777   2.402
 8323SOL    HW125868   5.884   5.680   2.385
 8323SOL    HW225869   5.824   5.823   2.436
 8324SOL     OW25870   5.367   0.348   1.511
 8324SOL    HW125871   5.465   0.365   1.503
 8324SOL    HW225872   5.322   0.370   1.425
 8325SOL     OW25873   2.928   3.292   5.475
 8325SOL    HW125874   2.902   3.293   5.378
 8325SOL    HW225875   2.986   3.370   5.495
 8326SOL     OW25876   5.589   3.415   5.800
 8326SOL    HW125877   5.600   3.431   5.702
 8326SOL    HW225878   5.506   3.461   5.833
 8327SOL     OW25879   6.089   1.335   6.259
 8327SOL    HW125880   6.175   1.365   6.218
 8327SOL    HW225881   6.107   1.262   6.325
 8328SOL     OW25882   2.513   4.970   5.471
 8328SOL    HW125883   2.442   4.947   5.405
 8328SOL    HW225884   2.600   4.930   5.442
 8329SOL     OW25885   0.718   3.264   6.417
 8329SOL    HW125886   0.721   3.350   6.467
 8329SOL    HW225887   0.670   3.277   6.330
 8330SOL     OW25888   2.580   6.971   0.367
 8330SOL    HW125889   2.589   6.949   0.270
 8330SOL    HW225890   2.652   0.012   0.394
 8331SOL     OW25891   3.002   1.818   1.718
 8331SOL    HW125892   2.920   1.768   1.689
 8331SOL    HW225893   3.035   1.875   1.643
 8332SOL     OW25894   5.264   5.260   2.453
 8332SOL    HW125895   5.286   5.259   2.551
 8332SOL    HW225896   5.316   5.188   2.407
 8333SOL     OW25897   0.761   6.623   6.309
 8333SOL    HW125898   0.676   6.577   6.336
 8333SOL    HW225899   0.739   6.702   6.253
 8334SOL     OW25900   3.915   1.832   3.892
 8334SOL    HW125901   3.996   1.841   3.950
 8334SOL    HW225902   3.921   1.747   3.840
 8335SOL     OW25903   6.316   6.259   6.814
 8335SOL    HW125904   6.319   6.278   6.716
 8335SOL    HW225905   6.275   6.169   6.830
 8336SOL     OW25906   6.337   6.219   3.133
 8336SOL    HW125907   6.258   6.169   3.099
 8336SOL    HW225908   6.332   6.315   3.103
 8337SOL     OW25909   1.423   5.972   2.850
 8337SOL    HW125910   1.398   6.067   2.866
 8337SOL    HW225911   1.448   5.929   2.937
 8338SOL     OW25912   2.152   5.174   1.685
 8338SOL    HW125913   2.219   5.235   1.727
 8338SOL    HW225914   2.066   5.179   1.735
 8339SOL     OW25915   5.765   0.342   1.691
 8339SOL    HW125916   5.716   0.422   1.727
 8339SOL    HW225917   5.863   0.357   1.699
 8340SOL     OW25918   5.220   3.195   1.384
 8340SOL    HW125919   5.157   3.128   1.424
 8340SOL    HW225920   5.291   3.147   1.332
 8341SOL     OW25921   1.855   6.079   6.909
 8341SOL    HW125922   1.899   6.169   6.909
 8341SOL    HW225923   1.782   6.077   6.977
 8342SOL     OW25924   4.289   0.393   2.076
 8342SOL    HW125925   4.229   0.314   2.077
 8342SOL    HW225926   4.356   0.384   2.002
 8343SOL     OW25927   0.985   5.287   6.089
 8343SOL    HW125928   0.904   5.344   6.080
 8343SOL    HW225929   0.984   5.242   6.179
 8344SOL     OW25930   4.064   6.666   4.928
 8344SOL    HW125931   3.966   6.660   4.949
 8344SOL    HW225932   4.080   6.632   4.836
 8345SOL     OW25933   4.755   1.728   3.314
 8345SOL    HW125934   4.678   1.730   3.250
 8345SOL    HW225935   4.814   1.807   3.297
 8346SOL     OW25936   2.675   4.555   0.783
 8346SOL    HW125937   2.663   4.471   0.730
 8346SOL    HW225938   2.645   4.539   0.877
 8347SOL     OW25939   3.328   5.247   4.917
 8347SOL    HW125940   3.249   5.275   4.972
 8347SOL    HW225941   3.402   5.314   4.928
 8348SOL     OW25942   1.611   6.316   2.405
 8348SOL    HW125943   1.610   6.292   2.308
 8348SOL    HW225944   1.535   6.272   2.452
 8349SOL     OW25945   5.613   6.675   1.391
 8349SOL    HW125946   5.633   6.612   1.466
 8349SOL    HW225947   5.518   6.705   1.398
 8350SOL     OW25948   4.729   0.644   4.905
 8350SOL    HW125949   4.823   0.677   4.902
 8350SOL    HW225950   4.669   0.711   4.860
 8351SOL     OW25951   4.560   4.821   3.905
 8351SOL    HW125952   4.565   4.854   3.811
 8351SOL    HW225953   4.575   4.897   3.969
 8352SOL     OW25954   0.160   6.188   3.361
 8352SOL    HW125955   0.141   6.201   3.264
 8352SOL    HW225956   0.244   6.135   3.372
 8353SOL     OW25957   6.756   3.684   1.369
 8353SOL    HW125958   6.765   3.746   1.291
 8353SOL    HW225959   6.714   3.734   1.445
 8354SOL     OW25960   3.699   0.089   6.731
 8354SOL    HW125961   3.790   0.062   6.700
 8354SOL    HW225962   3.708   0.161   6.800
 8355SOL     OW25963   3.033   0.827   6.572
 8355SOL    HW125964   3.044   0.761   6.498
 8355SOL    HW225965   2.943   0.869   6.567
 8356SOL     OW25966   1.458   6.494   1.035
 8356SOL    HW125967   1.510   6.516   0.952
 8356SOL    HW225968   1.498   6.415   1.080
 8357SOL     OW25969   3.673   0.626   5.254
 8357SOL    HW125970   3.619   0.699   5.298
 8357SOL    HW225971   3.674   0.641   5.155
 8358SOL     OW25972   1.193   3.843   5.594
 8358SOL    HW125973   1.253   3.918   5.620
 8358SOL    HW225974   1.245   3.774   5.543
 8359SOL     OW25975   2.732   6.796   5.144
 8359SOL    HW125976   2.685   6.710   5.124
 8359SOL    HW225977   2.664   6.865   5.172
 8360SOL     OW25978   3.638   6.173   1.075
 8360SOL    HW125979   3.546   6.164   1.113
 8360SOL    HW225980   3.657   6.270   1.057
 8361SOL     OW25981   2.854   6.941   2.642
 8361SOL    HW125982   2.841   6.858   2.587
 8361SOL    HW225983   2.772   6.957   2.697
 8362SOL     OW25984   3.411   2.194   1.031
 8362SOL    HW125985   3.402   2.213   1.129
 8362SOL    HW225986   3.364   2.266   0.979
 8363SOL     OW25987   0.555   2.392   6.972
 8363SOL    HW125988   0.547   2.294   6.988
 8363SOL    HW225989   0.467   2.429   6.943
 8364SOL     OW25990   0.246   2.973   2.166
 8364SOL    HW125991   0.297   3.058   2.181
 8364SOL    HW225992   0.152   2.994   2.139
 8365SOL     OW25993   2.322   3.977   1.746
 8365SOL    HW125994   2.263   4.000   1.823
 8365SOL    HW225995   2.360   3.885   1.759
 8366SOL     OW25996   2.524   6.007   2.280
 8366SOL    HW125997   2.513   6.098   2.321
 8366SOL    HW225998   2.480   6.006   2.190
 8367SOL     OW25999   4.013   6.177   4.145
 8367SOL    HW126000   4.017   6.077   4.147
 8367SOL    HW226001   4.093   6.213   4.097
 8368SOL     OW26002   2.353   6.641   6.214
 8368SOL    HW126003   2.384   6.617   6.306
 8368SOL    HW226004   2.323   6.558   6.166
 8369SOL     OW26005   2.180   6.835   6.463
 8369SOL    HW126006   2.264   6.883   6.489
 8369SOL    HW226007   2.163   6.848   6.365
 8370SOL     OW26008   2.589   2.533   5.131
 8370SOL    HW126009   2.536   2.611   5.165
 8370SOL    HW226010   2.599   2.465   5.204
 8371SOL     OW26011   1.985   4.723   1.477
 8371SOL    HW126012   2.082   4.702   1.467
 8371SOL    HW226013   1.958   4.789   1.406
 8372SOL     OW26014   0.383   5.541   2.898
 8372SOL    HW126015   0.464   5.512   2.948
 8372SOL    HW226016   0.364   5.475   2.825
 8373SOL     OW26017   1.403   0.242   3.622
 8373SOL    HW126018   1.383   0.308   3.695
 8373SOL    HW226019   1.501   0.229   3.615
 8374SOL     OW26020   0.037   1.047   5.867
 8374SOL    HW126021   7.008   1.131   5.847
 8374SOL    HW226022   0.117   1.069   5.922
 8375SOL     OW26023   3.996   6.988   5.552
 8375SOL    HW126024   4.072   6.996   5.616
 8375SOL    HW226025   4.031   6.963   5.461
 8376SOL     OW26026   1.782   0.532   3.735
 8376SOL    HW126027   1.731   0.471   3.795
 8376SOL    HW226028   1.733   0.542   3.648
 8377SOL     OW26029   5.484   5.880   1.340
 8377SOL    HW126030   5.510   5.976   1.341
 8377SOL    HW226031   5.482   5.844   1.433
 8378SOL     OW26032   4.159   5.132   2.651
 8378SOL    HW126033   4.234   5.140   2.585
 8378SOL    HW226034   4.187   5.175   2.737
 8379SOL     OW26035   6.158   2.315   1.413
 8379SOL    HW126036   6.061   2.316   1.391
 8379SOL    HW226037   6.176   2.247   1.484
 8380SOL     OW26038   6.987   0.799   2.325
 8380SOL    HW126039   6.900   0.763   2.357
 8380SOL    HW226040   7.020   0.867   2.389
 8381SOL     OW26041   0.115   3.476   5.235
 8381SOL    HW126042   0.118   3.495   5.137
 8381SOL    HW226043   0.071   3.388   5.250
 8382SOL     OW26044   2.240   0.536   2.216
 8382SOL    HW126045   2.326   0.578   2.188
 8382SOL    HW226046   2.209   0.578   2.302
 8383SOL     OW26047   2.556   0.189   5.786
 8383SOL    HW126048   2.617   0.128   5.735
 8383SOL    HW226049   2.539   0.152   5.877
 8384SOL     OW26050   0.240   0.733   0.632
 8384SOL    HW126051   0.210   0.682   0.713
 8384SOL    HW226052   0.175   0.805   0.611
 8385SOL     OW26053   6.115   2.133   1.639
 8385SOL    HW126054   6.058   2.207   1.675
 8385SOL    HW226055   6.171   2.096   1.712
 8386SOL     OW26056   1.274   4.457   2.015
 8386SOL    HW126057   1.220   4.453   2.099
 8386SOL    HW226058   1.295   4.365   1.983
 8387SOL     OW26059   1.770   0.853   2.087
 8387SOL    HW126060   1.844   0.854   2.019
 8387SOL    HW226061   1.753   0.947   2.119
 8388SOL     OW26062   1.693   6.071   0.129
 8388SOL    HW126063   1.708   5.972   0.128
 8388SOL    HW226064   1.617   6.092   0.189
 8389SOL     OW26065   6.389   3.391   2.707
 8389SOL    HW126066   6.338   3.346   2.634
 8389SOL    HW226067   6.349   3.368   2.796
 8390SOL     OW26068   4.079   0.581   6.305
 8390SOL    HW126069   4.052   0.673   6.278
 8390SOL    HW226070   4.140   0.542   6.235
 8391SOL     OW26071   6.294   5.515   0.841
 8391SOL    HW126072   6.265   5.530   0.936
 8391SOL    HW226073   6.357   5.587   0.814
 8392SOL     OW26074   6.746   3.747   4.239
 8392SOL    HW126075   6.664   3.739   4.295
 8392SOL    HW226076   6.800   3.663   4.245
 8393SOL     OW26077   6.332   0.624   2.784
 8393SOL    HW126078   6.341   0.643   2.687
 8393SOL    HW226079   6.416   0.580   2.817
 8394SOL     OW26080   6.330   2.637   1.145
 8394SOL    HW126081   6.272   2.683   1.078
 8394SOL    HW226082   6.378   2.561   1.101
 8395SOL     OW26083   2.720   6.554   5.629
 8395SOL    HW126084   2.812   6.523   5.604
 8395SOL    HW226085   2.665   6.476   5.658
 8396SOL     OW26086   4.593   5.077   3.400
 8396SOL    HW126087   4.539   5.115   3.324
 8396SOL    HW226088   4.619   4.983   3.378
 8397SOL     OW26089   1.004   0.874   2.839
 8397SOL    HW126090   1.046   0.790   2.873
 8397SOL    HW226091   0.917   0.852   2.794
 8398SOL     OW26092   4.586   2.727   6.310
 8398SOL    HW126093   4.674   2.681   6.313
 8398SOL    HW226094   4.599   2.825   6.317
 8399SOL     OW26095   6.349   0.168   6.520
 8399SOL    HW126096   6.270   0.124   6.477
 8399SOL    HW226097   6.433   0.125   6.487
 8400SOL     OW26098   2.244   1.909   4.060
 8400SOL    HW126099   2.339   1.880   4.049
 8400SOL    HW226100   2.191   1.883   3.980
 8401SOL     OW26101   2.470   1.158   5.135
 8401SOL    HW126102   2.407   1.211   5.192
 8401SOL    HW226103   2.437   1.158   5.040
 8402SOL     OW26104   5.285   1.980   6.495
 8402SOL    HW126105   5.283   1.992   6.396
 8402SOL    HW226106   5.233   1.898   6.519
 8403SOL     OW26107   6.999   3.667   4.512
 8403SOL    HW126108   0.020   3.623   4.433
 8403SOL    HW226109   6.917   3.617   4.537
 8404SOL     OW26110   3.582   0.004   5.634
 8404SOL    HW126111   3.559   6.934   5.603
 8404SOL    HW226112   3.641   0.048   5.567
 8405SOL     OW26113   2.582   1.268   5.593
 8405SOL    HW126114   2.659   1.275   5.531
 8405SOL    HW226115   2.510   1.212   5.552
 8406SOL     OW26116   4.338   0.653   0.371
 8406SOL    HW126117   4.374   0.640   0.279
 8406SOL    HW226118   4.375   0.582   0.431
 8407SOL     OW26119   4.200   6.435   3.568
 8407SOL    HW126120   4.243   6.439   3.659
 8407SOL    HW226121   4.106   6.402   3.577
 8408SOL     OW26122   5.464   4.047   1.172
 8408SOL    HW126123   5.440   3.952   1.154
 8408SOL    HW226124   5.450   4.101   1.088
 8409SOL     OW26125   5.018   2.140   3.287
 8409SOL    HW126126   4.999   2.049   3.251
 8409SOL    HW226127   5.103   2.175   3.247
 8410SOL     OW26128   6.228   0.748   1.333
 8410SOL    HW126129   6.319   0.706   1.340
 8410SOL    HW226130   6.232   0.826   1.271
 8411SOL     OW26131   0.435   6.249   0.819
 8411SOL    HW126132   0.341   6.282   0.809
 8411SOL    HW226133   0.434   6.152   0.844
 8412SOL     OW26134   3.730   2.666   1.262
 8412SOL    HW126135   3.778   2.739   1.311
 8412SOL    HW226136   3.640   2.652   1.303
 8413SOL     OW26137   4.862   6.073   6.379
 8413SOL    HW126138   4.887   5.993   6.434
 8413SOL    HW226139   4.764   6.089   6.387
 8414SOL     OW26140   2.994   0.087   3.630
 8414SOL    HW126141   2.967   0.181   3.652
 8414SOL    HW226142   2.960   0.025   3.701
 8415SOL     OW26143   0.602   5.914   4.466
 8415SOL    HW126144   0.638   5.911   4.560
 8415SOL    HW226145   0.646   5.842   4.412
 8416SOL     OW26146   6.520   1.635   3.980
 8416SOL    HW126147   6.542   1.542   3.952
 8416SOL    HW226148   6.433   1.636   4.029
 8417SOL     OW26149   0.720   3.518   5.708
 8417SOL    HW126150   0.677   3.537   5.620
 8417SOL    HW226151   0.816   3.496   5.694
 8418SOL     OW26152   6.593   5.360   1.485
 8418SOL    HW126153   6.573   5.457   1.477
 8418SOL    HW226154   6.567   5.314   1.400
 8419SOL     OW26155   5.487   0.530   2.192
 8419SOL    HW126156   5.463   0.627   2.194
 8419SOL    HW226157   5.517   0.505   2.100
 8420SOL     OW26158   4.031   0.121   1.740
 8420SOL    HW126159   4.089   0.057   1.689
 8420SOL    HW226160   3.988   0.073   1.817
 8421SOL     OW26161   3.075   4.999   0.390
 8421SOL    HW126162   3.088   4.915   0.337
 8421SOL    HW226163   2.981   5.003   0.423
 8422SOL     OW26164   4.707   1.320   2.130
 8422SOL    HW126165   4.680   1.401   2.078
 8422SOL    HW226166   4.777   1.346   2.197
 8423SOL     OW26167   4.350   4.256   5.986
 8423SOL    HW126168   4.296   4.236   5.905
 8423SOL    HW226169   4.289   4.273   6.064
 8424SOL     OW26170   2.034   2.164   2.801
 8424SOL    HW126171   2.059   2.245   2.749
 8424SOL    HW226172   1.934   2.160   2.811
 8425SOL     OW26173   4.213   3.854   6.072
 8425SOL    HW126174   4.271   3.888   6.146
 8425SOL    HW226175   4.167   3.931   6.027
 8426SOL     OW26176   3.588   3.499   2.694
 8426SOL    HW126177   3.656   3.558   2.737
 8426SOL    HW226178   3.509   3.554   2.666
 8427SOL     OW26179   3.647   4.128   3.692
 8427SOL    HW126180   3.595   4.087   3.616
 8427SOL    HW226181   3.598   4.209   3.724
 8428SOL     OW26182   0.037   6.248   1.334
 8428SOL    HW126183   7.008   6.331   1.311
 8428SOL    HW226184   0.132   6.272   1.355
 8429SOL     OW26185   1.449   5.550   5.701
 8429SOL    HW126186   1.436   5.628   5.763
 8429SOL    HW226187   1.387   5.476   5.726
 8430SOL     OW26188   3.743   4.977   3.678
 8430SOL    HW126189   3.734   4.963   3.580
 8430SOL    HW226190   3.833   4.947   3.709
 8431SOL     OW26191   4.230   3.866   0.110
 8431SOL    HW126192   4.237   3.965   0.115
 8431SOL    HW226193   4.134   3.840   0.094
 8432SOL     OW26194   6.165   5.705   5.653
 8432SOL    HW126195   6.105   5.699   5.732
 8432SOL    HW226196   6.115   5.676   5.571
 8433SOL     OW26197   4.093   3.058   0.261
 8433SOL    HW126198   4.136   3.027   0.177
 8433SOL    HW226199   4.005   3.012   0.273
 8434SOL     OW26200   2.710   7.014   4.324
 8434SOL    HW126201   2.766   0.046   4.387
 8434SOL    HW226202   2.615   7.013   4.356
 8435SOL     OW26203   5.588   0.189   2.603
 8435SOL    HW126204   5.586   0.252   2.525
 8435SOL    HW226205   5.571   0.096   2.570
 8436SOL     OW26206   3.547   6.571   3.713
 8436SOL    HW126207   3.461   6.525   3.689
 8436SOL    HW226208   3.594   6.520   3.784
 8437SOL     OW26209   2.380   2.311   3.092
 8437SOL    HW126210   2.403   2.352   3.004
 8437SOL    HW226211   2.317   2.235   3.077
 8438SOL     OW26212   2.329   4.443   3.264
 8438SOL    HW126213   2.406   4.494   3.303
 8438SOL    HW226214   2.269   4.412   3.337
 8439SOL     OW26215   6.287   4.544   2.095
 8439SOL    HW126216   6.341   4.607   2.151
 8439SOL    HW226217   6.194   4.578   2.085
 8440SOL     OW26218   3.277   2.024   3.153
 8440SOL    HW126219   3.208   2.096   3.140
 8440SOL    HW226220   3.233   1.940   3.182
 8441SOL     OW26221   5.907   6.551   6.811
 8441SOL    HW126222   5.875   6.624   6.750
 8441SOL    HW226223   5.999   6.572   6.843
 8442SOL     OW26224   3.879   1.752   5.457
 8442SOL    HW126225   3.932   1.774   5.376
 8442SOL    HW226226   3.803   1.691   5.433
 8443SOL     OW26227   2.468   5.048   3.619
 8443SOL    HW126228   2.391   5.013   3.672
 8443SOL    HW226229   2.540   5.078   3.681
 8444SOL     OW26230   3.388   6.465   4.008
 8444SOL    HW126231   3.370   6.493   3.913
 8444SOL    HW226232   3.404   6.546   4.064
 8445SOL     OW26233   2.562   0.109   0.795
 8445SOL    HW126234   2.498   0.122   0.719
 8445SOL    HW226235   2.560   0.190   0.854
 8446SOL     OW26236   6.138   5.220   5.914
 8446SOL    HW126237   6.229   5.260   5.927
 8446SOL    HW226238   6.088   5.274   5.846
 8447SOL     OW26239   4.255   1.162   1.638
 8447SOL    HW126240   4.250   1.064   1.621
 8447SOL    HW226241   4.247   1.180   1.736
 8448SOL     OW26242   4.433   5.998   3.096
 8448SOL    HW126243   4.441   6.067   3.168
 8448SOL    HW226244   4.391   6.038   3.015
 8449SOL     OW26245   0.104   3.128   3.231
 8449SOL    HW126246   0.076   3.051   3.288
 8449SOL    HW226247   0.066   3.118   3.139
 8450SOL     OW26248   1.035   0.838   1.339
 8450SOL    HW126249   1.089   0.831   1.423
 8450SOL    HW226250   1.085   0.892   1.271
 8451SOL     OW26251   3.575   1.293   7.001
 8451SOL    HW126252   3.608   1.301   0.073
 8451SOL    HW226253   3.477   1.271   7.002
 8452SOL     OW26254   6.255   3.079   3.919
 8452SOL    HW126255   6.252   3.114   3.825
 8452SOL    HW226256   6.296   3.148   3.979
 8453SOL     OW26257   0.369   5.607   0.334
 8453SOL    HW126258   0.339   5.696   0.299
 8453SOL    HW226259   0.468   5.599   0.321
 8454SOL     OW26260   0.273   5.538   0.792
 8454SOL    HW126261   0.216   5.480   0.734
 8454SOL    HW226262   0.253   5.520   0.888
 8455SOL     OW26263   0.518   1.820   2.578
 8455SOL    HW126264   0.510   1.919   2.563
 8455SOL    HW226265   0.613   1.799   2.603
 8456SOL     OW26266   4.443   6.812   3.458
 8456SOL    HW126267   4.518   6.801   3.392
 8456SOL    HW226268   4.478   6.858   3.540
 8457SOL     OW26269   6.657   6.197   4.104
 8457SOL    HW126270   6.628   6.153   4.019
 8457SOL    HW226271   6.735   6.147   4.143
 8458SOL     OW26272   2.596   0.749   0.130
 8458SOL    HW126273   2.510   0.738   0.181
 8458SOL    HW226274   2.647   0.663   0.133
 8459SOL     OW26275   2.614   5.732   2.264
 8459SOL    HW126276   2.671   5.704   2.341
 8459SOL    HW226277   2.593   5.829   2.271
 8460SOL     OW26278   4.640   4.503   5.149
 8460SOL    HW126279   4.665   4.562   5.225
 8460SOL    HW226280   4.711   4.433   5.136
 8461SOL     OW26281   0.628   2.975   4.603
 8461SOL    HW126282   0.617   3.066   4.563
 8461SOL    HW226283   0.538   2.937   4.625
 8462SOL     OW26284   1.998   2.897   6.654
 8462SOL    HW126285   2.008   2.809   6.606
 8462SOL    HW226286   2.023   2.885   6.750
 8463SOL     OW26287   6.794   6.999   1.699
 8463SOL    HW126288   6.832   6.906   1.694
 8463SOL    HW226289   6.832   0.024   1.779
 8464SOL     OW26290   5.177   4.485   4.488
 8464SOL    HW126291   5.096   4.519   4.440
 8464SOL    HW226292   5.254   4.479   4.424
 8465SOL     OW26293   0.885   2.469   0.481
 8465SOL    HW126294   0.910   2.524   0.402
 8465SOL    HW226295   0.957   2.402   0.499
 8466SOL     OW26296   0.454   6.290   3.861
 8466SOL    HW126297   0.551   6.294   3.837
 8466SOL    HW226298   0.402   6.256   3.782
 8467SOL     OW26299   2.898   5.923   0.606
 8467SOL    HW126300   2.869   5.836   0.646
 8467SOL    HW226301   2.887   5.920   0.507
 8468SOL     OW26302   3.021   1.692   0.329
 8468SOL    HW126303   2.987   1.769   0.383
 8468SOL    HW226304   3.113   1.713   0.296
 8469SOL     OW26305   3.291   2.815   6.925
 8469SOL    HW126306   3.288   2.887   6.855
 8469SOL    HW226307   3.199   2.778   6.937
 8470SOL     OW26308   2.101   3.673   0.534
 8470SOL    HW126309   2.091   3.576   0.558
 8470SOL    HW226310   2.112   3.682   0.436
 8471SOL     OW26311   3.038   1.364   2.549
 8471SOL    HW126312   3.118   1.371   2.610
 8471SOL    HW226313   3.005   1.270   2.549
 8472SOL     OW26314   0.385   0.043   3.854
 8472SOL    HW126315   0.399   0.081   3.945
 8472SOL    HW226316   0.356   0.115   3.791
 8473SOL     OW26317   6.959   5.542   6.990
 8473SOL    HW126318   6.980   5.477   0.041
 8473SOL    HW226319   6.925   5.627   0.008
 8474SOL     OW26320   3.504   2.931   2.263
 8474SOL    HW126321   3.443   2.996   2.216
 8474SOL    HW226322   3.478   2.925   2.359
 8475SOL     OW26323   0.267   1.165   3.326
 8475SOL    HW126324   0.335   1.096   3.354
 8475SOL    HW226325   0.291   1.253   3.366
 8476SOL     OW26326   6.638   0.750   1.125
 8476SOL    HW126327   6.573   0.688   1.169
 8476SOL    HW226328   6.652   0.721   1.030
 8477SOL     OW26329   3.845   6.145   1.675
 8477SOL    HW126330   3.820   6.081   1.602
 8477SOL    HW226331   3.874   6.232   1.635
 8478SOL     OW26332   1.813   0.548   6.061
 8478SOL    HW126333   1.865   0.633   6.067
 8478SOL    HW226334   1.733   0.562   6.003
 8479SOL     OW26335   6.520   2.702   0.762
 8479SOL    HW126336   6.610   2.721   0.721
 8479SOL    HW226337   6.469   2.788   0.772
 8480SOL     OW26338   3.252   0.930   0.486
 8480SOL    HW126339   3.171   0.987   0.470
 8480SOL    HW226340   3.231   0.864   0.558
 8481SOL     OW26341   4.495   1.363   3.806
 8481SOL    HW126342   4.447   1.451   3.804
 8481SOL    HW226343   4.470   1.310   3.724
 8482SOL     OW26344   3.291   7.009   2.824
 8482SOL    HW126345   3.255   6.921   2.852
 8482SOL    HW226346   3.389   7.001   2.807
 8483SOL     OW26347   4.294   5.620   1.714
 8483SOL    HW126348   4.270   5.532   1.755
 8483SOL    HW226349   4.337   5.678   1.783
 8484SOL     OW26350   6.573   4.907   3.195
 8484SOL    HW126351   6.533   4.951   3.115
 8484SOL    HW226352   6.646   4.844   3.166
 8485SOL     OW26353   2.956   3.534   6.737
 8485SOL    HW126354   2.894   3.609   6.759
 8485SOL    HW226355   3.049   3.569   6.726
 8486SOL     OW26356   5.159   1.642   3.203
 8486SOL    HW126357   5.114   1.572   3.259
 8486SOL    HW226358   5.204   1.708   3.263
 8487SOL     OW26359   5.839   0.254   0.752
 8487SOL    HW126360   5.918   0.206   0.714
 8487SOL    HW226361   5.851   0.353   0.740
 8488SOL     OW26362   5.631   5.069   4.970
 8488SOL    HW126363   5.609   4.976   4.941
 8488SOL    HW226364   5.718   5.069   5.020
 8489SOL     OW26365   6.485   0.696   1.462
 8489SOL    HW126366   6.517   0.784   1.496
 8489SOL    HW226367   6.467   0.635   1.539
 8490SOL     OW26368   4.207   6.257   3.999
 8490SOL    HW126369   4.216   6.193   3.923
 8490SOL    HW226370   4.229   6.349   3.967
 8491SOL     OW26371   2.150   0.343   1.447
 8491SOL    HW126372   2.206   0.273   1.491
 8491SOL    HW226373   2.057   0.309   1.436
 8492SOL     OW26374   4.584   4.289   6.325
 8492SOL    HW126375   4.560   4.367   6.267
 8492SOL    HW226376   4.625   4.217   6.268
 8493SOL     OW26377   3.003   1.870   6.554
 8493SOL    HW126378   3.086   1.923   6.570
 8493SOL    HW226379   2.923   1.930   6.556
 8494SOL     OW26380   2.366   4.777   0.219
 8494SOL    HW126381   2.321   4.771   0.308
 8494SOL    HW226382   2.337   4.702   0.161
 8495SOL     OW26383   6.890   3.683   0.264
 8495SOL    HW126384   6.802   3.728   0.284
 8495SOL    HW226385   6.964   3.735   0.305
 8496SOL     OW26386   0.473   1.864   1.992
 8496SOL    HW126387   0.528   1.788   1.959
 8496SOL    HW226388   0.507   1.950   1.953
 8497SOL     OW26389   6.790   0.299   4.482
 8497SOL    HW126390   6.783   0.214   4.535
 8497SOL    HW226391   6.885   0.316   4.459
 8498SOL     OW26392   0.450   6.055   2.845
 8498SOL    HW126393   0.523   6.114   2.811
 8498SOL    HW226394   0.452   5.968   2.797
 8499SOL     OW26395   2.272   5.549   6.738
 8499SOL    HW126396   2.178   5.525   6.713
 8499SOL    HW226397   2.270   5.617   6.811
 8500SOL     OW26398   1.901   0.973   5.747
 8500SOL    HW126399   1.816   0.942   5.789
 8500SOL    HW226400   1.973   0.977   5.816
 8501SOL     OW26401   1.458   2.526   0.599
 8501SOL    HW126402   1.485   2.465   0.674
 8501SOL    HW226403   1.482   2.483   0.512
 8502SOL     OW26404   1.779   4.791   1.237
 8502SOL    HW126405   1.705   4.853   1.209
 8502SOL    HW226406   1.858   4.804   1.177
 8503SOL     OW26407   1.230   5.832   2.671
 8503SOL    HW126408   1.300   5.899   2.697
 8503SOL    HW226409   1.151   5.880   2.632
 8504SOL     OW26410   1.990   6.517   3.612
 8504SOL    HW126411   1.951   6.426   3.620
 8504SOL    HW226412   1.964   6.572   3.691
 8505SOL     OW26413   4.894   3.797   3.752
 8505SOL    HW126414   4.868   3.892   3.764
 8505SOL    HW226415   4.896   3.751   3.841
 8506SOL     OW26416   0.410   0.630   1.006
 8506SOL    HW126417   0.456   0.569   0.942
 8506SOL    HW226418   0.433   0.604   1.100
 8507SOL     OW26419   3.379   0.771   5.491
 8507SOL    HW126420   3.345   0.685   5.526
 8507SOL    HW226421   3.303   0.834   5.476
 8508SOL     OW26422   0.149   2.384   4.513
 8508SOL    HW126423   0.238   2.344   4.536
 8508SOL    HW226424   0.162   2.475   4.473
 8509SOL     OW26425   5.431   1.180   4.099
 8509SOL    HW126426   5.340   1.155   4.132
 8509SOL    HW226427   5.437   1.162   4.000
 8510SOL     OW26428   5.433   4.486   3.120
 8510SOL    HW126429   5.428   4.449   3.027
 8510SOL    HW226430   5.358   4.550   3.135
 8511SOL     OW26431   5.625   3.507   1.492
 8511SOL    HW126432   5.720   3.477   1.496
 8511SOL    HW226433   5.586   3.482   1.403
 8512SOL     OW26434   2.741   2.267   0.154
 8512SOL    HW126435   2.780   2.175   0.150
 8512SOL    HW226436   2.792   2.322   0.220
 8513SOL     OW26437   4.763   3.902   1.383
 8513SOL    HW126438   4.727   3.954   1.305
 8513SOL    HW226439   4.843   3.849   1.354
 8514SOL     OW26440   2.754   2.361   3.729
 8514SOL    HW126441   2.797   2.450   3.749
 8514SOL    HW226442   2.707   2.328   3.811
 8515SOL     OW26443   6.234   0.919   6.786
 8515SOL    HW126444   6.221   1.016   6.807
 8515SOL    HW226445   6.225   0.865   6.870
 8516SOL     OW26446   6.463   2.613   1.994
 8516SOL    HW126447   6.479   2.686   2.060
 8516SOL    HW226448   6.438   2.653   1.906
 8517SOL     OW26449   2.078   2.322   5.689
 8517SOL    HW126450   2.141   2.354   5.618
 8517SOL    HW226451   2.102   2.364   5.776
 8518SOL     OW26452   4.989   4.514   6.073
 8518SOL    HW126453   4.935   4.594   6.046
 8518SOL    HW226454   4.960   4.483   6.163
 8519SOL     OW26455   1.037   5.568   1.247
 8519SOL    HW126456   1.088   5.485   1.269
 8519SOL    HW226457   1.003   5.563   1.153
 8520SOL     OW26458   2.791   2.755   6.598
 8520SOL    HW126459   2.782   2.758   6.498
 8520SOL    HW226460   2.854   2.681   6.623
 8521SOL     OW26461   2.276   5.274   5.866
 8521SOL    HW126462   2.360   5.329   5.867
 8521SOL    HW226463   2.290   5.191   5.920
 8522SOL     OW26464   0.695   6.796   1.599
 8522SOL    HW126465   0.711   6.751   1.687
 8522SOL    HW226466   0.630   6.871   1.611
 8523SOL     OW26467   2.064   6.298   6.893
 8523SOL    HW126468   2.065   6.397   6.909
 8523SOL    HW226469   2.031   6.251   6.974
 8524SOL     OW26470   0.368   3.158   5.736
 8524SOL    HW126471   0.338   3.063   5.722
 8524SOL    HW226472   0.461   3.158   5.772
 8525SOL     OW26473   6.356   5.042   1.648
 8525SOL    HW126474   6.390   4.974   1.582
 8525SOL    HW226475   6.259   5.057   1.633
 8526SOL     OW26476   3.340   6.235   0.946
 8526SOL    HW126477   3.382   6.293   0.876
 8526SOL    HW226478   3.376   6.142   0.937
 8527SOL     OW26479   2.952   0.938   6.881
 8527SOL    HW126480   2.875   0.971   6.827
 8527SOL    HW226481   2.959   0.839   6.872
 8528SOL     OW26482   3.965   1.203   0.140
 8528SOL    HW126483   4.030   1.194   0.215
 8528SOL    HW226484   3.890   1.137   0.152
 8529SOL     OW26485   0.757   0.413   0.348
 8529SOL    HW126486   0.772   0.493   0.405
 8529SOL    HW226487   0.710   0.441   0.264
 8530SOL     OW26488   4.201   3.820   5.181
 8530SOL    HW126489   4.181   3.887   5.109
 8530SOL    HW226490   4.165   3.731   5.155
 8531SOL     OW26491   7.014   4.941   2.951
 8531SOL    HW126492   0.023   4.916   2.859
 8531SOL    HW226493   0.066   4.926   3.016
 8532SOL     OW26494   4.188   5.740   4.680
 8532SOL    HW126495   4.212   5.832   4.650
 8532SOL    HW226496   4.093   5.721   4.657
 8533SOL     OW26497   2.016   5.932   0.273
 8533SOL    HW126498   1.939   5.870   0.264
 8533SOL    HW226499   2.033   5.977   0.186
 8534SOL     OW26500   5.221   2.086   4.483
 8534SOL    HW126501   5.212   2.182   4.458
 8534SOL    HW226502   5.131   2.042   4.480
 8535SOL     OW26503   5.738   1.290   3.468
 8535SOL    HW126504   5.791   1.215   3.507
 8535SOL    HW226505   5.770   1.310   3.375
 8536SOL     OW26506   0.235   1.494   4.667
 8536SOL    HW126507   0.250   1.462   4.760
 8536SOL    HW226508   0.172   1.572   4.668
 8537SOL     OW26509   5.383   0.766   3.266
 8537SOL    HW126510   5.347   0.756   3.173
 8537SOL    HW226511   5.354   0.688   3.321
 8538SOL     OW26512   1.587   0.843   0.337
 8538SOL    HW126513   1.677   0.834   0.294
 8538SOL    HW226514   1.564   0.759   0.385
 8539SOL     OW26515   6.594   1.213   3.081
 8539SOL    HW126516   6.580   1.247   2.988
 8539SOL    HW226517   6.506   1.212   3.129
 8540SOL     OW26518   5.758   0.527   6.568
 8540SOL    HW126519   5.823   0.590   6.611
 8540SOL    HW226520   5.680   0.513   6.629
 8541SOL     OW26521   3.259   2.108   3.556
 8541SOL    HW126522   3.322   2.082   3.482
 8541SOL    HW226523   3.170   2.132   3.517
 8542SOL     OW26524   4.169   5.087   6.405
 8542SOL    HW126525   4.233   5.039   6.465
 8542SOL    HW226526   4.109   5.021   6.360
 8543SOL     OW26527   2.271   1.837   1.316
 8543SOL    HW126528   2.303   1.931   1.299
 8543SOL    HW226529   2.258   1.791   1.228
 8544SOL     OW26530   5.414   3.645   4.628
 8544SOL    HW126531   5.492   3.648   4.566
 8544SOL    HW226532   5.382   3.738   4.645
 8545SOL     OW26533   4.201   0.533   5.451
 8545SOL    HW126534   4.291   0.575   5.462
 8545SOL    HW226535   4.197   0.485   5.364
 8546SOL     OW26536   5.724   2.082   4.617
 8546SOL    HW126537   5.682   2.170   4.640
 8546SOL    HW226538   5.794   2.095   4.547
 8547SOL     OW26539   0.738   6.586   5.520
 8547SOL    HW126540   0.673   6.525   5.567
 8547SOL    HW226541   0.763   6.660   5.582
 8548SOL     OW26542   6.159   2.400   5.638
 8548SOL    HW126543   6.127   2.433   5.549
 8548SOL    HW226544   6.106   2.444   5.711
 8549SOL     OW26545   0.565   3.429   4.205
 8549SOL    HW126546   0.545   3.363   4.277
 8549SOL    HW226547   0.658   3.465   4.219
 8550SOL     OW26548   1.932   4.945   6.731
 8550SOL    HW126549   1.916   5.043   6.718
 8550SOL    HW226550   2.027   4.923   6.711
 8551SOL     OW26551   3.936   3.652   5.790
 8551SOL    HW126552   3.963   3.589   5.863
 8551SOL    HW226553   3.916   3.600   5.707
 8552SOL     OW26554   2.857   6.633   3.850
 8552SOL    HW126555   2.817   6.716   3.810
 8552SOL    HW226556   2.927   6.658   3.916
 8553SOL     OW26557   4.946   5.145   6.219
 8553SOL    HW126558   4.858   5.102   6.239
 8553SOL    HW226559   4.930   5.237   6.182
 8554SOL     OW26560   1.020   5.252   0.233
 8554SOL    HW126561   1.046   5.339   0.190
 8554SOL    HW226562   1.093   5.222   0.295
 8555SOL     OW26563   0.872   0.103   2.878
 8555SOL    HW126564   0.803   0.172   2.899
 8555SOL    HW226565   0.915   0.072   2.962
 8556SOL     OW26566   0.702   6.683   3.943
 8556SOL    HW126567   0.762   6.629   3.885
 8556SOL    HW226568   0.629   6.724   3.888
 8557SOL     OW26569   6.230   1.046   2.456
 8557SOL    HW126570   6.283   1.079   2.378
 8557SOL    HW226571   6.240   0.946   2.463
 8558SOL     OW26572   2.692   6.110   3.279
 8558SOL    HW126573   2.680   6.063   3.366
 8558SOL    HW226574   2.603   6.127   3.238
 8559SOL     OW26575   6.660   0.725   2.289
 8559SOL    HW126576   6.562   0.741   2.300
 8559SOL    HW226577   6.704   0.725   2.379
 8560SOL     OW26578   0.075   6.872   1.897
 8560SOL    HW126579   0.017   6.953   1.900
 8560SOL    HW226580   0.160   6.893   1.848
 8561SOL     OW26581   3.624   6.506   1.699
 8561SOL    HW126582   3.721   6.531   1.688
 8561SOL    HW226583   3.588   6.475   1.612
 8562SOL     OW26584   4.887   5.900   4.929
 8562SOL    HW126585   4.877   5.962   5.007
 8562SOL    HW226586   4.968   5.843   4.942
 8563SOL     OW26587   2.887   4.123   6.933
 8563SOL    HW126588   2.852   4.034   6.905
 8563SOL    HW226589   2.921   4.118   0.005
 8564SOL     OW26590   2.830   1.405   3.460
 8564SOL    HW126591   2.740   1.366   3.438
 8564SOL    HW226592   2.829   1.504   3.444
 8565SOL     OW26593   4.805   6.642   1.827
 8565SOL    HW126594   4.857   6.609   1.747
 8565SOL    HW226595   4.708   6.645   1.804
 8566SOL     OW26596   1.197   0.642   1.651
 8566SOL    HW126597   1.203   0.588   1.567
 8566SOL    HW226598   1.279   0.627   1.706
 8567SOL     OW26599   6.809   1.873   2.668
 8567SOL    HW126600   6.885   1.839   2.613
 8567SOL    HW226601   6.760   1.795   2.708
 8568SOL     OW26602   4.854   1.399   5.707
 8568SOL    HW126603   4.800   1.323   5.669
 8568SOL    HW226604   4.906   1.366   5.785
 8569SOL     OW26605   5.244   1.667   5.516
 8569SOL    HW126606   5.183   1.746   5.523
 8569SOL    HW226607   5.189   1.584   5.507
 8570SOL     OW26608   0.868   2.554   5.269
 8570SOL    HW126609   0.798   2.597   5.212
 8570SOL    HW226610   0.843   2.563   5.365
 8571SOL     OW26611   0.666   5.079   6.122
 8571SOL    HW126612   0.661   5.175   6.150
 8571SOL    HW226613   0.577   5.049   6.089
 8572SOL     OW26614   3.219   5.202   6.526
 8572SOL    HW126615   3.269   5.209   6.613
 8572SOL    HW226616   3.151   5.275   6.522
 8573SOL     OW26617   3.342   0.046   6.409
 8573SOL    HW126618   3.355   0.007   6.500
 8573SOL    HW226619   3.286   0.129   6.416
 8574SOL     OW26620   0.265   5.572   5.898
 8574SOL    HW126621   0.349   5.623   5.882
 8574SOL    HW226622   0.203   5.585   5.820
 8575SOL     OW26623   3.293   2.535   6.017
 8575SOL    HW126624   3.202   2.539   5.976
 8575SOL    HW226625   3.285   2.518   6.115
 8576SOL     OW26626   0.873   6.533   0.433
 8576SOL    HW126627   0.930   6.537   0.515
 8576SOL    HW226628   0.928   6.503   0.355
 8577SOL     OW26629   6.551   5.479   4.325
 8577SOL    HW126630   6.485   5.490   4.250
 8577SOL    HW226631   6.530   5.546   4.397
 8578SOL     OW26632   4.427   0.412   4.567
 8578SOL    HW126633   4.501   0.473   4.540
 8578SOL    HW226634   4.391   0.440   4.656
 8579SOL     OW26635   1.415   6.429   3.713
 8579SOL    HW126636   1.493   6.489   3.733
 8579SOL    HW226637   1.389   6.438   3.617
 8580SOL     OW26638   1.945   6.625   2.390
 8580SOL    HW126639   1.857   6.607   2.433
 8580SOL    HW226640   1.950   6.722   2.364
 8581SOL     OW26641   3.531   3.003   1.678
 8581SOL    HW126642   3.496   3.005   1.585
 8581SOL    HW226643   3.630   2.987   1.676
 8582SOL     OW26644   4.237   4.683   2.077
 8582SOL    HW126645   4.162   4.629   2.039
 8582SOL    HW226646   4.203   4.738   2.153
 8583SOL     OW26647   5.683   1.000   5.995
 8583SOL    HW126648   5.760   1.033   5.939
 8583SOL    HW226649   5.673   1.058   6.075
 8584SOL     OW26650   0.370   3.709   6.379
 8584SOL    HW126651   0.302   3.762   6.430
 8584SOL    HW226652   0.327   3.671   6.297
 8585SOL     OW26653   0.323   6.809   5.900
 8585SOL    HW126654   0.280   6.838   5.985
 8585SOL    HW226655   0.273   6.847   5.822
 8586SOL     OW26656   2.754   6.879   3.775
 8586SOL    HW126657   2.664   6.883   3.819
 8586SOL    HW226658   2.821   6.929   3.830
 8587SOL     OW26659   1.591   0.231   2.744
 8587SOL    HW126660   1.542   0.291   2.807
 8587SOL    HW226661   1.545   0.231   2.655
 8588SOL     OW26662   2.470   0.797   6.702
 8588SOL    HW126663   2.510   0.848   6.778
 8588SOL    HW226664   2.498   0.701   6.707
 8589SOL     OW26665   4.765   2.956   4.481
 8589SOL    HW126666   4.784   2.860   4.502
 8589SOL    HW226667   4.702   2.993   4.549
 8590SOL     OW26668   6.363   6.111   4.391
 8590SOL    HW126669   6.348   6.101   4.293
 8590SOL    HW226670   6.291   6.062   4.441
 8591SOL     OW26671   1.308   5.337   6.149
 8591SOL    HW126672   1.308   5.296   6.058
 8591SOL    HW226673   1.292   5.266   6.218
 8592SOL     OW26674   0.075   4.306   0.305
 8592SOL    HW126675   7.003   4.317   0.271
 8592SOL    HW226676   0.094   4.209   0.320
 8593SOL     OW26677   0.974   0.146   2.632
 8593SOL    HW126678   0.912   0.113   2.703
 8593SOL    HW226679   0.922   0.175   2.552
 8594SOL     OW26680   3.701   3.333   5.138
 8594SOL    HW126681   3.607   3.330   5.104
 8594SOL    HW226682   3.755   3.262   5.092
 8595SOL     OW26683   2.269   1.762   2.965
 8595SOL    HW126684   2.273   1.860   2.945
 8595SOL    HW226685   2.349   1.717   2.926
 8596SOL     OW26686   5.912   6.022   2.971
 8596SOL    HW126687   6.011   6.022   2.962
 8596SOL    HW226688   5.883   6.094   3.034
 8597SOL     OW26689   4.667   1.911   1.012
 8597SOL    HW126690   4.747   1.928   1.069
 8597SOL    HW226691   4.622   1.828   1.043
 8598SOL     OW26692   0.017   5.753   1.702
 8598SOL    HW126693   6.947   5.783   1.674
 8598SOL    HW226694   0.026   5.655   1.689
 8599SOL     OW26695   0.739   3.231   4.091
 8599SOL    HW126696   0.642   3.209   4.095
 8599SOL    HW226697   0.751   3.326   4.064
 8600SOL     OW26698   5.414   5.235   6.614
 8600SOL    HW126699   5.358   5.153   6.625
 8600SOL    HW226700   5.481   5.241   6.688
 8601SOL     OW26701   1.399   0.632   5.310
 8601SOL    HW126702   1.464   0.706   5.327
 8601SOL    HW226703   1.314   0.650   5.360
 8602SOL     OW26704   2.881   6.168   2.820
 8602SOL    HW126705   2.955   6.163   2.888
 8602SOL    HW226706   2.821   6.245   2.841
 8603SOL     OW26707   3.240   4.597   0.067
 8603SOL    HW126708   3.166   4.552   0.017
 8603SOL    HW226709   3.324   4.544   0.059
 8604SOL     OW26710   6.976   2.575   3.316
 8604SOL    HW126711   0.047   2.589   3.350
 8604SOL    HW226712   6.918   2.540   3.390
 8605SOL     OW26713   3.227   4.863   4.024
 8605SOL    HW126714   3.146   4.861   4.083
 8605SOL    HW226715   3.253   4.770   4.001
 8606SOL     OW26716   2.359   4.472   5.576
 8606SOL    HW126717   2.446   4.519   5.587
 8606SOL    HW226718   2.363   4.413   5.495
 8607SOL     OW26719   3.391   4.923   0.662
 8607SOL    HW126720   3.406   4.942   0.565
 8607SOL    HW226721   3.358   4.830   0.673
 8608SOL     OW26722   4.100   5.048   3.295
 8608SOL    HW126723   4.050   4.998   3.224
 8608SOL    HW226724   4.186   5.002   3.315
 8609SOL     OW26725   4.392   0.589   3.792
 8609SOL    HW126726   4.344   0.503   3.809
 8609SOL    HW226727   4.490   0.576   3.809
 8610SOL     OW26728   1.641   0.704   3.099
 8610SOL    HW126729   1.708   0.630   3.110
 8610SOL    HW226730   1.685   0.782   3.055
 8611SOL     OW26731   2.029   2.571   3.795
 8611SOL    HW126732   1.944   2.617   3.770
 8611SOL    HW226733   2.060   2.605   3.884
 8612SOL     OW26734   3.125   3.245   0.017
 8612SOL    HW126735   3.089   3.235   6.946
 8612SOL    HW226736   3.122   3.156   0.064
 8613SOL     OW26737   2.609   2.401   1.897
 8613SOL    HW126738   2.692   2.405   1.952
 8613SOL    HW226739   2.536   2.451   1.943
 8614SOL     OW26740   0.393   2.990   2.611
 8614SOL    HW126741   0.327   2.963   2.542
 8614SOL    HW226742   0.485   2.987   2.572
 8615SOL     OW26743   4.817   1.693   5.332
 8615SOL    HW126744   4.725   1.677   5.368
 8615SOL    HW226745   4.814   1.763   5.261
 8616SOL     OW26746   1.602   5.416   1.300
 8616SOL    HW126747   1.676   5.465   1.347
 8616SOL    HW226748   1.570   5.471   1.223
 8617SOL     OW26749   6.474   1.327   6.866
 8617SOL    HW126750   6.492   1.293   6.958
 8617SOL    HW226751   6.391   1.382   6.866
 8618SOL     OW26752   5.305   6.790   0.778
 8618SOL    HW126753   5.382   6.731   0.801
 8618SOL    HW226754   5.223   6.757   0.824
 8619SOL     OW26755   3.363   5.198   1.493
 8619SOL    HW126756   3.325   5.134   1.560
 8619SOL    HW226757   3.288   5.239   1.440
 8620SOL     OW26758   6.377   0.044   3.215
 8620SOL    HW126759   6.384   0.138   3.248
 8620SOL    HW226760   6.395   0.041   3.117
 8621SOL     OW26761   5.811   2.147   3.494
 8621SOL    HW126762   5.855   2.084   3.557
 8621SOL    HW226763   5.874   2.221   3.471
 8622SOL     OW26764   4.783   4.338   0.586
 8622SOL    HW126765   4.873   4.360   0.548
 8622SOL    HW226766   4.713   4.390   0.537
 8623SOL     OW26767   0.786   3.924   3.321
 8623SOL    HW126768   0.769   3.834   3.362
 8623SOL    HW226769   0.884   3.941   3.318
 8624SOL     OW26770   0.407   3.792   3.532
 8624SOL    HW126771   0.371   3.700   3.544
 8624SOL    HW226772   0.387   3.823   3.439
 8625SOL     OW26773   5.217   6.803   4.847
 8625SOL    HW126774   5.144   6.741   4.875
 8625SOL    HW226775   5.192   6.897   4.874
 8626SOL     OW26776   3.669   2.933   5.089
 8626SOL    HW126777   3.661   2.897   4.996
 8626SOL    HW226778   3.578   2.960   5.121
 8627SOL     OW26779   0.495   0.353   3.489
 8627SOL    HW126780   0.475   0.364   3.392
 8627SOL    HW226781   0.576   0.295   3.501
 8628SOL     OW26782   6.192   6.671   1.729
 8628SOL    HW126783   6.240   6.689   1.644
 8628SOL    HW226784   6.097   6.700   1.721
 8629SOL     OW26785   1.802   5.490   5.090
 8629SOL    HW126786   1.876   5.532   5.144
 8629SOL    HW226787   1.805   5.391   5.104
 8630SOL     OW26788   6.230   4.003   4.650
 8630SOL    HW126789   6.178   4.084   4.678
 8630SOL    HW226790   6.220   3.988   4.552
 8631SOL     OW26791   3.373   5.528   6.545
 8631SOL    HW126792   3.379   5.430   6.563
 8631SOL    HW226793   3.279   5.552   6.520
 8632SOL     OW26794   3.669   6.434   3.906
 8632SOL    HW126795   3.742   6.365   3.900
 8632SOL    HW226796   3.621   6.424   3.993
 8633SOL     OW26797   5.123   1.275   4.657
 8633SOL    HW126798   5.030   1.255   4.625
 8633SOL    HW226799   5.188   1.214   4.612
 8634SOL     OW26800   5.696   2.942   0.518
 8634SOL    HW126801   5.619   2.880   0.525
 8634SOL    HW226802   5.713   2.984   0.607
 8635SOL     OW26803   6.143   4.543   6.352
 8635SOL    HW126804   6.043   4.541   6.346
 8635SOL    HW226805   6.182   4.536   6.261
 8636SOL     OW26806   5.205   5.793   0.303
 8636SOL    HW126807   5.137   5.787   0.230
 8636SOL    HW226808   5.162   5.834   0.384
 8637SOL     OW26809   2.309   1.240   0.308
 8637SOL    HW126810   2.267   1.324   0.273
 8637SOL    HW226811   2.259   1.210   0.389
 8638SOL     OW26812   2.065   3.573   6.759
 8638SOL    HW126813   2.009   3.520   6.823
 8638SOL    HW226814   2.008   3.605   6.683
 8639SOL     OW26815   6.116   1.962   1.899
 8639SOL    HW126816   6.080   2.002   1.983
 8639SOL    HW226817   6.212   1.988   1.888
 8640SOL     OW26818   4.819   3.797   0.381
 8640SOL    HW126819   4.737   3.759   0.340
 8640SOL    HW226820   4.890   3.727   0.384
 8641SOL     OW26821   6.784   4.734   4.153
 8641SOL    HW126822   6.695   4.689   4.162
 8641SOL    HW226823   6.824   4.712   4.064
 8642SOL     OW26824   3.897   0.955   2.450
 8642SOL    HW126825   3.980   0.992   2.408
 8642SOL    HW226826   3.819   0.974   2.389
 8643SOL     OW26827   3.993   0.153   0.223
 8643SOL    HW126828   4.043   0.153   0.137
 8643SOL    HW226829   4.038   0.214   0.288
 8644SOL     OW26830   4.314   2.488   6.057
 8644SOL    HW126831   4.334   2.408   6.114
 8644SOL    HW226832   4.398   2.540   6.044
 8645SOL     OW26833   5.404   4.434   1.055
 8645SOL    HW126834   5.451   4.388   0.980
 8645SOL    HW226835   5.341   4.371   1.099
 8646SOL     OW26836   6.648   1.664   1.219
 8646SOL    HW126837   6.719   1.616   1.270
 8646SOL    HW226838   6.570   1.682   1.279
 8647SOL     OW26839   2.968   5.305   6.127
 8647SOL    HW126840   2.993   5.232   6.191
 8647SOL    HW226841   3.051   5.355   6.100
 8648SOL     OW26842   5.841   0.865   4.363
 8648SOL    HW126843   5.913   0.849   4.431
 8648SOL    HW226844   5.882   0.871   4.272
 8649SOL     OW26845   5.951   4.941   6.836
 8649SOL    HW126846   5.864   4.944   6.887
 8649SOL    HW226847   5.932   4.951   6.739
 8650SOL     OW26848   1.463   4.298   5.259
 8650SOL    HW126849   1.490   4.214   5.304
 8650SOL    HW226850   1.465   4.286   5.160
 8651SOL     OW26851   3.660   0.555   0.797
 8651SOL    HW126852   3.594   0.501   0.849
 8651SOL    HW226853   3.653   0.651   0.825
 8652SOL     OW26854   1.058   3.755   3.476
 8652SOL    HW126855   0.976   3.702   3.456
 8652SOL    HW226856   1.076   3.819   3.401
 8653SOL     OW26857   5.711   1.301   5.671
 8653SOL    HW126858   5.620   1.261   5.680
 8653SOL    HW226859   5.720   1.344   5.581
 8654SOL     OW26860   1.546   6.053   1.877
 8654SOL    HW126861   1.533   5.973   1.935
 8654SOL    HW226862   1.462   6.072   1.826
 8655SOL     OW26863   5.644   0.689   4.233
 8655SOL    HW126864   5.691   0.752   4.296
 8655SOL    HW226865   5.576   0.740   4.180
 8656SOL     OW26866   6.710   1.070   0.845
 8656SOL    HW126867   6.692   1.153   0.898
 8656SOL    HW226868   6.781   1.016   0.891
 8657SOL     OW26869   4.412   4.799   6.476
 8657SOL    HW126870   4.321   4.797   6.517
 8657SOL    HW226871   4.481   4.788   6.547
 8658SOL     OW26872   4.483   6.294   6.853
 8658SOL    HW126873   4.402   6.292   6.912
 8658SOL    HW226874   4.548   6.362   6.888
 8659SOL     OW26875   4.246   1.132   3.159
 8659SOL    HW126876   4.213   1.200   3.224
 8659SOL    HW226877   4.290   1.057   3.208
 8660SOL     OW26878   5.846   3.502   0.799
 8660SOL    HW126879   5.921   3.555   0.840
 8660SOL    HW226880   5.884   3.433   0.737
 8661SOL     OW26881   5.799   3.860   1.035
 8661SOL    HW126882   5.789   3.813   0.947
 8661SOL    HW226883   5.734   3.823   1.101
 8662SOL     OW26884   5.067   5.886   1.476
 8662SOL    HW126885   5.006   5.850   1.406
 8662SOL    HW226886   5.139   5.940   1.433
 8663SOL     OW26887   2.299   6.064   1.047
 8663SOL    HW126888   2.381   6.121   1.056
 8663SOL    HW226889   2.228   6.116   0.999
 8664SOL     OW26890   3.399   6.045   1.162
 8664SOL    HW126891   3.390   6.003   1.072
 8664SOL    HW226892   3.416   5.974   1.231
 8665SOL     OW26893   5.481   5.932   5.600
 8665SOL    HW126894   5.388   5.967   5.607
 8665SOL    HW226895   5.518   5.915   5.691
 8666SOL     OW26896   4.848   1.705   4.974
 8666SOL    HW126897   4.932   1.735   5.019
 8666SOL    HW226898   4.871   1.653   4.892
 8667SOL     OW26899   4.410   2.216   3.294
 8667SOL    HW126900   4.397   2.149   3.220
 8667SOL    HW226901   4.424   2.306   3.254
 8668SOL     OW26902   5.815   3.017   2.975
 8668SOL    HW126903   5.880   3.005   3.050
 8668SOL    HW226904   5.835   3.103   2.927
 8669SOL     OW26905   2.609   6.531   6.722
 8669SOL    HW126906   2.586   6.581   6.806
 8669SOL    HW226907   2.664   6.451   6.744
 8670SOL     OW26908   3.709   4.436   5.653
 8670SOL    HW126909   3.664   4.363   5.705
 8670SOL    HW226910   3.665   4.445   5.564
 8671SOL     OW26911   5.583   1.986   3.045
 8671SOL    HW126912   5.614   2.048   2.973
 8671SOL    HW226913   5.619   2.016   3.133
 8672SOL     OW26914   2.491   5.522   3.443
 8672SOL    HW126915   2.479   5.443   3.503
 8672SOL    HW226916   2.513   5.602   3.498
 8673SOL     OW26917   6.904   1.973   6.707
 8673SOL    HW126918   6.836   1.994   6.778
 8673SOL    HW226919   6.882   1.886   6.665
 8674SOL     OW26920   6.218   5.377   1.902
 8674SOL    HW126921   6.229   5.474   1.922
 8674SOL    HW226922   6.304   5.340   1.866
 8675SOL     OW26923   3.869   1.904   4.976
 8675SOL    HW126924   3.779   1.940   4.952
 8675SOL    HW226925   3.908   1.856   4.898
 8676SOL     OW26926   4.159   6.999   3.164
 8676SOL    HW126927   4.124   0.016   3.249
 8676SOL    HW226928   4.111   6.913   3.144
 8677SOL     OW26929   2.513   6.584   5.429
 8677SOL    HW126930   2.576   6.595   5.506
 8677SOL    HW226931   2.426   6.548   5.462
 8678SOL     OW26932   0.647   0.397   1.244
 8678SOL    HW126933   0.712   0.452   1.298
 8678SOL    HW226934   0.695   0.358   1.165
 8679SOL     OW26935   6.714   3.299   4.414
 8679SOL    HW126936   6.722   3.203   4.387
 8679SOL    HW226937   6.640   3.309   4.481
 8680SOL     OW26938   0.656   4.292   1.600
 8680SOL    HW126939   0.752   4.317   1.614
 8680SOL    HW226940   0.640   4.200   1.636
 8681SOL     OW26941   4.387   5.019   0.146
 8681SOL    HW126942   4.381   5.087   0.219
 8681SOL    HW226943   4.463   4.957   0.165
 8682SOL     OW26944   4.417   6.700   1.668
 8682SOL    HW126945   4.329   6.681   1.713
 8682SOL    HW226946   4.470   6.616   1.663
 8683SOL     OW26947   1.441   2.348   2.446
 8683SOL    HW126948   1.499   2.321   2.369
 8683SOL    HW226949   1.497   2.356   2.529
 8684SOL     OW26950   0.647   2.757   4.819
 8684SOL    HW126951   0.615   2.834   4.764
 8684SOL    HW226952   0.743   2.739   4.799
 8685SOL     OW26953   1.074   2.992   5.511
 8685SOL    HW126954   1.043   2.911   5.461
 8685SOL    HW226955   1.158   2.971   5.561
 8686SOL     OW26956   0.239   1.592   1.474
 8686SOL    HW126957   0.188   1.627   1.553
 8686SOL    HW226958   0.306   1.660   1.445
 8687SOL     OW26959   3.299   5.678   2.975
 8687SOL    HW126960   3.364   5.708   3.045
 8687SOL    HW226961   3.208   5.674   3.016
 8688SOL     OW26962   3.344   6.534   6.813
 8688SOL    HW126963   3.272   6.572   6.755
 8688SOL    HW226964   3.361   6.439   6.787
 8689SOL     OW26965   3.600   4.507   0.615
 8689SOL    HW126966   3.566   4.593   0.577
 8689SOL    HW226967   3.698   4.513   0.630
 8690SOL     OW26968   2.196   2.574   3.054
 8690SOL    HW126969   2.277   2.536   3.099
 8690SOL    HW226970   2.223   2.646   2.990
 8691SOL     OW26971   3.484   2.474   6.676
 8691SOL    HW126972   3.580   2.449   6.688
 8691SOL    HW226973   3.445   2.504   6.763
 8692SOL     OW26974   3.788   2.132   2.941
 8692SOL    HW126975   3.698   2.165   2.969
 8692SOL    HW226976   3.858   2.180   2.993
 8693SOL     OW26977   6.419   1.418   0.821
 8693SOL    HW126978   6.502   1.381   0.779
 8693SOL    HW226979   6.362   1.460   0.751
 8694SOL     OW26980   3.853   1.383   5.149
 8694SOL    HW126981   3.940   1.421   5.182
 8694SOL    HW226982   3.777   1.428   5.196
 8695SOL     OW26983   4.283   3.123   6.128
 8695SOL    HW126984   4.350   3.190   6.096
 8695SOL    HW226985   4.212   3.169   6.181
 8696SOL     OW26986   2.813   5.666   0.658
 8696SOL    HW126987   2.831   5.597   0.728
 8696SOL    HW226988   2.866   5.645   0.576
 8697SOL     OW26989   6.605   3.337   6.872
 8697SOL    HW126990   6.574   3.262   6.813
 8697SOL    HW226991   6.528   3.376   6.922
 8698SOL     OW26992   5.997   5.548   4.391
 8698SOL    HW126993   5.929   5.564   4.462
 8698SOL    HW226994   5.962   5.580   4.303
 8699SOL     OW26995   1.844   2.938   5.725
 8699SOL    HW126996   1.902   2.890   5.791
 8699SOL    HW226997   1.819   2.876   5.651
 8700SOL     OW26998   0.921   0.690   4.866
 8700SOL    HW126999   0.863   0.771   4.860
 8700SOL    HW227000   1.015   0.714   4.840
 8701SOL     OW27001   1.564   0.253   6.752
 8701SOL    HW127002   1.543   0.277   6.847
 8701SOL    HW227003   1.646   0.196   6.749
 8702SOL     OW27004   5.281   4.424   0.422
 8702SOL    HW127005   5.309   4.473   0.505
 8702SOL    HW227006   5.348   4.440   0.350
 8703SOL     OW27007   2.774   5.499   1.267
 8703SOL    HW127008   2.872   5.488   1.281
 8703SOL    HW227009   2.747   5.593   1.285
 8704SOL     OW27010   6.357   3.911   3.030
 8704SOL    HW127011   6.342   3.911   2.931
 8704SOL    HW227012   6.434   3.851   3.052
 8705SOL     OW27013   5.474   0.478   0.761
 8705SOL    HW127014   5.571   0.501   0.772
 8705SOL    HW227015   5.444   0.419   0.836
 8706SOL     OW27016   4.905   1.886   6.481
 8706SOL    HW127017   4.818   1.835   6.488
 8706SOL    HW227018   4.977   1.823   6.453
 8707SOL     OW27019   6.308   1.840   6.904
 8707SOL    HW127020   6.303   1.938   6.925
 8707SOL    HW227021   6.361   1.827   6.819
 8708SOL     OW27022   4.130   2.239   2.196
 8708SOL    HW127023   4.210   2.293   2.172
 8708SOL    HW227024   4.148   2.142   2.180
 8709SOL     OW27025   6.854   6.004   6.696
 8709SOL    HW127026   6.868   5.906   6.692
 8709SOL    HW227027   6.756   6.024   6.704
 8710SOL     OW27028   2.158   3.278   3.354
 8710SOL    HW127029   2.200   3.235   3.434
 8710SOL    HW227030   2.117   3.365   3.381
 8711SOL     OW27031   0.609   5.394   3.044
 8711SOL    HW127032   0.599   5.456   3.122
 8711SOL    HW227033   0.554   5.312   3.059
 8712SOL     OW27034   4.011   1.805   4.458
 8712SOL    HW127035   4.109   1.806   4.437
 8712SOL    HW227036   3.961   1.853   4.386
 8713SOL     OW27037   0.100   4.353   3.608
 8713SOL    HW127038   0.087   4.320   3.702
 8713SOL    HW227039   0.197   4.375   3.594
 8714SOL     OW27040   0.750   1.576   6.138
 8714SOL    HW127041   0.817   1.576   6.212
 8714SOL    HW227042   0.700   1.663   6.138
 8715SOL     OW27043   5.527   6.919   1.097
 8715SOL    HW127044   5.482   7.006   1.115
 8715SOL    HW227045   5.562   6.918   1.004
 8716SOL     OW27046   0.820   0.092   1.195
 8716SOL    HW127047   0.876   0.010   1.205
 8716SOL    HW227048   0.724   0.069   1.206
 8717SOL     OW27049   3.803   3.216   3.082
 8717SOL    HW127050   3.852   3.159   3.148
 8717SOL    HW227051   3.771   3.158   3.006
 8718SOL     OW27052   0.173   3.509   4.970
 8718SOL    HW127053   0.073   3.503   4.965
 8718SOL    HW227054   0.204   3.591   4.924
 8719SOL     OW27055   2.127   6.918   6.209
 8719SOL    HW127056   2.089   6.846   6.150
 8719SOL    HW227057   2.066   6.997   6.209
 8720SOL     OW27058   6.536   4.832   5.213
 8720SOL    HW127059   6.612   4.884   5.251
 8720SOL    HW227060   6.533   4.741   5.255
 8721SOL     OW27061   6.199   2.254   3.472
 8721SOL    HW127062   6.233   2.160   3.465
 8721SOL    HW227063   6.246   2.311   3.405
 8722SOL     OW27064   4.010   0.934   0.224
 8722SOL    HW127065   3.997   0.939   0.323
 8722SOL    HW227066   4.108   0.934   0.204
 8723SOL     OW27067   5.014   5.170   0.897
 8723SOL    HW127068   5.033   5.081   0.938
 8723SOL    HW227069   4.960   5.225   0.960
 8724SOL     OW27070   5.589   6.779   5.660
 8724SOL    HW127071   5.657   6.712   5.630
 8724SOL    HW227072   5.574   6.769   5.759
 8725SOL     OW27073   2.004   0.528   6.341
 8725SOL    HW127074   2.048   0.492   6.423
 8725SOL    HW227075   2.074   0.561   6.277
 8726SOL     OW27076   6.309   0.825   1.764
 8726SOL    HW127077   6.231   0.841   1.703
 8726SOL    HW227078   6.390   0.872   1.729
 8727SOL     OW27079   6.807   6.258   1.848
 8727SOL    HW127080   6.821   6.179   1.908
 8727SOL    HW227081   6.856   6.337   1.886
 8728SOL     OW27082   3.824   0.666   4.274
 8728SOL    HW127083   3.895   0.599   4.296
 8728SOL    HW227084   3.736   0.619   4.266
 8729SOL     OW27085   4.558   5.804   3.792
 8729SOL    HW127086   4.596   5.820   3.701
 8729SOL    HW227087   4.632   5.790   3.858
 8730SOL     OW27088   6.642   4.501   2.526
 8730SOL    HW127089   6.644   4.472   2.622
 8730SOL    HW227090   6.560   4.465   2.482
 8731SOL     OW27091   2.289   2.055   2.240
 8731SOL    HW127092   2.245   2.049   2.329
 8731SOL    HW227093   2.223   2.036   2.168
 8732SOL     OW27094   5.579   3.863   1.567
 8732SOL    HW127095   5.593   3.775   1.521
 8732SOL    HW227096   5.492   3.862   1.616
 8733SOL     OW27097   1.785   5.703   2.465
 8733SOL    HW127098   1.768   5.647   2.546
 8733SOL    HW227099   1.840   5.651   2.399
 8734SOL     OW27100   0.998   4.657   1.904
 8734SOL    HW127101   1.058   4.735   1.921
 8734SOL    HW227102   1.011   4.588   1.975
 8735SOL     OW27103   0.772   1.616   0.124
 8735SOL    HW127104   0.717   1.534   0.140
 8735SOL    HW227105   0.753   1.653   0.033
 8736SOL     OW27106   0.376   6.537   5.864
 8736SOL    HW127107   0.342   6.533   5.771
 8736SOL    HW227108   0.351   6.625   5.906
 8737SOL     OW27109   2.373   0.024   5.632
 8737SOL    HW127110   2.445   6.977   5.645
 8737SOL    HW227111   2.406   0.113   5.662
 8738SOL     OW27112   2.101   5.195   4.363
 8738SOL    HW127113   2.033   5.132   4.400
 8738SOL    HW227114   2.064   5.241   4.283
 8739SOL     OW27115   6.409   5.643   6.443
 8739SOL    HW127116   6.426   5.584   6.364
 8739SOL    HW227117   6.482   5.709   6.453
 8740SOL     OW27118   5.075   0.606   5.037
 8740SOL    HW127119   5.063   0.511   5.068
 8740SOL    HW227120   5.036   0.668   5.106
 8741SOL     OW27121   2.474   0.865   1.845
 8741SOL    HW127122   2.396   0.837   1.788
 8741SOL    HW227123   2.538   0.917   1.789
 8742SOL     OW27124   5.565   6.154   1.345
 8742SOL    HW127125   5.549   6.190   1.436
 8742SOL    HW227126   5.549   6.225   1.277
 8743SOL     OW27127   1.673   0.492   2.165
 8743SOL    HW127128   1.736   0.521   2.237
 8743SOL    HW227129   1.662   0.393   2.167
 8744SOL     OW27130   3.764   2.284   5.971
 8744SOL    HW127131   3.688   2.305   6.033
 8744SOL    HW227132   3.776   2.185   5.966
 8745SOL     OW27133   6.095   2.542   5.901
 8745SOL    HW127134   6.155   2.490   5.962
 8745SOL    HW227135   6.119   2.639   5.905
 8746SOL     OW27136   4.853   3.919   5.067
 8746SOL    HW127137   4.824   3.823   5.068
 8746SOL    HW227138   4.943   3.927   5.109
 8747SOL     OW27139   0.239   2.463   2.923
 8747SOL    HW127140   0.260   2.488   3.017
 8747SOL    HW227141   0.295   2.518   2.861
 8748SOL     OW27142   0.399   1.586   5.819
 8748SOL    HW127143   0.301   1.573   5.804
 8748SOL    HW227144   0.428   1.531   5.897
 8749SOL     OW27145   3.108   0.213   6.427
 8749SOL    HW127146   3.090   0.126   6.473
 8749SOL    HW227147   3.084   0.206   6.330
 8750SOL     OW27148   3.452   3.366   5.439
 8750SOL    HW127149   3.493   3.455   5.458
 8750SOL    HW227150   3.522   3.304   5.404
 8751SOL     OW27151   6.079   0.054   2.915
 8751SOL    HW127152   6.173   0.064   2.883
 8751SOL    HW227153   6.024   0.010   2.843
 8752SOL     OW27154   2.676   4.998   6.689
 8752SOL    HW127155   2.589   5.045   6.704
 8752SOL    HW227156   2.724   4.987   6.776
 8753SOL     OW27157   4.573   1.654   5.147
 8753SOL    HW127158   4.653   1.683   5.094
 8753SOL    HW227159   4.553   1.559   5.127
 8754SOL     OW27160   1.062   2.293   5.009
 8754SOL    HW127161   1.056   2.391   4.989
 8754SOL    HW227162   1.157   2.263   4.998
 8755SOL     OW27163   2.441   1.056   6.152
 8755SOL    HW127164   2.412   0.962   6.134
 8755SOL    HW227165   2.360   1.115   6.154
 8756SOL     OW27166   2.142   3.452   3.077
 8756SOL    HW127167   2.136   3.541   3.032
 8756SOL    HW227168   2.149   3.465   3.176
 8757SOL     OW27169   5.198   6.744   5.729
 8757SOL    HW127170   5.165   6.805   5.657
 8757SOL    HW227171   5.250   6.798   5.796
 8758SOL     OW27172   4.476   6.357   1.903
 8758SOL    HW127173   4.548   6.296   1.937
 8758SOL    HW227174   4.440   6.412   1.979
 8759SOL     OW27175   3.754   2.375   0.165
 8759SOL    HW127176   3.791   2.464   0.139
 8759SOL    HW227177   3.667   2.361   0.118
 8760SOL     OW27178   1.664   1.873   4.931
 8760SOL    HW127179   1.646   1.778   4.959
 8760SOL    HW227180   1.760   1.882   4.904
 8761SOL     OW27181   4.594   1.368   1.757
 8761SOL    HW127182   4.514   1.386   1.700
 8761SOL    HW227183   4.605   1.270   1.769
 8762SOL     OW27184   0.520   4.101   2.387
 8762SOL    HW127185   0.452   4.029   2.400
 8762SOL    HW227186   0.611   4.065   2.407
 8763SOL     OW27187   6.063   5.540   6.081
 8763SOL    HW127188   6.022   5.514   6.169
 8763SOL    HW227189   6.022   5.486   6.008
 8764SOL     OW27190   4.639   0.615   4.562
 8764SOL    HW127191   4.679   0.674   4.491
 8764SOL    HW227192   4.708   0.595   4.631
 8765SOL     OW27193   6.073   6.621   5.182
 8765SOL    HW127194   6.057   6.598   5.277
 8765SOL    HW227195   6.030   6.709   5.161
 8766SOL     OW27196   4.124   5.260   2.904
 8766SOL    HW127197   4.193   5.333   2.906
 8766SOL    HW227198   4.035   5.298   2.882
 8767SOL     OW27199   3.853   0.109   3.134
 8767SOL    HW127200   3.921   0.171   3.094
 8767SOL    HW227201   3.761   0.139   3.109
 8768SOL     OW27202   1.101   3.174   0.612
 8768SOL    HW127203   1.201   3.169   0.614
 8768SOL    HW227204   1.063   3.082   0.608
 8769SOL     OW27205   1.421   6.740   3.822
 8769SOL    HW127206   1.340   6.726   3.878
 8769SOL    HW227207   1.410   6.823   3.767
 8770SOL     OW27208   4.867   4.108   2.037
 8770SOL    HW127209   4.959   4.145   2.021
 8770SOL    HW227210   4.872   4.034   2.103
 8771SOL     OW27211   1.419   0.480   5.725
 8771SOL    HW127212   1.321   0.499   5.720
 8771SOL    HW227213   1.437   0.388   5.691
 8772SOL     OW27214   5.482   6.603   6.845
 8772SOL    HW127215   5.481   6.549   6.761
 8772SOL    HW227216   5.553   6.568   6.906
 8773SOL     OW27217   4.563   2.495   3.888
 8773SOL    HW127218   4.487   2.479   3.951
 8773SOL    HW227219   4.640   2.437   3.913
 8774SOL     OW27220   2.706   1.844   0.857
 8774SOL    HW127221   2.752   1.758   0.836
 8774SOL    HW227222   2.708   1.904   0.777
 8775SOL     OW27223   6.402   0.490   5.449
 8775SOL    HW127224   6.402   0.581   5.491
 8775SOL    HW227225   6.487   0.443   5.471
 8776SOL     OW27226   3.215   4.034   4.377
 8776SOL    HW127227   3.256   4.092   4.448
 8776SOL    HW227228   3.235   4.072   4.287
 8777SOL     OW27229   0.035   4.005   1.315
 8777SOL    HW127230   0.107   3.939   1.335
 8777SOL    HW227231   0.016   4.059   1.398
 8778SOL     OW27232   6.204   2.282   4.819
 8778SOL    HW127233   6.213   2.185   4.797
 8778SOL    HW227234   6.153   2.328   4.746
 8779SOL     OW27235   2.887   5.272   2.094
 8779SOL    HW127236   2.834   5.314   2.020
 8779SOL    HW227237   2.891   5.334   2.172
 8780SOL     OW27238   0.950   5.238   3.709
 8780SOL    HW127239   0.850   5.244   3.699
 8780SOL    HW227240   0.980   5.303   3.778
 8781SOL     OW27241   6.361   1.314   4.014
 8781SOL    HW127242   6.330   1.376   4.087
 8781SOL    HW227243   6.461   1.310   4.014
 8782SOL     OW27244   5.484   0.538   1.922
 8782SOL    HW127245   5.574   0.566   1.892
 8782SOL    HW227246   5.423   0.530   1.843
 8783SOL     OW27247   6.569   4.417   3.672
 8783SOL    HW127248   6.476   4.385   3.686
 8783SOL    HW227249   6.567   4.511   3.637
 8784SOL     OW27250   5.620   3.851   5.593
 8784SOL    HW127251   5.578   3.935   5.628
 8784SOL    HW227252   5.577   3.826   5.506
 8785SOL     OW27253   6.565   3.370   6.555
 8785SOL    HW127254   6.616   3.388   6.639
 8785SOL    HW227255   6.468   3.361   6.577
 8786SOL     OW27256   2.658   6.382   0.530
 8786SOL    HW127257   2.655   6.476   0.563
 8786SOL    HW227258   2.601   6.374   0.448
 8787SOL     OW27259   1.821   3.044   2.174
 8787SOL    HW127260   1.896   3.008   2.229
 8787SOL    HW227261   1.735   3.001   2.202
 8788SOL     OW27262   6.956   2.327   5.555
 8788SOL    HW127263   6.993   2.331   5.648
 8788SOL    HW227264   0.007   2.348   5.489
 8789SOL     OW27265   5.980   6.684   5.873
 8789SOL    HW127266   5.988   6.770   5.823
 8789SOL    HW227267   5.887   6.648   5.863
 8790SOL     OW27268   6.990   1.242   0.090
 8790SOL    HW127269   0.015   1.327   0.111
 8790SOL    HW227270   6.960   1.243   7.016
 8791SOL     OW27271   5.473   6.828   4.859
 8791SOL    HW127272   5.373   6.821   4.865
 8791SOL    HW227273   5.514   6.737   4.869
 8792SOL     OW27274   3.686   6.038   3.843
 8792SOL    HW127275   3.741   5.965   3.801
 8792SOL    HW227276   3.611   6.063   3.782
 8793SOL     OW27277   1.718   5.473   4.026
 8793SOL    HW127278   1.801   5.514   3.988
 8793SOL    HW227279   1.715   5.490   4.125
 8794SOL     OW27280   4.131   6.882   1.634
 8794SOL    HW127281   4.194   6.934   1.692
 8794SOL    HW227282   4.054   6.849   1.689
 8795SOL     OW27283   1.089   6.514   4.721
 8795SOL    HW127284   1.183   6.485   4.706
 8795SOL    HW227285   1.073   6.527   4.819
 8796SOL     OW27286   3.794   0.417   4.897
 8796SOL    HW127287   3.732   0.434   4.821
 8796SOL    HW227288   3.815   0.504   4.943
 8797SOL     OW27289   1.388   0.053   5.128
 8797SOL    HW127290   1.468   0.068   5.070
 8797SOL    HW227291   1.411   7.007   5.198
 8798SOL     OW27292   5.022   5.215   4.925
 8798SOL    HW127293   5.070   5.166   4.997
 8798SOL    HW227294   4.971   5.150   4.869
 8799SOL     OW27295   1.703   4.147   3.586
 8799SOL    HW127296   1.756   4.064   3.567
 8799SOL    HW227297   1.700   4.203   3.504
 8800SOL     OW27298   6.001   4.130   5.127
 8800SOL    HW127299   5.963   4.046   5.166
 8800SOL    HW227300   6.028   4.192   5.201
 8801SOL     OW27301   1.184   1.477   4.520
 8801SOL    HW127302   1.131   1.395   4.499
 8801SOL    HW227303   1.135   1.558   4.490
 8802SOL     OW27304   1.836   0.329   0.315
 8802SOL    HW127305   1.866   0.362   0.226
 8802SOL    HW227306   1.738   0.309   0.311
 8803SOL     OW27307   0.285   5.266   5.620
 8803SOL    HW127308   0.299   5.169   5.599
 8803SOL    HW227309   0.256   5.275   5.715
 8804SOL     OW27310   3.040   0.225   1.579
 8804SOL    HW127311   2.986   0.146   1.606
 8804SOL    HW227312   3.106   0.247   1.650
 8805SOL     OW27313   2.289   0.402   4.313
 8805SOL    HW127314   2.256   0.346   4.237
 8805SOL    HW227315   2.389   0.404   4.312
 8806SOL     OW27316   1.817   5.014   1.723
 8806SOL    HW127317   1.800   4.922   1.757
 8806SOL    HW227318   1.821   5.013   1.623
 8807SOL     OW27319   6.751   6.604   6.259
 8807SOL    HW127320   6.660   6.602   6.218
 8807SOL    HW227321   6.794   6.692   6.240
 8808SOL     OW27322   5.453   2.205   0.954
 8808SOL    HW127323   5.403   2.178   1.036
 8808SOL    HW227324   5.456   2.127   0.891
 8809SOL     OW27325   5.077   4.773   2.879
 8809SOL    HW127326   5.113   4.735   2.795
 8809SOL    HW227327   5.144   4.764   2.952
 8810SOL     OW27328   5.440   1.119   6.243
 8810SOL    HW127329   5.371   1.189   6.227
 8810SOL    HW227330   5.395   1.033   6.267
 8811SOL     OW27331   3.200   1.788   3.266
 8811SOL    HW127332   3.272   1.722   3.249
 8811SOL    HW227333   3.111   1.746   3.250
 8812SOL     OW27334   2.078   0.498   1.159
 8812SOL    HW127335   2.158   0.501   1.219
 8812SOL    HW227336   1.996   0.477   1.214
 8813SOL     OW27337   1.204   4.443   1.591
 8813SOL    HW127338   1.205   4.345   1.612
 8813SOL    HW227339   1.109   4.473   1.578
 8814SOL     OW27340   6.302   0.833   0.539
 8814SOL    HW127341   6.353   0.752   0.508
 8814SOL    HW227342   6.335   0.913   0.490
 8815SOL     OW27343   6.169   6.254   0.566
 8815SOL    HW127344   6.075   6.234   0.595
 8815SOL    HW227345   6.208   6.323   0.627
 8816SOL     OW27346   2.281   0.831   0.390
 8816SOL    HW127347   2.298   0.774   0.310
 8816SOL    HW227348   2.187   0.817   0.422
 8817SOL     OW27349   0.888   6.232   5.470
 8817SOL    HW127350   0.910   6.212   5.565
 8817SOL    HW227351   0.901   6.330   5.453
 8818SOL     OW27352   0.058   2.719   3.999
 8818SOL    HW127353   0.148   2.687   4.030
 8818SOL    HW227354   7.010   2.653   4.027
 8819SOL     OW27355   4.300   5.536   4.524
 8819SOL    HW127356   4.289   5.446   4.564
 8819SOL    HW227357   4.281   5.606   4.593
 8820SOL     OW27358   2.389   1.576   4.473
 8820SOL    HW127359   2.478   1.620   4.479
 8820SOL    HW227360   2.330   1.627   4.411
 8821SOL     OW27361   2.877   6.190   0.260
 8821SOL    HW127362   2.902   6.210   0.165
 8821SOL    HW227363   2.932   6.245   0.322
 8822SOL     OW27364   0.802   0.032   3.884
 8822SOL    HW127365   0.778   0.114   3.937
 8822SOL    HW227366   0.856   0.060   3.804
 8823SOL     OW27367   2.208   0.865   0.817
 8823SOL    HW127368   2.214   0.872   0.917
 8823SOL    HW227369   2.134   0.804   0.792
 8824SOL     OW27370   1.512   3.362   1.400
 8824SOL    HW127371   1.530   3.392   1.307
 8824SOL    HW227372   1.555   3.424   1.465
 8825SOL     OW27373   1.957   0.106   3.436
 8825SOL    HW127374   1.977   0.161   3.354
 8825SOL    HW227375   2.012   0.139   3.512
 8826SOL     OW27376   6.656   2.832   0.213
 8826SOL    HW127377   6.755   2.830   0.231
 8826SOL    HW227378   6.629   2.924   0.184
 8827SOL     OW27379   3.580   1.386   2.983
 8827SOL    HW127380   3.503   1.322   2.978
 8827SOL    HW227381   3.556   1.471   2.937
 8828SOL     OW27382   4.305   5.575   4.892
 8828SOL    HW127383   4.288   5.612   4.801
 8828SOL    HW227384   4.400   5.542   4.898
 8829SOL     OW27385   0.111   2.250   0.334
 8829SOL    HW127386   0.141   2.155   0.327
 8829SOL    HW227387   0.037   2.256   0.401
 8830SOL     OW27388   0.445   1.333   1.246
 8830SOL    HW127389   0.366   1.394   1.255
 8830SOL    HW227390   0.427   1.265   1.176
 8831SOL     OW27391   5.238   0.685   3.579
 8831SOL    HW127392   5.288   0.768   3.603
 8831SOL    HW227393   5.143   0.693   3.610
 8832SOL     OW27394   6.523   5.921   2.775
 8832SOL    HW127395   6.614   5.945   2.810
 8832SOL    HW227396   6.467   6.003   2.766
 8833SOL     OW27397   2.285   6.464   5.549
 8833SOL    HW127398   2.267   6.410   5.631
 8833SOL    HW227399   2.199   6.491   5.506
 8834SOL     OW27400   5.382   3.077   4.433
 8834SOL    HW127401   5.305   3.087   4.371
 8834SOL    HW227402   5.357   3.112   4.523
 8835SOL     OW27403   6.024   1.489   5.915
 8835SOL    HW127404   5.938   1.444   5.938
 8835SOL    HW227405   6.012   1.545   5.833
 8836SOL     OW27406   4.544   1.597   6.455
 8836SOL    HW127407   4.519   1.667   6.389
 8836SOL    HW227408   4.546   1.508   6.410
 8837SOL     OW27409   0.168   6.021   2.973
 8837SOL    HW127410   0.144   5.928   3.002
 8837SOL    HW227411   0.263   6.023   2.941
 8838SOL     OW27412   3.058   4.854   2.747
 8838SOL    HW127413   2.993   4.836   2.673
 8838SOL    HW227414   3.010   4.859   2.834
 8839SOL     OW27415   5.125   5.563   1.882
 8839SOL    HW127416   5.145   5.467   1.861
 8839SOL    HW227417   5.136   5.618   1.799
 8840SOL     OW27418   6.451   1.777   1.939
 8840SOL    HW127419   6.488   1.687   1.961
 8840SOL    HW227420   6.376   1.798   2.002
 8841SOL     OW27421   1.362   0.479   4.919
 8841SOL    HW127422   1.440   0.530   4.882
 8841SOL    HW227423   1.329   0.524   5.002
 8842SOL     OW27424   3.008   3.171   1.979
 8842SOL    HW127425   3.039   3.257   2.020
 8842SOL    HW227426   3.088   3.120   1.947
 8843SOL     OW27427   1.882   3.242   5.080
 8843SOL    HW127428   1.976   3.215   5.060
 8843SOL    HW227429   1.872   3.255   5.179
 8844SOL     OW27430   5.933   1.874   6.881
 8844SOL    HW127431   6.014   1.931   6.876
 8844SOL    HW227432   5.851   1.931   6.888
 8845SOL     OW27433   4.586   3.930   6.696
 8845SOL    HW127434   4.492   3.958   6.679
 8845SOL    HW227435   4.598   3.909   6.793
 8846SOL     OW27436   2.786   5.735   3.365
 8846SOL    HW127437   2.722   5.714   3.439
 8846SOL    HW227438   2.880   5.724   3.398
 8847SOL     OW27439   3.170   1.026   2.719
 8847SOL    HW127440   3.227   1.083   2.660
 8847SOL    HW227441   3.174   0.931   2.686
 8848SOL     OW27442   2.597   0.167   1.972
 8848SOL    HW127443   2.693   0.146   1.995
 8848SOL    HW227444   2.570   0.251   2.019
 8849SOL     OW27445   3.220   5.910   2.774
 8849SOL    HW127446   3.240   5.848   2.850
 8849SOL    HW227447   3.300   5.920   2.715
 8850SOL     OW27448   1.814   1.921   0.354
 8850SOL    HW127449   1.770   1.849   0.301
 8850SOL    HW227450   1.760   2.005   0.348
 8851SOL     OW27451   1.834   4.075   2.467
 8851SOL    HW127452   1.810   4.002   2.404
 8851SOL    HW227453   1.831   4.163   2.419
 8852SOL     OW27454   0.941   1.911   4.541
 8852SOL    HW127455   0.940   1.889   4.639
 8852SOL    HW227456   0.849   1.938   4.512
 8853SOL     OW27457   2.918   0.480   1.594
 8853SOL    HW127458   2.982   0.404   1.585
 8853SOL    HW227459   2.865   0.489   1.509
 8854SOL     OW27460   2.083   3.475   4.755
 8854SOL    HW127461   1.986   3.451   4.764
 8854SOL    HW227462   2.091   3.567   4.716
 8855SOL     OW27463   6.633   5.395   1.174
 8855SOL    HW127464   6.727   5.397   1.206
 8855SOL    HW227465   6.629   5.356   1.082
 8856SOL     OW27466   0.600   6.216   6.587
 8856SOL    HW127467   0.549   6.276   6.649
 8856SOL    HW227468   0.615   6.263   6.500
 8857SOL     OW27469   6.367   1.658   4.598
 8857SOL    HW127470   6.463   1.644   4.576
 8857SOL    HW227471   6.312   1.652   4.514
 8858SOL     OW27472   0.027   4.619   3.931
 8858SOL    HW127473   0.026   4.524   3.965
 8858SOL    HW227474   6.961   4.639   3.887
 8859SOL     OW27475   1.029   0.971   3.985
 8859SOL    HW127476   0.981   1.038   4.041
 8859SOL    HW227477   0.978   0.954   3.901
 8860SOL     OW27478   6.690   2.256   1.667
 8860SOL    HW127479   6.750   2.179   1.644
 8860SOL    HW227480   6.727   2.340   1.627
 8861SOL     OW27481   4.537   1.187   6.815
 8861SOL    HW127482   4.485   1.235   6.886
 8861SOL    HW227483   4.597   1.252   6.768
 8862SOL     OW27484   5.548   6.617   3.892
 8862SOL    HW127485   5.621   6.684   3.877
 8862SOL    HW227486   5.562   6.539   3.831
 8863SOL     OW27487   2.319   5.124   3.398
 8863SOL    HW127488   2.374   5.105   3.480
 8863SOL    HW227489   2.374   5.105   3.317
 8864SOL     OW27490   3.711   4.199   6.431
 8864SOL    HW127491   3.717   4.194   6.331
 8864SOL    HW227492   3.717   4.295   6.459
 8865SOL     OW27493   3.410   0.934   4.871
 8865SOL    HW127494   3.317   0.929   4.834
 8865SOL    HW227495   3.406   0.928   4.971
 8866SOL     OW27496   5.477   6.685   2.985
 8866SOL    HW127497   5.541   6.639   3.046
 8866SOL    HW227498   5.442   6.620   2.918
 8867SOL     OW27499   5.737   4.109   3.659
 8867SOL    HW127500   5.641   4.087   3.673
 8867SOL    HW227501   5.769   4.071   3.573
 8868SOL     OW27502   6.700   3.574   2.398
 8868SOL    HW127503   6.797   3.552   2.396
 8868SOL    HW227504   6.657   3.547   2.312
 8869SOL     OW27505   4.286   5.919   5.254
 8869SOL    HW127506   4.211   5.953   5.197
 8869SOL    HW227507   4.322   5.834   5.214
 8870SOL     OW27508   1.558   6.538   1.611
 8870SOL    HW127509   1.648   6.508   1.644
 8870SOL    HW227510   1.535   6.626   1.652
 8871SOL     OW27511   2.044   0.548   3.382
 8871SOL    HW127512   2.101   0.540   3.463
 8871SOL    HW227513   2.083   0.616   3.320
 8872SOL     OW27514   1.022   5.099   5.868
 8872SOL    HW127515   1.047   5.009   5.905
 8872SOL    HW227516   1.026   5.167   5.942
 8873SOL     OW27517   1.857   6.830   1.897
 8873SOL    HW127518   1.902   6.918   1.882
 8873SOL    HW227519   1.922   6.756   1.882
 8874SOL     OW27520   1.438   5.678   2.221
 8874SOL    HW127521   1.495   5.732   2.158
 8874SOL    HW227522   1.352   5.655   2.176
 8875SOL     OW27523   0.011   3.067   4.801
 8875SOL    HW127524   0.010   3.080   4.702
 8875SOL    HW227525   6.939   3.070   4.836
 8876SOL     OW27526   2.556   0.801   6.422
 8876SOL    HW127527   2.529   0.892   6.390
 8876SOL    HW227528   2.523   0.788   6.516
 8877SOL     OW27529   1.669   2.904   3.095
 8877SOL    HW127530   1.649   2.876   3.189
 8877SOL    HW227531   1.768   2.914   3.084
 8878SOL     OW27532   3.588   5.117   1.065
 8878SOL    HW127533   3.545   5.107   1.155
 8878SOL    HW227534   3.659   5.187   1.070
 8879SOL     OW27535   5.632   4.737   2.416
 8879SOL    HW127536   5.674   4.664   2.469
 8879SOL    HW227537   5.620   4.818   2.473
 8880SOL     OW27538   4.102   6.044   5.111
 8880SOL    HW127539   4.164   6.122   5.122
 8880SOL    HW227540   4.008   6.076   5.103
 8881SOL     OW27541   5.310   5.327   4.361
 8881SOL    HW127542   5.266   5.261   4.424
 8881SOL    HW227543   5.405   5.300   4.347
 8882SOL     OW27544   3.592   1.063   1.045
 8882SOL    HW127545   3.503   1.085   1.085
 8882SOL    HW227546   3.607   1.118   0.963
 8883SOL     OW27547   1.407   6.083   5.771
 8883SOL    HW127548   1.324   6.061   5.719
 8883SOL    HW227549   1.461   6.150   5.719
 8884SOL     OW27550   5.977   3.602   5.553
 8884SOL    HW127551   5.965   3.503   5.558
 8884SOL    HW227552   5.930   3.646   5.630
 8885SOL     OW27553   4.991   4.468   0.993
 8885SOL    HW127554   5.023   4.443   1.085
 8885SOL    HW227555   5.055   4.432   0.925
 8886SOL     OW27556   3.517   5.686   6.274
 8886SOL    HW127557   3.573   5.648   6.348
 8886SOL    HW227558   3.567   5.759   6.228
 8887SOL     OW27559   3.457   1.139   0.802
 8887SOL    HW127560   3.405   1.096   0.875
 8887SOL    HW227561   3.421   1.231   0.785
 8888SOL     OW27562   1.970   2.551   4.525
 8888SOL    HW127563   1.929   2.641   4.534
 8888SOL    HW227564   2.029   2.533   4.604
 8889SOL     OW27565   0.038   6.284   6.394
 8889SOL    HW127566   0.013   6.188   6.406
 8889SOL    HW227567   7.000   6.325   6.325
 8890SOL     OW27568   0.698   6.139   6.234
 8890SOL    HW127569   0.788   6.149   6.277
 8890SOL    HW227570   0.653   6.058   6.271
 8891SOL     OW27571   4.194   4.139   0.118
 8891SOL    HW127572   4.286   4.154   0.153
 8891SOL    HW227573   4.182   4.186   0.031
 8892SOL     OW27574   3.634   5.006   3.265
 8892SOL    HW127575   3.540   4.992   3.295
 8892SOL    HW227576   3.638   5.005   3.165
 8893SOL     OW27577   1.554   5.409   4.948
 8893SOL    HW127578   1.652   5.427   4.959
 8893SOL    HW227579   1.520   5.360   5.027
 8894SOL     OW27580   3.638   1.716   6.879
 8894SOL    HW127581   3.654   1.685   6.972
 8894SOL    HW227582   3.723   1.750   6.839
 8895SOL     OW27583   0.549   2.375   0.838
 8895SOL    HW127584   0.591   2.297   0.884
 8895SOL    HW227585   0.599   2.458   0.862
 8896SOL     OW27586   1.674   3.106   4.739
 8896SOL    HW127587   1.771   3.114   4.762
 8896SOL    HW227588   1.624   3.063   4.814
 8897SOL     OW27589   1.949   3.132   3.232
 8897SOL    HW127590   1.937   3.053   3.292
 8897SOL    HW227591   2.030   3.183   3.260
 8898SOL     OW27592   5.680   3.464   2.183
 8898SOL    HW127593   5.754   3.485   2.246
 8898SOL    HW227594   5.596   3.510   2.212
 8899SOL     OW27595   1.142   4.596   0.472
 8899SOL    HW127596   1.176   4.547   0.391
 8899SOL    HW227597   1.090   4.533   0.529
 8900SOL     OW27598   5.553   2.791   3.290
 8900SOL    HW127599   5.640   2.757   3.325
 8900SOL    HW227600   5.479   2.768   3.354
 8901SOL     OW27601   0.880   1.159   4.184
 8901SOL    HW127602   0.885   1.239   4.243
 8901SOL    HW227603   0.868   1.188   4.089
 8902SOL     OW27604   1.522   5.928   6.939
 8902SOL    HW127605   1.508   5.898   6.845
 8902SOL    HW227606   1.598   5.876   6.979
 8903SOL     OW27607   1.093   2.129   4.466
 8903SOL    HW127608   1.129   2.150   4.557
 8903SOL    HW227609   1.026   2.056   4.473
 8904SOL     OW27610   0.885   1.477   3.839
 8904SOL    HW127611   0.964   1.436   3.884
 8904SOL    HW227612   0.868   1.430   3.752
 8905SOL     OW27613   1.949   3.116   2.572
 8905SOL    HW127614   2.012   3.166   2.631
 8905SOL    HW227615   1.899   3.049   2.626
 8906SOL     OW27616   1.383   6.218   0.883
 8906SOL    HW127617   1.412   6.212   0.979
 8906SOL    HW227618   1.300   6.273   0.876
 8907SOL     OW27619   3.149   2.835   5.331
 8907SOL    HW127620   3.153   2.892   5.248
 8907SOL    HW227621   3.131   2.740   5.306
 8908SOL     OW27622   1.903   5.648   6.983
 8908SOL    HW127623   1.894   5.575   6.915
 8908SOL    HW227624   1.976   5.711   6.956
 8909SOL     OW27625   2.505   1.095   6.419
 8909SOL    HW127626   2.489   1.096   6.321
 8909SOL    HW227627   2.418   1.106   6.467
 8910SOL     OW27628   0.491   2.707   5.490
 8910SOL    HW127629   0.528   2.743   5.576
 8910SOL    HW227630   0.431   2.630   5.509
 8911SOL     OW27631   5.595   3.501   4.857
 8911SOL    HW127632   5.618   3.413   4.816
 8911SOL    HW227633   5.534   3.551   4.797
 8912SOL     OW27634   2.734   3.238   6.008
 8912SOL    HW127635   2.801   3.306   6.037
 8912SOL    HW227636   2.776   3.177   5.940
 8913SOL     OW27637   4.558   5.228   6.678
 8913SOL    HW127638   4.590   5.136   6.655
 8913SOL    HW227639   4.482   5.253   6.618
 8914SOL     OW27640   5.087   6.776   4.429
 8914SOL    HW127641   5.165   6.736   4.476
 8914SOL    HW227642   5.036   6.834   4.493
 8915SOL     OW27643   1.128   2.127   4.191
 8915SOL    HW127644   1.218   2.085   4.186
 8915SOL    HW227645   1.096   2.127   4.286
 8916SOL     OW27646   6.662   2.613   6.860
 8916SOL    HW127647   6.590   2.562   6.812
 8916SOL    HW227648   6.655   2.597   6.958
 8917SOL     OW27649   5.650   2.701   1.167
 8917SOL    HW127650   5.563   2.693   1.215
 8917SOL    HW227651   5.723   2.661   1.222
 8918SOL     OW27652   1.040   5.332   0.527
 8918SOL    HW127653   1.027   5.413   0.469
 8918SOL    HW227654   0.955   5.313   0.577
 8919SOL     OW27655   5.347   4.736   6.657
 8919SOL    HW127656   5.324   4.640   6.670
 8919SOL    HW227657   5.348   4.782   6.747
 8920SOL     OW27658   0.433   2.124   0.489
 8920SOL    HW127659   0.458   2.200   0.428
 8920SOL    HW227660   0.433   2.156   0.584
 8921SOL     OW27661   1.489   3.332   1.939
 8921SOL    HW127662   1.394   3.303   1.950
 8921SOL    HW227663   1.548   3.251   1.932
 8922SOL     OW27664   4.397   5.798   1.895
 8922SOL    HW127665   4.404   5.890   1.933
 8922SOL    HW227666   4.457   5.737   1.946
 8923SOL     OW27667   1.276   0.917   6.139
 8923SOL    HW127668   1.273   1.014   6.115
 8923SOL    HW227669   1.246   0.862   6.060
 8924SOL     OW27670   4.708   5.281   5.262
 8924SOL    HW127671   4.699   5.355   5.329
 8924SOL    HW227672   4.680   5.195   5.304
 8925SOL     OW27673   6.711   0.468   2.505
 8925SOL    HW127674   6.740   0.405   2.434
 8925SOL    HW227675   6.772   0.547   2.507
 8926SOL     OW27676   6.636   3.336   4.701
 8926SOL    HW127677   6.693   3.282   4.762
 8926SOL    HW227678   6.540   3.311   4.713
 8927SOL     OW27679   5.976   1.692   4.687
 8927SOL    HW127680   5.931   1.633   4.753
 8927SOL    HW227681   6.059   1.731   4.727
 8928SOL     OW27682   1.822   0.281   6.077
 8928SOL    HW127683   1.916   0.265   6.106
 8928SOL    HW227684   1.812   0.376   6.047
 8929SOL     OW27685   6.529   1.747   5.168
 8929SOL    HW127686   6.464   1.775   5.239
 8929SOL    HW227687   6.492   1.668   5.119
 8930SOL     OW27688   0.846   2.676   3.151
 8930SOL    HW127689   0.791   2.592   3.146
 8930SOL    HW227690   0.922   2.662   3.214
 8931SOL     OW27691   3.227   3.604   1.604
 8931SOL    HW127692   3.265   3.546   1.533
 8931SOL    HW227693   3.132   3.627   1.582
 8932SOL     OW27694   6.883   2.133   2.677
 8932SOL    HW127695   6.845   2.045   2.707
 8932SOL    HW227696   6.920   2.123   2.584
 8933SOL     OW27697   2.800   2.417   6.474
 8933SOL    HW127698   2.751   2.493   6.431
 8933SOL    HW227699   2.893   2.413   6.438
 8934SOL     OW27700   3.802   4.600   5.336
 8934SOL    HW127701   3.821   4.678   5.397
 8934SOL    HW227702   3.717   4.555   5.365
 8935SOL     OW27703   0.197   4.033   0.348
 8935SOL    HW127704   0.213   4.095   0.425
 8935SOL    HW227705   0.280   3.980   0.330
 8936SOL     OW27706   1.855   3.950   1.166
 8936SOL    HW127707   1.892   4.040   1.188
 8936SOL    HW227708   1.834   3.901   1.250
 8937SOL     OW27709   0.444   0.436   5.374
 8937SOL    HW127710   0.430   0.475   5.283
 8937SOL    HW227711   0.470   0.510   5.437
 8938SOL     OW27712   0.567   5.535   0.697
 8938SOL    HW127713   0.479   5.565   0.736
 8938SOL    HW227714   0.612   5.613   0.653
 8939SOL     OW27715   4.797   2.948   4.210
 8939SOL    HW127716   4.739   2.871   4.184
 8939SOL    HW227717   4.784   2.968   4.307
 8940SOL     OW27718   7.006   1.115   3.412
 8940SOL    HW127719   0.084   1.116   3.400
 8940SOL    HW227720   6.982   1.170   3.493
 8941SOL     OW27721   6.098   2.465   5.385
 8941SOL    HW127722   6.123   2.459   5.289
 8941SOL    HW227723   6.014   2.518   5.395
 8942SOL     OW27724   0.424   4.769   5.025
 8942SOL    HW127725   0.385   4.760   5.116
 8942SOL    HW227726   0.463   4.682   4.996
 8943SOL     OW27727   3.790   4.243   6.699
 8943SOL    HW127728   3.752   4.305   6.630
 8943SOL    HW227729   3.784   4.149   6.665
 8944SOL     OW27730   5.227   4.845   4.865
 8944SOL    HW127731   5.265   4.889   4.947
 8944SOL    HW227732   5.179   4.761   4.892
 8945SOL     OW27733   1.429   0.898   3.630
 8945SOL    HW127734   1.488   0.856   3.562
 8945SOL    HW227735   1.369   0.965   3.586
 8946SOL     OW27736   2.943   1.511   4.851
 8946SOL    HW127737   3.025   1.502   4.795
 8946SOL    HW227738   2.968   1.509   4.948
 8947SOL     OW27739   1.641   3.722   4.915
 8947SOL    HW127740   1.708   3.795   4.902
 8947SOL    HW227741   1.688   3.638   4.943
 8948SOL     OW27742   6.523   6.357   4.320
 8948SOL    HW127743   6.459   6.290   4.356
 8948SOL    HW227744   6.561   6.324   4.233
 8949SOL     OW27745   2.270   0.307   0.674
 8949SOL    HW127746   2.350   0.258   0.637
 8949SOL    HW227747   2.202   0.240   0.704
 8950SOL     OW27748   4.888   3.423   5.837
 8950SOL    HW127749   4.898   3.327   5.863
 8950SOL    HW227750   4.807   3.434   5.780
 8951SOL     OW27751   0.394   2.086   4.652
 8951SOL    HW127752   0.382   2.007   4.592
 8951SOL    HW227753   0.394   2.170   4.597
 8952SOL     OW27754   1.411   7.016   2.487
 8952SOL    HW127755   1.360   6.965   2.417
 8952SOL    HW227756   1.348   0.023   2.559
 8953SOL     OW27757   1.033   3.968   6.605
 8953SOL    HW127758   1.091   4.045   6.633
 8953SOL    HW227759   0.946   4.003   6.569
 8954SOL     OW27760   1.266   6.425   6.212
 8954SOL    HW127761   1.350   6.441   6.264
 8954SOL    HW227762   1.287   6.431   6.114
 8955SOL     OW27763   0.772   4.505   2.627
 8955SOL    HW127764   0.802   4.427   2.573
 8955SOL    HW227765   0.672   4.504   2.637
 8956SOL     OW27766   0.408   1.782   6.934
 8956SOL    HW127767   0.383   1.870   6.894
 8956SOL    HW227768   0.387   1.708   6.869
 8957SOL     OW27769   3.060   4.285   1.682
 8957SOL    HW127770   3.005   4.343   1.741
 8957SOL    HW227771   3.004   4.253   1.605
 8958SOL     OW27772   1.014   0.193   4.369
 8958SOL    HW127773   0.936   0.197   4.431
 8958SOL    HW227774   1.006   0.267   4.301
 8959SOL     OW27775   1.269   4.860   1.669
 8959SOL    HW127776   1.277   4.770   1.711
 8959SOL    HW227777   1.337   4.922   1.708
 8960SOL     OW27778   4.611   5.631   3.044
 8960SOL    HW127779   4.588   5.541   3.080
 8960SOL    HW227780   4.551   5.654   2.967
 8961SOL     OW27781   2.248   2.222   4.444
 8961SOL    HW127782   2.269   2.287   4.517
 8961SOL    HW227783   2.211   2.271   4.366
 8962SOL     OW27784   6.532   6.376   2.754
 8962SOL    HW127785   6.531   6.475   2.741
 8962SOL    HW227786   6.580   6.333   2.679
 8963SOL     OW27787   5.216   6.521   4.074
 8963SOL    HW127788   5.173   6.435   4.043
 8963SOL    HW227789   5.285   6.501   4.144
 8964SOL     OW27790   5.384   3.777   3.165
 8964SOL    HW127791   5.448   3.812   3.233
 8964SOL    HW227792   5.318   3.716   3.208
 8965SOL     OW27793   2.199   4.656   0.434
 8965SOL    HW127794   2.256   4.696   0.506
 8965SOL    HW227795   2.186   4.559   0.453
 8966SOL     OW27796   0.721   4.151   5.741
 8966SOL    HW127797   0.754   4.111   5.655
 8966SOL    HW227798   0.623   4.134   5.750
 8967SOL     OW27799   3.888   6.104   1.938
 8967SOL    HW127800   3.821   6.154   1.992
 8967SOL    HW227801   3.882   6.132   1.842
 8968SOL     OW27802   5.372   4.644   2.734
 8968SOL    HW127803   5.361   4.664   2.636
 8968SOL    HW227804   5.404   4.726   2.781
 8969SOL     OW27805   6.623   0.522   3.883
 8969SOL    HW127806   6.655   0.596   3.823
 8969SOL    HW227807   6.547   0.556   3.939
 8970SOL     OW27808   2.889   3.057   0.402
 8970SOL    HW127809   2.978   3.014   0.414
 8970SOL    HW227810   2.900   3.156   0.397
 8971SOL     OW27811   4.866   5.277   1.800
 8971SOL    HW127812   4.930   5.294   1.725
 8971SOL    HW227813   4.909   5.304   1.887
 8972SOL     OW27814   4.846   4.777   6.257
 8972SOL    HW127815   4.877   4.753   6.165
 8972SOL    HW227816   4.821   4.694   6.307
 8973SOL     OW27817   0.868   3.207   2.118
 8973SOL    HW127818   0.810   3.195   2.037
 8973SOL    HW227819   0.900   3.118   2.150
 8974SOL     OW27820   1.937   4.497   5.512
 8974SOL    HW127821   1.885   4.540   5.586
 8974SOL    HW227822   1.875   4.441   5.457
 8975SOL     OW27823   2.419   0.234   6.575
 8975SOL    HW127824   2.501   0.273   6.532
 8975SOL    HW227825   2.395   0.287   6.655
 8976SOL     OW27826   0.141   5.053   4.832
 8976SOL    HW127827   0.205   5.093   4.766
 8976SOL    HW227828   0.165   5.084   4.924
 8977SOL     OW27829   5.522   1.465   6.813
 8977SOL    HW127830   5.550   1.458   6.909
 8977SOL    HW227831   5.473   1.382   6.787
 8978SOL     OW27832   5.560   0.091   6.151
 8978SOL    HW127833   5.546   0.095   6.052
 8978SOL    HW227834   5.549   7.019   6.183
 8979SOL     OW27835   1.139   3.098   4.854
 8979SOL    HW127836   1.173   3.052   4.772
 8979SOL    HW227837   1.211   3.100   4.924
 8980SOL     OW27838   2.279   3.114   5.354
 8980SOL    HW127839   2.242   3.059   5.429
 8980SOL    HW227840   2.338   3.056   5.297
 8981SOL     OW27841   4.117   1.521   5.152
 8981SOL    HW127842   4.113   1.488   5.057
 8981SOL    HW227843   4.115   1.621   5.153
 8982SOL     OW27844   1.914   1.619   0.420
 8982SOL    HW127845   1.859   1.696   0.453
 8982SOL    HW227846   1.910   1.544   0.487
 8983SOL     OW27847   1.708   6.185   6.460
 8983SOL    HW127848   1.652   6.172   6.541
 8983SOL    HW227849   1.803   6.162   6.480
 8984SOL     OW27850   0.510   6.851   4.370
 8984SOL    HW127851   0.471   6.760   4.353
 8984SOL    HW227852   0.579   6.872   4.300
 8985SOL     OW27853   2.882   3.365   0.602
 8985SOL    HW127854   2.890   3.396   0.507
 8985SOL    HW227855   2.786   3.367   0.629
 8986SOL     OW27856   4.303   5.477   2.600
 8986SOL    HW127857   4.374   5.546   2.589
 8986SOL    HW227858   4.221   5.507   2.552
 8987SOL     OW27859   4.566   6.852   1.890
 8987SOL    HW127860   4.645   6.894   1.847
 8987SOL    HW227861   4.522   6.789   1.825
 8988SOL     OW27862   1.159   4.480   4.912
 8988SOL    HW127863   1.154   4.401   4.851
 8988SOL    HW227864   1.093   4.470   4.986
 8989SOL     OW27865   5.074   3.254   0.343
 8989SOL    HW127866   5.152   3.268   0.282
 8989SOL    HW227867   5.102   3.271   0.437
 8990SOL     OW27868   1.571   5.659   5.194
 8990SOL    HW127869   1.567   5.725   5.119
 8990SOL    HW227870   1.606   5.572   5.160
 8991SOL     OW27871   1.053   2.707   5.501
 8991SOL    HW127872   1.139   2.722   5.550
 8991SOL    HW227873   1.067   2.637   5.431
 8992SOL     OW27874   5.128   1.392   0.108
 8992SOL    HW127875   5.084   1.402   0.019
 8992SOL    HW227876   5.061   1.357   0.174
 8993SOL     OW27877   5.010   2.735   1.537
 8993SOL    HW127878   5.077   2.739   1.463
 8993SOL    HW227879   5.042   2.788   1.615
 8994SOL     OW27880   1.078   3.747   4.796
 8994SOL    HW127881   1.060   3.786   4.886
 8994SOL    HW227882   1.171   3.770   4.767
 8995SOL     OW27883   1.412   2.747   0.098
 8995SOL    HW127884   1.494   2.725   0.150
 8995SOL    HW227885   1.435   2.806   0.021
 8996SOL     OW27886   5.038   4.470   0.144
 8996SOL    HW127887   5.010   4.381   0.109
 8996SOL    HW227888   5.004   4.542   0.083
 8997SOL     OW27889   5.198   1.749   6.025
 8997SOL    HW127890   5.233   1.753   5.931
 8997SOL    HW227891   5.191   1.654   6.054
 8998SOL     OW27892   6.014   3.361   3.868
 8998SOL    HW127893   6.057   3.338   3.780
 8998SOL    HW227894   5.958   3.443   3.857
 8999SOL     OW27895   4.771   6.398   6.293
 8999SOL    HW127896   4.775   6.498   6.281
 8999SOL    HW227897   4.681   6.365   6.267
 9000SOL     OW27898   1.806   3.394   1.757
 9000SOL    HW127899   1.742   3.408   1.833
 9000SOL    HW227900   1.822   3.296   1.745
 9001SOL     OW27901   1.133   5.357   2.384
 9001SOL    HW127902   1.105   5.330   2.477
 9001SOL    HW227903   1.200   5.291   2.350
 9002SOL     OW27904   1.474   5.314   5.190
 9002SOL    HW127905   1.401   5.256   5.154
 9002SOL    HW227906   1.472   5.315   5.289
 9003SOL     OW27907   5.911   3.494   1.467
 9003SOL    HW127908   5.888   3.586   1.437
 9003SOL    HW227909   5.919   3.493   1.567
 9004SOL     OW27910   4.252   5.993   0.811
 9004SOL    HW127911   4.245   6.068   0.876
 9004SOL    HW227912   4.281   5.910   0.860
 9005SOL     OW27913   6.368   2.598   4.647
 9005SOL    HW127914   6.383   2.593   4.746
 9005SOL    HW227915   6.420   2.525   4.602
 9006SOL     OW27916   2.169   5.424   1.082
 9006SOL    HW127917   2.226   5.439   1.000
 9006SOL    HW227918   2.220   5.454   1.163
 9007SOL     OW27919   3.416   0.933   3.338
 9007SOL    HW127920   3.317   0.934   3.344
 9007SOL    HW227921   3.455   0.918   3.430
 9008SOL     OW27922   1.398   5.424   3.710
 9008SOL    HW127923   1.482   5.429   3.657
 9008SOL    HW227924   1.328   5.483   3.667
 9009SOL     OW27925   2.711   6.300   0.808
 9009SOL    HW127926   2.689   6.333   0.716
 9009SOL    HW227927   2.810   6.296   0.819
 9010SOL     OW27928   1.042   6.342   4.019
 9010SOL    HW127929   1.118   6.338   3.954
 9010SOL    HW227930   0.982   6.263   4.006
 9011SOL     OW27931   4.714   1.555   1.487
 9011SOL    HW127932   4.779   1.561   1.562
 9011SOL    HW227933   4.634   1.613   1.508
 9012SOL     OW27934   1.722   4.470   0.374
 9012SOL    HW127935   1.786   4.520   0.432
 9012SOL    HW227936   1.771   4.430   0.297
 9013SOL     OW27937   0.458   6.851   5.613
 9013SOL    HW127938   0.407   6.836   5.698
 9013SOL    HW227939   0.447   6.772   5.553
 9014SOL     OW27940   0.101   2.240   0.900
 9014SOL    HW127941   0.192   2.266   0.932
 9014SOL    HW227942   0.034   2.309   0.927
 9015SOL     OW27943   4.675   2.202   1.696
 9015SOL    HW127944   4.590   2.167   1.656
 9015SOL    HW227945   4.662   2.219   1.794
 9016SOL     OW27946   0.032   6.754   6.326
 9016SOL    HW127947   6.976   6.808   6.292
 9016SOL    HW227948   0.114   6.776   6.273
 9017SOL     OW27949   4.661   1.578   4.000
 9017SOL    HW127950   4.733   1.602   3.935
 9017SOL    HW227951   4.625   1.661   4.042
 9018SOL     OW27952   3.233   2.813   6.581
 9018SOL    HW127953   3.193   2.861   6.503
 9018SOL    HW227954   3.313   2.761   6.551
 9019SOL     OW27955   1.319   5.182   2.265
 9019SOL    HW127956   1.362   5.269   2.291
 9019SOL    HW227957   1.329   5.169   2.167
 9020SOL     OW27958   0.066   4.174   0.792
 9020SOL    HW127959   0.065   4.198   0.889
 9020SOL    HW227960   0.139   4.108   0.774
 9021SOL     OW27961   6.847   0.164   3.700
 9021SOL    HW127962   6.787   0.186   3.777
 9021SOL    HW227963   6.887   0.074   3.714
 9022SOL     OW27964   3.064   1.222   6.753
 9022SOL    HW127965   3.136   1.288   6.776
 9022SOL    HW227966   3.044   1.166   6.834
 9023SOL     OW27967   3.400   2.884   2.508
 9023SOL    HW127968   3.378   2.902   2.603
 9023SOL    HW227969   3.350   2.803   2.477
 9024SOL     OW27970   0.857   3.970   5.249
 9024SOL    HW127971   0.838   3.888   5.302
 9024SOL    HW227972   0.881   4.045   5.310
 9025SOL     OW27973   0.939   5.604   0.998
 9025SOL    HW127974   0.934   5.569   0.904
 9025SOL    HW227975   0.932   5.704   0.997
 9026SOL     OW27976   3.682   2.814   0.815
 9026SOL    HW127977   3.698   2.885   0.884
 9026SOL    HW227978   3.770   2.780   0.782
 9027SOL     OW27979   1.277   2.918   2.927
 9027SOL    HW127980   1.290   2.978   3.006
 9027SOL    HW227981   1.365   2.881   2.898
 9028SOL     OW27982   3.134   3.078   5.134
 9028SOL    HW127983   3.222   3.033   5.121
 9028SOL    HW227984   3.141   3.143   5.209
 9029SOL     OW27985   3.815   6.752   4.734
 9029SOL    HW127986   3.731   6.797   4.703
 9029SOL    HW227987   3.889   6.819   4.735
 9030SOL     OW27988   2.703   2.034   3.162
 9030SOL    HW127989   2.683   1.941   3.132
 9030SOL    HW227990   2.686   2.097   3.086
 9031SOL     OW27991   4.056   6.003   4.700
 9031SOL    HW127992   4.066   5.989   4.602
 9031SOL    HW227993   3.962   5.983   4.727
 9032SOL     OW27994   3.747   3.855   0.888
 9032SOL    HW127995   3.784   3.941   0.852
 9032SOL    HW227996   3.815   3.812   0.947
 9033SOL     OW27997   6.812   3.993   3.054
 9033SOL    HW127998   6.804   4.054   2.975
 9033SOL    HW227999   6.808   4.047   3.138
 9034SOL     OW28000   3.231   6.238   4.496
 9034SOL    HW128001   3.161   6.282   4.440
 9034SOL    HW228002   3.204   6.241   4.592
 9035SOL     OW28003   2.542   4.423   0.108
 9035SOL    HW128004   2.457   4.457   0.066
 9035SOL    HW228005   2.550   4.460   0.200
 9036SOL     OW28006   2.224   2.930   5.578
 9036SOL    HW128007   2.151   2.862   5.577
 9036SOL    HW228008   2.252   2.948   5.672
 9037SOL     OW28009   1.059   3.914   5.015
 9037SOL    HW128010   0.994   3.925   5.089
 9037SOL    HW228011   1.148   3.951   5.042
 9038SOL     OW28012   4.289   0.867   6.451
 9038SOL    HW128013   4.329   0.943   6.501
 9038SOL    HW228014   4.200   0.844   6.491
 9039SOL     OW28015   2.367   5.552   5.681
 9039SOL    HW128016   2.373   5.528   5.778
 9039SOL    HW228017   2.310   5.633   5.671
 9040SOL     OW28018   3.111   2.116   2.568
 9040SOL    HW128019   3.043   2.178   2.529
 9040SOL    HW228020   3.193   2.116   2.510
 9041SOL     OW28021   1.285   2.021   1.783
 9041SOL    HW128022   1.382   2.045   1.772
 9041SOL    HW228023   1.267   1.934   1.736
 9042SOL     OW28024   3.784   6.481   4.748
 9042SOL    HW128025   3.793   6.578   4.770
 9042SOL    HW228026   3.819   6.426   4.824
 9043SOL     OW28027   1.763   0.655   6.610
 9043SOL    HW128028   1.756   0.672   6.708
 9043SOL    HW228029   1.788   0.560   6.594
 9044SOL     OW28030   6.520   0.032   0.721
 9044SOL    HW128031   6.485   6.966   0.687
 9044SOL    HW228032   6.520   0.031   0.821
 9045SOL     OW28033   3.172   1.722   2.725
 9045SOL    HW128034   3.249   1.695   2.668
 9045SOL    HW228035   3.172   1.668   2.810
 9046SOL     OW28036   3.502   4.161   2.864
 9046SOL    HW128037   3.539   4.244   2.824
 9046SOL    HW228038   3.511   4.164   2.963
 9047SOL     OW28039   1.966   3.766   5.315
 9047SOL    HW128040   1.977   3.842   5.379
 9047SOL    HW228041   2.053   3.746   5.271
 9048SOL     OW28042   5.706   3.173   5.495
 9048SOL    HW128043   5.768   3.145   5.422
 9048SOL    HW228044   5.665   3.091   5.537
 9049SOL     OW28045   3.602   6.514   6.025
 9049SOL    HW128046   3.654   6.596   6.000
 9049SOL    HW228047   3.636   6.436   5.973
 9050SOL     OW28048   1.209   3.394   0.806
 9050SOL    HW128049   1.119   3.435   0.793
 9050SOL    HW228050   1.238   3.349   0.722
 9051SOL     OW28051   3.633   6.924   1.257
 9051SOL    HW128052   3.550   6.882   1.294
 9051SOL    HW228053   3.643   7.016   1.293
 9052SOL     OW28054   2.313   2.208   3.572
 9052SOL    HW128055   2.411   2.218   3.555
 9052SOL    HW228056   2.277   2.292   3.614
 9053SOL     OW28057   1.827   1.312   2.833
 9053SOL    HW128058   1.894   1.386   2.840
 9053SOL    HW228059   1.873   1.224   2.827
 9054SOL     OW28060   2.927   5.897   3.742
 9054SOL    HW128061   2.903   5.815   3.795
 9054SOL    HW228062   2.973   5.869   3.658
 9055SOL     OW28063   6.027   2.818   4.540
 9055SOL    HW128064   6.005   2.730   4.582
 9055SOL    HW228065   5.949   2.848   4.485
 9056SOL     OW28066   1.102   2.719   1.654
 9056SOL    HW128067   1.058   2.679   1.573
 9056SOL    HW228068   1.114   2.817   1.640
 9057SOL     OW28069   4.919   3.133   5.852
 9057SOL    HW128070   4.871   3.111   5.767
 9057SOL    HW228071   5.010   3.093   5.849
 9058SOL     OW28072   2.020   0.914   1.892
 9058SOL    HW128073   2.077   0.987   1.930
 9058SOL    HW228074   2.033   0.830   1.945
 9059SOL     OW28075   1.842   1.738   3.401
 9059SOL    HW128076   1.937   1.709   3.393
 9059SOL    HW228077   1.782   1.668   3.362
 9060SOL     OW28078   6.434   3.073   4.474
 9060SOL    HW128079   6.483   3.075   4.386
 9060SOL    HW228080   6.336   3.074   4.456
 9061SOL     OW28081   2.424   5.673   2.046
 9061SOL    HW128082   2.511   5.693   2.091
 9061SOL    HW228083   2.348   5.697   2.107
 9062SOL     OW28084   1.374   6.674   2.499
 9062SOL    HW128085   1.307   6.722   2.554
 9062SOL    HW228086   1.338   6.584   2.473
 9063SOL     OW28087   3.305   0.566   4.192
 9063SOL    HW128088   3.351   0.651   4.167
 9063SOL    HW228089   3.216   0.563   4.146
 9064SOL     OW28090   5.955   2.175   5.804
 9064SOL    HW128091   6.026   2.186   5.874
 9064SOL    HW228092   5.916   2.264   5.782
 9065SOL     OW28093   3.743   0.963   6.901
 9065SOL    HW128094   3.742   0.978   7.000
 9065SOL    HW228095   3.682   1.029   6.857
 9066SOL     OW28096   5.515   6.589   0.539
 9066SOL    HW128097   5.573   6.521   0.494
 9066SOL    HW228098   5.560   6.622   0.621
 9067SOL     OW28099   1.027   0.426   4.226
 9067SOL    HW128100   1.117   0.470   4.235
 9067SOL    HW228101   0.959   0.494   4.199
 9068SOL     OW28102   1.365   6.378   4.089
 9068SOL    HW128103   1.408   6.326   4.015
 9068SOL    HW228104   1.313   6.316   4.147
 9069SOL     OW28105   1.393   3.081   1.884
 9069SOL    HW128106   1.438   2.992   1.876
 9069SOL    HW228107   1.429   3.143   1.814
 9070SOL     OW28108   1.572   3.356   5.226
 9070SOL    HW128109   1.517   3.371   5.143
 9070SOL    HW228110   1.511   3.333   5.302
 9071SOL     OW28111   6.370   6.935   1.735
 9071SOL    HW128112   6.421   6.997   1.676
 9071SOL    HW228113   6.365   6.844   1.694
 9072SOL     OW28114   0.682   2.159   0.964
 9072SOL    HW128115   0.693   2.138   1.061
 9072SOL    HW228116   0.772   2.172   0.923
 9073SOL     OW28117   2.557   6.834   2.580
 9073SOL    HW128118   2.634   6.771   2.568
 9073SOL    HW228119   2.471   6.785   2.560
 9074SOL     OW28120   1.072   0.612   2.653
 9074SOL    HW128121   1.171   0.610   2.666
 9074SOL    HW228122   1.049   0.671   2.576
 9075SOL     OW28123   0.017   1.186   2.185
 9075SOL    HW128124   0.093   1.231   2.138
 9075SOL    HW228125   0.039   1.090   2.200
 9076SOL     OW28126   6.938   1.487   6.255
 9076SOL    HW128127   6.918   1.468   6.160
 9076SOL    HW228128   6.972   1.581   6.264
 9077SOL     OW28129   4.870   0.422   1.002
 9077SOL    HW128130   4.843   0.334   1.040
 9077SOL    HW228131   4.958   0.414   0.956
 9078SOL     OW28132   3.422   3.391   5.083
 9078SOL    HW128133   3.422   3.470   5.021
 9078SOL    HW228134   3.435   3.308   5.029
 9079SOL     OW28135   2.642   0.566   4.641
 9079SOL    HW128136   2.651   0.664   4.658
 9079SOL    HW228137   2.602   0.522   4.721
 9080SOL     OW28138   4.753   2.388   6.705
 9080SOL    HW128139   4.783   2.315   6.644
 9080SOL    HW228140   4.689   2.448   6.657
 9081SOL     OW28141   4.285   6.820   2.415
 9081SOL    HW128142   4.358   6.761   2.448
 9081SOL    HW228143   4.317   6.871   2.335
 9082SOL     OW28144   2.240   0.423   5.211
 9082SOL    HW128145   2.163   0.476   5.176
 9082SOL    HW228146   2.220   0.394   5.305
 9083SOL     OW28147   3.756   4.939   6.189
 9083SOL    HW128148   3.776   5.029   6.151
 9083SOL    HW228149   3.695   4.890   6.127
 9084SOL     OW28150   3.227   3.989   3.091
 9084SOL    HW128151   3.140   3.956   3.129
 9084SOL    HW228152   3.218   4.001   2.992
 9085SOL     OW28153   2.535   0.319   0.975
 9085SOL    HW128154   2.523   0.411   1.012
 9085SOL    HW228155   2.473   0.256   1.021
 9086SOL     OW28156   0.465   4.363   0.196
 9086SOL    HW128157   0.537   4.350   0.128
 9086SOL    HW228158   0.464   4.285   0.259
 9087SOL     OW28159   4.643   2.530   1.335
 9087SOL    HW128160   4.698   2.606   1.370
 9087SOL    HW228161   4.675   2.507   1.243
 9088SOL     OW28162   6.533   6.766   1.202
 9088SOL    HW128163   6.595   6.690   1.222
 9088SOL    HW228164   6.443   6.730   1.178
 9089SOL     OW28165   5.125   6.487   5.635
 9089SOL    HW128166   5.150   6.564   5.695
 9089SOL    HW228167   5.045   6.512   5.581
 9090SOL     OW28168   5.785   0.999   5.504
 9090SOL    HW128169   5.745   1.026   5.417
 9090SOL    HW228170   5.762   1.068   5.574
 9091SOL     OW28171   2.925   3.836   6.833
 9091SOL    HW128172   2.953   3.799   6.922
 9091SOL    HW228173   2.841   3.791   6.804
 9092SOL     OW28174   6.630   0.769   6.986
 9092SOL    HW128175   6.534   0.742   6.999
 9092SOL    HW228176   6.651   0.845   0.026
 9093SOL     OW28177   1.452   6.446   5.147
 9093SOL    HW128178   1.383   6.506   5.185
 9093SOL    HW228179   1.537   6.498   5.133
 9094SOL     OW28180   6.335   4.373   2.838
 9094SOL    HW128181   6.245   4.334   2.859
 9094SOL    HW228182   6.353   4.450   2.898
 9095SOL     OW28183   4.481   4.569   6.266
 9095SOL    HW128184   4.383   4.562   6.282
 9095SOL    HW228185   4.497   4.602   6.172
 9096SOL     OW28186   6.530   5.597   2.934
 9096SOL    HW128187   6.549   5.669   3.000
 9096SOL    HW228188   6.457   5.627   2.872
 9097SOL     OW28189   2.488   2.130   0.163
 9097SOL    HW128190   2.574   2.178   0.146
 9097SOL    HW228191   2.460   2.145   0.258
 9098SOL     OW28192   2.858   1.920   5.060
 9098SOL    HW128193   2.835   2.017   5.052
 9098SOL    HW228194   2.881   1.884   4.969
 9099SOL     OW28195   2.692   3.229   6.519
 9099SOL    HW128196   2.683   3.274   6.431
 9099SOL    HW228197   2.614   3.252   6.577
 9100SOL     OW28198   0.819   3.651   3.106
 9100SOL    HW128199   0.813   3.551   3.097
 9100SOL    HW228200   0.901   3.675   3.159
 9101SOL     OW28201   2.611   1.546   2.388
 9101SOL    HW128202   2.530   1.535   2.446
 9101SOL    HW228203   2.692   1.556   2.446
 9102SOL     OW28204   3.208   6.902   1.990
 9102SOL    HW128205   3.116   6.862   1.980
 9102SOL    HW228206   3.275   6.829   2.000
 9103SOL     OW28207   5.321   1.396   0.447
 9103SOL    HW128208   5.348   1.401   0.544
 9103SOL    HW228209   5.309   1.489   0.411
 9104SOL     OW28210   6.990   6.651   1.587
 9104SOL    HW128211   6.950   6.671   1.676
 9104SOL    HW228212   0.068   6.656   1.593
 9105SOL     OW28213   1.485   0.174   5.392
 9105SOL    HW128214   1.498   0.081   5.357
 9105SOL    HW228215   1.469   0.236   5.315
 9106SOL     OW28216   0.113   2.925   0.615
 9106SOL    HW128217   0.022   2.959   0.641
 9106SOL    HW228218   0.183   2.974   0.667
 9107SOL     OW28219   1.771   0.890   6.810
 9107SOL    HW128220   1.856   0.942   6.818
 9107SOL    HW228221   1.699   0.936   6.863
 9108SOL     OW28222   4.500   3.902   5.735
 9108SOL    HW128223   4.534   3.872   5.646
 9108SOL    HW228224   4.404   3.931   5.725
 9109SOL     OW28225   4.775   2.930   3.313
 9109SOL    HW128226   4.697   2.942   3.251
 9109SOL    HW228227   4.843   3.000   3.294
 9110SOL     OW28228   1.333   5.461   4.104
 9110SOL    HW128229   1.395   5.407   4.047
 9110SOL    HW228230   1.342   5.558   4.080
 9111SOL     OW28231   4.708   2.859   6.858
 9111SOL    HW128232   4.781   2.872   6.925
 9111SOL    HW228233   4.738   2.896   6.770
 9112SOL     OW28234   1.214   5.103   2.709
 9112SOL    HW128235   1.268   5.055   2.640
 9112SOL    HW228236   1.163   5.037   2.764
 9113SOL     OW28237   4.981   2.695   3.748
 9113SOL    HW128238   4.988   2.599   3.722
 9113SOL    HW228239   5.063   2.744   3.717
 9114SOL     OW28240   0.874   5.568   4.074
 9114SOL    HW128241   0.927   5.637   4.124
 9114SOL    HW228242   0.815   5.518   4.137
 9115SOL     OW28243   6.206   5.518   4.548
 9115SOL    HW128244   6.116   5.528   4.505
 9115SOL    HW228245   6.203   5.558   4.640
 9116SOL     OW28246   6.650   0.097   3.025
 9116SOL    HW128247   6.749   0.089   3.029
 9116SOL    HW228248   6.618   0.151   3.102
 9117SOL     OW28249   4.579   1.869   6.532
 9117SOL    HW128250   4.616   1.905   6.447
 9117SOL    HW228251   4.528   1.785   6.514
 9118SOL     OW28252   6.404   3.525   6.923
 9118SOL    HW128253   6.476   3.580   6.966
 9118SOL    HW228254   6.317   3.542   6.969
 9119SOL     OW28255   4.344   0.383   1.582
 9119SOL    HW128256   4.276   0.453   1.564
 9119SOL    HW228257   4.329   0.305   1.521
 9120SOL     OW28258   6.590   2.868   5.728
 9120SOL    HW128259   6.530   2.919   5.790
 9120SOL    HW228260   6.668   2.924   5.703
 9121SOL     OW28261   3.966   6.677   5.467
 9121SOL    HW128262   3.965   6.748   5.537
 9121SOL    HW228263   3.928   6.713   5.382
 9122SOL     OW28264   2.240   4.062   2.208
 9122SOL    HW128265   2.290   4.116   2.141
 9122SOL    HW228266   2.233   4.113   2.294
 9123SOL     OW28267   1.338   0.383   3.860
 9123SOL    HW128268   1.322   0.301   3.915
 9123SOL    HW228269   1.272   0.454   3.886
 9124SOL     OW28270   3.922   5.422   1.814
 9124SOL    HW128271   3.881   5.331   1.822
 9124SOL    HW228272   4.021   5.415   1.821
 9125SOL     OW28273   3.816   4.529   0.911
 9125SOL    HW128274   3.821   4.505   0.814
 9125SOL    HW228275   3.735   4.588   0.926
 9126SOL     OW28276   4.859   3.980   0.730
 9126SOL    HW128277   4.957   3.997   0.717
 9126SOL    HW228278   4.844   3.884   0.751
 9127SOL     OW28279   6.811   2.868   4.479
 9127SOL    HW128280   6.748   2.889   4.554
 9127SOL    HW228281   6.888   2.816   4.514
 9128SOL     OW28282   6.646   2.477   4.674
 9128SOL    HW128283   6.640   2.558   4.733
 9128SOL    HW228284   6.714   2.492   4.602
 9129SOL     OW28285   1.350   2.414   0.874
 9129SOL    HW128286   1.342   2.319   0.845
 9129SOL    HW228287   1.266   2.441   0.921
 9130SOL     OW28288   0.701   4.449   6.068
 9130SOL    HW128289   0.704   4.361   6.021
 9130SOL    HW228290   0.766   4.449   6.144
 9131SOL     OW28291   5.648   2.818   0.051
 9131SOL    HW128292   5.617   2.741   7.016
 9131SOL    HW228293   5.597   2.819   0.137
 9132SOL     OW28294   0.804   4.758   4.193
 9132SOL    HW128295   0.823   4.846   4.148
 9132SOL    HW228296   0.889   4.723   4.233
 9133SOL     OW28297   2.887   0.824   1.419
 9133SOL    HW128298   2.958   0.773   1.468
 9133SOL    HW228299   2.928   0.903   1.374
 9134SOL     OW28300   4.108   5.318   0.722
 9134SOL    HW128301   4.198   5.323   0.678
 9134SOL    HW228302   4.039   5.293   0.653
 9135SOL     OW28303   1.206   6.501   1.482
 9135SOL    HW128304   1.303   6.474   1.485
 9135SOL    HW228305   1.185   6.556   1.563
 9136SOL     OW28306   4.450   5.341   5.859
 9136SOL    HW128307   4.385   5.348   5.784
 9136SOL    HW228308   4.465   5.431   5.899
 9137SOL     OW28309   4.638   6.408   5.586
 9137SOL    HW128310   4.623   6.399   5.684
 9137SOL    HW228311   4.713   6.472   5.569
 9138SOL     OW28312   2.165   3.008   0.777
 9138SOL    HW128313   2.118   2.977   0.694
 9138SOL    HW228314   2.251   2.957   0.786
 9139SOL     OW28315   0.877   1.125   1.366
 9139SOL    HW128316   0.923   1.037   1.380
 9139SOL    HW228317   0.795   1.111   1.311
 9140SOL     OW28318   0.346   4.748   1.720
 9140SOL    HW128319   0.249   4.762   1.744
 9140SOL    HW228320   0.353   4.725   1.623
 9141SOL     OW28321   6.857   5.710   6.749
 9141SOL    HW128322   6.875   5.648   6.672
 9141SOL    HW228323   6.925   5.695   6.821
 9142SOL     OW28324   0.227   2.608   2.637
 9142SOL    HW128325   0.308   2.649   2.678
 9142SOL    HW228326   0.205   2.657   2.552
 9143SOL     OW28327   6.988   3.571   1.434
 9143SOL    HW128328   6.903   3.614   1.404
 9143SOL    HW228329   0.044   3.615   1.389
 9144SOL     OW28330   2.845   4.873   4.876
 9144SOL    HW128331   2.855   4.782   4.915
 9144SOL    HW228332   2.934   4.907   4.846
 9145SOL     OW28333   1.479   0.270   6.483
 9145SOL    HW128334   1.489   0.273   6.583
 9145SOL    HW228335   1.569   0.282   6.441
 9146SOL     OW28336   5.980   2.905   3.441
 9146SOL    HW128337   6.048   2.870   3.506
 9146SOL    HW228338   5.899   2.936   3.492
 9147SOL     OW28339   6.020   0.404   5.007
 9147SOL    HW128340   6.108   0.395   5.055
 9147SOL    HW228341   6.037   0.432   4.913
 9148SOL     OW28342   6.074   0.357   1.774
 9148SOL    HW128343   6.146   0.303   1.818
 9148SOL    HW228344   6.076   0.450   1.812
 9149SOL     OW28345   5.686   2.775   2.113
 9149SOL    HW128346   5.648   2.730   2.033
 9149SOL    HW228347   5.780   2.746   2.127
 9150SOL     OW28348   3.090   4.770   0.256
 9150SOL    HW128349   3.139   4.744   0.172
 9150SOL    HW228350   3.057   4.687   0.301
 9151SOL     OW28351   2.125   3.810   3.996
 9151SOL    HW128352   2.078   3.722   3.998
 9151SOL    HW228353   2.110   3.858   4.083
 9152SOL     OW28354   1.953   3.835   4.244
 9152SOL    HW128355   1.871   3.873   4.285
 9152SOL    HW228356   1.928   3.770   4.172
 9153SOL     OW28357   0.634   2.735   6.330
 9153SOL    HW128358   0.643   2.669   6.405
 9153SOL    HW228359   0.672   2.823   6.359
 9154SOL     OW28360   5.418   5.254   3.113
 9154SOL    HW128361   5.377   5.185   3.172
 9154SOL    HW228362   5.432   5.339   3.164
 9155SOL     OW28363   2.009   5.076   2.018
 9155SOL    HW128364   2.054   5.166   2.011
 9155SOL    HW228365   2.072   5.011   2.062
 9156SOL     OW28366   6.896   3.054   1.248
 9156SOL    HW128367   6.816   3.037   1.305
 9156SOL    HW228368   6.960   3.114   1.297
 9157SOL     OW28369   3.238   4.147   6.418
 9157SOL    HW128370   3.294   4.064   6.416
 9157SOL    HW228371   3.156   4.130   6.472
 9158SOL     OW28372   6.589   4.162   3.947
 9158SOL    HW128373   6.675   4.119   3.975
 9158SOL    HW228374   6.565   4.233   4.013
 9159SOL     OW28375   2.539   0.036   3.234
 9159SOL    HW128376   2.636   0.021   3.255
 9159SOL    HW228377   2.526   0.036   3.135
 9160SOL     OW28378   0.547   5.035   6.991
 9160SOL    HW128379   0.581   5.126   7.014
 9160SOL    HW228380   0.516   4.989   0.053
 9161SOL     OW28381   5.885   4.093   1.997
 9161SOL    HW128382   5.911   4.093   2.094
 9161SOL    HW228383   5.958   4.135   1.943
 9162SOL     OW28384   4.001   1.608   2.398
 9162SOL    HW128385   4.062   1.663   2.455
 9162SOL    HW228386   4.001   1.513   2.431
 9163SOL     OW28387   6.998   2.384   1.881
 9163SOL    HW128388   6.975   2.480   1.860
 9163SOL    HW228389   7.006   2.373   1.980
 9164SOL     OW28390   2.646   0.318   6.788
 9164SOL    HW128391   2.559   0.315   6.836
 9164SOL    HW228392   2.669   0.413   6.765
 9165SOL     OW28393   4.561   2.133   5.728
 9165SOL    HW128394   4.487   2.200   5.736
 9165SOL    HW228395   4.645   2.180   5.702
 9166SOL     OW28396   4.230   5.734   1.469
 9166SOL    HW128397   4.250   5.693   1.558
 9166SOL    HW228398   4.309   5.722   1.409
 9167SOL     OW28399   1.010   2.164   6.250
 9167SOL    HW128400   1.040   2.079   6.293
 9167SOL    HW228401   1.025   2.159   6.151
 9168SOL     OW28402   6.339   4.835   5.853
 9168SOL    HW128403   6.253   4.793   5.826
 9168SOL    HW228404   6.414   4.771   5.837
 9169SOL     OW28405   6.596   6.236   6.412
 9169SOL    HW128406   6.588   6.333   6.437
 9169SOL    HW228407   6.521   6.210   6.352
 9170SOL     OW28408   1.796   1.609   5.722
 9170SOL    HW128409   1.806   1.707   5.739
 9170SOL    HW228410   1.843   1.558   5.795
 9171SOL     OW28411   2.898   5.135   0.662
 9171SOL    HW128412   2.997   5.121   0.672
 9171SOL    HW228413   2.859   5.060   0.609
 9172SOL     OW28414   4.718   1.303   4.829
 9172SOL    HW128415   4.764   1.235   4.773
 9172SOL    HW228416   4.632   1.331   4.785
 9173SOL     OW28417   6.796   2.368   3.876
 9173SOL    HW128418   6.859   2.290   3.876
 9173SOL    HW228419   6.770   2.389   3.782
 9174SOL     OW28420   0.741   6.245   0.365
 9174SOL    HW128421   0.675   6.206   0.428
 9174SOL    HW228422   0.742   6.345   0.375
 9175SOL     OW28423   1.622   7.016   0.403
 9175SOL    HW128424   1.577   0.044   0.328
 9175SOL    HW228425   1.686   0.056   0.450
 9176SOL     OW28426   2.228   1.041   2.945
 9176SOL    HW128427   2.263   0.952   2.918
 9176SOL    HW228428   2.243   1.108   2.872
 9177SOL     OW28429   0.554   3.398   3.781
 9177SOL    HW128430   0.562   3.358   3.690
 9177SOL    HW228431   0.481   3.467   3.782
 9178SOL     OW28432   1.972   6.177   6.562
 9178SOL    HW128433   1.971   6.268   6.604
 9178SOL    HW228434   2.061   6.134   6.578
 9179SOL     OW28435   3.293   5.993   5.509
 9179SOL    HW128436   3.277   5.909   5.458
 9179SOL    HW228437   3.286   6.071   5.448
 9180SOL     OW28438   6.805   2.041   4.077
 9180SOL    HW128439   6.770   1.950   4.099
 9180SOL    HW228440   6.805   2.098   4.159
 9181SOL     OW28441   4.460   2.079   3.710
 9181SOL    HW128442   4.373   2.044   3.676
 9181SOL    HW228443   4.510   2.123   3.635
 9182SOL     OW28444   1.798   0.938   3.072
 9182SOL    HW128445   1.755   0.990   2.998
 9182SOL    HW228446   1.746   0.952   3.157
 9183SOL     OW28447   4.972   2.532   6.750
 9183SOL    HW128448   4.893   2.472   6.733
 9183SOL    HW228449   4.967   2.568   6.843
 9184SOL     OW28450   3.435   2.893   0.690
 9184SOL    HW128451   3.524   2.876   0.733
 9184SOL    HW228452   3.370   2.824   0.721
 9185SOL     OW28453   0.232   0.065   6.268
 9185SOL    HW128454   0.213   0.098   6.175
 9185SOL    HW228455   0.255   6.990   6.265
 9186SOL     OW28456   4.401   0.397   6.306
 9186SOL    HW128457   4.435   0.487   6.332
 9186SOL    HW228458   4.445   0.327   6.362
 9187SOL     OW28459   4.903   1.908   6.942
 9187SOL    HW128460   4.829   1.884   6.879
 9187SOL    HW228461   4.912   2.007   6.948
 9188SOL     OW28462   1.479   0.349   0.981
 9188SOL    HW128463   1.400   0.408   0.966
 9188SOL    HW228464   1.456   0.255   0.957
 9189SOL     OW28465   2.966   1.239   2.997
 9189SOL    HW128466   2.958   1.192   3.085
 9189SOL    HW228467   3.040   1.199   2.944
 9190SOL     OW28468   5.629   3.788   5.321
 9190SOL    HW128469   5.538   3.807   5.285
 9190SOL    HW228470   5.659   3.697   5.292
 9191SOL     OW28471   5.203   6.450   6.833
 9191SOL    HW128472   5.228   6.367   6.884
 9191SOL    HW228473   5.240   6.530   6.881
 9192SOL     OW28474   6.503   4.062   5.408
 9192SOL    HW128475   6.570   3.988   5.393
 9192SOL    HW228476   6.540   4.148   5.374
 9193SOL     OW28477   3.355   3.207   3.895
 9193SOL    HW128478   3.316   3.291   3.856
 9193SOL    HW228479   3.290   3.168   3.960
 9194SOL     OW28480   3.401   6.088   2.197
 9194SOL    HW128481   3.352   6.131   2.122
 9194SOL    HW228482   3.473   6.028   2.160
 9195SOL     OW28483   0.649   2.873   3.243
 9195SOL    HW128484   0.718   2.944   3.259
 9195SOL    HW228485   0.691   2.797   3.193
 9196SOL     OW28486   3.419   0.673   3.883
 9196SOL    HW128487   3.411   0.722   3.970
 9196SOL    HW228488   3.504   0.621   3.882
 9197SOL     OW28489   2.649   3.528   0.195
 9197SOL    HW128490   2.694   3.453   0.146
 9197SOL    HW228491   2.618   3.596   0.130
 9198SOL     OW28492   5.499   4.311   5.802
 9198SOL    HW128493   5.520   4.294   5.898
 9198SOL    HW228494   5.444   4.394   5.794
 9199SOL     OW28495   1.154   4.113   5.869
 9199SOL    HW128496   1.115   4.176   5.935
 9199SOL    HW228497   1.160   4.022   5.910
 9200SOL     OW28498   0.090   6.237   0.899
 9200SOL    HW128499   0.103   6.336   0.905
 9200SOL    HW228500   0.056   6.202   0.986
 9201SOL     OW28501   0.377   4.259   1.931
 9201SOL    HW128502   0.420   4.325   1.870
 9201SOL    HW228503   0.336   4.185   1.876
 9202SOL     OW28504   1.815   5.056   4.377
 9202SOL    HW128505   1.727   5.073   4.422
 9202SOL    HW228506   1.807   4.976   4.318
 9203SOL     OW28507   5.140   1.489   6.758
 9203SOL    HW128508   5.186   1.444   6.681
 9203SOL    HW228509   5.198   1.564   6.792
 9204SOL     OW28510   5.659   4.019   2.858
 9204SOL    HW128511   5.672   4.117   2.872
 9204SOL    HW228512   5.704   3.968   2.931
 9205SOL     OW28513   5.162   3.314   2.476
 9205SOL    HW128514   5.076   3.360   2.496
 9205SOL    HW228515   5.148   3.247   2.403
 9206SOL     OW28516   2.358   6.588   4.245
 9206SOL    HW128517   2.296   6.524   4.292
 9206SOL    HW228518   2.432   6.537   4.202
 9207SOL     OW28519   3.939   6.540   6.052
 9207SOL    HW128520   4.035   6.561   6.031
 9207SOL    HW228521   3.915   6.579   6.140
 9208SOL     OW28522   4.931   3.332   2.185
 9208SOL    HW128523   4.893   3.241   2.203
 9208SOL    HW228524   5.000   3.325   2.113
 9209SOL     OW28525   4.256   1.162   2.557
 9209SOL    HW128526   4.289   1.249   2.595
 9209SOL    HW228527   4.299   1.086   2.604
 9210SOL     OW28528   2.120   6.486   1.468
 9210SOL    HW128529   2.038   6.524   1.426
 9210SOL    HW228530   2.201   6.526   1.426
 9211SOL     OW28531   5.627   1.686   6.169
 9211SOL    HW128532   5.605   1.650   6.079
 9211SOL    HW228533   5.726   1.683   6.183
 9212SOL     OW28534   4.426   4.576   4.444
 9212SOL    HW128535   4.501   4.561   4.508
 9212SOL    HW228536   4.395   4.671   4.451
 9213SOL     OW28537   5.867   0.072   4.722
 9213SOL    HW128538   5.964   0.060   4.700
 9213SOL    HW228539   5.826   0.137   4.658
 9214SOL     OW28540   1.547   2.753   4.676
 9214SOL    HW128541   1.610   2.762   4.753
 9214SOL    HW228542   1.533   2.656   4.656
 9215SOL     OW28543   0.311   3.986   2.550
 9215SOL    HW128544   0.240   4.045   2.509
 9215SOL    HW228545   0.287   3.890   2.534
 9216SOL     OW28546   2.596   5.945   4.674
 9216SOL    HW128547   2.607   5.846   4.660
 9216SOL    HW228548   2.682   5.991   4.652
 9217SOL     OW28549   5.166   1.209   6.219
 9217SOL    HW128550   5.160   1.201   6.319
 9217SOL    HW228551   5.086   1.166   6.178
 9218SOL     OW28552   5.199   0.038   0.156
 9218SOL    HW128553   5.138   6.982   0.169
 9218SOL    HW228554   5.282   0.009   0.108
 9219SOL     OW28555   3.744   3.207   5.434
 9219SOL    HW128556   3.808   3.207   5.356
 9219SOL    HW228557   3.703   3.117   5.442
 9220SOL     OW28558   2.368   6.418   3.115
 9220SOL    HW128559   2.333   6.451   3.027
 9220SOL    HW228560   2.404   6.494   3.168
 9221SOL     OW28561   2.803   0.352   5.811
 9221SOL    HW128562   2.881   0.350   5.872
 9221SOL    HW228563   2.729   0.296   5.848
 9222SOL     OW28564   2.137   4.584   4.116
 9222SOL    HW128565   2.082   4.658   4.156
 9222SOL    HW228566   2.231   4.591   4.151
 9223SOL     OW28567   1.245   4.071   4.369
 9223SOL    HW128568   1.152   4.082   4.406
 9223SOL    HW228569   1.262   4.141   4.300
 9224SOL     OW28570   1.298   4.265   4.178
 9224SOL    HW128571   1.374   4.208   4.150
 9224SOL    HW228572   1.233   4.275   4.103
 9225SOL     OW28573   3.789   6.641   5.848
 9225SOL    HW128574   3.838   6.606   5.928
 9225SOL    HW228575   3.739   6.724   5.874
 9226SOL     OW28576   0.901   6.767   0.784
 9226SOL    HW128577   0.908   6.766   0.684
 9226SOL    HW228578   0.839   6.695   0.813
 9227SOL     OW28579   1.745   5.709   0.940
 9227SOL    HW128580   1.792   5.770   0.876
 9227SOL    HW228581   1.804   5.631   0.961
 9228SOL     OW28582   1.896   2.640   5.647
 9228SOL    HW128583   1.835   2.648   5.726
 9228SOL    HW228584   1.988   2.616   5.679
 9229SOL     OW28585   0.953   4.639   0.190
 9229SOL    HW128586   1.048   4.666   0.176
 9229SOL    HW228587   0.892   4.712   0.157
 9230SOL     OW28588   5.434   2.363   4.443
 9230SOL    HW128589   5.340   2.362   4.409
 9230SOL    HW228590   5.491   2.305   4.386
 9231SOL     OW28591   0.470   4.922   5.362
 9231SOL    HW128592   0.516   5.010   5.373
 9231SOL    HW228593   0.535   4.848   5.382
 9232SOL     OW28594   1.913   5.347   1.755
 9232SOL    HW128595   1.861   5.262   1.758
 9232SOL    HW228596   1.920   5.384   1.848
 9233SOL     OW28597   0.549   6.149   0.541
 9233SOL    HW128598   0.514   6.194   0.623
 9233SOL    HW228599   0.477   6.093   0.501
 9234SOL     OW28600   2.128   5.274   1.430
 9234SOL    HW128601   2.032   5.271   1.405
 9234SOL    HW228602   2.141   5.227   1.518
 9235SOL     OW28603   2.225   2.656   3.355
 9235SOL    HW128604   2.208   2.558   3.347
 9235SOL    HW228605   2.301   2.683   3.296
 9236SOL     OW28606   1.960   3.696   0.047
 9236SOL    HW128607   1.940   3.612   7.019
 9236SOL    HW228608   2.001   3.763   7.006
 9237SOL     OW28609   6.217   5.512   3.235
 9237SOL    HW128610   6.299   5.465   3.204
 9237SOL    HW228611   6.235   5.611   3.240
 9238SOL     OW28612   1.978   3.348   5.337
 9238SOL    HW128613   1.959   3.291   5.416
 9238SOL    HW228614   2.073   3.334   5.308
 9239SOL     OW28615   6.857   4.357   0.191
 9239SOL    HW128616   6.792   4.284   0.213
 9239SOL    HW228617   6.847   4.431   0.257
 9240SOL     OW28618   4.914   3.134   3.186
 9240SOL    HW128619   5.011   3.136   3.209
 9240SOL    HW228620   4.901   3.087   3.099
 9241SOL     OW28621   0.085   5.847   0.024
 9241SOL    HW128622   7.010   5.834   0.050
 9241SOL    HW228623   0.144   5.805   0.093
 9242SOL     OW28624   1.924   2.240   2.159
 9242SOL    HW128625   1.918   2.325   2.107
 9242SOL    HW228626   1.972   2.257   2.246
 9243SOL     OW28627   0.710   6.710   1.836
 9243SOL    HW128628   0.765   6.655   1.899
 9243SOL    HW228629   0.714   6.806   1.864
 9244SOL     OW28630   3.292   6.288   5.366
 9244SOL    HW128631   3.346   6.271   5.448
 9244SOL    HW228632   3.309   6.382   5.334
 9245SOL     OW28633   1.068   4.083   3.522
 9245SOL    HW128634   1.140   4.113   3.459
 9245SOL    HW228635   0.986   4.137   3.507
 9246SOL     OW28636   6.176   7.002   4.726
 9246SOL    HW128637   6.179   6.948   4.810
 9246SOL    HW228638   6.249   0.049   4.728
 9247SOL     OW28639   3.661   5.640   2.991
 9247SOL    HW128640   3.597   5.665   3.063
 9247SOL    HW228641   3.726   5.715   2.976
 9248SOL     OW28642   2.653   1.589   4.822
 9248SOL    HW128643   2.574   1.527   4.819
 9248SOL    HW228644   2.737   1.537   4.833
 9249SOL     OW28645   3.788   4.726   1.655
 9249SOL    HW128646   3.754   4.817   1.630
 9249SOL    HW228647   3.725   4.684   1.720
 9250SOL     OW28648   6.890   5.091   4.281
 9250SOL    HW128649   6.893   5.019   4.350
 9250SOL    HW228650   6.968   5.081   4.219
 9251SOL     OW28651   3.998   2.655   1.455
 9251SOL    HW128652   3.955   2.742   1.430
 9251SOL    HW228653   3.929   2.583   1.455
 9252SOL     OW28654   4.322   0.398   5.065
 9252SOL    HW128655   4.324   0.498   5.070
 9252SOL    HW228656   4.228   0.366   5.075
 9253SOL     OW28657   6.352   5.105   5.746
 9253SOL    HW128658   6.417   5.033   5.772
 9253SOL    HW228659   6.266   5.092   5.796
 9254SOL     OW28660   5.801   4.526   2.608
 9254SOL    HW128661   5.895   4.535   2.574
 9254SOL    HW228662   5.764   4.437   2.583
 9255SOL     OW28663   6.414   3.643   6.614
 9255SOL    HW128664   6.334   3.614   6.561
 9255SOL    HW228665   6.393   3.637   6.712
 9256SOL     OW28666   1.969   0.080   1.821
 9256SOL    HW128667   1.945   0.083   1.724
 9256SOL    HW228668   2.063   0.047   1.831
 9257SOL     OW28669   6.042   5.381   3.429
 9257SOL    HW128670   6.114   5.394   3.360
 9257SOL    HW228671   5.986   5.464   3.434
 9258SOL     OW28672   3.282   3.455   0.194
 9258SOL    HW128673   3.244   3.545   0.175
 9258SOL    HW228674   3.279   3.437   0.292
 9259SOL     OW28675   2.049   1.757   6.629
 9259SOL    HW128676   2.091   1.733   6.716
 9259SOL    HW228677   1.962   1.709   6.620
 9260SOL     OW28678   6.218   3.084   5.723
 9260SOL    HW128679   6.121   3.062   5.710
 9260SOL    HW228680   6.264   3.083   5.635
 9261SOL     OW28681   4.186   1.162   0.670
 9261SOL    HW128682   4.264   1.131   0.723
 9261SOL    HW228683   4.203   1.254   0.634
 9262SOL     OW28684   0.267   6.289   4.620
 9262SOL    HW128685   0.256   6.303   4.521
 9262SOL    HW228686   0.227   6.365   4.669
 9263SOL     OW28687   3.349   5.596   2.720
 9263SOL    HW128688   3.333   5.649   2.803
 9263SOL    HW228689   3.274   5.531   2.707
 9264SOL     OW28690   5.599   3.812   6.375
 9264SOL    HW128691   5.573   3.718   6.400
 9264SOL    HW228692   5.545   3.842   6.296
 9265SOL     OW28693   3.752   1.990   6.776
 9265SOL    HW128694   3.799   2.065   6.730
 9265SOL    HW228695   3.743   1.913   6.713
 9266SOL     OW28696   0.415   5.007   1.695
 9266SOL    HW128697   0.470   5.044   1.771
 9266SOL    HW228698   0.406   4.908   1.705
 9267SOL     OW28699   0.604   1.577   3.655
 9267SOL    HW128700   0.520   1.631   3.652
 9267SOL    HW228701   0.681   1.635   3.629
 9268SOL     OW28702   0.451   6.564   2.006
 9268SOL    HW128703   0.488   6.481   2.049
 9268SOL    HW228704   0.481   6.568   1.910
 9269SOL     OW28705   4.811   0.362   0.062
 9269SOL    HW128706   4.820   0.324   6.991
 9269SOL    HW228707   4.811   0.462   0.057
 9270SOL     OW28708   3.544   1.552   5.989
 9270SOL    HW128709   3.606   1.612   5.938
 9270SOL    HW228710   3.478   1.607   6.040
 9271SOL     OW28711   1.203   0.395   6.796
 9271SOL    HW128712   1.150   0.313   6.775
 9271SOL    HW228713   1.175   0.469   6.736
 9272SOL     OW28714   0.275   6.291   5.935
 9272SOL    HW128715   0.327   6.376   5.924
 9272SOL    HW228716   0.212   6.280   5.858
 9273SOL     OW28717   5.277   5.782   4.131
 9273SOL    HW128718   5.225   5.852   4.083
 9273SOL    HW228719   5.217   5.734   4.196
 9274SOL     OW28720   0.511   3.330   0.419
 9274SOL    HW128721   0.424   3.379   0.411
 9274SOL    HW228722   0.545   3.308   0.328
 9275SOL     OW28723   0.824   6.511   0.818
 9275SOL    HW128724   0.735   6.502   0.772
 9275SOL    HW228725   0.891   6.453   0.771
 9276SOL     OW28726   3.557   4.750   6.465
 9276SOL    HW128727   3.479   4.746   6.528
 9276SOL    HW228728   3.594   4.843   6.465
 9277SOL     OW28729   4.335   5.139   2.205
 9277SOL    HW128730   4.417   5.082   2.198
 9277SOL    HW228731   4.329   5.176   2.298
 9278SOL     OW28732   0.287   0.234   4.164
 9278SOL    HW128733   0.294   0.177   4.246
 9278SOL    HW228734   0.195   0.272   4.156
 9279SOL     OW28735   3.617   5.764   1.565
 9279SOL    HW128736   3.685   5.691   1.567
 9279SOL    HW228737   3.654   5.843   1.517
 9280SOL     OW28738   1.693   1.633   2.660
 9280SOL    HW128739   1.598   1.659   2.645
 9280SOL    HW228740   1.720   1.563   2.595
 9281SOL     OW28741   3.608   3.506   5.938
 9281SOL    HW128742   3.557   3.593   5.939
 9281SOL    HW228743   3.602   3.466   5.847
 9282SOL     OW28744   3.735   0.527   4.585
 9282SOL    HW128745   3.639   0.511   4.563
 9282SOL    HW228746   3.755   0.625   4.579
 9283SOL     OW28747   5.661   0.151   6.400
 9283SOL    HW128748   5.622   0.132   6.310
 9283SOL    HW228749   5.710   0.238   6.398
 9284SOL     OW28750   3.340   3.615   5.263
 9284SOL    HW128751   3.389   3.538   5.221
 9284SOL    HW228752   3.243   3.608   5.241
 9285SOL     OW28753   5.537   3.223   2.372
 9285SOL    HW128754   5.603   3.295   2.395
 9285SOL    HW228755   5.586   3.139   2.350
 9286SOL     OW28756   5.097   6.269   0.338
 9286SOL    HW128757   5.106   6.368   0.350
 9286SOL    HW228758   5.026   6.251   0.270
 9287SOL     OW28759   2.325   4.390   5.913
 9287SOL    HW128760   2.371   4.479   5.915
 9287SOL    HW228761   2.243   4.397   5.857
 9288SOL     OW28762   4.367   2.453   4.075
 9288SOL    HW128763   4.401   2.491   4.161
 9288SOL    HW228764   4.324   2.364   4.093
 9289SOL     OW28765   3.970   6.949   5.971
 9289SOL    HW128766   3.879   6.914   5.949
 9289SOL    HW228767   4.005   6.901   6.051
 9290SOL     OW28768   5.364   0.718   4.629
 9290SOL    HW128769   5.290   0.672   4.581
 9290SOL    HW228770   5.375   0.676   4.720
 9291SOL     OW28771   1.213   6.311   5.655
 9291SOL    HW128772   1.288   6.298   5.591
 9291SOL    HW228773   1.173   6.223   5.679
 9292SOL     OW28774   1.526   1.407   5.721
 9292SOL    HW128775   1.610   1.353   5.710
 9292SOL    HW228776   1.522   1.477   5.650
 9293SOL     OW28777   4.827   2.958   6.056
 9293SOL    HW128778   4.880   3.013   5.992
 9293SOL    HW228779   4.880   2.878   6.083
 9294SOL     OW28780   4.865   0.817   0.396
 9294SOL    HW128781   4.842   0.886   0.328
 9294SOL    HW228782   4.789   0.806   0.460
 9295SOL     OW28783   1.162   0.683   5.484
 9295SOL    HW128784   1.168   0.783   5.491
 9295SOL    HW228785   1.157   0.643   5.576
 9296SOL     OW28786   2.875   3.822   1.386
 9296SOL    HW128787   2.776   3.826   1.368
 9296SOL    HW228788   2.918   3.904   1.347
 9297SOL     OW28789   0.198   5.513   3.080
 9297SOL    HW128790   0.264   5.519   3.004
 9297SOL    HW228791   0.244   5.475   3.160
 9298SOL     OW28792   1.325   0.011   6.011
 9298SOL    HW128793   1.357   6.947   6.051
 9298SOL    HW228794   1.394   0.082   6.026
 9299SOL     OW28795   2.198   2.175   4.139
 9299SOL    HW128796   2.285   2.203   4.181
 9299SOL    HW228797   2.182   2.078   4.157
 9300SOL     OW28798   1.349   6.173   5.084
 9300SOL    HW128799   1.379   6.097   5.141
 9300SOL    HW228800   1.400   6.255   5.109
 9301SOL     OW28801   0.010   3.878   4.673
 9301SOL    HW128802   0.002   3.797   4.615
 9301SOL    HW228803   6.978   3.953   4.633
 9302SOL     OW28804   2.129   3.206   4.993
 9302SOL    HW128805   2.197   3.133   4.988
 9302SOL    HW228806   2.162   3.278   5.055
 9303SOL     OW28807   3.112   3.941   6.672
 9303SOL    HW128808   3.032   3.900   6.715
 9303SOL    HW228809   3.174   3.976   6.742
 9304SOL     OW28810   4.781   5.049   0.400
 9304SOL    HW128811   4.764   4.953   0.377
 9304SOL    HW228812   4.879   5.063   0.415
 9305SOL     OW28813   2.914   1.670   1.136
 9305SOL    HW128814   2.986   1.611   1.100
 9305SOL    HW228815   2.895   1.744   1.071
 9306SOL     OW28816   0.022   4.314   4.168
 9306SOL    HW128817   0.104   4.362   4.199
 9306SOL    HW228818   0.025   4.304   4.068
 9307SOL     OW28819   2.055   3.969   0.550
 9307SOL    HW128820   2.087   3.874   0.544
 9307SOL    HW228821   2.126   4.025   0.591
 9308SOL     OW28822   1.453   4.993   1.835
 9308SOL    HW128823   1.367   5.021   1.879
 9308SOL    HW228824   1.510   5.074   1.818
 9309SOL     OW28825   5.012   5.997   5.972
 9309SOL    HW128826   4.940   6.039   6.027
 9309SOL    HW228827   4.982   5.993   5.876
 9310SOL     OW28828   4.684   5.903   5.893
 9310SOL    HW128829   4.680   6.000   5.872
 9310SOL    HW228830   4.662   5.889   5.990
 9311SOL     OW28831   4.543   3.400   1.243
 9311SOL    HW128832   4.457   3.367   1.282
 9311SOL    HW228833   4.569   3.342   1.166
 9312SOL     OW28834   1.345   2.138   0.760
 9312SOL    HW128835   1.413   2.088   0.813
 9312SOL    HW228836   1.332   2.093   0.672
 9313SOL     OW28837   1.522   0.653   1.709
 9313SOL    HW128838   1.537   0.680   1.804
 9313SOL    HW228839   1.475   0.727   1.660
 9314SOL     OW28840   5.478   2.797   0.611
 9314SOL    HW128841   5.460   2.698   0.605
 9314SOL    HW228842   5.488   2.823   0.707
 9315SOL     OW28843   5.860   0.985   6.450
 9315SOL    HW128844   5.841   0.953   6.357
 9315SOL    HW228845   5.948   0.949   6.480
 9316SOL     OW28846   5.137   0.693   5.634
 9316SOL    HW128847   5.074   0.624   5.670
 9316SOL    HW228848   5.230   0.673   5.664
 9317SOL     OW28849   3.288   5.188   3.297
 9317SOL    HW128850   3.341   5.271   3.278
 9317SOL    HW228851   3.197   5.197   3.257
 9318SOL     OW28852   5.477   5.771   0.291
 9318SOL    HW128853   5.527   5.820   0.219
 9318SOL    HW228854   5.381   5.799   0.290
 9319SOL     OW28855   3.063   4.002   0.984
 9319SOL    HW128856   2.983   3.963   0.939
 9319SOL    HW228857   3.146   3.956   0.952
 9320SOL     OW28858   5.410   0.321   6.232
 9320SOL    HW128859   5.466   0.401   6.212
 9320SOL    HW228860   5.463   0.238   6.213
 9321SOL     OW28861   0.387   2.436   5.498
 9321SOL    HW128862   0.356   2.379   5.575
 9321SOL    HW228863   0.476   2.404   5.467
 9322SOL     OW28864   6.554   4.557   6.051
 9322SOL    HW128865   6.550   4.497   6.130
 9322SOL    HW228866   6.554   4.502   5.967
 9323SOL     OW28867   1.787   3.166   3.899
 9323SOL    HW128868   1.729   3.240   3.865
 9323SOL    HW228869   1.743   3.123   3.978
 9324SOL     OW28870   1.071   3.656   0.623
 9324SOL    HW128871   1.048   3.631   0.717
 9324SOL    HW228872   1.070   3.574   0.566
 9325SOL     OW28873   2.298   5.648   1.654
 9325SOL    HW128874   2.293   5.684   1.561
 9325SOL    HW228875   2.392   5.656   1.688
 9326SOL     OW28876   3.785   4.723   0.286
 9326SOL    HW128877   3.854   4.766   0.344
 9326SOL    HW228878   3.768   4.781   0.206
 9327SOL     OW28879   4.314   0.767   3.180
 9327SOL    HW128880   4.414   0.762   3.183
 9327SOL    HW228881   4.275   0.711   3.253
 9328SOL     OW28882   2.879   6.881   4.643
 9328SOL    HW128883   2.889   6.879   4.743
 9328SOL    HW228884   2.961   6.922   4.603
 9329SOL     OW28885   0.363   6.090   6.489
 9329SOL    HW128886   0.428   6.162   6.515
 9329SOL    HW228887   0.340   6.035   6.570
 9330SOL     OW28888   0.313   6.825   6.196
 9330SOL    HW128889   0.332   6.730   6.172
 9330SOL    HW228890   0.391   6.864   6.244
 9331SOL     OW28891   1.355   2.841   4.932
 9331SOL    HW128892   1.360   2.776   5.008
 9331SOL    HW228893   1.349   2.934   4.968
 9332SOL     OW28894   4.021   5.734   0.748
 9332SOL    HW128895   4.062   5.732   0.657
 9332SOL    HW228896   3.970   5.819   0.760
 9333SOL     OW28897   3.576   5.326   0.706
 9333SOL    HW128898   3.630   5.389   0.762
 9333SOL    HW228899   3.500   5.291   0.759
 9334SOL     OW28900   4.900   6.649   4.213
 9334SOL    HW128901   4.919   6.552   4.224
 9334SOL    HW228902   4.945   6.700   4.286
 9335SOL     OW28903   2.082   2.175   1.469
 9335SOL    HW128904   2.052   2.131   1.384
 9335SOL    HW228905   2.178   2.154   1.486
 9336SOL     OW28906   5.896   0.680   4.992
 9336SOL    HW128907   5.828   0.610   4.970
 9336SOL    HW228908   5.850   0.765   5.018
 9337SOL     OW28909   4.168   0.138   6.601
 9337SOL    HW128910   4.115   0.202   6.657
 9337SOL    HW228911   4.157   0.161   6.505
 9338SOL     OW28912   0.218   6.075   0.250
 9338SOL    HW128913   0.296   6.128   0.216
 9338SOL    HW228914   0.134   6.112   0.211
 9339SOL     OW28915   5.770   5.319   6.875
 9339SOL    HW128916   5.776   5.273   6.786
 9339SOL    HW228917   5.677   5.311   6.910
 9340SOL     OW28918   3.655   5.996   2.940
 9340SOL    HW128919   3.659   6.026   2.844
 9340SOL    HW228920   3.559   5.988   2.968
 9341SOL     OW28921   6.044   4.671   6.646
 9341SOL    HW128922   6.010   4.612   6.719
 9341SOL    HW228923   6.019   4.632   6.557
 9342SOL     OW28924   3.212   0.450   4.533
 9342SOL    HW128925   3.202   0.364   4.483
 9342SOL    HW228926   3.159   0.521   4.487
 9343SOL     OW28927   4.770   3.848   1.888
 9343SOL    HW128928   4.699   3.843   1.818
 9343SOL    HW228929   4.819   3.935   1.881
 9344SOL     OW28930   5.605   5.255   6.381
 9344SOL    HW128931   5.546   5.250   6.300
 9344SOL    HW228932   5.550   5.244   6.463
 9345SOL     OW28933   6.762   6.017   0.058
 9345SOL    HW128934   6.701   6.065   7.017
 9345SOL    HW228935   6.802   6.082   0.122
 9346SOL     OW28936   5.388   6.515   2.793
 9346SOL    HW128937   5.323   6.539   2.722
 9346SOL    HW228938   5.428   6.425   2.773
 9347SOL     OW28939   3.601   5.675   1.175
 9347SOL    HW128940   3.560   5.688   1.085
 9347SOL    HW228941   3.701   5.679   1.167
 9348SOL     OW28942   2.741   6.375   3.174
 9348SOL    HW128943   2.825   6.398   3.224
 9348SOL    HW228944   2.710   6.284   3.202
 9349SOL     OW28945   0.071   5.708   2.476
 9349SOL    HW128946   7.013   5.648   2.471
 9349SOL    HW228947   0.119   5.707   2.388
 9350SOL     OW28948   6.921   1.620   4.586
 9350SOL    HW128949   6.949   1.566   4.507
 9350SOL    HW228950   6.998   1.676   4.616
 9351SOL     OW28951   1.992   1.134   5.293
 9351SOL    HW128952   2.085   1.162   5.268
 9351SOL    HW228953   1.992   1.097   5.385
 9352SOL     OW28954   1.304   2.676   5.600
 9352SOL    HW128955   1.354   2.716   5.524
 9352SOL    HW228956   1.368   2.650   5.673
 9353SOL     OW28957   1.634   4.101   1.819
 9353SOL    HW128958   1.578   4.032   1.864
 9353SOL    HW228959   1.730   4.090   1.848
 9354SOL     OW28960   6.386   2.214   1.296
 9354SOL    HW128961   6.294   2.250   1.310
 9354SOL    HW228962   6.426   2.191   1.384
 9355SOL     OW28963   6.254   0.973   4.465
 9355SOL    HW128964   6.273   1.058   4.515
 9355SOL    HW228965   6.162   0.941   4.488
 9356SOL     OW28966   4.696   4.983   1.970
 9356SOL    HW128967   4.753   4.934   2.037
 9356SOL    HW228968   4.654   4.917   1.908
 9357SOL     OW28969   2.620   3.902   0.256
 9357SOL    HW128970   2.638   3.995   0.223
 9357SOL    HW228971   2.537   3.901   0.311
 9358SOL     OW28972   5.587   3.651   1.953
 9358SOL    HW128973   5.643   3.590   2.010
 9358SOL    HW228974   5.626   3.743   1.956
 9359SOL     OW28975   6.894   3.818   6.009
 9359SOL    HW128976   6.900   3.838   5.912
 9359SOL    HW228977   6.921   3.723   6.026
 9360SOL     OW28978   1.969   0.039   5.792
 9360SOL    HW128979   2.028   6.981   5.791
 9360SOL    HW228980   2.019   0.118   5.828
 9361SOL     OW28981   2.917   6.749   3.336
 9361SOL    HW128982   3.016   6.760   3.339
 9361SOL    HW228983   2.876   6.792   3.416
 9362SOL     OW28984   1.835   1.065   1.712
 9362SOL    HW128985   1.901   0.997   1.744
 9362SOL    HW228986   1.882   1.138   1.664
 9363SOL     OW28987   3.782   5.507   1.579
 9363SOL    HW128988   3.845   5.509   1.657
 9363SOL    HW228989   3.695   5.467   1.607
 9364SOL     OW28990   3.733   2.985   6.245
 9364SOL    HW128991   3.714   3.083   6.242
 9364SOL    HW228992   3.832   2.970   6.243
 9365SOL     OW28993   2.275   2.746   4.852
 9365SOL    HW128994   2.264   2.816   4.782
 9365SOL    HW228995   2.279   2.788   4.943
 9366SOL     OW28996   3.181   1.685   0.008
 9366SOL    HW128997   3.113   1.722   6.966
 9366SOL    HW228998   3.263   1.743   0.005
 9367SOL     OW28999   6.744   5.846   3.842
 9367SOL    HW129000   6.730   5.750   3.818
 9367SOL    HW229001   6.757   5.854   3.941
 9368SOL     OW29002   3.589   2.086   2.545
 9368SOL    HW129003   3.599   1.987   2.535
 9368SOL    HW229004   3.674   2.132   2.519
 9369SOL     OW29005   0.248   1.138   6.004
 9369SOL    HW129006   0.220   1.118   6.097
 9369SOL    HW229007   0.347   1.152   6.001
 9370SOL     OW29008   5.499   0.721   2.724
 9370SOL    HW129009   5.588   0.675   2.723
 9370SOL    HW229010   5.507   0.807   2.775
 9371SOL     OW29011   1.833   5.409   6.851
 9371SOL    HW129012   1.763   5.439   6.785
 9371SOL    HW229013   1.861   5.315   6.829
 9372SOL     OW29014   5.943   6.408   3.184
 9372SOL    HW129015   5.989   6.424   3.271
 9372SOL    HW229016   5.997   6.450   3.110
 9373SOL     OW29017   4.420   2.407   2.848
 9373SOL    HW129018   4.520   2.398   2.857
 9373SOL    HW229019   4.390   2.366   2.762
 9374SOL     OW29020   6.042   2.802   6.766
 9374SOL    HW129021   5.965   2.739   6.756
 9374SOL    HW229022   6.110   2.762   6.828
 9375SOL     OW29023   6.906   1.485   3.554
 9375SOL    HW129024   6.947   1.476   3.463
 9375SOL    HW229025   6.870   1.397   3.583
 9376SOL     OW29026   3.084   3.741   0.634
 9376SOL    HW129027   3.104   3.835   0.662
 9376SOL    HW229028   3.167   3.687   0.637
 9377SOL     OW29029   0.820   5.168   3.441
 9377SOL    HW129030   0.773   5.256   3.449
 9377SOL    HW229031   0.899   5.178   3.379
 9378SOL     OW29032   1.765   6.953   5.641
 9378SOL    HW129033   1.822   6.994   5.713
 9378SOL    HW229034   1.823   6.915   5.569
 9379SOL     OW29035   4.736   4.775   4.757
 9379SOL    HW129036   4.642   4.746   4.778
 9379SOL    HW229037   4.798   4.698   4.772
 9380SOL     OW29038   5.958   5.737   5.198
 9380SOL    HW129039   5.985   5.783   5.283
 9380SOL    HW229040   5.859   5.746   5.186
 9381SOL     OW29041   2.456   3.207   5.913
 9381SOL    HW129042   2.534   3.229   5.972
 9381SOL    HW229043   2.479   3.225   5.818
 9382SOL     OW29044   3.519   1.606   2.858
 9382SOL    HW129045   3.539   1.704   2.856
 9382SOL    HW229046   3.459   1.583   2.781
 9383SOL     OW29047   3.417   5.965   5.081
 9383SOL    HW129048   3.321   5.991   5.082
 9383SOL    HW229049   3.425   5.865   5.087
 9384SOL     OW29050   4.371   6.342   1.488
 9384SOL    HW129051   4.288   6.346   1.543
 9384SOL    HW229052   4.357   6.282   1.410
 9385SOL     OW29053   3.981   1.778   2.104
 9385SOL    HW129054   4.046   1.717   2.150
 9385SOL    HW229055   3.903   1.795   2.164
 9386SOL     OW29056   2.442   6.181   4.888
 9386SOL    HW129057   2.493   6.167   4.973
 9386SOL    HW229058   2.481   6.123   4.816
 9387SOL     OW29059   4.441   0.046   0.365
 9387SOL    HW129060   4.393   7.011   0.298
 9387SOL    HW229061   4.471   0.131   0.323
 9388SOL     OW29062   1.599   5.982   2.619
 9388SOL    HW129063   1.544   5.973   2.702
 9388SOL    HW229064   1.594   5.897   2.566
 9389SOL     OW29065   2.579   0.579   5.400
 9389SOL    HW129066   2.536   0.492   5.375
 9389SOL    HW229067   2.566   0.645   5.326
 9390SOL     OW29068   3.865   6.242   3.851
 9390SOL    HW129069   3.950   6.221   3.901
 9390SOL    HW229070   3.802   6.165   3.861
 9391SOL     OW29071   2.376   1.124   5.490
 9391SOL    HW129072   2.309   1.199   5.487
 9391SOL    HW229073   2.358   1.061   5.415
 9392SOL     OW29074   0.093   0.334   4.828
 9392SOL    HW129075   0.165   0.274   4.862
 9392SOL    HW229076   0.003   0.295   4.850
 9393SOL     OW29077   3.488   1.550   4.630
 9393SOL    HW129078   3.474   1.524   4.725
 9393SOL    HW229079   3.547   1.631   4.626
 9394SOL     OW29080   6.363   1.465   2.944
 9394SOL    HW129081   6.270   1.432   2.937
 9394SOL    HW229082   6.390   1.509   2.858
 9395SOL     OW29083   2.623   2.630   6.893
 9395SOL    HW129084   2.570   2.554   6.856
 9395SOL    HW229085   2.568   2.713   6.891
 9396SOL     OW29086   0.357   5.867   4.595
 9396SOL    HW129087   0.332   5.770   4.589
 9396SOL    HW229088   0.451   5.878   4.564
 9397SOL     OW29089   2.516   0.063   0.071
 9397SOL    HW129090   2.591   7.021   0.055
 9397SOL    HW229091   2.478   0.092   7.005
 9398SOL     OW29092   2.219   0.706   5.861
 9398SOL    HW129093   2.165   0.689   5.779
 9398SOL    HW229094   2.292   0.771   5.840
 9399SOL     OW29095   0.780   1.722   6.855
 9399SOL    HW129096   0.767   1.787   6.780
 9399SOL    HW229097   0.764   1.629   6.822
 9400SOL     OW29098   5.378   3.020   1.250
 9400SOL    HW129099   5.328   2.934   1.242
 9400SOL    HW229100   5.400   3.054   1.159
 9401SOL     OW29101   3.711   5.898   3.271
 9401SOL    HW129102   3.789   5.885   3.210
 9401SOL    HW229103   3.716   5.989   3.313
 9402SOL     OW29104   1.306   5.145   5.085
 9402SOL    HW129105   1.207   5.127   5.089
 9402SOL    HW229106   1.346   5.093   5.010
 9403SOL     OW29107   5.192   1.762   2.829
 9403SOL    HW129108   5.094   1.774   2.814
 9403SOL    HW229109   5.210   1.667   2.854
 9404SOL     OW29110   0.755   4.438   6.637
 9404SOL    HW129111   0.822   4.445   6.563
 9404SOL    HW229112   0.666   4.413   6.599
 9405SOL     OW29113   6.935   6.907   2.857
 9405SOL    HW129114   6.914   6.952   2.944
 9405SOL    HW229115   6.947   6.808   2.872
 9406SOL     OW29116   6.869   2.215   5.876
 9406SOL    HW129117   6.888   2.183   5.969
 9406SOL    HW229118   6.788   2.168   5.840
 9407SOL     OW29119   2.473   5.929   2.968
 9407SOL    HW129120   2.415   5.851   2.944
 9407SOL    HW229121   2.541   5.901   3.037
 9408SOL     OW29122   4.139   1.834   6.066
 9408SOL    HW129123   4.181   1.785   5.990
 9408SOL    HW229124   4.203   1.903   6.100
 9409SOL     OW29125   5.260   4.300   5.561
 9409SOL    HW129126   5.219   4.227   5.616
 9409SOL    HW229127   5.266   4.384   5.616
 9410SOL     OW29128   4.085   5.955   1.578
 9410SOL    HW129129   4.160   6.018   1.599
 9410SOL    HW229130   4.118   5.883   1.517
 9411SOL     OW29131   3.938   4.045   0.747
 9411SOL    HW129132   3.872   4.118   0.735
 9411SOL    HW229133   3.990   4.060   0.831
 9412SOL     OW29134   0.232   3.477   1.648
 9412SOL    HW129135   0.291   3.549   1.685
 9412SOL    HW229136   0.186   3.510   1.566
 9413SOL     OW29137   4.034   5.799   4.962
 9413SOL    HW129138   4.076   5.875   5.011
 9413SOL    HW229139   4.105   5.732   4.937
 9414SOL     OW29140   3.496   1.324   3.385
 9414SOL    HW129141   3.488   1.396   3.454
 9414SOL    HW229142   3.591   1.315   3.356
 9415SOL     OW29143   2.281   6.760   2.471
 9415SOL    HW129144   2.183   6.775   2.486
 9415SOL    HW229145   2.300   6.760   2.373
 9416SOL     OW29146   0.667   1.659   1.661
 9416SOL    HW129147   0.697   1.634   1.753
 9416SOL    HW229148   0.604   1.589   1.626
 9417SOL     OW29149   3.838   0.435   5.731
 9417SOL    HW129150   3.925   0.422   5.684
 9417SOL    HW229151   3.837   0.382   5.815
 9418SOL     OW29152   3.206   6.777   0.618
 9418SOL    HW129153   3.143   6.714   0.573
 9418SOL    HW229154   3.173   6.798   0.710
 9419SOL     OW29155   3.673   5.011   5.708
 9419SOL    HW129156   3.750   5.002   5.645
 9419SOL    HW229157   3.588   5.005   5.657
 9420SOL     OW29158   0.384   2.245   4.100
 9420SOL    HW129159   0.352   2.236   4.006
 9420SOL    HW229160   0.484   2.240   4.101
 9421SOL     OW29161   2.284   6.262   5.338
 9421SOL    HW129162   2.320   6.331   5.400
 9421SOL    HW229163   2.296   6.293   5.243
 9422SOL     OW29164   5.284   6.878   2.869
 9422SOL    HW129165   5.230   6.811   2.816
 9422SOL    HW229166   5.362   6.831   2.911
 9423SOL     OW29167   3.482   0.156   3.369
 9423SOL    HW129168   3.497   0.250   3.339
 9423SOL    HW229169   3.390   0.146   3.405
 9424SOL     OW29170   4.736   0.375   4.891
 9424SOL    HW129171   4.714   0.348   4.798
 9424SOL    HW229172   4.750   0.474   4.895
 9425SOL     OW29173   0.086   3.874   6.228
 9425SOL    HW129174   0.035   3.906   6.308
 9425SOL    HW229175   0.024   3.862   6.151
 9426SOL     OW29176   2.971   1.765   6.813
 9426SOL    HW129177   3.001   1.823   6.737
 9426SOL    HW229178   2.902   1.813   6.867
 9427SOL     OW29179   2.853   5.207   4.857
 9427SOL    HW129180   2.839   5.124   4.803
 9427SOL    HW229181   2.833   5.188   4.953
 9428SOL     OW29182   5.485   0.975   1.387
 9428SOL    HW129183   5.510   1.051   1.328
 9428SOL    HW229184   5.435   1.009   1.467
 9429SOL     OW29185   1.522   4.731   1.891
 9429SOL    HW129186   1.461   4.680   1.831
 9429SOL    HW229187   1.516   4.828   1.869
 9430SOL     OW29188   0.316   6.224   2.077
 9430SOL    HW129189   0.395   6.284   2.063
 9430SOL    HW229190   0.317   6.151   2.009
 9431SOL     OW29191   5.594   4.764   1.031
 9431SOL    HW129192   5.644   4.841   0.990
 9431SOL    HW229193   5.499   4.790   1.045
 9432SOL     OW29194   6.087   0.562   3.278
 9432SOL    HW129195   6.076   0.525   3.371
 9432SOL    HW229196   6.134   0.650   3.284
 9433SOL     OW29197   3.382   5.048   3.834
 9433SOL    HW129198   3.452   5.112   3.803
 9433SOL    HW229199   3.403   5.019   3.928
 9434SOL     OW29200   5.511   4.636   3.435
 9434SOL    HW129201   5.472   4.615   3.525
 9434SOL    HW229202   5.444   4.684   3.380
 9435SOL     OW29203   0.935   1.710   3.734
 9435SOL    HW129204   0.910   1.722   3.638
 9435SOL    HW229205   0.884   1.634   3.773
 9436SOL     OW29206   0.884   4.256   2.571
 9436SOL    HW129207   0.855   4.167   2.606
 9436SOL    HW229208   0.954   4.294   2.631
 9437SOL     OW29209   1.150   6.427   3.751
 9437SOL    HW129210   1.247   6.451   3.754
 9437SOL    HW229211   1.096   6.508   3.729
 9438SOL     OW29212   1.098   6.673   0.934
 9438SOL    HW129213   1.185   6.719   0.916
 9438SOL    HW229214   1.026   6.717   0.880
 9439SOL     OW29215   6.961   3.217   2.335
 9439SOL    HW129216   6.877   3.259   2.299
 9439SOL    HW229217   7.013   3.285   2.387
 9440SOL     OW29218   4.337   5.979   4.273
 9440SOL    HW129219   4.389   6.062   4.250
 9440SOL    HW229220   4.359   5.907   4.208
 9441SOL     OW29221   1.097   4.551   4.597
 9441SOL    HW129222   1.162   4.508   4.535
 9441SOL    HW229223   1.099   4.504   4.686
 9442SOL     OW29224   5.946   3.176   0.193
 9442SOL    HW129225   5.985   3.128   0.271
 9442SOL    HW229226   5.936   3.112   0.117
 9443SOL     OW29227   2.530   5.128   1.393
 9443SOL    HW129228   2.443   5.106   1.438
 9443SOL    HW229229   2.530   5.225   1.366
 9444SOL     OW29230   0.981   4.172   6.334
 9444SOL    HW129231   1.056   4.108   6.321
 9444SOL    HW229232   0.928   4.145   6.414
 9445SOL     OW29233   5.375   3.480   2.268
 9445SOL    HW129234   5.413   3.388   2.276
 9445SOL    HW229235   5.303   3.492   2.336
 9446SOL     OW29236   6.104   6.777   4.112
 9446SOL    HW129237   6.043   6.834   4.166
 9446SOL    HW229238   6.194   6.820   4.107
 9447SOL     OW29239   5.994   3.272   3.238
 9447SOL    HW129240   5.920   3.313   3.292
 9447SOL    HW229241   5.983   3.173   3.236
 9448SOL     OW29242   6.020   6.458   6.091
 9448SOL    HW129243   6.098   6.519   6.076
 9448SOL    HW229244   5.982   6.429   6.003
 9449SOL     OW29245   0.050   6.046   6.848
 9449SOL    HW129246   6.980   6.026   6.814
 9449SOL    HW229247   0.076   5.980   6.918
 9450SOL     OW29248   3.452   5.017   4.368
 9450SOL    HW129249   3.355   4.993   4.379
 9450SOL    HW229250   3.501   4.993   4.452
 9451SOL     OW29251   3.482   6.264   6.292
 9451SOL    HW129252   3.513   6.252   6.386
 9451SOL    HW229253   3.548   6.319   6.241
 9452SOL     OW29254   0.897   3.244   0.776
 9452SOL    HW129255   0.960   3.213   0.705
 9452SOL    HW229256   0.844   3.321   0.743
 9453SOL     OW29257   2.235   4.832   3.779
 9453SOL    HW129258   2.182   4.897   3.834
 9453SOL    HW229259   2.202   4.739   3.796
 9454SOL     OW29260   1.652   3.371   5.746
 9454SOL    HW129261   1.703   3.431   5.807
 9454SOL    HW229262   1.715   3.318   5.690
 9455SOL     OW29263   3.727   1.534   2.694
 9455SOL    HW129264   3.651   1.563   2.753
 9455SOL    HW229265   3.804   1.596   2.707
 9456SOL     OW29266   0.953   3.504   6.617
 9456SOL    HW129267   0.987   3.547   6.534
 9456SOL    HW229268   1.021   3.515   6.690
 9457SOL     OW29269   1.729   3.937   6.153
 9457SOL    HW129270   1.697   3.848   6.121
 9457SOL    HW229271   1.660   4.007   6.132
 9458SOL     OW29272   0.986   3.415   5.708
 9458SOL    HW129273   1.000   3.348   5.780
 9458SOL    HW229274   1.051   3.490   5.718
 9459SOL     OW29275   5.707   4.261   2.570
 9459SOL    HW129276   5.736   4.213   2.487
 9459SOL    HW229277   5.607   4.260   2.576
 9460SOL     OW29278   6.971   1.272   4.274
 9460SOL    HW129279   0.014   1.198   4.254
 9460SOL    HW229280   6.884   1.234   4.303
 9461SOL     OW29281   6.338   1.787   3.174
 9461SOL    HW129282   6.264   1.783   3.108
 9461SOL    HW229283   6.306   1.751   3.262
 9462SOL     OW29284   2.147   3.821   3.214
 9462SOL    HW129285   2.148   3.915   3.248
 9462SOL    HW229286   2.160   3.821   3.115
 9463SOL     OW29287   0.387   0.895   1.594
 9463SOL    HW129288   0.325   0.898   1.516
 9463SOL    HW229289   0.336   0.911   1.678
 9464SOL     OW29290   5.795   6.072   0.455
 9464SOL    HW129291   5.736   6.007   0.501
 9464SOL    HW229292   5.860   6.023   0.396
 9465SOL     OW29293   6.925   6.548   3.416
 9465SOL    HW129294   6.966   6.611   3.350
 9465SOL    HW229295   6.831   6.526   3.387
 9466SOL     OW29296   3.949   3.868   5.395
 9466SOL    HW129297   3.856   3.845   5.424
 9466SOL    HW229298   3.946   3.944   5.329
 9467SOL     OW29299   0.857   2.662   1.782
 9467SOL    HW129300   0.838   2.571   1.819
 9467SOL    HW229301   0.953   2.669   1.758
 9468SOL     OW29302   5.917   2.321   6.427
 9468SOL    HW129303   5.963   2.277   6.504
 9468SOL    HW229304   5.848   2.259   6.390
 9469SOL     OW29305   6.208   5.729   1.325
 9469SOL    HW129306   6.146   5.689   1.392
 9469SOL    HW229307   6.266   5.657   1.286
 9470SOL     OW29308   5.427   3.098   5.692
 9470SOL    HW129309   5.432   3.193   5.659
 9470SOL    HW229310   5.487   3.040   5.635
 9471SOL     OW29311   6.000   2.044   4.966
 9471SOL    HW129312   6.022   2.053   4.869
 9471SOL    HW229313   6.079   2.006   5.015
 9472SOL     OW29314   6.757   3.575   4.620
 9472SOL    HW129315   6.702   3.506   4.666
 9472SOL    HW229316   6.705   3.616   4.546
 9473SOL     OW29317   2.727   5.902   6.069
 9473SOL    HW129318   2.698   5.960   5.992
 9473SOL    HW229319   2.822   5.923   6.092
 9474SOL     OW29320   6.859   3.259   0.200
 9474SOL    HW129321   6.894   3.338   0.150
 9474SOL    HW229322   6.793   3.290   0.269
 9475SOL     OW29323   2.969   3.352   0.323
 9475SOL    HW129324   2.935   3.335   0.230
 9475SOL    HW229325   3.061   3.390   0.318
 9476SOL     OW29326   3.450   3.188   4.913
 9476SOL    HW129327   3.416   3.227   4.826
 9476SOL    HW229328   3.458   3.089   4.904
 9477SOL     OW29329   0.240   3.395   2.198
 9477SOL    HW129330   0.280   3.307   2.227
 9477SOL    HW229331   0.303   3.440   2.135
 9478SOL     OW29332   5.451   3.155   6.314
 9478SOL    HW129333   5.531   3.209   6.286
 9478SOL    HW229334   5.460   3.130   6.410
 9479SOL     OW29335   5.858   6.391   6.487
 9479SOL    HW129336   5.776   6.356   6.443
 9479SOL    HW229337   5.884   6.332   6.563
 9480SOL     OW29338   4.749   4.291   0.156
 9480SOL    HW129339   4.808   4.288   0.075
 9480SOL    HW229340   4.656   4.313   0.128
 9481SOL     OW29341   5.419   3.217   1.067
 9481SOL    HW129342   5.494   3.239   1.004
 9481SOL    HW229343   5.390   3.300   1.115
 9482SOL     OW29344   5.897   1.364   3.251
 9482SOL    HW129345   5.974   1.337   3.308
 9482SOL    HW229346   5.928   1.429   3.182
 9483SOL     OW29347   1.407   1.998   0.485
 9483SOL    HW129348   1.353   2.039   0.411
 9483SOL    HW229349   1.381   1.903   0.497
 9484SOL     OW29350   4.482   1.312   3.273
 9484SOL    HW129351   4.500   1.240   3.206
 9484SOL    HW229352   4.384   1.319   3.290
 9485SOL     OW29353   1.331   0.085   2.104
 9485SOL    HW129354   1.368   0.043   2.022
 9485SOL    HW229355   1.304   0.014   2.169
 9486SOL     OW29356   2.254   4.705   1.429
 9486SOL    HW129357   2.313   4.760   1.488
 9486SOL    HW229358   2.301   4.620   1.405
 9487SOL     OW29359   2.869   3.540   2.907
 9487SOL    HW129360   2.919   3.622   2.882
 9487SOL    HW229361   2.901   3.508   2.997
 9488SOL     OW29362   2.527   6.215   1.091
 9488SOL    HW129363   2.618   6.255   1.093
 9488SOL    HW229364   2.484   6.234   1.003
 9489SOL     OW29365   3.910   4.199   1.413
 9489SOL    HW129366   3.869   4.109   1.432
 9489SOL    HW229367   4.001   4.203   1.453
 9490SOL     OW29368   6.177   6.489   0.138
 9490SOL    HW129369   6.120   6.555   0.188
 9490SOL    HW229370   6.196   6.410   0.196
 9491SOL     OW29371   0.371   4.407   3.524
 9491SOL    HW129372   0.432   4.395   3.447
 9491SOL    HW229373   0.419   4.454   3.598
 9492SOL     OW29374   3.327   3.678   2.693
 9492SOL    HW129375   3.351   3.770   2.723
 9492SOL    HW229376   3.243   3.682   2.639
 9493SOL     OW29377   4.020   5.051   3.970
 9493SOL    HW129378   3.992   5.002   3.888
 9493SOL    HW229379   3.954   5.033   4.044
 9494SOL     OW29380   4.297   3.957   1.082
 9494SOL    HW129381   4.315   3.991   1.175
 9494SOL    HW229382   4.308   3.858   1.081
 9495SOL     OW29383   5.719   1.897   4.311
 9495SOL    HW129384   5.714   1.801   4.286
 9495SOL    HW229385   5.640   1.921   4.367
 9496SOL     OW29386   5.304   4.559   0.653
 9496SOL    HW129387   5.267   4.645   0.690
 9496SOL    HW229388   5.272   4.482   0.708
 9497SOL     OW29389   5.282   4.488   6.994
 9497SOL    HW129390   5.313   4.580   7.015
 9497SOL    HW229391   5.225   4.454   0.048
 9498SOL     OW29392   5.385   0.745   6.017
 9498SOL    HW129393   5.310   0.789   6.067
 9498SOL    HW229394   5.435   0.814   5.965
 9499SOL     OW29395   2.158   3.526   5.956
 9499SOL    HW129396   2.149   3.458   5.882
 9499SOL    HW229397   2.151   3.480   6.044
 9500SOL     OW29398   3.735   6.879   1.616
 9500SOL    HW129399   3.642   6.841   1.618
 9500SOL    HW229400   3.738   6.954   1.550
 9501SOL     OW29401   2.407   1.107   4.668
 9501SOL    HW129402   2.308   1.100   4.683
 9501SOL    HW229403   2.440   1.022   4.627
 9502SOL     OW29404   0.263   1.607   4.235
 9502SOL    HW129405   0.261   1.540   4.160
 9502SOL    HW229406   0.175   1.606   4.282
 9503SOL     OW29407   0.948   1.506   1.599
 9503SOL    HW129408   0.956   1.589   1.543
 9503SOL    HW229409   0.994   1.521   1.687
 9504SOL     OW29410   0.535   1.810   1.149
 9504SOL    HW129411   0.466   1.783   1.216
 9504SOL    HW229412   0.594   1.880   1.189
 9505SOL     OW29413   5.259   4.370   3.531
 9505SOL    HW129414   5.309   4.316   3.463
 9505SOL    HW229415   5.170   4.329   3.548
 9506SOL     OW29416   0.175   3.421   6.679
 9506SOL    HW129417   0.150   3.325   6.695
 9506SOL    HW229418   0.217   3.429   6.589
 9507SOL     OW29419   1.343   1.110   3.462
 9507SOL    HW129420   1.425   1.165   3.471
 9507SOL    HW229421   1.352   1.048   3.384
 9508SOL     OW29422   5.976   3.026   0.437
 9508SOL    HW129423   5.898   2.969   0.412
 9508SOL    HW229424   6.060   2.985   0.401
 9509SOL     OW29425   1.314   0.029   5.756
 9509SOL    HW129426   1.232   0.072   5.718
 9509SOL    HW229427   1.303   0.020   5.855
 9510SOL     OW29428   1.049   4.297   1.875
 9510SOL    HW129429   1.061   4.379   1.931
 9510SOL    HW229430   1.044   4.217   1.935
 9511SOL     OW29431   1.005   1.382   0.204
 9511SOL    HW129432   0.987   1.393   0.301
 9511SOL    HW229433   0.924   1.343   0.159
 9512SOL     OW29434   5.727   1.356   2.574
 9512SOL    HW129435   5.806   1.300   2.548
 9512SOL    HW229436   5.707   1.341   2.671
 9513SOL     OW29437   1.179   3.357   5.116
 9513SOL    HW129438   1.164   3.367   5.214
 9513SOL    HW229439   1.098   3.388   5.066
 9514SOL     OW29440   1.632   3.859   6.845
 9514SOL    HW129441   1.682   3.909   6.915
 9514SOL    HW229442   1.577   3.923   6.790
 9515SOL     OW29443   1.630   5.536   0.210
 9515SOL    HW129444   1.602   5.450   0.167
 9515SOL    HW229445   1.722   5.526   0.249
 9516SOL     OW29446   4.929   3.308   4.351
 9516SOL    HW129447   4.964   3.324   4.444
 9516SOL    HW229448   4.987   3.355   4.285
 9517SOL     OW29449   1.709   4.997   6.992
 9517SOL    HW129450   1.747   4.948   6.913
 9517SOL    HW229451   1.766   4.979   0.050
 9518SOL     OW29452   0.547   2.175   6.620
 9518SOL    HW129453   0.604   2.164   6.701
 9518SOL    HW229454   0.464   2.120   6.630
 9519SOL     OW29455   4.066   3.312   3.734
 9519SOL    HW129456   4.068   3.331   3.832
 9519SOL    HW229457   4.007   3.233   3.716
 9520SOL     OW29458   6.527   1.095   3.339
 9520SOL    HW129459   6.463   1.169   3.317
 9520SOL    HW229460   6.574   1.117   3.425
 9521SOL     OW29461   3.283   3.972   1.351
 9521SOL    HW129462   3.311   4.025   1.431
 9521SOL    HW229463   3.359   3.967   1.286
 9522SOL     OW29464   3.936   6.076   2.546
 9522SOL    HW129465   4.018   6.105   2.596
 9522SOL    HW229466   3.904   6.151   2.488
 9523SOL     OW29467   2.471   4.933   4.859
 9523SOL    HW129468   2.392   4.917   4.800
 9523SOL    HW229469   2.545   4.971   4.804
 9524SOL     OW29470   1.868   2.567   0.850
 9524SOL    HW129471   1.844   2.478   0.888
 9524SOL    HW229472   1.930   2.615   0.912
 9525SOL     OW29473   1.502   2.614   5.160
 9525SOL    HW129474   1.537   2.585   5.071
 9525SOL    HW229475   1.467   2.535   5.210
 9526SOL     OW29476   6.289   4.446   1.490
 9526SOL    HW129477   6.334   4.470   1.404
 9526SOL    HW229478   6.311   4.352   1.515
 9527SOL     OW29479   2.855   0.589   5.107
 9527SOL    HW129480   2.897   0.649   5.176
 9527SOL    HW229481   2.782   0.639   5.060
 9528SOL     OW29482   6.416   1.634   1.014
 9528SOL    HW129483   6.513   1.658   1.013
 9528SOL    HW229484   6.399   1.562   0.946
 9529SOL     OW29485   5.881   3.555   6.915
 9529SOL    HW129486   5.856   3.458   6.917
 9529SOL    HW229487   5.926   3.575   6.828
 9530SOL     OW29488   0.654   3.909   3.852
 9530SOL    HW129489   0.733   3.952   3.809
 9530SOL    HW229490   0.570   3.945   3.812
 9531SOL     OW29491   4.817   3.966   2.432
 9531SOL    HW129492   4.863   4.054   2.425
 9531SOL    HW229493   4.791   3.934   2.341
 9532SOL     OW29494   0.445   5.276   0.870
 9532SOL    HW129495   0.419   5.325   0.787
 9532SOL    HW229496   0.461   5.343   0.944
 9533SOL     OW29497   1.034   5.391   3.934
 9533SOL    HW129498   1.118   5.437   3.964
 9533SOL    HW229499   0.955   5.443   3.965
 9534SOL     OW29500   5.917   4.529   4.596
 9534SOL    HW129501   6.001   4.490   4.557
 9534SOL    HW229502   5.938   4.617   4.638
 9535SOL     OW29503   2.301   0.812   6.158
 9535SOL    HW129504   2.266   0.729   6.115
 9535SOL    HW229505   2.231   0.851   6.218
 9536SOL     OW29506   3.049   3.857   5.278
 9536SOL    HW129507   3.052   3.757   5.272
 9536SOL    HW229508   2.977   3.891   5.218
 9537SOL     OW29509   2.121   0.819   4.287
 9537SOL    HW129510   2.209   0.862   4.267
 9537SOL    HW229511   2.073   0.872   4.356
 9538SOL     OW29512   4.883   0.513   4.653
 9538SOL    HW129513   4.904   0.587   4.716
 9538SOL    HW229514   4.955   0.444   4.657
 9539SOL     OW29515   3.068   3.823   4.307
 9539SOL    HW129516   3.118   3.906   4.332
 9539SOL    HW229517   2.998   3.845   4.240
 9540SOL     OW29518   5.379   4.450   4.290
 9540SOL    HW129519   5.478   4.442   4.290
 9540SOL    HW229520   5.352   4.537   4.247
 9541SOL     OW29521   2.955   0.973   6.083
 9541SOL    HW129522   2.921   0.879   6.083
 9541SOL    HW229523   2.877   1.036   6.091
 9542SOL     OW29524   4.923   4.554   4.808
 9542SOL    HW129525   4.857   4.492   4.767
 9542SOL    HW229526   4.954   4.517   4.895
 9543SOL     OW29527   3.909   0.937   6.335
 9543SOL    HW129528   3.881   0.898   6.422
 9543SOL    HW229529   3.881   0.877   6.260
 9544SOL     OW29530   5.981   2.966   3.862
 9544SOL    HW129531   6.058   3.027   3.880
 9544SOL    HW229532   5.900   2.999   3.912
 9545SOL     OW29533   5.729   5.231   2.509
 9545SOL    HW129534   5.678   5.300   2.456
 9545SOL    HW229535   5.733   5.259   2.605
 9546SOL     OW29536   4.012   1.190   5.891
 9546SOL    HW129537   4.018   1.091   5.895
 9546SOL    HW229538   3.976   1.218   5.802
 9547SOL     OW29539   2.619   5.389   4.027
 9547SOL    HW129540   2.659   5.298   4.018
 9547SOL    HW229541   2.667   5.440   4.098
 9548SOL     OW29542   7.010   5.157   5.076
 9548SOL    HW129543   6.922   5.114   5.090
 9548SOL    HW229544   6.998   5.256   5.066
 9549SOL     OW29545   3.456   1.423   1.671
 9549SOL    HW129546   3.368   1.462   1.647
 9549SOL    HW229547   3.455   1.394   1.767
 9550SOL     OW29548   0.058   1.134   0.334
 9550SOL    HW129549   0.098   1.220   0.366
 9550SOL    HW229550   0.015   1.148   0.245
 9551SOL     OW29551   5.680   3.166   5.846
 9551SOL    HW129552   5.626   3.247   5.824
 9551SOL    HW229553   5.653   3.131   5.936
 9552SOL     OW29554   2.184   5.792   5.316
 9552SOL    HW129555   2.144   5.718   5.371
 9552SOL    HW229556   2.230   5.753   5.236
 9553SOL     OW29557   5.926   2.138   0.176
 9553SOL    HW129558   5.990   2.214   0.163
 9553SOL    HW229559   5.881   2.117   0.089
 9554SOL     OW29560   2.004   6.359   2.945
 9554SOL    HW129561   1.932   6.406   2.893
 9554SOL    HW229562   2.079   6.335   2.884
 9555SOL     OW29563   0.474   1.249   2.595
 9555SOL    HW129564   0.573   1.239   2.584
 9555SOL    HW229565   0.455   1.327   2.655
 9556SOL     OW29566   1.585   4.130   1.559
 9556SOL    HW129567   1.606   4.123   1.656
 9556SOL    HW229568   1.520   4.204   1.544
 9557SOL     OW29569   5.971   6.923   1.338
 9557SOL    HW129570   5.942   6.827   1.339
 9557SOL    HW229571   6.070   6.928   1.321
 9558SOL     OW29572   5.945   5.943   5.716
 9558SOL    HW129573   5.943   5.848   5.747
 9558SOL    HW229574   6.022   5.957   5.655
 9559SOL     OW29575   0.766   5.330   0.630
 9559SOL    HW129576   0.683   5.344   0.683
 9559SOL    HW229577   0.742   5.302   0.537
 9560SOL     OW29578   2.739   1.247   2.635
 9560SOL    HW129579   2.818   1.195   2.601
 9560SOL    HW229580   2.769   1.310   2.707
 9561SOL     OW29581   1.218   1.132   1.445
 9561SOL    HW129582   1.185   1.063   1.510
 9561SOL    HW229583   1.153   1.209   1.442
 9562SOL     OW29584   3.233   0.357   5.030
 9562SOL    HW129585   3.237   0.429   5.098
 9562SOL    HW229586   3.169   0.383   4.957
 9563SOL     OW29587   6.947   0.022   0.680
 9563SOL    HW129588   6.855   0.027   0.718
 9563SOL    HW229589   6.969   6.949   0.658
 9564SOL     OW29590   2.607   1.121   0.370
 9564SOL    HW129591   2.586   1.102   0.466
 9564SOL    HW229592   2.539   1.184   0.333
 9565SOL     OW29593   3.862   0.655   4.978
 9565SOL    HW129594   3.878   0.748   4.946
 9565SOL    HW229595   3.900   0.644   5.070
 9566SOL     OW29596   3.281   5.605   6.871
 9566SOL    HW129597   3.232   5.527   6.909
 9566SOL    HW229598   3.274   5.604   6.771
 9567SOL     OW29599   4.906   4.663   0.512
 9567SOL    HW129600   4.949   4.747   0.545
 9567SOL    HW229601   4.808   4.667   0.532
 9568SOL     OW29602   4.358   2.583   6.386
 9568SOL    HW129603   4.270   2.578   6.340
 9568SOL    HW229604   4.419   2.643   6.336
 9569SOL     OW29605   6.584   0.948   2.817
 9569SOL    HW129606   6.655   1.005   2.859
 9569SOL    HW229607   6.544   0.889   2.887
 9570SOL     OW29608   0.498   3.302   1.311
 9570SOL    HW129609   0.597   3.320   1.308
 9570SOL    HW229610   0.469   3.269   1.221
 9571SOL     OW29611   3.323   3.261   6.097
 9571SOL    HW129612   3.360   3.351   6.117
 9571SOL    HW229613   3.382   3.191   6.136
 9572SOL     OW29614   2.233   5.267   2.021
 9572SOL    HW129615   2.302   5.200   1.994
 9572SOL    HW229616   2.253   5.355   1.980
 9573SOL     OW29617   0.789   2.107   6.794
 9573SOL    HW129618   0.798   2.205   6.806
 9573SOL    HW229619   0.826   2.059   6.873
 9574SOL     OW29620   3.985   3.078   3.248
 9574SOL    HW129621   4.083   3.081   3.266
 9574SOL    HW229622   3.937   3.048   3.330
 9575SOL     OW29623   1.141   0.924   1.629
 9575SOL    HW129624   1.163   0.826   1.633
 9575SOL    HW229625   1.114   0.956   1.720
 9576SOL     OW29626   2.189   1.599   0.620
 9576SOL    HW129627   2.243   1.677   0.650
 9576SOL    HW229628   2.098   1.630   0.590
 9577SOL     OW29629   1.536   0.225   6.010
 9577SOL    HW129630   1.483   0.221   6.095
 9577SOL    HW229631   1.628   0.259   6.031
 9578SOL     OW29632   0.566   3.643   2.987
 9578SOL    HW129633   0.649   3.676   3.032
 9578SOL    HW229634   0.578   3.646   2.888
 9579SOL     OW29635   0.644   4.458   3.533
 9579SOL    HW129636   0.597   4.542   3.560
 9579SOL    HW229637   0.626   4.439   3.437
 9580SOL     OW29638   4.203   3.401   0.806
 9580SOL    HW129639   4.173   3.438   0.894
 9580SOL    HW229640   4.201   3.473   0.737
 9581SOL     OW29641   0.593   0.059   5.524
 9581SOL    HW129642   0.590   0.117   5.605
 9581SOL    HW229643   0.543   6.996   5.541
 9582SOL     OW29644   5.092   4.727   5.338
 9582SOL    HW129645   5.000   4.759   5.313
 9582SOL    HW229646   5.090   4.627   5.347
 9583SOL     OW29647   3.637   3.859   1.559
 9583SOL    HW129648   3.664   3.923   1.487
 9583SOL    HW229649   3.554   3.891   1.603
 9584SOL     OW29650   0.469   4.678   6.518
 9584SOL    HW129651   0.428   4.735   6.589
 9584SOL    HW229652   0.515   4.736   6.451
 9585SOL     OW29653   6.196   6.529   4.215
 9585SOL    HW129654   6.186   6.577   4.128
 9585SOL    HW229655   6.283   6.555   4.258
 9586SOL     OW29656   5.225   4.849   2.312
 9586SOL    HW129657   5.245   4.773   2.250
 9586SOL    HW229658   5.126   4.852   2.329
 9587SOL     OW29659   1.256   0.210   1.223
 9587SOL    HW129660   1.315   0.165   1.290
 9587SOL    HW229661   1.312   0.268   1.164
 9588SOL     OW29662   6.287   0.239   1.923
 9588SOL    HW129663   6.367   0.251   1.864
 9588SOL    HW229664   6.312   0.257   2.018
 9589SOL     OW29665   2.064   4.958   6.460
 9589SOL    HW129666   2.137   4.998   6.514
 9589SOL    HW229667   2.037   5.021   6.387
 9590SOL     OW29668   6.279   3.015   2.172
 9590SOL    HW129669   6.259   2.994   2.268
 9590SOL    HW229670   6.278   2.931   2.119
 9591SOL     OW29671   2.896   5.634   5.566
 9591SOL    HW129672   2.800   5.608   5.566
 9591SOL    HW229673   2.945   5.579   5.634
 9592SOL     OW29674   3.034   4.554   0.434
 9592SOL    HW129675   3.096   4.475   0.437
 9592SOL    HW229676   2.942   4.525   0.460
 9593SOL     OW29677   0.419   0.922   5.767
 9593SOL    HW129678   0.422   0.838   5.822
 9593SOL    HW229679   0.495   0.921   5.702
 9594SOL     OW29680   1.914   5.270   3.382
 9594SOL    HW129681   2.006   5.306   3.369
 9594SOL    HW229682   1.903   5.186   3.328
 9595SOL     OW29683   0.381   2.898   4.678
 9595SOL    HW129684   0.322   2.978   4.662
 9595SOL    HW229685   0.330   2.829   4.729
 9596SOL     OW29686   0.420   5.275   6.137
 9596SOL    HW129687   0.466   5.354   6.177
 9596SOL    HW229688   0.368   5.227   6.208
 9597SOL     OW29689   0.740   4.495   1.062
 9597SOL    HW129690   0.747   4.577   1.005
 9597SOL    HW229691   0.780   4.417   1.013
 9598SOL     OW29692   1.445   4.425   3.768
 9598SOL    HW129693   1.470   4.448   3.674
 9598SOL    HW229694   1.527   4.402   3.820
 9599SOL     OW29695   2.858   0.326   4.681
 9599SOL    HW129696   2.777   0.382   4.698
 9599SOL    HW229697   2.867   0.258   4.754
 9600SOL     OW29698   2.964   6.752   6.790
 9600SOL    HW129699   3.055   6.733   6.752
 9600SOL    HW229700   2.895   6.743   6.718
 9601SOL     OW29701   4.497   3.914   0.623
 9601SOL    HW129702   4.448   3.911   0.536
 9601SOL    HW229703   4.554   3.833   0.632
 9602SOL     OW29704   6.585   4.443   5.786
 9602SOL    HW129705   6.534   4.377   5.732
 9602SOL    HW229706   6.667   4.472   5.736
 9603SOL     OW29707   3.961   1.298   4.769
 9603SOL    HW129708   4.040   1.303   4.708
 9603SOL    HW229709   3.989   1.260   4.857
 9604SOL     OW29710   4.641   0.276   6.804
 9604SOL    HW129711   4.594   0.362   6.821
 9604SOL    HW229712   4.574   0.202   6.797
 9605SOL     OW29713   0.461   5.659   3.838
 9605SOL    HW129714   0.414   5.572   3.823
 9605SOL    HW229715   0.409   5.733   3.796
 9606SOL     OW29716   2.227   6.062   6.593
 9606SOL    HW129717   2.269   5.972   6.592
 9606SOL    HW229718   2.292   6.130   6.627
 9607SOL     OW29719   1.826   1.763   6.919
 9607SOL    HW129720   1.798   1.799   6.830
 9607SOL    HW229721   1.923   1.739   6.916
 9608SOL     OW29722   6.502   5.350   2.819
 9608SOL    HW129723   6.523   5.437   2.863
 9608SOL    HW229724   6.578   5.286   2.833
 9609SOL     OW29725   1.999   3.910   6.862
 9609SOL    HW129726   2.090   3.874   6.842
 9609SOL    HW229727   1.977   3.983   6.797
 9610SOL     OW29728   1.894   4.580   3.805
 9610SOL    HW129729   1.848   4.648   3.863
 9610SOL    HW229730   1.990   4.572   3.832
 9611SOL     OW29731   1.023   6.599   6.696
 9611SOL    HW129732   1.061   6.523   6.749
 9611SOL    HW229733   0.929   6.616   6.726
 9612SOL     OW29734   0.306   4.009   1.289
 9612SOL    HW129735   0.215   4.050   1.287
 9612SOL    HW229736   0.341   4.001   1.195
 9613SOL     OW29737   5.452   0.119   3.355
 9613SOL    HW129738   5.511   0.144   3.278
 9613SOL    HW229739   5.490   0.157   3.440
 9614SOL     OW29740   3.384   2.550   0.930
 9614SOL    HW129741   3.440   2.524   1.009
 9614SOL    HW229742   3.300   2.496   0.930
 9615SOL     OW29743   2.168   0.005   6.734
 9615SOL    HW129744   2.140   6.948   6.789
 9615SOL    HW229745   2.195   6.997   6.643
 9616SOL     OW29746   4.268   4.065   1.319
 9616SOL    HW129747   4.169   4.057   1.310
 9616SOL    HW229748   4.299   4.008   1.395
 9617SOL     OW29749   1.322   3.113   3.124
 9617SOL    HW129750   1.409   3.159   3.105
 9617SOL    HW229751   1.309   3.104   3.223
 9618SOL     OW29752   3.705   6.914   5.902
 9618SOL    HW129753   3.702   6.998   5.956
 9618SOL    HW229754   3.668   6.930   5.811
 9619SOL     OW29755   1.361   0.021   6.909
 9619SOL    HW129756   1.431   6.975   6.934
 9619SOL    HW229757   1.271   7.000   6.912
 9620SOL     OW29758   4.746   1.164   5.933
 9620SOL    HW129759   4.720   1.210   5.848
 9620SOL    HW229760   4.734   1.065   5.923
 9621SOL     OW29761   0.841   1.303   2.210
 9621SOL    HW129762   0.868   1.222   2.262
 9621SOL    HW229763   0.749   1.331   2.237
 9622SOL     OW29764   6.989   0.941   0.502
 9622SOL    HW129765   6.930   0.897   0.435
 9622SOL    HW229766   7.017   1.031   0.469
 9623SOL     OW29767   3.188   4.309   5.746
 9623SOL    HW129768   3.252   4.273   5.679
 9623SOL    HW229769   3.098   4.320   5.705
 9624SOL     OW29770   6.827   4.242   2.572
 9624SOL    HW129771   6.852   4.335   2.547
 9624SOL    HW229772   6.897   4.204   2.633
 9625SOL     OW29773   5.082   5.186   6.930
 9625SOL    HW129774   5.090   5.267   6.988
 9625SOL    HW229775   5.083   5.213   6.834
 9626SOL     OW29776   3.343   5.370   0.180
 9626SOL    HW129777   3.417   5.426   0.144
 9626SOL    HW229778   3.367   5.273   0.172
 9627SOL     OW29779   6.343   6.134   4.118
 9627SOL    HW129780   6.428   6.161   4.073
 9627SOL    HW229781   6.273   6.115   4.049
 9628SOL     OW29782   5.001   4.673   6.992
 9628SOL    HW129783   4.987   4.771   6.976
 9628SOL    HW229784   4.991   4.623   6.906
 9629SOL     OW29785   0.016   0.060   2.448
 9629SOL    HW129786   0.050   0.111   2.527
 9629SOL    HW229787   0.093   0.013   2.404
 9630SOL     OW29788   6.322   6.306   5.449
 9630SOL    HW129789   6.377   6.263   5.378
 9630SOL    HW229790   6.381   6.348   5.518
 9631SOL     OW29791   6.868   6.821   6.840
 9631SOL    HW129792   6.930   6.798   6.765
 9631SOL    HW229793   6.850   6.920   6.838
 9632SOL     OW29794   1.236   6.810   2.667
 9632SOL    HW129795   1.291   6.786   2.747
 9632SOL    HW229796   1.226   6.909   2.662
 9633SOL     OW29797   5.647   4.880   6.597
 9633SOL    HW129798   5.619   4.881   6.501
 9633SOL    HW229799   5.589   4.942   6.649
 9634SOL     OW29800   1.459   5.822   3.653
 9634SOL    HW129801   1.374   5.776   3.680
 9634SOL    HW229802   1.441   5.919   3.640
 9635SOL     OW29803   1.718   4.999   5.562
 9635SOL    HW129804   1.750   5.064   5.493
 9635SOL    HW229805   1.778   4.919   5.563
 9636SOL     OW29806   3.987   1.574   6.344
 9636SOL    HW129807   4.058   1.560   6.414
 9636SOL    HW229808   3.995   1.503   6.275
 9637SOL     OW29809   2.724   2.254   6.103
 9637SOL    HW129810   2.773   2.272   6.188
 9637SOL    HW229811   2.762   2.173   6.059
 9638SOL     OW29812   6.397   3.205   6.298
 9638SOL    HW129813   6.463   3.254   6.241
 9638SOL    HW229814   6.437   3.119   6.329
 9639SOL     OW29815   3.642   1.516   2.178
 9639SOL    HW129816   3.603   1.598   2.135
 9639SOL    HW229817   3.621   1.517   2.276
 9640SOL     OW29818   2.573   2.384   3.282
 9640SOL    HW129819   2.532   2.317   3.219
 9640SOL    HW229820   2.570   2.349   3.375
 9641SOL     OW29821   4.316   6.452   0.646
 9641SOL    HW129822   4.384   6.424   0.713
 9641SOL    HW229823   4.303   6.552   0.650
 9642SOL     OW29824   3.540   6.544   5.050
 9642SOL    HW129825   3.502   6.628   5.013
 9642SOL    HW229826   3.481   6.467   5.025
 9643SOL     OW29827   5.518   5.124   4.114
 9643SOL    HW129828   5.525   5.209   4.061
 9643SOL    HW229829   5.538   5.142   4.210
 9644SOL     OW29830   1.373   4.076   5.695
 9644SOL    HW129831   1.460   4.066   5.744
 9644SOL    HW229832   1.301   4.100   5.760
 9645SOL     OW29833   3.928   5.583   3.221
 9645SOL    HW129834   3.852   5.602   3.159
 9645SOL    HW229835   3.913   5.493   3.264
 9646SOL     OW29836   2.681   4.748   2.211
 9646SOL    HW129837   2.659   4.665   2.160
 9646SOL    HW229838   2.778   4.770   2.198
 9647SOL     OW29839   6.075   5.666   1.583
 9647SOL    HW129840   6.168   5.652   1.617
 9647SOL    HW229841   6.010   5.653   1.657
 9648SOL     OW29842   4.065   2.111   6.861
 9648SOL    HW129843   4.146   2.161   6.892
 9648SOL    HW229844   4.088   2.061   6.777
 9649SOL     OW29845   2.827   6.376   6.773
 9649SOL    HW129846   2.915   6.391   6.728
 9649SOL    HW229847   2.842   6.327   6.859
 9650SOL     OW29848   5.833   4.903   2.696
 9650SOL    HW129849   5.810   4.986   2.746
 9650SOL    HW229850   5.921   4.915   2.650
 9651SOL     OW29851   6.899   1.059   6.143
 9651SOL    HW129852   6.854   0.975   6.111
 9651SOL    HW229853   6.830   1.126   6.169
 9652SOL     OW29854   2.384   5.278   0.927
 9652SOL    HW129855   2.399   5.244   0.835
 9652SOL    HW229856   2.297   5.242   0.962
 9653SOL     OW29857   3.635   5.177   4.786
 9653SOL    HW129858   3.734   5.174   4.799
 9653SOL    HW229859   3.608   5.270   4.761
 9654SOL     OW29860   3.737   3.301   1.306
 9654SOL    HW129861   3.753   3.358   1.226
 9654SOL    HW229862   3.822   3.294   1.360
 9655SOL     OW29863   0.136   2.018   6.853
 9655SOL    HW129864   0.129   2.005   6.952
 9655SOL    HW229865   0.046   2.004   6.812
 9656SOL     OW29866   2.875   2.703   1.314
 9656SOL    HW129867   2.864   2.698   1.215
 9656SOL    HW229868   2.912   2.793   1.339
 9657SOL     OW29869   6.328   0.822   4.147
 9657SOL    HW129870   6.425   0.827   4.124
 9657SOL    HW229871   6.273   0.855   4.070
 9658SOL     OW29872   6.141   2.243   2.775
 9658SOL    HW129873   6.221   2.183   2.785
 9658SOL    HW229874   6.144   2.315   2.844
 9659SOL     OW29875   6.413   4.616   0.139
 9659SOL    HW129876   6.459   4.646   0.055
 9659SOL    HW229877   6.322   4.580   0.116
 9660SOL     OW29878   0.741   5.753   1.346
 9660SOL    HW129879   0.822   5.795   1.386
 9660SOL    HW229880   0.704   5.684   1.409
 9661SOL     OW29881   3.886   5.972   2.211
 9661SOL    HW129882   3.942   5.966   2.128
 9661SOL    HW229883   3.907   6.058   2.259
 9662SOL     OW29884   5.161   2.196   5.090
 9662SOL    HW129885   5.198   2.198   4.997
 9662SOL    HW229886   5.136   2.289   5.118
 9663SOL     OW29887   0.703   5.693   4.347
 9663SOL    HW129888   0.658   5.678   4.259
 9663SOL    HW229889   0.798   5.723   4.331
 9664SOL     OW29890   6.163   6.981   3.906
 9664SOL    HW129891   6.077   6.946   3.943
 9664SOL    HW229892   6.148   0.051   3.868
 9665SOL     OW29893   4.976   5.732   6.174
 9665SOL    HW129894   4.981   5.819   6.126
 9665SOL    HW229895   4.881   5.700   6.176
 9666SOL     OW29896   5.824   4.451   1.951
 9666SOL    HW129897   5.739   4.466   1.901
 9666SOL    HW229898   5.804   4.434   2.047
 9667SOL     OW29899   2.894   3.302   4.247
 9667SOL    HW129900   2.884   3.328   4.343
 9667SOL    HW229901   2.823   3.237   4.221
 9668SOL     OW29902   5.433   1.173   6.726
 9668SOL    HW129903   5.521   1.129   6.710
 9668SOL    HW229904   5.369   1.107   6.767
 9669SOL     OW29905   0.971   0.111   1.930
 9669SOL    HW129906   0.969   0.188   1.867
 9669SOL    HW229907   0.975   0.144   2.024
 9670SOL     OW29908   5.509   4.617   6.463
 9670SOL    HW129909   5.465   4.670   6.536
 9670SOL    HW229910   5.549   4.680   6.396
 9671SOL     OW29911   6.994   5.424   6.727
 9671SOL    HW129912   7.009   5.326   6.713
 9671SOL    HW229913   6.977   5.442   6.824
 9672SOL     OW29914   1.095   5.921   4.856
 9672SOL    HW129915   1.083   5.908   4.954
 9672SOL    HW229916   1.170   5.863   4.824
 9673SOL     OW29917   5.765   4.322   6.923
 9673SOL    HW129918   5.758   4.271   7.008
 9673SOL    HW229919   5.827   4.275   6.860
 9674SOL     OW29920   2.804   6.338   3.505
 9674SOL    HW129921   2.806   6.291   3.417
 9674SOL    HW229922   2.729   6.302   3.561
 9675SOL     OW29923   5.912   1.852   1.299
 9675SOL    HW129924   5.972   1.893   1.368
 9675SOL    HW229925   5.822   1.895   1.304
 9676SOL     OW29926   1.312   3.625   5.470
 9676SOL    HW129927   1.250   3.569   5.415
 9676SOL    HW229928   1.399   3.577   5.481
 9677SOL     OW29929   2.168   5.821   5.675
 9677SOL    HW129930   2.249   5.864   5.714
 9677SOL    HW229931   2.150   5.859   5.584
 9678SOL     OW29932   3.125   3.687   2.478
 9678SOL    HW129933   3.040   3.663   2.525
 9678SOL    HW229934   3.125   3.645   2.387
 9679SOL     OW29935   1.984   1.087   2.855
 9679SOL    HW129936   1.943   1.011   2.804
 9679SOL    HW229937   2.059   1.052   2.911
 9680SOL     OW29938   5.959   0.449   4.433
 9680SOL    HW129939   5.920   0.379   4.374
 9680SOL    HW229940   5.892   0.522   4.447
 9681SOL     OW29941   3.035   1.145   0.378
 9681SOL    HW129942   2.972   1.116   0.450
 9681SOL    HW229943   3.003   1.110   0.290
 9682SOL     OW29944   4.908   5.135   3.737
 9682SOL    HW129945   4.960   5.192   3.800
 9682SOL    HW229946   4.832   5.188   3.699
 9683SOL     OW29947   2.812   5.480   0.978
 9683SOL    HW129948   2.911   5.485   0.970
 9683SOL    HW229949   2.786   5.481   1.075
 9684SOL     OW29950   0.100   2.171   4.815
 9684SOL    HW129951   0.176   2.229   4.845
 9684SOL    HW229952   0.104   2.160   4.716
 9685SOL     OW29953   2.356   3.516   0.724
 9685SOL    HW129954   2.312   3.457   0.792
 9685SOL    HW229955   2.356   3.610   0.757
 9686SOL     OW29956   6.167   2.382   0.843
 9686SOL    HW129957   6.103   2.351   0.913
 9686SOL    HW229958   6.176   2.313   0.772
 9687SOL     OW29959   1.940   1.004   3.785
 9687SOL    HW129960   2.039   1.012   3.790
 9687SOL    HW229961   1.905   0.967   3.872
 9688SOL     OW29962   6.637   2.111   3.373
 9688SOL    HW129963   6.655   2.095   3.276
 9688SOL    HW229964   6.544   2.082   3.395
 9689SOL     OW29965   1.861   6.183   1.199
 9689SOL    HW129966   1.934   6.249   1.185
 9689SOL    HW229967   1.888   6.094   1.161
 9690SOL     OW29968   5.623   5.661   6.543
 9690SOL    HW129969   5.686   5.611   6.603
 9690SOL    HW229970   5.549   5.600   6.516
 9691SOL     OW29971   2.558   4.668   1.554
 9691SOL    HW129972   2.569   4.767   1.554
 9691SOL    HW229973   2.584   4.631   1.644
 9692SOL     OW29974   3.125   5.217   2.386
 9692SOL    HW129975   3.191   5.290   2.400
 9692SOL    HW229976   3.168   5.129   2.406
 9693SOL     OW29977   6.273   5.465   1.569
 9693SOL    HW129978   6.347   5.432   1.628
 9693SOL    HW229979   6.274   5.415   1.483
 9694SOL     OW29980   2.162   1.038   5.969
 9694SOL    HW129981   2.237   1.027   5.904
 9694SOL    HW229982   2.168   1.128   6.012
 9695SOL     OW29983   7.008   3.682   1.709
 9695SOL    HW129984   6.991   3.635   1.622
 9695SOL    HW229985   6.943   3.649   1.778
 9696SOL     OW29986   5.521   2.454   0.878
 9696SOL    HW129987   5.457   2.515   0.925
 9696SOL    HW229988   5.510   2.361   0.913
 9697SOL     OW29989   6.666   5.924   0.310
 9697SOL    HW129990   6.739   5.917   0.378
 9697SOL    HW229991   6.703   5.957   0.224
 9698SOL     OW29992   5.763   2.112   6.305
 9698SOL    HW129993   5.762   2.049   6.383
 9698SOL    HW229994   5.810   2.069   6.228
 9699SOL     OW29995   0.127   4.511   6.895
 9699SOL    HW129996   0.193   4.507   6.970
 9699SOL    HW229997   0.145   4.435   6.832
 9700SOL     OW29998   4.026   5.111   5.092
 9700SOL    HW129999   4.057   5.018   5.114
 9700SOL    HW230000   4.096   5.158   5.038
 9701SOL     OW30001   3.814   4.933   4.915
 9701SOL    HW130002   3.850   4.879   4.991
 9701SOL    HW230003   3.851   5.026   4.921
 9702SOL     OW30004   5.201   0.418   0.465
 9702SOL    HW130005   5.171   0.379   0.378
 9702SOL    HW230006   5.240   0.509   0.449
 9703SOL     OW30007   4.130   5.308   4.046
 9703SOL    HW130008   4.227   5.286   4.031
 9703SOL    HW230009   4.075   5.225   4.039
 9704SOL     OW30010   3.081   1.311   2.270
 9704SOL    HW130011   3.041   1.383   2.326
 9704SOL    HW230012   3.138   1.252   2.328
 9705SOL     OW30013   4.874   5.736   6.913
 9705SOL    HW130014   4.963   5.775   6.887
 9705SOL    HW230015   4.886   5.641   6.941
 9706SOL     OW30016   1.132   2.307   0.499
 9706SOL    HW130017   1.222   2.348   0.508
 9706SOL    HW230018   1.140   2.215   0.461
 9707SOL     OW30019   6.793   4.079   1.475
 9707SOL    HW130020   6.777   3.999   1.533
 9707SOL    HW230021   6.878   4.124   1.504
 9708SOL     OW30022   1.312   2.192   2.746
 9708SOL    HW130023   1.290   2.112   2.803
 9708SOL    HW230024   1.236   2.211   2.685
 9709SOL     OW30025   6.003   5.458   2.621
 9709SOL    HW130026   6.093   5.429   2.653
 9709SOL    HW230027   5.936   5.448   2.695
 9710SOL     OW30028   0.108   1.610   2.253
 9710SOL    HW130029   0.156   1.660   2.180
 9710SOL    HW230030   0.171   1.596   2.330
 9711SOL     OW30031   1.490   3.174   5.842
 9711SOL    HW130032   1.507   3.239   5.768
 9711SOL    HW230033   1.392   3.174   5.864
 9712SOL     OW30034   5.460   4.047   5.701
 9712SOL    HW130035   5.490   4.142   5.705
 9712SOL    HW230036   5.411   4.024   5.785
 9713SOL     OW30037   0.964   4.423   3.693
 9713SOL    HW130038   0.957   4.346   3.630
 9713SOL    HW230039   0.936   4.507   3.646
 9714SOL     OW30040   2.641   1.654   1.908
 9714SOL    HW130041   2.635   1.648   1.808
 9714SOL    HW230042   2.680   1.742   1.934
 9715SOL     OW30043   5.875   4.973   5.889
 9715SOL    HW130044   5.875   4.876   5.863
 9715SOL    HW230045   5.931   4.986   5.971
 9716SOL     OW30046   3.921   2.727   6.555
 9716SOL    HW130047   3.824   2.734   6.581
 9716SOL    HW230048   3.954   2.817   6.527
 9717SOL     OW30049   5.564   5.620   5.893
 9717SOL    HW130050   5.599   5.707   5.857
 9717SOL    HW230051   5.548   5.629   5.991
 9718SOL     OW30052   4.798   2.869   1.772
 9718SOL    HW130053   4.739   2.925   1.829
 9718SOL    HW230054   4.845   2.926   1.705
 9719SOL     OW30055   0.526   2.142   0.081
 9719SOL    HW130056   0.567   2.193   0.157
 9719SOL    HW230057   0.521   2.045   0.105
 9720SOL     OW30058   0.350   5.728   1.599
 9720SOL    HW130059   0.304   5.692   1.680
 9720SOL    HW230060   0.403   5.809   1.623
 9721SOL     OW30061   1.045   2.831   0.948
 9721SOL    HW130062   1.070   2.920   0.986
 9721SOL    HW230063   1.020   2.841   0.852
 9722SOL     OW30064   0.191   0.509   3.449
 9722SOL    HW130065   0.127   0.579   3.418
 9722SOL    HW230066   0.283   0.532   3.419
 9723SOL     OW30067   2.224   6.125   3.765
 9723SOL    HW130068   2.286   6.127   3.844
 9723SOL    HW230069   2.278   6.114   3.682
 9724SOL     OW30070   2.703   3.586   0.448
 9724SOL    HW130071   2.668   3.504   0.493
 9724SOL    HW230072   2.706   3.571   0.350
 9725SOL     OW30073   3.835   3.964   6.783
 9725SOL    HW130074   3.840   3.905   6.703
 9725SOL    HW230075   3.927   3.985   6.815
 9726SOL     OW30076   4.460   6.795   3.969
 9726SOL    HW130077   4.423   6.850   4.044
 9726SOL    HW230078   4.556   6.819   3.955
 9727SOL     OW30079   0.418   3.509   5.253
 9727SOL    HW130080   0.320   3.505   5.236
 9727SOL    HW230081   0.434   3.549   5.344
 9728SOL     OW30082   0.704   0.498   6.036
 9728SOL    HW130083   0.604   0.501   6.035
 9728SOL    HW230084   0.735   0.428   6.100
 9729SOL     OW30085   1.092   4.457   2.664
 9729SOL    HW130086   1.069   4.485   2.757
 9729SOL    HW230087   1.047   4.518   2.599
 9730SOL     OW30088   0.080   3.384   2.528
 9730SOL    HW130089   0.157   3.331   2.562
 9730SOL    HW230090   0.082   3.475   2.568
 9731SOL     OW30091   4.506   4.243   0.581
 9731SOL    HW130092   4.414   4.245   0.621
 9731SOL    HW230093   4.518   4.322   0.522
 9732SOL     OW30094   5.252   5.836   3.356
 9732SOL    HW130095   5.334   5.884   3.387
 9732SOL    HW230096   5.260   5.816   3.258
 9733SOL     OW30097   5.632   4.901   6.313
 9733SOL    HW130098   5.614   4.993   6.278
 9733SOL    HW230099   5.646   4.839   6.236
 9734SOL     OW30100   5.416   2.350   3.334
 9734SOL    HW130101   5.420   2.432   3.391
 9734SOL    HW230102   5.492   2.349   3.270
 9735SOL     OW30103   1.699   4.436   2.655
 9735SOL    HW130104   1.686   4.338   2.665
 9735SOL    HW230105   1.701   4.479   2.745
 9736SOL     OW30106   6.015   1.684   6.477
 9736SOL    HW130107   6.049   1.604   6.528
 9736SOL    HW230108   6.092   1.730   6.433
 9737SOL     OW30109   6.809   3.142   5.188
 9737SOL    HW130110   6.764   3.089   5.116
 9737SOL    HW230111   6.741   3.172   5.255
 9738SOL     OW30112   1.867   0.158   2.789
 9738SOL    HW130113   1.776   0.183   2.755
 9738SOL    HW230114   1.872   0.058   2.800
 9739SOL     OW30115   6.431   5.298   1.731
 9739SOL    HW130116   6.398   5.215   1.686
 9739SOL    HW230117   6.521   5.322   1.695
 9740SOL     OW30118   6.716   2.902   3.857
 9740SOL    HW130119   6.720   2.997   3.829
 9740SOL    HW230120   6.774   2.888   3.938
 9741SOL     OW30121   4.558   1.342   2.465
 9741SOL    HW130122   4.485   1.376   2.524
 9741SOL    HW230123   4.588   1.415   2.404
 9742SOL     OW30124   4.217   0.033   2.555
 9742SOL    HW130125   4.294   0.089   2.585
 9742SOL    HW230126   4.251   6.965   2.526
 9743SOL     OW30127   1.500   1.949   4.701
 9743SOL    HW130128   1.523   1.928   4.796
 9743SOL    HW230129   1.440   1.878   4.665
 9744SOL     OW30130   6.959   0.400   2.864
 9744SOL    HW130131   0.028   0.441   2.854
 9744SOL    HW230132   6.952   0.357   2.954
 9745SOL     OW30133   6.549   2.786   6.174
 9745SOL    HW130134   6.626   2.847   6.152
 9745SOL    HW230135   6.579   2.691   6.167
 9746SOL     OW30136   6.210   0.960   6.223
 9746SOL    HW130137   6.126   0.932   6.177
 9746SOL    HW230138   6.282   0.976   6.155
 9747SOL     OW30139   2.238   0.811   1.705
 9747SOL    HW130140   2.230   0.738   1.637
 9747SOL    HW230141   2.147   0.841   1.733
 9748SOL     OW30142   1.211   1.341   3.794
 9748SOL    HW130143   1.138   1.356   3.728
 9748SOL    HW230144   1.293   1.390   3.764
 9749SOL     OW30145   2.173   2.090   4.989
 9749SOL    HW130146   2.197   2.034   5.068
 9749SOL    HW230147   2.202   2.044   4.905
 9750SOL     OW30148   5.226   4.786   3.595
 9750SOL    HW130149   5.178   4.776   3.508
 9750SOL    HW230150   5.276   4.872   3.597
 9751SOL     OW30151   2.103   1.449   0.878
 9751SOL    HW130152   2.160   1.466   0.798
 9751SOL    HW230153   2.031   1.518   0.885
 9752SOL     OW30154   5.348   0.960   0.063
 9752SOL    HW130155   5.318   1.048   0.100
 9752SOL    HW230156   5.281   0.890   0.086
 9753SOL     OW30157   5.671   5.396   5.290
 9753SOL    HW130158   5.733   5.356   5.222
 9753SOL    HW230159   5.581   5.408   5.248
 9754SOL     OW30160   0.950   1.758   0.255
 9754SOL    HW130161   0.885   1.705   0.200
 9754SOL    HW230162   0.987   1.700   0.328
 9755SOL     OW30163   4.026   3.376   4.969
 9755SOL    HW130164   4.055   3.460   5.014
 9755SOL    HW230165   3.945   3.339   5.016
 9756SOL     OW30166   6.420   3.283   0.166
 9756SOL    HW130167   6.338   3.274   0.111
 9756SOL    HW230168   6.486   3.212   0.139
 9757SOL     OW30169   5.670   3.383   3.045
 9757SOL    HW130170   5.644   3.441   3.122
 9757SOL    HW230171   5.612   3.302   3.043
 9758SOL     OW30172   2.415   6.979   6.528
 9758SOL    HW130173   2.422   0.057   6.540
 9758SOL    HW230174   2.489   6.948   6.469
 9759SOL     OW30175   2.287   0.381   6.808
 9759SOL    HW130176   2.189   0.396   6.819
 9759SOL    HW230177   2.337   0.434   6.877
 9760SOL     OW30178   4.580   3.460   5.398
 9760SOL    HW130179   4.606   3.512   5.317
 9760SOL    HW230180   4.552   3.522   5.471
 9761SOL     OW30181   6.035   6.399   1.947
 9761SOL    HW130182   5.959   6.458   1.918
 9761SOL    HW230183   6.048   6.326   1.880
 9762SOL     OW30184   2.557   2.443   4.411
 9762SOL    HW130185   2.612   2.468   4.331
 9762SOL    HW230186   2.605   2.374   4.465
 9763SOL     OW30187   4.420   2.389   1.286
 9763SOL    HW130188   4.333   2.437   1.273
 9763SOL    HW230189   4.487   2.452   1.323
 9764SOL     OW30190   0.951   2.586   2.325
 9764SOL    HW130191   0.999   2.592   2.412
 9764SOL    HW230192   0.862   2.632   2.333
 9765SOL     OW30193   6.348   2.015   3.434
 9765SOL    HW130194   6.369   2.022   3.531
 9765SOL    HW230195   6.305   1.927   3.415
 9766SOL     OW30196   2.910   0.593   3.127
 9766SOL    HW130197   2.888   0.505   3.170
 9766SOL    HW230198   2.895   0.667   3.193
 9767SOL     OW30199   5.225   2.002   5.271
 9767SOL    HW130200   5.195   2.074   5.208
 9767SOL    HW230201   5.324   1.999   5.274
 9768SOL     OW30202   4.593   1.757   2.157
 9768SOL    HW130203   4.671   1.807   2.195
 9768SOL    HW230204   4.624   1.697   2.084
 9769SOL     OW30205   2.040   1.251   2.077
 9769SOL    HW130206   2.111   1.267   2.008
 9769SOL    HW230207   2.022   1.336   2.126
 9770SOL     OW30208   5.661   0.229   6.984
 9770SOL    HW130209   5.706   0.318   6.991
 9770SOL    HW230210   5.581   0.227   0.022
 9771SOL     OW30211   3.961   5.022   1.450
 9771SOL    HW130212   3.977   5.102   1.393
 9771SOL    HW230213   3.906   4.955   1.400
 9772SOL     OW30214   0.751   6.085   2.015
 9772SOL    HW130215   0.832   6.027   2.005
 9772SOL    HW230216   0.780   6.180   2.029
 9773SOL     OW30217   5.608   6.900   4.293
 9773SOL    HW130218   5.585   6.833   4.223
 9773SOL    HW230219   5.577   6.867   4.382
 9774SOL     OW30220   6.516   4.769   2.241
 9774SOL    HW130221   6.570   4.853   2.232
 9774SOL    HW230222   6.480   4.763   2.334
 9775SOL     OW30223   3.253   1.612   3.677
 9775SOL    HW130224   3.215   1.685   3.621
 9775SOL    HW230225   3.217   1.524   3.646
 9776SOL     OW30226   6.687   5.279   4.435
 9776SOL    HW130227   6.646   5.362   4.397
 9776SOL    HW230228   6.736   5.230   4.363
 9777SOL     OW30229   5.763   5.217   6.638
 9777SOL    HW130230   5.853   5.180   6.617
 9777SOL    HW230231   5.730   5.272   6.561
 9778SOL     OW30232   6.471   0.425   3.593
 9778SOL    HW130233   6.567   0.452   3.606
 9778SOL    HW230234   6.447   0.354   3.660
 9779SOL     OW30235   2.594   1.750   4.571
 9779SOL    HW130236   2.578   1.847   4.592
 9779SOL    HW230237   2.599   1.698   4.657
 9780SOL     OW30238   2.275   2.003   1.059
 9780SOL    HW130239   2.302   1.916   1.016
 9780SOL    HW230240   2.210   2.050   1.001
 9781SOL     OW30241   1.804   3.680   3.552
 9781SOL    HW130242   1.729   3.626   3.591
 9781SOL    HW230243   1.792   3.687   3.453
 9782SOL     OW30244   0.460   0.611   1.277
 9782SOL    HW130245   0.416   0.590   1.364
 9782SOL    HW230246   0.517   0.533   1.249
 9783SOL     OW30247   4.534   1.749   1.595
 9783SOL    HW130248   4.437   1.722   1.592
 9783SOL    HW230249   4.548   1.829   1.538
 9784SOL     OW30250   4.714   1.228   3.861
 9784SOL    HW130251   4.783   1.279   3.809
 9784SOL    HW230252   4.623   1.265   3.842
 9785SOL     OW30253   0.258   4.179   4.680
 9785SOL    HW130254   0.255   4.196   4.581
 9785SOL    HW230255   0.282   4.084   4.697
 9786SOL     OW30256   1.788   4.927   6.456
 9786SOL    HW130257   1.740   5.015   6.458
 9786SOL    HW230258   1.877   4.937   6.499
 9787SOL     OW30259   5.156   3.424   0.943
 9787SOL    HW130260   5.244   3.431   0.897
 9787SOL    HW230261   5.083   3.449   0.879
 9788SOL     OW30262   0.505   0.429   3.859
 9788SOL    HW130263   0.457   0.347   3.827
 9788SOL    HW230264   0.574   0.455   3.792
 9789SOL     OW30265   1.854   5.875   6.451
 9789SOL    HW130266   1.790   5.877   6.374
 9789SOL    HW230267   1.942   5.839   6.420
 9790SOL     OW30268   5.900   3.936   5.284
 9790SOL    HW130269   5.979   3.939   5.344
 9790SOL    HW230270   5.818   3.914   5.338
 9791SOL     OW30271   0.471   0.881   3.159
 9791SOL    HW130272   0.474   0.945   3.235
 9791SOL    HW230273   0.476   0.931   3.072
 9792SOL     OW30274   5.209   4.986   1.263
 9792SOL    HW130275   5.303   4.959   1.284
 9792SOL    HW230276   5.175   5.047   1.334
 9793SOL     OW30277   5.677   5.450   3.357
 9793SOL    HW130278   5.647   5.433   3.451
 9793SOL    HW230279   5.774   5.472   3.356
 9794SOL     OW30280   6.085   4.022   6.424
 9794SOL    HW130281   6.066   4.108   6.376
 9794SOL    HW230282   6.122   3.955   6.360
 9795SOL     OW30283   1.363   2.002   4.161
 9795SOL    HW130284   1.408   2.037   4.242
 9795SOL    HW230285   1.431   1.979   4.092
 9796SOL     OW30286   3.274   4.091   0.351
 9796SOL    HW130287   3.192   4.036   0.362
 9796SOL    HW230288   3.269   4.172   0.410
 9797SOL     OW30289   3.840   3.919   6.511
 9797SOL    HW130290   3.929   3.959   6.487
 9797SOL    HW230291   3.771   3.948   6.444
 9798SOL     OW30292   2.500   0.706   0.873
 9798SOL    HW130293   2.435   0.634   0.847
 9798SOL    HW230294   2.504   0.774   0.800
 9799SOL     OW30295   3.285   3.362   2.778
 9799SOL    HW130296   3.311   3.454   2.749
 9799SOL    HW230297   3.362   3.299   2.761
 9800SOL     OW30298   3.279   5.969   5.794
 9800SOL    HW130299   3.369   5.960   5.837
 9800SOL    HW230300   3.291   5.986   5.696
 9801SOL     OW30301   4.426   4.762   0.277
 9801SOL    HW130302   4.360   4.801   0.341
 9801SOL    HW230303   4.515   4.755   0.321
 9802SOL     OW30304   6.798   2.724   2.403
 9802SOL    HW130305   6.717   2.675   2.435
 9802SOL    HW230306   6.879   2.683   2.444
 9803SOL     OW30307   6.149   1.197   0.011
 9803SOL    HW130308   6.142   1.292   0.041
 9803SOL    HW230309   6.159   1.137   0.091
 9804SOL     OW30310   0.393   5.557   3.516
 9804SOL    HW130311   0.393   5.486   3.586
 9804SOL    HW230312   0.302   5.600   3.511
 9805SOL     OW30313   1.250   5.753   6.621
 9805SOL    HW130314   1.166   5.733   6.671
 9805SOL    HW230315   1.242   5.843   6.577
 9806SOL     OW30316   0.815   1.792   1.074
 9806SOL    HW130317   0.890   1.820   1.014
 9806SOL    HW230318   0.729   1.797   1.024
 9807SOL     OW30319   2.387   2.853   0.129
 9807SOL    HW130320   2.378   2.785   0.202
 9807SOL    HW230321   2.472   2.838   0.079
 9808SOL     OW30322   5.474   0.884   5.490
 9808SOL    HW130323   5.542   0.854   5.558
 9808SOL    HW230324   5.516   0.882   5.399
 9809SOL     OW30325   0.557   1.794   6.177
 9809SOL    HW130326   0.593   1.825   6.265
 9809SOL    HW230327   0.479   1.733   6.192
 9810SOL     OW30328   2.785   2.375   3.094
 9810SOL    HW130329   2.716   2.401   3.162
 9810SOL    HW230330   2.748   2.388   3.002
 9811SOL     OW30331   5.678   5.173   3.776
 9811SOL    HW130332   5.706   5.136   3.865
 9811SOL    HW230333   5.670   5.098   3.711
 9812SOL     OW30334   3.500   2.248   6.381
 9812SOL    HW130335   3.562   2.311   6.335
 9812SOL    HW230336   3.538   2.222   6.470
 9813SOL     OW30337   5.547   6.222   6.822
 9813SOL    HW130338   5.621   6.232   6.888
 9813SOL    HW230339   5.538   6.125   6.796
 9814SOL     OW30340   0.759   0.908   5.859
 9814SOL    HW130341   0.734   0.996   5.817
 9814SOL    HW230342   0.729   0.833   5.799
 9815SOL     OW30343   6.634   1.927   1.606
 9815SOL    HW130344   6.713   1.979   1.574
 9815SOL    HW230345   6.581   1.895   1.528
 9816SOL     OW30346   6.682   1.280   6.701
 9816SOL    HW130347   6.625   1.235   6.632
 9816SOL    HW230348   6.625   1.313   6.776
 9817SOL     OW30349   2.927   5.834   1.818
 9817SOL    HW130350   2.951   5.925   1.852
 9817SOL    HW230351   2.935   5.767   1.891
 9818SOL     OW30352   1.608   1.295   3.551
 9818SOL    HW130353   1.592   1.312   3.648
 9818SOL    HW230354   1.675   1.221   3.541
 9819SOL     OW30355   5.184   3.636   5.034
 9819SOL    HW130356   5.156   3.638   5.130
 9819SOL    HW230357   5.105   3.611   4.977
 9820SOL     OW30358   2.923   2.174   6.576
 9820SOL    HW130359   2.847   2.134   6.627
 9820SOL    HW230360   2.963   2.249   6.629
 9821SOL     OW30361   4.061   1.720   0.913
 9821SOL    HW130362   4.084   1.814   0.886
 9821SOL    HW230363   4.012   1.676   0.838
 9822SOL     OW30364   4.004   5.536   4.006
 9822SOL    HW130365   4.046   5.450   4.033
 9822SOL    HW230366   4.060   5.612   4.039
 9823SOL     OW30367   1.019   0.386   2.134
 9823SOL    HW130368   1.009   0.294   2.173
 9823SOL    HW230369   1.102   0.388   2.078
 9824SOL     OW30370   2.616   5.825   5.656
 9824SOL    HW130371   2.665   5.744   5.624
 9824SOL    HW230372   2.601   5.887   5.580
 9825SOL     OW30373   5.534   5.758   5.398
 9825SOL    HW130374   5.511   5.825   5.468
 9825SOL    HW230375   5.560   5.806   5.314
 9826SOL     OW30376   3.681   6.327   5.173
 9826SOL    HW130377   3.657   6.276   5.255
 9826SOL    HW230378   3.634   6.415   5.173
 9827SOL     OW30379   2.043   5.280   3.074
 9827SOL    HW130380   1.993   5.366   3.085
 9827SOL    HW230381   2.129   5.286   3.124
 9828SOL     OW30382   3.606   2.092   4.850
 9828SOL    HW130383   3.507   2.101   4.855
 9828SOL    HW230384   3.642   2.152   4.779
 9829SOL     OW30385   5.107   6.675   6.342
 9829SOL    HW130386   5.112   6.618   6.424
 9829SOL    HW230387   5.054   6.628   6.272
 9830SOL     OW30388   5.545   1.263   2.238
 9830SOL    HW130389   5.556   1.348   2.290
 9830SOL    HW230390   5.626   1.206   2.249
 9831SOL     OW30391   0.513   4.447   1.773
 9831SOL    HW130392   0.571   4.528   1.775
 9831SOL    HW230393   0.546   4.383   1.705
 9832SOL     OW30394   4.667   5.436   4.275
 9832SOL    HW130395   4.749   5.429   4.333
 9832SOL    HW230396   4.653   5.350   4.226
 9833SOL     OW30397   3.416   3.851   3.252
 9833SOL    HW130398   3.345   3.864   3.183
 9833SOL    HW230399   3.492   3.799   3.212
 9834SOL     OW30400   1.733   5.089   5.990
 9834SOL    HW130401   1.823   5.048   5.974
 9834SOL    HW230402   1.686   5.038   6.062
 9835SOL     OW30403   3.644   3.492   3.907
 9835SOL    HW130404   3.714   3.425   3.931
 9835SOL    HW230405   3.597   3.523   3.990
 9836SOL     OW30406   0.373   4.523   5.308
 9836SOL    HW130407   0.472   4.539   5.307
 9836SOL    HW230408   0.327   4.594   5.255
 9837SOL     OW30409   5.657   1.815   2.402
 9837SOL    HW130410   5.664   1.715   2.402
 9837SOL    HW230411   5.746   1.854   2.379
 9838SOL     OW30412   1.347   6.640   1.290
 9838SOL    HW130413   1.276   6.594   1.343
 9838SOL    HW230414   1.325   6.634   1.193
 9839SOL     OW30415   4.222   0.737   3.647
 9839SOL    HW130416   4.178   0.652   3.619
 9839SOL    HW230417   4.301   0.717   3.704
 9840SOL     OW30418   4.705   1.403   6.743
 9840SOL    HW130419   4.777   1.355   6.792
 9840SOL    HW230420   4.720   1.501   6.748
 9841SOL     OW30421   0.734   4.865   3.442
 9841SOL    HW130422   0.737   4.952   3.391
 9841SOL    HW230423   0.651   4.815   3.416
 9842SOL     OW30424   3.634   3.400   0.174
 9842SOL    HW130425   3.681   3.323   0.218
 9842SOL    HW230426   3.601   3.463   0.244
 9843SOL     OW30427   6.726   0.366   1.857
 9843SOL    HW130428   6.745   0.436   1.926
 9843SOL    HW230429   6.727   0.408   1.766
 9844SOL     OW30430   6.007   0.486   4.712
 9844SOL    HW130431   5.912   0.486   4.743
 9844SOL    HW230432   6.009   0.499   4.612
 9845SOL     OW30433   1.127   2.295   2.435
 9845SOL    HW130434   1.215   2.326   2.401
 9845SOL    HW230435   1.099   2.213   2.385
 9846SOL     OW30436   4.871   1.473   0.891
 9846SOL    HW130437   4.877   1.434   0.983
 9846SOL    HW230438   4.895   1.570   0.894
 9847SOL     OW30439   4.091   3.203   2.033
 9847SOL    HW130440   4.067   3.226   2.127
 9847SOL    HW230441   4.190   3.190   2.026
 9848SOL     OW30442   3.555   4.161   5.333
 9848SOL    HW130443   3.643   4.168   5.380
 9848SOL    HW230444   3.487   4.125   5.397
 9849SOL     OW30445   0.887   6.975   6.399
 9849SOL    HW130446   0.898   6.923   6.315
 9849SOL    HW230447   0.831   6.923   6.464
 9850SOL     OW30448   0.034   0.293   4.001
 9850SOL    HW130449   0.046   0.316   3.905
 9850SOL    HW230450   7.020   0.200   4.009
 9851SOL     OW30451   3.108   5.583   4.932
 9851SOL    HW130452   3.013   5.551   4.936
 9851SOL    HW230453   3.131   5.606   4.838
 9852SOL     OW30454   1.269   2.002   4.912
 9852SOL    HW130455   1.342   2.037   4.971
 9852SOL    HW230456   1.246   2.073   4.844
 9853SOL     OW30457   0.038   3.712   5.358
 9853SOL    HW130458   0.002   3.788   5.303
 9853SOL    HW230459   0.048   3.631   5.301
 9854SOL     OW30460   0.844   5.801   5.175
 9854SOL    HW130461   0.763   5.810   5.117
 9854SOL    HW230462   0.894   5.719   5.148
 9855SOL     OW30463   1.269   3.545   1.381
 9855SOL    HW130464   1.181   3.507   1.410
 9855SOL    HW230465   1.324   3.472   1.340
 9856SOL     OW30466   5.612   4.602   4.161
 9856SOL    HW130467   5.698   4.572   4.203
 9856SOL    HW230468   5.580   4.686   4.206
 9857SOL     OW30469   5.650   2.772   3.005
 9857SOL    HW130470   5.624   2.767   3.102
 9857SOL    HW230471   5.712   2.849   2.991
 9858SOL     OW30472   0.911   6.584   1.980
 9858SOL    HW130473   0.989   6.528   1.953
 9858SOL    HW230474   0.943   6.670   2.020
 9859SOL     OW30475   6.791   4.849   4.930
 9859SOL    HW130476   6.739   4.765   4.941
 9859SOL    HW230477   6.749   4.922   4.985
 9860SOL     OW30478   2.028   2.309   4.830
 9860SOL    HW130479   2.010   2.271   4.921
 9860SOL    HW230480   2.035   2.235   4.764
 9861SOL     OW30481   3.524   1.313   3.855
 9861SOL    HW130482   3.424   1.324   3.856
 9861SOL    HW230483   3.547   1.218   3.838
 9862SOL     OW30484   2.558   4.318   1.144
 9862SOL    HW130485   2.561   4.416   1.122
 9862SOL    HW230486   2.550   4.306   1.243
 9863SOL     OW30487   3.376   5.929   0.930
 9863SOL    HW130488   3.462   5.885   0.906
 9863SOL    HW230489   3.299   5.878   0.891
 9864SOL     OW30490   3.079   6.901   5.314
 9864SOL    HW130491   2.996   6.845   5.320
 9864SOL    HW230492   3.130   6.895   5.400
 9865SOL     OW30493   0.290   0.190   4.962
 9865SOL    HW130494   0.351   0.235   4.896
 9865SOL    HW230495   0.307   0.226   5.053
 9866SOL     OW30496   5.948   4.274   4.882
 9866SOL    HW130497   6.037   4.276   4.836
 9866SOL    HW230498   5.956   4.219   4.965
 9867SOL     OW30499   4.716   2.502   2.845
 9867SOL    HW130500   4.694   2.577   2.783
 9867SOL    HW230501   4.799   2.456   2.812
 9868SOL     OW30502   0.440   3.986   3.700
 9868SOL    HW130503   0.445   4.067   3.641
 9868SOL    HW230504   0.430   3.904   3.643
 9869SOL     OW30505   0.799   2.499   1.169
 9869SOL    HW130506   0.831   2.457   1.254
 9869SOL    HW230507   0.820   2.597   1.171
 9870SOL     OW30508   4.311   1.158   1.894
 9870SOL    HW130509   4.239   1.187   1.958
 9870SOL    HW230510   4.354   1.074   1.928
 9871SOL     OW30511   6.608   2.423   5.831
 9871SOL    HW130512   6.678   2.451   5.765
 9871SOL    HW230513   6.529   2.387   5.781
 9872SOL     OW30514   2.187   5.207   5.078
 9872SOL    HW130515   2.204   5.227   4.982
 9872SOL    HW230516   2.274   5.185   5.123
 9873SOL     OW30517   1.902   2.198   5.475
 9873SOL    HW130518   1.911   2.100   5.458
 9873SOL    HW230519   1.923   2.216   5.571
 9874SOL     OW30520   0.827   2.854   4.467
 9874SOL    HW130521   0.818   2.927   4.399
 9874SOL    HW230522   0.754   2.862   4.534
 9875SOL     OW30523   0.300   6.302   1.368
 9875SOL    HW130524   0.358   6.289   1.449
 9875SOL    HW230525   0.319   6.392   1.328
 9876SOL     OW30526   3.523   6.839   3.668
 9876SOL    HW130527   3.525   6.739   3.667
 9876SOL    HW230528   3.559   6.875   3.582
 9877SOL     OW30529   7.009   4.278   3.896
 9877SOL    HW130530   6.927   4.271   3.839
 9877SOL    HW230531   0.032   4.189   3.900
 9878SOL     OW30532   1.635   2.989   6.858
 9878SOL    HW130533   1.552   2.945   6.824
 9878SOL    HW230534   1.611   3.052   6.933
 9879SOL     OW30535   1.174   4.480   5.662
 9879SOL    HW130536   1.218   4.532   5.736
 9879SOL    HW230537   1.100   4.424   5.700
 9880SOL     OW30538   2.797   0.936   6.525
 9880SOL    HW130539   2.734   0.872   6.481
 9880SOL    HW230540   2.761   0.964   6.614
 9881SOL     OW30541   5.515   0.367   4.590
 9881SOL    HW130542   5.614   0.351   4.587
 9881SOL    HW230543   5.491   0.441   4.527
 9882SOL     OW30544   3.554   3.524   4.284
 9882SOL    HW130545   3.534   3.437   4.239
 9882SOL    HW230546   3.479   3.587   4.269
 9883SOL     OW30547   1.990   5.547   2.009
 9883SOL    HW130548   2.083   5.531   1.974
 9883SOL    HW230549   1.986   5.517   2.105
 9884SOL     OW30550   1.861   3.452   6.950
 9884SOL    HW130551   1.884   3.356   6.931
 9884SOL    HW230552   1.794   3.484   6.883
 9885SOL     OW30553   0.497   3.117   4.045
 9885SOL    HW130554   0.529   3.108   3.951
 9885SOL    HW230555   0.428   3.189   4.050
 9886SOL     OW30556   6.075   6.222   1.736
 9886SOL    HW130557   6.038   6.130   1.721
 9886SOL    HW230558   6.166   6.228   1.694
 9887SOL     OW30559   4.123   6.609   0.430
 9887SOL    HW130560   4.164   6.681   0.486
 9887SOL    HW230561   4.080   6.650   0.350
 9888SOL     OW30562   5.825   5.807   2.787
 9888SOL    HW130563   5.773   5.806   2.702
 9888SOL    HW230564   5.804   5.889   2.839
 9889SOL     OW30565   0.050   4.592   3.243
 9889SOL    HW130566   0.022   4.535   3.165
 9889SOL    HW230567   6.993   4.611   3.301
 9890SOL     OW30568   6.390   2.921   0.522
 9890SOL    HW130569   6.438   2.838   0.496
 9890SOL    HW230570   6.369   2.918   0.620
 9891SOL     OW30571   5.200   4.633   1.301
 9891SOL    HW130572   5.268   4.569   1.337
 9891SOL    HW230573   5.224   4.658   1.207
 9892SOL     OW30574   2.109   5.001   3.972
 9892SOL    HW130575   2.096   4.940   4.051
 9892SOL    HW230576   2.038   5.072   3.972
 9893SOL     OW30577   6.204   6.003   2.975
 9893SOL    HW130578   6.260   6.035   2.898
 9893SOL    HW230579   6.257   5.941   3.032
 9894SOL     OW30580   3.295   2.122   6.277
 9894SOL    HW130581   3.277   2.135   6.180
 9894SOL    HW230582   3.388   2.152   6.298
 9895SOL     OW30583   5.905   2.179   6.679
 9895SOL    HW130584   5.888   2.102   6.617
 9895SOL    HW230585   5.817   2.214   6.712
 9896SOL     OW30586   3.999   3.213   0.749
 9896SOL    HW130587   3.943   3.273   0.692
 9896SOL    HW230588   4.096   3.235   0.734
 9897SOL     OW30589   5.484   1.735   3.263
 9897SOL    HW130590   5.584   1.745   3.260
 9897SOL    HW230591   5.458   1.653   3.212
 9898SOL     OW30592   1.258   4.836   5.477
 9898SOL    HW130593   1.227   4.848   5.383
 9898SOL    HW230594   1.183   4.802   5.534
 9899SOL     OW30595   5.578   4.515   2.177
 9899SOL    HW130596   5.676   4.513   2.199
 9899SOL    HW230597   5.536   4.429   2.207
 9900SOL     OW30598   1.416   1.735   3.216
 9900SOL    HW130599   1.410   1.829   3.183
 9900SOL    HW230600   1.359   1.725   3.298
 9901SOL     OW30601   1.328   1.675   6.391
 9901SOL    HW130602   1.349   1.731   6.472
 9901SOL    HW230603   1.405   1.614   6.372
 9902SOL     OW30604   3.939   3.583   0.625
 9902SOL    HW130605   4.011   3.527   0.584
 9902SOL    HW230606   3.899   3.533   0.702
 9903SOL     OW30607   4.813   0.868   2.539
 9903SOL    HW130608   4.868   0.786   2.520
 9903SOL    HW230609   4.716   0.843   2.539
 9904SOL     OW30610   7.016   3.612   6.607
 9904SOL    HW130611   0.051   3.545   6.654
 9904SOL    HW230612   6.995   3.580   6.514
 9905SOL     OW30613   1.415   6.560   6.820
 9905SOL    HW130614   1.499   6.508   6.804
 9905SOL    HW230615   1.399   6.621   6.743
 9906SOL     OW30616   1.589   3.151   6.158
 9906SOL    HW130617   1.641   3.151   6.073
 9906SOL    HW230618   1.494   3.126   6.139
 9907SOL     OW30619   2.692   5.988   3.530
 9907SOL    HW130620   2.789   6.000   3.555
 9907SOL    HW230621   2.654   5.913   3.584
 9908SOL     OW30622   0.751   2.992   6.384
 9908SOL    HW130623   0.737   3.091   6.374
 9908SOL    HW230624   0.750   2.969   6.481
 9909SOL     OW30625   3.155   0.949   3.337
 9909SOL    HW130626   3.138   0.953   3.239
 9909SOL    HW230627   3.108   0.869   3.376
 9910SOL     OW30628   0.700   5.032   1.006
 9910SOL    HW130629   0.665   4.988   0.923
 9910SOL    HW230630   0.699   5.131   0.995
 9911SOL     OW30631   5.284   4.942   2.635
 9911SOL    HW130632   5.381   4.955   2.613
 9911SOL    HW230633   5.242   4.882   2.567
 9912SOL     OW30634   3.683   0.662   2.658
 9912SOL    HW130635   3.752   0.629   2.593
 9912SOL    HW230636   3.601   0.690   2.608
 9913SOL     OW30637   5.718   2.766   2.507
 9913SOL    HW130638   5.686   2.821   2.584
 9913SOL    HW230639   5.639   2.724   2.461
 9914SOL     OW30640   1.523   0.745   5.683
 9914SOL    HW130641   1.501   0.648   5.695
 9914SOL    HW230642   1.572   0.757   5.596
 9915SOL     OW30643   5.730   3.812   4.153
 9915SOL    HW130644   5.666   3.865   4.209
 9915SOL    HW230645   5.692   3.801   4.061
 9916SOL     OW30646   2.264   2.935   3.163
 9916SOL    HW130647   2.306   2.878   3.092
 9916SOL    HW230648   2.265   3.030   3.133
 9917SOL     OW30649   3.393   3.574   4.863
 9917SOL    HW130650   3.309   3.615   4.899
 9917SOL    HW230651   3.460   3.646   4.846
 9918SOL     OW30652   1.810   1.560   6.177
 9918SOL    HW130653   1.796   1.656   6.204
 9918SOL    HW230654   1.736   1.504   6.215
 9919SOL     OW30655   1.732   5.531   2.692
 9919SOL    HW130656   1.716   5.604   2.759
 9919SOL    HW230657   1.644   5.504   2.652
 9920SOL     OW30658   3.725   6.835   2.148
 9920SOL    HW130659   3.752   6.799   2.058
 9920SOL    HW230660   3.806   6.866   2.197
 9921SOL     OW30661   6.078   6.496   3.412
 9921SOL    HW130662   6.140   6.496   3.491
 9921SOL    HW230663   6.066   6.589   3.379
 9922SOL     OW30664   4.769   4.322   0.927
 9922SOL    HW130665   4.842   4.383   0.958
 9922SOL    HW230666   4.747   4.342   0.832
 9923SOL     OW30667   6.699   2.619   6.445
 9923SOL    HW130668   6.746   2.585   6.363
 9923SOL    HW230669   6.730   2.712   6.465
 9924SOL     OW30670   5.721   1.316   1.869
 9924SOL    HW130671   5.647   1.383   1.857
 9924SOL    HW230672   5.683   1.224   1.864
 9925SOL     OW30673   1.883   3.688   5.740
 9925SOL    HW130674   1.888   3.785   5.763
 9925SOL    HW230675   1.788   3.663   5.722
 9926SOL     OW30676   2.576   1.992   1.037
 9926SOL    HW130677   2.604   1.917   0.978
 9926SOL    HW230678   2.653   2.018   1.096
 9927SOL     OW30679   0.930   1.885   2.220
 9927SOL    HW130680   0.993   1.809   2.235
 9927SOL    HW230681   0.836   1.852   2.226
 9928SOL     OW30682   0.220   4.592   1.911
 9928SOL    HW130683   0.269   4.571   1.826
 9928SOL    HW230684   0.125   4.562   1.903
 9929SOL     OW30685   3.134   4.251   5.323
 9929SOL    HW130686   3.095   4.183   5.386
 9929SOL    HW230687   3.204   4.208   5.267
 9930SOL     OW30688   0.104   0.683   5.640
 9930SOL    HW130689   0.128   0.748   5.568
 9930SOL    HW230690   0.109   0.590   5.604
 9931SOL     OW30691   0.645   6.170   4.390
 9931SOL    HW130692   0.616   6.085   4.434
 9931SOL    HW230693   0.738   6.192   4.419
 9932SOL     OW30694   1.721   1.761   0.643
 9932SOL    HW130695   1.726   1.668   0.680
 9932SOL    HW230696   1.807   1.808   0.661
 9933SOL     OW30697   2.443   0.651   3.590
 9933SOL    HW130698   2.513   0.649   3.662
 9933SOL    HW230699   2.466   0.722   3.524
 9934SOL     OW30700   5.816   1.610   0.292
 9934SOL    HW130701   5.861   1.651   0.371
 9934SOL    HW230702   5.723   1.646   0.283
 9935SOL     OW30703   2.866   2.431   1.024
 9935SOL    HW130704   2.855   2.378   1.109
 9935SOL    HW230705   2.832   2.524   1.038
 9936SOL     OW30706   5.318   4.887   6.150
 9936SOL    HW130707   5.322   4.895   6.051
 9936SOL    HW230708   5.345   4.794   6.177
 9937SOL     OW30709   6.835   0.436   3.163
 9937SOL    HW130710   6.745   0.412   3.200
 9937SOL    HW230711   6.828   0.520   3.110
 9938SOL     OW30712   5.928   1.046   4.716
 9938SOL    HW130713   5.981   0.969   4.680
 9938SOL    HW230714   5.855   1.070   4.651
 9939SOL     OW30715   1.389   3.592   0.919
 9939SOL    HW130716   1.330   3.512   0.908
 9939SOL    HW230717   1.484   3.565   0.904
 9940SOL     OW30718   6.593   6.838   3.492
 9940SOL    HW130719   6.563   6.921   3.541
 9940SOL    HW230720   6.568   6.757   3.545
 9941SOL     OW30721   3.862   4.830   5.519
 9941SOL    HW130722   3.914   4.790   5.594
 9941SOL    HW230723   3.918   4.897   5.471
 9942SOL     OW30724   4.977   5.241   2.346
 9942SOL    HW130725   5.040   5.226   2.421
 9942SOL    HW230726   4.946   5.336   2.347
 9943SOL     OW30727   1.522   4.228   6.410
 9943SOL    HW130728   1.436   4.280   6.408
 9943SOL    HW230729   1.511   4.144   6.357
 9944SOL     OW30730   0.997   5.145   6.328
 9944SOL    HW130731   0.924   5.112   6.388
 9944SOL    HW230732   1.040   5.069   6.280
 9945SOL     OW30733   6.413   3.686   6.326
 9945SOL    HW130734   6.499   3.692   6.275
 9945SOL    HW230735   6.432   3.690   6.424
 9946SOL     OW30736   5.909   0.167   3.089
 9946SOL    HW130737   5.917   0.266   3.093
 9946SOL    HW230738   5.974   0.130   3.023
 9947SOL     OW30739   1.164   1.795   4.185
 9947SOL    HW130740   1.226   1.872   4.168
 9947SOL    HW230741   1.215   1.709   4.179
 9948SOL     OW30742   6.690   6.390   5.043
 9948SOL    HW130743   6.670   6.483   5.072
 9948SOL    HW230744   6.644   6.373   4.955
 9949SOL     OW30745   6.943   4.637   4.369
 9949SOL    HW130746   6.878   4.670   4.301
 9949SOL    HW230747   0.014   4.640   4.331
 9950SOL     OW30748   6.366   4.680   6.714
 9950SOL    HW130749   6.361   4.598   6.656
 9950SOL    HW230750   6.290   4.741   6.690
 9951SOL     OW30751   1.338   3.252   2.634
 9951SOL    HW130752   1.310   3.239   2.538
 9951SOL    HW230753   1.266   3.217   2.694
 9952SOL     OW30754   0.723   3.483   1.643
 9952SOL    HW130755   0.759   3.509   1.733
 9952SOL    HW230756   0.769   3.402   1.610
 9953SOL     OW30757   6.255   2.764   3.536
 9953SOL    HW130758   6.316   2.828   3.489
 9953SOL    HW230759   6.301   2.729   3.618
 9954SOL     OW30760   2.475   1.873   5.156
 9954SOL    HW130761   2.487   1.912   5.248
 9954SOL    HW230762   2.528   1.789   5.149
 9955SOL     OW30763   4.207   3.017   0.029
 9955SOL    HW130764   4.195   2.932   6.999
 9955SOL    HW230765   4.271   3.077   7.002
 9956SOL     OW30766   0.620   4.400   2.284
 9956SOL    HW130767   0.554   4.442   2.221
 9956SOL    HW230768   0.635   4.305   2.259
 9957SOL     OW30769   5.716   6.847   1.593
 9957SOL    HW130770   5.716   6.937   1.550
 9957SOL    HW230771   5.654   6.787   1.542
 9958SOL     OW30772   3.515   5.270   6.292
 9958SOL    HW130773   3.537   5.200   6.360
 9958SOL    HW230774   3.595   5.328   6.277
 9959SOL     OW30775   4.322   3.604   1.577
 9959SOL    HW130776   4.395   3.606   1.509
 9959SOL    HW230777   4.270   3.519   1.567
 9960SOL     OW30778   6.307   6.548   1.258
 9960SOL    HW130779   6.221   6.563   1.210
 9960SOL    HW230780   6.306   6.458   1.302
 9961SOL     OW30781   1.281   4.626   1.785
 9961SOL    HW130782   1.247   4.575   1.706
 9961SOL    HW230783   1.293   4.562   1.862
 9962SOL     OW30784   3.918   6.825   1.864
 9962SOL    HW130785   3.896   6.730   1.882
 9962SOL    HW230786   3.847   6.865   1.805
 9963SOL     OW30787   2.924   2.341   0.334
 9963SOL    HW130788   2.997   2.409   0.331
 9963SOL    HW230789   2.961   2.253   0.365
 9964SOL     OW30790   4.403   4.933   5.800
 9964SOL    HW130791   4.308   4.965   5.799
 9964SOL    HW230792   4.460   4.997   5.748
 9965SOL     OW30793   3.619   5.501   5.168
 9965SOL    HW130794   3.553   5.435   5.203
 9965SOL    HW230795   3.706   5.454   5.149
 9966SOL     OW30796   2.918   4.858   2.219
 9966SOL    HW130797   2.999   4.823   2.173
 9966SOL    HW230798   2.865   4.914   2.156
 9967SOL     OW30799   6.369   6.138   2.764
 9967SOL    HW130800   6.276   6.169   2.743
 9967SOL    HW230801   6.434   6.213   2.751
 9968SOL     OW30802   4.366   5.833   6.926
 9968SOL    HW130803   4.448   5.776   6.935
 9968SOL    HW230804   4.294   5.780   6.879
 9969SOL     OW30805   1.009   4.193   4.434
 9969SOL    HW130806   1.034   4.260   4.504
 9969SOL    HW230807   0.916   4.161   4.451
 9970SOL     OW30808   5.773   5.061   1.548
 9970SOL    HW130809   5.706   5.135   1.553
 9970SOL    HW230810   5.863   5.100   1.527
 9971SOL     OW30811   1.436   2.813   1.609
 9971SOL    HW130812   1.472   2.736   1.556
 9971SOL    HW230813   1.450   2.898   1.557
 9972SOL     OW30814   3.564   4.533   1.085
 9972SOL    HW130815   3.510   4.605   1.129
 9972SOL    HW230816   3.509   4.491   1.012
 9973SOL     OW30817   4.546   2.708   5.048
 9973SOL    HW130818   4.449   2.710   5.074
 9973SOL    HW230819   4.569   2.618   5.011
 9974SOL     OW30820   6.580   1.945   3.145
 9974SOL    HW130821   6.568   2.000   3.063
 9974SOL    HW230822   6.508   1.876   3.151
 9975SOL     OW30823   0.757   5.061   6.421
 9975SOL    HW130824   0.707   5.016   6.348
 9975SOL    HW230825   0.698   5.067   6.502
 9976SOL     OW30826   1.159   5.085   5.630
 9976SOL    HW130827   1.180   5.181   5.646
 9976SOL    HW230828   1.108   5.049   5.708
 9977SOL     OW30829   5.252   5.047   5.746
 9977SOL    HW130830   5.226   5.032   5.651
 9977SOL    HW230831   5.176   5.020   5.806
 9978SOL     OW30832   0.337   2.274   5.987
 9978SOL    HW130833   0.310   2.315   6.074
 9978SOL    HW230834   0.255   2.242   5.938
 9979SOL     OW30835   5.308   4.028   5.955
 9979SOL    HW130836   5.327   4.076   6.040
 9979SOL    HW230837   5.240   3.956   5.971
 9980SOL     OW30838   2.021   0.646   0.396
 9980SOL    HW130839   2.054   0.616   0.485
 9980SOL    HW230840   2.026   0.570   0.331
 9981SOL     OW30841   1.501   1.993   0.914
 9981SOL    HW130842   1.543   1.903   0.925
 9981SOL    HW230843   1.532   2.053   0.987
 9982SOL     OW30844   1.959   0.987   4.461
 9982SOL    HW130845   1.885   0.984   4.527
 9982SOL    HW230846   1.961   1.077   4.416
 9983SOL     OW30847   6.588   2.393   2.369
 9983SOL    HW130848   6.659   2.370   2.436
 9983SOL    HW230849   6.504   2.418   2.417
 9984SOL     OW30850   6.996   6.024   0.756
 9984SOL    HW130851   0.058   5.983   0.720
 9984SOL    HW230852   7.017   6.111   0.799
 9985SOL     OW30853   3.036   5.152   1.028
 9985SOL    HW130854   2.954   5.201   0.999
 9985SOL    HW230855   3.064   5.089   0.956
 9986SOL     OW30856   6.126   4.434   0.809
 9986SOL    HW130857   6.129   4.530   0.835
 9986SOL    HW230858   6.133   4.427   0.709
 9987SOL     OW30859   5.124   2.916   1.755
 9987SOL    HW130860   5.218   2.891   1.779
 9987SOL    HW230861   5.089   2.983   1.820
 9988SOL     OW30862   0.222   5.283   4.416
 9988SOL    HW130863   0.191   5.327   4.500
 9988SOL    HW230864   0.217   5.184   4.425
 9989SOL     OW30865   6.032   3.722   2.058
 9989SOL    HW130866   6.073   3.633   2.077
 9989SOL    HW230867   6.053   3.749   1.964
 9990SOL     OW30868   1.278   6.257   3.212
 9990SOL    HW130869   1.212   6.206   3.266
 9990SOL    HW230870   1.369   6.249   3.253
 9991SOL     OW30871   2.084   3.332   3.999
 9991SOL    HW130872   2.080   3.233   4.012
 9991SOL    HW230873   2.127   3.374   4.079
 9992SOL     OW30874   3.393   3.636   0.923
 9992SOL    HW130875   3.322   3.634   0.993
 9992SOL    HW230876   3.477   3.674   0.961
 9993SOL     OW30877   3.329   6.172   4.110
 9993SOL    HW130878   3.388   6.249   4.088
 9993SOL    HW230879   3.304   6.124   4.026
 9994SOL     OW30880   6.794   3.945   3.345
 9994SOL    HW130881   6.722   4.004   3.309
 9994SOL    HW230882   6.880   3.996   3.350
 9995SOL     OW30883   3.539   0.946   3.113
 9995SOL    HW130884   3.482   0.955   3.195
 9995SOL    HW230885   3.631   0.981   3.131
 9996SOL     OW30886   3.295   3.914   0.883
 9996SOL    HW130887   3.332   3.830   0.844
 9996SOL    HW230888   3.370   3.977   0.903
 9997SOL     OW30889   5.062   1.534   3.559
 9997SOL    HW130890   4.989   1.563   3.496
 9997SOL    HW230891   5.149   1.570   3.526
 9998SOL     OW30892   4.884   3.727   2.533
 9998SOL    HW130893   4.893   3.712   2.632
 9998SOL    HW230894   4.850   3.820   2.517
 9999SOL     OW30895   6.933   6.510   4.069
 9999SOL    HW130896   6.947   6.533   4.166
 9999SOL    HW230897   6.973   6.420   4.050
10000SOL     OW30898   5.689   1.508   1.558
10000SOL    HW130899   5.696   1.568   1.637
10000SOL    HW230900   5.737   1.423   1.576
10001SOL     OW30901   3.362   6.653   2.017
10001SOL    HW130902   3.278   6.606   2.041
10001SOL    HW230903   3.430   6.586   1.985
10002SOL     OW30904   2.549   1.435   1.143
10002SOL    HW130905   2.600   1.507   1.190
10002SOL    HW230906   2.612   1.365   1.112
10003SOL     OW30907   3.362   1.555   2.628
10003SOL    HW130908   3.348   1.589   2.535
10003SOL    HW230909   3.329   1.461   2.635
10004SOL     OW30910   5.326   3.926   4.705
10004SOL    HW130911   5.321   3.912   4.804
10004SOL    HW230912   5.354   4.020   4.686
10005SOL     OW30913   3.574   5.446   2.665
10005SOL    HW130914   3.655   5.504   2.672
10005SOL    HW230915   3.493   5.501   2.685
10006SOL     OW30916   5.314   0.055   5.484
10006SOL    HW130917   5.330   0.040   5.386
10006SOL    HW230918   5.390   0.016   5.536
10007SOL     OW30919   0.810   3.731   4.641
10007SOL    HW130920   0.843   3.823   4.660
10007SOL    HW230921   0.760   3.696   4.720
10008SOL     OW30922   5.191   2.268   3.854
10008SOL    HW130923   5.176   2.183   3.805
10008SOL    HW230924   5.289   2.279   3.872
10009SOL     OW30925   1.738   4.745   1.674
10009SOL    HW130926   1.653   4.783   1.636
10009SOL    HW230927   1.795   4.709   1.600
10010SOL     OW30928   3.111   6.054   0.004
10010SOL    HW130929   3.188   6.064   0.067
10010SOL    HW230930   3.077   5.960   0.007
10011SOL     OW30931   0.150   4.310   6.762
10011SOL    HW130932   0.241   4.289   6.728
10011SOL    HW230933   0.096   4.226   6.766
10012SOL     OW30934   4.796   0.327   2.592
10012SOL    HW130935   4.754   0.246   2.631
10012SOL    HW230936   4.893   0.331   2.619
10013SOL     OW30937   0.947   3.688   3.922
10013SOL    HW130938   0.882   3.725   3.855
10013SOL    HW230939   1.037   3.681   3.880
10014SOL     OW30940   1.007   6.858   1.856
10014SOL    HW130941   0.971   6.856   1.762
10014SOL    HW230942   1.019   6.953   1.885
10015SOL     OW30943   3.864   5.082   0.261
10015SOL    HW130944   3.911   5.166   0.236
10015SOL    HW230945   3.829   5.090   0.354
10016SOL     OW30946   2.520   1.292   4.822
10016SOL    HW130947   2.516   1.222   4.751
10016SOL    HW230948   2.427   1.311   4.855
10017SOL     OW30949   1.673   1.082   2.894
10017SOL    HW130950   1.576   1.060   2.882
10017SOL    HW230951   1.688   1.180   2.877
10018SOL     OW30952   6.325   3.925   5.559
10018SOL    HW130953   6.392   3.977   5.507
10018SOL    HW230954   6.357   3.915   5.653
10019SOL     OW30955   0.621   1.348   3.054
10019SOL    HW130956   0.541   1.380   3.104
10019SOL    HW230957   0.700   1.406   3.078
10020SOL     OW30958   0.612   1.014   2.059
10020SOL    HW130959   0.674   1.004   1.982
10020SOL    HW230960   0.530   0.959   2.043
10021SOL     OW30961   0.596   2.892   2.134
10021SOL    HW130962   0.543   2.819   2.177
10021SOL    HW230963   0.663   2.928   2.199
10022SOL     OW30964   3.074   5.673   0.473
10022SOL    HW130965   3.052   5.741   0.402
10022SOL    HW230966   3.147   5.709   0.532
10023SOL     OW30967   2.568   5.458   4.948
10023SOL    HW130968   2.494   5.521   4.972
10023SOL    HW230969   2.578   5.389   5.019
10024SOL     OW30970   1.232   5.083   3.105
10024SOL    HW130971   1.207   5.014   3.037
10024SOL    HW230972   1.262   5.038   3.189
10025SOL     OW30973   1.314   3.388   2.313
10025SOL    HW130974   1.411   3.410   2.317
10025SOL    HW230975   1.301   3.290   2.298
10026SOL     OW30976   4.963   6.935   3.744
10026SOL    HW130977   5.002   6.851   3.784
10026SOL    HW230978   4.929   6.994   3.817
10027SOL     OW30979   0.635   2.067   5.036
10027SOL    HW130980   0.639   2.013   4.952
10027SOL    HW230981   0.566   2.029   5.097
10028SOL     OW30982   2.307   1.649   1.532
10028SOL    HW130983   2.396   1.605   1.520
10028SOL    HW230984   2.283   1.699   1.448
10029SOL     OW30985   1.335   3.348   3.629
10029SOL    HW130986   1.238   3.340   3.654
10029SOL    HW230987   1.349   3.432   3.578
10030SOL     OW30988   3.526   0.655   5.018
10030SOL    HW130989   3.495   0.749   5.007
10030SOL    HW230990   3.476   0.596   4.954
10031SOL     OW30991   4.929   5.087   4.414
10031SOL    HW130992   5.008   5.042   4.456
10031SOL    HW230993   4.940   5.187   4.420
10032SOL     OW30994   4.088   0.405   5.938
10032SOL    HW130995   4.112   0.383   5.843
10032SOL    HW230996   4.099   0.323   5.995
10033SOL     OW30997   4.631   2.254   4.578
10033SOL    HW130998   4.624   2.222   4.673
10033SOL    HW230999   4.584   2.342   4.569
10034SOL     OW31000   2.502   1.087   3.660
10034SOL    HW131001   2.555   1.149   3.718
10034SOL    HW231002   2.454   1.021   3.719
10035SOL     OW31003   6.040   3.988   0.376
10035SOL    HW131004   6.081   4.074   0.406
10035SOL    HW231005   6.110   3.918   0.370
10036SOL     OW31006   7.009   0.500   0.306
10036SOL    HW131007   6.944   0.550   0.362
10036SOL    HW231008   0.034   0.431   0.361
10037SOL     OW31009   6.074   0.109   6.791
10037SOL    HW131010   6.174   0.107   6.797
10037SOL    HW231011   6.044   0.201   6.764
10038SOL     OW31012   4.431   0.090   6.313
10038SOL    HW131013   4.472   0.075   6.223
10038SOL    HW231014   4.413   0.001   6.357
10039SOL     OW31015   5.157   6.720   5.364
10039SOL    HW131016   5.240   6.696   5.415
10039SOL    HW231017   5.086   6.748   5.428
10040SOL     OW31018   4.095   6.137   5.828
10040SOL    HW131019   4.065   6.232   5.820
10040SOL    HW231020   4.015   6.077   5.836
10041SOL     OW31021   5.382   5.534   6.468
10041SOL    HW131022   5.380   5.434   6.472
10041SOL    HW231023   5.315   5.567   6.402
10042SOL     OW31024   0.535   1.150   5.446
10042SOL    HW131025   0.449   1.105   5.469
10042SOL    HW231026   0.610   1.084   5.454
10043SOL     OW31027   0.551   1.170   4.025
10043SOL    HW131028   0.522   1.258   4.062
10043SOL    HW231029   0.636   1.181   3.973
10044SOL     OW31030   2.576   2.236   3.526
10044SOL    HW131031   2.645   2.284   3.580
10044SOL    HW231032   2.613   2.148   3.495
10045SOL     OW31033   4.897   0.107   3.926
10045SOL    HW131034   4.858   0.198   3.914
10045SOL    HW231035   4.974   0.111   3.989
10046SOL     OW31036   1.479   2.604   1.420
10046SOL    HW131037   1.380   2.593   1.412
10046SOL    HW231038   1.523   2.569   1.337
10047SOL     OW31039   5.423   3.533   5.061
10047SOL    HW131040   5.336   3.576   5.037
10047SOL    HW231041   5.484   3.532   4.982
10048SOL     OW31042   3.781   1.865   2.245
10048SOL    HW131043   3.792   1.964   2.249
10048SOL    HW231044   3.751   1.831   2.334
10049SOL     OW31045   0.396   0.462   6.624
10049SOL    HW131046   0.395   0.553   6.582
10049SOL    HW231047   0.479   0.414   6.596
10050SOL     OW31048   6.544   2.568   5.191
10050SOL    HW131049   6.588   2.478   5.176
10050SOL    HW231050   6.494   2.567   5.277
10051SOL     OW31051   6.245   1.995   5.137
10051SOL    HW131052   6.230   2.042   5.225
10051SOL    HW231053   6.319   2.041   5.088
10052SOL     OW31054   2.375   2.334   2.609
10052SOL    HW131055   2.423   2.378   2.533
10052SOL    HW231056   2.390   2.235   2.605
10053SOL     OW31057   3.554   5.387   1.606
10053SOL    HW131058   3.495   5.332   1.547
10053SOL    HW231059   3.499   5.455   1.655
10054SOL     OW31060   4.197   5.753   5.755
10054SOL    HW131061   4.228   5.754   5.660
10054SOL    HW231062   4.100   5.730   5.758
10055SOL     OW31063   5.569   2.392   5.512
10055SOL    HW131064   5.647   2.329   5.511
10055SOL    HW231065   5.517   2.382   5.428
10056SOL     OW31066   6.637   5.249   0.934
10056SOL    HW131067   6.584   5.283   0.856
10056SOL    HW231068   6.664   5.154   0.917
10057SOL     OW31069   3.660   1.604   4.294
10057SOL    HW131070   3.567   1.594   4.329
10057SOL    HW231071   3.713   1.522   4.316
10058SOL     OW31072   0.217   3.727   4.793
10058SOL    HW131073   0.152   3.798   4.766
10058SOL    HW231074   0.291   3.723   4.726
10059SOL     OW31075   5.276   6.244   0.878
10059SOL    HW131076   5.276   6.148   0.904
10059SOL    HW231077   5.329   6.256   0.794
10060SOL     OW31078   2.351   1.624   2.499
10060SOL    HW131079   2.294   1.597   2.421
10060SOL    HW231080   2.372   1.722   2.492
10061SOL     OW31081   5.366   1.175   4.853
10061SOL    HW131082   5.274   1.160   4.888
10061SOL    HW231083   5.362   1.196   4.755
10062SOL     OW31084   6.347   6.760   4.807
10062SOL    HW131085   6.336   6.754   4.906
10062SOL    HW231086   6.404   6.839   4.784
10063SOL     OW31087   1.668   1.657   3.920
10063SOL    HW131088   1.695   1.646   3.824
10063SOL    HW231089   1.579   1.703   3.924
10064SOL     OW31090   5.320   6.171   6.532
10064SOL    HW131091   5.341   6.259   6.573
10064SOL    HW231092   5.257   6.183   6.455
10065SOL     OW31093   2.137   0.718   2.411
10065SOL    HW131094   2.151   0.726   2.510
10065SOL    HW231095   2.161   0.804   2.367
10066SOL     OW31096   1.630   1.374   3.839
10066SOL    HW131097   1.631   1.465   3.880
10066SOL    HW231098   1.719   1.330   3.854
10067SOL     OW31099   5.958   3.954   4.900
10067SOL    HW131100   6.036   3.896   4.875
10067SOL    HW231101   5.991   4.044   4.929
10068SOL     OW31102   6.172   3.356   3.656
10068SOL    HW131103   6.146   3.417   3.580
10068SOL    HW231104   6.250   3.301   3.629
10069SOL     OW31105   2.003   5.297   3.645
10069SOL    HW131106   1.958   5.257   3.725
10069SOL    HW231107   1.947   5.281   3.564
10070SOL     OW31108   6.932   0.297   5.284
10070SOL    HW131109   6.858   0.234   5.262
10070SOL    HW231110   7.020   0.251   5.270
10071SOL     OW31111   5.630   5.661   3.834
10071SOL    HW131112   5.544   5.645   3.882
10071SOL    HW231113   5.676   5.741   3.873
10072SOL     OW31114   0.117   5.821   3.633
10072SOL    HW131115   0.020   5.846   3.629
10072SOL    HW231116   0.129   5.747   3.699
10073SOL     OW31117   5.877   4.949   4.703
10073SOL    HW131118   5.937   4.869   4.702
10073SOL    HW231119   5.797   4.931   4.760
10074SOL     OW31120   1.499   1.232   5.254
10074SOL    HW131121   1.466   1.285   5.176
10074SOL    HW231122   1.427   1.227   5.323
10075SOL     OW31123   1.126   2.458   2.656
10075SOL    HW131124   1.222   2.485   2.658
10075SOL    HW231125   1.111   2.391   2.584
10076SOL     OW31126   6.098   0.232   3.917
10076SOL    HW131127   6.144   0.320   3.905
10076SOL    HW231128   6.008   0.234   3.873
10077SOL     OW31129   3.680   2.962   5.940
10077SOL    HW131130   3.657   2.966   6.037
10077SOL    HW231131   3.738   3.039   5.915
10078SOL     OW31132   0.124   5.590   3.781
10078SOL    HW131133   0.165   5.572   3.871
10078SOL    HW231134   0.028   5.564   3.783
10079SOL     OW31135   0.470   3.424   2.438
10079SOL    HW131136   0.500   3.520   2.440
10079SOL    HW231137   0.433   3.403   2.348
10080SOL     OW31138   3.684   1.598   5.318
10080SOL    HW131139   3.601   1.545   5.306
10080SOL    HW231140   3.661   1.695   5.327
10081SOL     OW31141   0.746   0.811   0.247
10081SOL    HW131142   0.752   0.910   0.264
10081SOL    HW231143   0.696   0.795   0.162
10082SOL     OW31144   0.233   4.731   2.346
10082SOL    HW131145   0.328   4.739   2.317
10082SOL    HW231146   0.173   4.756   2.270
10083SOL     OW31147   4.962   0.545   3.182
10083SOL    HW131148   4.939   0.529   3.277
10083SOL    HW231149   4.962   0.644   3.164
10084SOL     OW31150   3.288   1.459   6.373
10084SOL    HW131151   3.204   1.462   6.427
10084SOL    HW231152   3.266   1.454   6.276
10085SOL     OW31153   0.993   6.685   2.424
10085SOL    HW131154   1.067   6.625   2.456
10085SOL    HW231155   0.964   6.745   2.499
10086SOL     OW31156   6.036   4.975   1.933
10086SOL    HW131157   6.044   5.037   1.855
10086SOL    HW231158   5.993   4.890   1.904
10087SOL     OW31159   6.914   6.700   3.662
10087SOL    HW131160   6.936   6.660   3.573
10087SOL    HW231161   6.850   6.640   3.711
10088SOL     OW31162   0.069   0.187   0.216
10088SOL    HW131163   7.001   0.209   0.253
10088SOL    HW231164   0.134   0.177   0.292
10089SOL     OW31165   2.668   2.430   2.833
10089SOL    HW131166   2.733   2.505   2.829
10089SOL    HW231167   2.673   2.376   2.749
10090SOL     OW31168   1.118   5.164   1.027
10090SOL    HW131169   1.094   5.173   1.123
10090SOL    HW231170   1.045   5.201   0.970
10091SOL     OW31171   1.433   3.280   5.469
10091SOL    HW131172   1.335   3.276   5.487
10091SOL    HW231173   1.473   3.189   5.478
10092SOL     OW31174   1.771   3.533   5.057
10092SOL    HW131175   1.742   3.451   5.106
10092SOL    HW231176   1.867   3.552   5.079
10093SOL     OW31177   0.302   3.966   5.052
10093SOL    HW131178   0.306   3.935   5.146
10093SOL    HW231179   0.209   3.956   5.016
10094SOL     OW31180   1.602   6.167   2.151
10094SOL    HW131181   1.678   6.103   2.159
10094SOL    HW231182   1.607   6.215   2.064
10095SOL     OW31183   5.941   1.543   4.914
10095SOL    HW131184   5.906   1.449   4.905
10095SOL    HW231185   5.887   1.592   4.983
10096SOL     OW31186   5.382   5.061   2.325
10096SOL    HW131187   5.322   4.981   2.320
10096SOL    HW231188   5.438   5.066   2.243
10097SOL     OW31189   1.115   1.106   0.093
10097SOL    HW131190   1.178   1.177   0.061
10097SOL    HW231191   1.166   1.039   0.147
10098SOL     OW31192   2.587   0.765   5.207
10098SOL    HW131193   2.642   0.844   5.232
10098SOL    HW231194   2.633   0.713   5.135
10099SOL     OW31195   6.871   4.842   0.419
10099SOL    HW131196   6.837   4.908   0.486
10099SOL    HW231197   6.970   4.834   0.429
10100SOL     OW31198   4.974   6.948   4.595
10100SOL    HW131199   4.875   6.949   4.579
10100SOL    HW231200   4.992   6.948   4.693
10101SOL     OW31201   6.102   3.660   1.284
10101SOL    HW131202   6.143   3.724   1.219
10101SOL    HW231203   6.008   3.687   1.303
10102SOL     OW31204   1.636   0.578   2.533
10102SOL    HW131205   1.597   0.490   2.507
10102SOL    HW231206   1.625   0.644   2.458
10103SOL     OW31207   2.481   1.722   6.235
10103SOL    HW131208   2.542   1.737   6.157
10103SOL    HW231209   2.515   1.775   6.313
10104SOL     OW31210   1.258   2.783   4.421
10104SOL    HW131211   1.358   2.773   4.428
10104SOL    HW231212   1.237   2.847   4.347
10105SOL     OW31213   1.121   0.527   7.014
10105SOL    HW131214   1.077   0.615   6.998
10105SOL    HW231215   1.155   0.491   6.927
10106SOL     OW31216   4.452   6.458   0.901
10106SOL    HW131217   4.543   6.429   0.872
10106SOL    HW231218   4.456   6.550   0.938
10107SOL     OW31219   0.395   1.121   6.368
10107SOL    HW131220   0.336   1.062   6.314
10107SOL    HW231221   0.381   1.103   6.465
10108SOL     OW31222   6.655   6.551   0.340
10108SOL    HW131223   6.640   6.462   0.383
10108SOL    HW231224   6.599   6.559   0.258
10109SOL     OW31225   4.244   0.262   1.294
10109SOL    HW131226   4.163   0.218   1.253
10109SOL    HW231227   4.252   0.355   1.258
10110SOL     OW31228   4.466   5.976   4.738
10110SOL    HW131229   4.475   5.948   4.643
10110SOL    HW231230   4.402   6.053   4.745
10111SOL     OW31231   5.261   3.835   3.430
10111SOL    HW131232   5.313   3.816   3.514
10111SOL    HW231233   5.164   3.841   3.452
10112SOL     OW31234   5.783   3.865   3.764
10112SOL    HW131235   5.700   3.836   3.812
10112SOL    HW231236   5.774   3.962   3.740
10113SOL     OW31237   4.527   0.104   5.190
10113SOL    HW131238   4.428   0.103   5.184
10113SOL    HW231239   4.560   0.198   5.188
10114SOL     OW31240   5.663   1.044   1.033
10114SOL    HW131241   5.675   1.065   0.936
10114SOL    HW231242   5.750   1.012   1.072
10115SOL     OW31243   3.149   1.616   3.966
10115SOL    HW131244   3.217   1.550   3.934
10115SOL    HW231245   3.195   1.695   4.007
10116SOL     OW31246   6.877   6.001   0.477
10116SOL    HW131247   6.866   6.082   0.420
10116SOL    HW231248   6.954   6.014   0.540
10117SOL     OW31249   0.341   6.558   5.001
10117SOL    HW131250   0.417   6.582   4.941
10117SOL    HW231251   0.261   6.533   4.945
10118SOL     OW31252   1.807   5.049   3.179
10118SOL    HW131253   1.806   4.949   3.177
10118SOL    HW231254   1.877   5.083   3.117
10119SOL     OW31255   0.412   5.975   4.220
10119SOL    HW131256   0.457   5.946   4.136
10119SOL    HW231257   0.473   5.960   4.298
10120SOL     OW31258   1.746   4.022   5.174
10120SOL    HW131259   1.839   3.995   5.152
10120SOL    HW231260   1.687   3.940   5.176
10121SOL     OW31261   6.401   4.530   6.482
10121SOL    HW131262   6.463   4.499   6.411
10121SOL    HW231263   6.310   4.545   6.443
10122SOL     OW31264   6.184   2.852   1.000
10122SOL    HW131265   6.120   2.780   0.975
10122SOL    HW231266   6.135   2.922   1.054
10123SOL     OW31267   6.085   0.067   0.266
10123SOL    HW131268   6.110   0.121   0.347
10123SOL    HW231269   6.161   0.008   0.241
10124SOL     OW31270   1.844   3.732   6.638
10124SOL    HW131271   1.828   3.782   6.553
10124SOL    HW231272   1.861   3.798   6.712
10125SOL     OW31273   1.763   0.979   2.408
10125SOL    HW131274   1.813   1.060   2.379
10125SOL    HW231275   1.752   0.979   2.507
10126SOL     OW31276   0.704   0.119   5.846
10126SOL    HW131277   0.797   0.099   5.815
10126SOL    HW231278   0.689   0.076   5.935
10127SOL     OW31279   2.384   4.684   6.393
10127SOL    HW131280   2.456   4.619   6.368
10127SOL    HW231281   2.371   4.682   6.493
10128SOL     OW31282   1.924   0.957   1.395
10128SOL    HW131283   1.917   1.013   1.312
10128SOL    HW231284   2.006   0.899   1.389
10129SOL     OW31285   5.884   2.535   3.122
10129SOL    HW131286   5.864   2.576   3.211
10129SOL    HW231287   5.799   2.517   3.073
10130SOL     OW31288   1.757   3.998   2.086
10130SOL    HW131289   1.787   3.907   2.113
10130SOL    HW231290   1.836   4.056   2.067
10131SOL     OW31291   0.712   0.188   3.505
10131SOL    HW131292   0.741   0.196   3.410
10131SOL    HW231293   0.750   0.104   3.544
10132SOL     OW31294   3.237   0.050   4.903
10132SOL    HW131295   3.301   0.043   4.826
10132SOL    HW231296   3.211   0.146   4.916
10133SOL     OW31297   4.757   6.382   1.411
10133SOL    HW131298   4.779   6.330   1.493
10133SOL    HW231299   4.752   6.480   1.434
10134SOL     OW31300   0.083   6.029   3.870
10134SOL    HW131301   0.130   5.941   3.874
10134SOL    HW231302   0.011   6.025   3.800
10135SOL     OW31303   5.025   3.273   3.613
10135SOL    HW131304   4.971   3.341   3.663
10135SOL    HW231305   4.966   3.196   3.588
10136SOL     OW31306   4.917   0.554   3.469
10136SOL    HW131307   4.943   0.637   3.517
10136SOL    HW231308   4.868   0.492   3.531
10137SOL     OW31309   5.871   4.354   3.683
10137SOL    HW131310   5.951   4.387   3.634
10137SOL    HW231311   5.839   4.268   3.642
10138SOL     OW31312   5.367   2.508   0.643
10138SOL    HW131313   5.287   2.565   0.660
10138SOL    HW231314   5.401   2.472   0.730
10139SOL     OW31315   3.883   3.975   3.385
10139SOL    HW131316   3.900   4.011   3.294
10139SOL    HW231317   3.906   3.878   3.387
10140SOL     OW31318   6.192   6.143   6.293
10140SOL    HW131319   6.136   6.221   6.317
10140SOL    HW231320   6.273   6.174   6.242
10141SOL     OW31321   4.275   1.899   4.817
10141SOL    HW131322   4.180   1.893   4.787
10141SOL    HW231323   4.298   1.995   4.833
10142SOL     OW31324   6.383   6.918   5.252
10142SOL    HW131325   6.316   6.931   5.324
10142SOL    HW231326   6.386   7.000   5.194
10143SOL     OW31327   4.614   0.908   6.829
10143SOL    HW131328   4.589   0.889   6.925
10143SOL    HW231329   4.594   1.003   6.808
10144SOL     OW31330   3.560   0.249   6.568
10144SOL    HW131331   3.616   0.294   6.498
10144SOL    HW231332   3.596   0.158   6.586
10145SOL     OW31333   3.088   5.253   5.037
10145SOL    HW131334   3.037   5.262   5.123
10145SOL    HW231335   3.026   5.260   4.960
10146SOL     OW31336   3.946   5.170   4.755
10146SOL    HW131337   3.957   5.263   4.720
10146SOL    HW231338   4.035   5.125   4.758
10147SOL     OW31339   5.176   4.167   5.341
10147SOL    HW131340   5.199   4.232   5.414
10147SOL    HW231341   5.236   4.087   5.348
10148SOL     OW31342   4.334   5.520   0.074
10148SOL    HW131343   4.425   5.520   0.114
10148SOL    HW231344   4.283   5.600   0.105
10149SOL     OW31345   6.184   2.882   0.333
10149SOL    HW131346   6.244   2.909   0.409
10149SOL    HW231347   6.239   2.869   0.250
10150SOL     OW31348   4.128   3.922   0.396
10150SOL    HW131349   4.110   3.915   0.494
10150SOL    HW231350   4.073   3.995   0.356
10151SOL     OW31351   0.575   6.635   6.794
10151SOL    HW131352   0.527   6.559   6.750
10151SOL    HW231353   0.510   6.686   6.851
10152SOL     OW31354   6.879   5.919   4.429
10152SOL    HW131355   6.910   5.867   4.509
10152SOL    HW231356   6.943   5.994   4.412
10153SOL     OW31357   5.126   6.293   3.963
10153SOL    HW131358   5.152   6.208   4.009
10153SOL    HW231359   5.081   6.271   3.876
10154SOL     OW31360   5.092   6.562   5.137
10154SOL    HW131361   5.174   6.612   5.164
10154SOL    HW231362   5.012   6.602   5.182
10155SOL     OW31363   3.753   2.355   5.488
10155SOL    HW131364   3.807   2.407   5.554
10155SOL    HW231365   3.813   2.321   5.416
10156SOL     OW31366   5.967   0.904   3.036
10156SOL    HW131367   5.946   0.866   3.126
10156SOL    HW231368   6.062   0.884   3.013
10157SOL     OW31369   6.936   2.928   0.279
10157SOL    HW131370   6.914   2.979   0.196
10157SOL    HW231371   0.012   2.905   0.279
10158SOL     OW31372   5.743   4.076   0.823
10158SOL    HW131373   5.737   4.035   0.732
10158SOL    HW231374   5.767   4.006   0.890
10159SOL     OW31375   2.896   3.605   0.003
10159SOL    HW131376   2.988   3.585   6.992
10159SOL    HW231377   2.849   3.519   0.025
10160SOL     OW31378   2.135   2.828   2.069
10160SOL    HW131379   2.183   2.757   2.120
10160SOL    HW231380   2.197   2.870   2.003
10161SOL     OW31381   3.136   2.816   6.129
10161SOL    HW131382   3.197   2.738   6.142
10161SOL    HW231383   3.114   2.825   6.032
10162SOL     OW31384   3.304   4.499   0.332
10162SOL    HW131385   3.238   4.541   0.270
10162SOL    HW231386   3.380   4.461   0.279
10163SOL     OW31387   6.217   4.835   6.310
10163SOL    HW131388   6.143   4.894   6.342
10163SOL    HW231389   6.205   4.743   6.346
10164SOL     OW31390   5.681   4.171   4.815
10164SOL    HW131391   5.780   4.170   4.829
10164SOL    HW231392   5.643   4.256   4.852
10165SOL     OW31393   0.217   1.827   3.248
10165SOL    HW131394   0.118   1.812   3.237
10165SOL    HW231395   0.259   1.835   3.158
10166SOL     OW31396   3.320   2.083   1.873
10166SOL    HW131397   3.230   2.077   1.916
10166SOL    HW231398   3.328   2.170   1.824
10167SOL     OW31399   2.497   3.652   6.887
10167SOL    HW131400   2.523   3.570   6.836
10167SOL    HW231401   2.421   3.697   6.841
10168SOL     OW31402   5.742   3.727   6.029
10168SOL    HW131403   5.807   3.784   6.079
10168SOL    HW231404   5.774   3.632   6.027
10169SOL     OW31405   6.742   4.192   3.645
10169SOL    HW131406   6.706   4.114   3.595
10169SOL    HW231407   6.666   4.252   3.673
10170SOL     OW31408   0.612   5.155   5.461
10170SOL    HW131409   0.696   5.108   5.486
10170SOL    HW231410   0.599   5.234   5.521
10171SOL     OW31411   6.869   2.094   5.116
10171SOL    HW131412   6.955   2.052   5.085
10171SOL    HW231413   6.793   2.056   5.064
10172SOL     OW31414   0.146   6.502   4.772
10172SOL    HW131415   0.116   6.446   4.849
10172SOL    HW231416   0.074   6.566   4.747
10173SOL     OW31417   1.354   3.517   1.704
10173SOL    HW131418   1.396   3.568   1.779
10173SOL    HW231419   1.396   3.545   1.618
10174SOL     OW31420   5.500   5.325   2.840
10174SOL    HW131421   5.477   5.355   2.932
10174SOL    HW231422   5.446   5.244   2.817
10175SOL     OW31423   5.422   1.251   3.821
10175SOL    HW131424   5.325   1.272   3.832
10175SOL    HW231425   5.445   1.245   3.724
10176SOL     OW31426   0.803   3.765   5.406
10176SOL    HW131427   0.847   3.676   5.408
10176SOL    HW231428   0.725   3.765   5.469
10177SOL     OW31429   2.473   0.538   1.118
10177SOL    HW131430   2.386   0.573   1.151
10177SOL    HW231431   2.517   0.606   1.060
10178SOL     OW31432   0.523   0.731   6.019
10178SOL    HW131433   0.474   0.785   6.087
10178SOL    HW231434   0.611   0.702   6.057
10179SOL     OW31435   0.908   2.059   0.015
10179SOL    HW131436   0.894   1.962   0.036
10179SOL    HW231437   0.952   2.104   0.093
10180SOL     OW31438   4.258   0.684   5.783
10180SOL    HW131439   4.276   0.730   5.870
10180SOL    HW231440   4.317   0.604   5.774
10181SOL     OW31441   6.448   3.227   1.811
10181SOL    HW131442   6.397   3.252   1.728
10181SOL    HW231443   6.458   3.308   1.869
10182SOL     OW31444   4.220   0.902   1.504
10182SOL    HW131445   4.243   0.900   1.407
10182SOL    HW231446   4.297   0.868   1.558
10183SOL     OW31447   6.870   2.364   6.652
10183SOL    HW131448   6.895   2.454   6.686
10183SOL    HW231449   6.787   2.371   6.597
10184SOL     OW31450   4.599   0.959   6.180
10184SOL    HW131451   4.507   0.925   6.159
10184SOL    HW231452   4.648   0.976   6.095
10185SOL     OW31453   6.022   5.928   2.191
10185SOL    HW131454   6.037   5.886   2.280
10185SOL    HW231455   6.110   5.961   2.155
10186SOL     OW31456   5.697   3.426   3.791
10186SOL    HW131457   5.690   3.418   3.890
10186SOL    HW231458   5.747   3.510   3.768
10187SOL     OW31459   1.075   3.426   0.481
10187SOL    HW131460   1.039   3.398   0.392
10187SOL    HW231461   1.099   3.344   0.534
10188SOL     OW31462   3.773   5.544   0.827
10188SOL    HW131463   3.868   5.515   0.838
10188SOL    HW231464   3.757   5.629   0.877
10189SOL     OW31465   1.184   1.502   6.109
10189SOL    HW131466   1.278   1.482   6.081
10189SOL    HW231467   1.127   1.515   6.028
10190SOL     OW31468   4.959   3.085   1.914
10190SOL    HW131469   4.871   3.073   1.960
10190SOL    HW231470   4.948   3.149   1.838
10191SOL     OW31471   5.400   5.126   6.219
10191SOL    HW131472   5.378   5.200   6.155
10191SOL    HW231473   5.388   5.038   6.174
10192SOL     OW31474   4.171   1.171   5.232
10192SOL    HW131475   4.139   1.145   5.323
10192SOL    HW231476   4.260   1.217   5.240
10193SOL     OW31477   4.018   3.584   1.818
10193SOL    HW131478   3.918   3.584   1.818
10193SOL    HW231479   4.051   3.541   1.902
10194SOL     OW31480   5.554   5.898   5.865
10194SOL    HW131481   5.600   5.986   5.880
10194SOL    HW231482   5.472   5.893   5.922
10195SOL     OW31483   5.942   5.956   0.808
10195SOL    HW131484   5.949   5.862   0.773
10195SOL    HW231485   5.909   5.955   0.902
10196SOL     OW31486   4.891   1.393   3.740
10196SOL    HW131487   4.856   1.477   3.783
10196SOL    HW231488   4.922   1.414   3.647
10197SOL     OW31489   5.827   1.675   5.334
10197SOL    HW131490   5.830   1.653   5.237
10197SOL    HW231491   5.782   1.600   5.383
10198SOL     OW31492   2.416   6.761   2.216
10198SOL    HW131493   2.505   6.806   2.223
10198SOL    HW231494   2.429   6.661   2.219
10199SOL     OW31495   2.217   3.400   0.241
10199SOL    HW131496   2.295   3.347   0.275
10199SOL    HW231497   2.248   3.463   0.169
10200SOL     OW31498   5.195   2.233   6.959
10200SOL    HW131499   5.213   2.259   6.864
10200SOL    HW231500   5.244   2.294   7.021
10201SOL     OW31501   1.348   5.022   0.910
10201SOL    HW131502   1.275   5.069   0.959
10201SOL    HW231503   1.350   4.926   0.936
10202SOL     OW31504   3.718   4.204   0.354
10202SOL    HW131505   3.814   4.196   0.382
10202SOL    HW231506   3.706   4.289   0.303
10203SOL     OW31507   6.344   2.963   2.888
10203SOL    HW131508   6.248   2.957   2.860
10203SOL    HW231509   6.401   2.973   2.807
10204SOL     OW31510   5.151   6.486   0.104
10204SOL    HW131511   5.202   6.557   0.152
10204SOL    HW231512   5.053   6.496   0.123
10205SOL     OW31513   1.589   0.071   1.513
10205SOL    HW131514   1.686   0.062   1.532
10205SOL    HW231515   1.552   7.006   1.482
10206SOL     OW31516   6.988   0.927   0.028
10206SOL    HW131517   7.020   0.883   6.965
10206SOL    HW231518   0.044   0.968   0.075
10207SOL     OW31519   1.202   2.062   0.283
10207SOL    HW131520   1.190   2.112   0.197
10207SOL    HW231521   1.114   2.026   0.313
10208SOL     OW31522   6.302   4.304   3.988
10208SOL    HW131523   6.214   4.290   4.033
10208SOL    HW231524   6.370   4.334   4.055
10209SOL     OW31525   0.262   6.876   0.568
10209SOL    HW131526   0.234   6.899   0.475
10209SOL    HW231527   0.351   6.830   0.565
10210SOL     OW31528   4.826   6.623   1.530
10210SOL    HW131529   4.771   6.699   1.567
10210SOL    HW231530   4.912   6.659   1.495
10211SOL     OW31531   3.956   6.256   4.837
10211SOL    HW131532   3.926   6.210   4.920
10211SOL    HW231533   3.991   6.188   4.772
10212SOL     OW31534   0.869   0.519   5.412
10212SOL    HW131535   0.897   0.572   5.492
10212SOL    HW231536   0.797   0.455   5.438
10213SOL     OW31537   5.847   2.855   1.687
10213SOL    HW131538   5.862   2.950   1.715
10213SOL    HW231539   5.910   2.833   1.612
10214SOL     OW31540   1.499   1.471   2.466
10214SOL    HW131541   1.490   1.498   2.370
10214SOL    HW231542   1.469   1.547   2.525
10215SOL     OW31543   3.864   3.144   3.709
10215SOL    HW131544   3.807   3.184   3.637
10215SOL    HW231545   3.838   3.049   3.723
10216SOL     OW31546   0.219   1.193   1.599
10216SOL    HW131547   0.183   1.100   1.597
10216SOL    HW231548   0.271   1.207   1.684
10217SOL     OW31549   3.026   1.819   3.015
10217SOL    HW131550   2.994   1.884   2.945
10217SOL    HW231551   2.962   1.819   3.092
10218SOL     OW31552   1.941   1.431   1.698
10218SOL    HW131553   2.034   1.464   1.714
10218SOL    HW231554   1.945   1.336   1.665
10219SOL     OW31555   0.321   1.750   2.888
10219SOL    HW131556   0.222   1.756   2.904
10219SOL    HW231557   0.343   1.791   2.800
10220SOL     OW31558   5.182   2.016   1.034
10220SOL    HW131559   5.220   2.079   1.103
10220SOL    HW231560   5.096   1.979   1.067
10221SOL     OW31561   1.041   4.896   3.433
10221SOL    HW131562   0.941   4.885   3.439
10221SOL    HW231563   1.086   4.823   3.485
10222SOL     OW31564   3.081   4.024   5.492
10222SOL    HW131565   3.070   3.966   5.412
10222SOL    HW231566   3.010   4.003   5.559
10223SOL     OW31567   1.549   5.203   1.478
10223SOL    HW131568   1.575   5.280   1.420
10223SOL    HW231569   1.451   5.183   1.465
10224SOL     OW31570   6.679   2.632   4.943
10224SOL    HW131571   6.644   2.719   4.908
10224SOL    HW231572   6.641   2.614   5.034
10225SOL     OW31573   0.889   5.245   5.643
10225SOL    HW131574   0.895   5.188   5.725
10225SOL    HW231575   0.927   5.196   5.565
10226SOL     OW31576   2.729   1.370   6.038
10226SOL    HW131577   2.792   1.375   6.115
10226SOL    HW231578   2.765   1.427   5.963
10227SOL     OW31579   5.463   5.021   0.808
10227SOL    HW131580   5.489   5.102   0.861
10227SOL    HW231581   5.541   4.958   0.804
10228SOL     OW31582   0.263   6.709   2.140
10228SOL    HW131583   0.198   6.760   2.084
10228SOL    HW231584   0.291   6.626   2.090
10229SOL     OW31585   0.976   3.308   4.630
10229SOL    HW131586   1.030   3.256   4.697
10229SOL    HW231587   1.008   3.403   4.629
10230SOL     OW31588   5.474   5.964   3.447
10230SOL    HW131589   5.527   5.995   3.525
10230SOL    HW231590   5.536   5.927   3.377
10231SOL     OW31591   6.718   5.308   5.686
10231SOL    HW131592   6.736   5.290   5.590
10231SOL    HW231593   6.786   5.370   5.723
10232SOL     OW31594   3.246   1.211   3.460
10232SOL    HW131595   3.333   1.251   3.433
10232SOL    HW231596   3.219   1.141   3.393
10233SOL     OW31597   3.902   4.004   4.910
10233SOL    HW131598   3.995   3.982   4.879
10233SOL    HW231599   3.848   4.037   4.833
10234SOL     OW31600   6.101   1.137   1.467
10234SOL    HW131601   6.045   1.173   1.393
10234SOL    HW231602   6.192   1.116   1.433
10235SOL     OW31603   2.185   2.830   1.632
10235SOL    HW131604   2.122   2.903   1.661
10235SOL    HW231605   2.153   2.743   1.668
10236SOL     OW31606   3.084   0.596   7.006
10236SOL    HW131607   3.142   0.625   6.930
10236SOL    HW231608   3.141   0.568   0.061
10237SOL     OW31609   0.469   3.622   0.024
10237SOL    HW131610   0.488   3.706   0.075
10237SOL    HW231611   0.396   3.640   6.980
10238SOL     OW31612   3.844   4.382   1.719
10238SOL    HW131613   3.771   4.449   1.735
10238SOL    HW231614   3.812   4.291   1.746
10239SOL     OW31615   1.402   3.095   5.029
10239SOL    HW131616   1.407   3.190   4.998
10239SOL    HW231617   1.495   3.059   5.041
10240SOL     OW31618   2.368   5.279   2.479
10240SOL    HW131619   2.310   5.311   2.404
10240SOL    HW231620   2.456   5.327   2.477
10241SOL     OW31621   6.234   0.011   2.249
10241SOL    HW131622   6.252   0.001   2.151
10241SOL    HW231623   6.203   6.945   2.287
10242SOL     OW31624   0.487   1.682   0.911
10242SOL    HW131625   0.486   1.732   0.998
10242SOL    HW231626   0.497   1.747   0.835
10243SOL     OW31627   2.362   4.404   2.579
10243SOL    HW131628   2.428   4.369   2.512
10243SOL    HW231629   2.286   4.447   2.531
10244SOL     OW31630   1.876   4.573   0.575
10244SOL    HW131631   1.960   4.523   0.556
10244SOL    HW231632   1.898   4.663   0.614
10245SOL     OW31633   3.515   4.067   0.814
10245SOL    HW131634   3.509   4.037   0.719
10245SOL    HW231635   3.585   4.138   0.823
10246SOL     OW31636   3.546   3.979   4.199
10246SOL    HW131637   3.627   3.929   4.230
10246SOL    HW231638   3.463   3.936   4.236
10247SOL     OW31639   6.508   3.809   5.793
10247SOL    HW131640   6.416   3.789   5.826
10247SOL    HW231641   6.531   3.904   5.815
10248SOL     OW31642   1.662   6.237   2.743
10248SOL    HW131643   1.673   6.146   2.703
10248SOL    HW231644   1.587   6.285   2.697
10249SOL     OW31645   3.397   5.963   6.468
10249SOL    HW131646   3.347   5.882   6.437
10249SOL    HW231647   3.357   6.045   6.426
10250SOL     OW31648   6.576   3.283   1.477
10250SOL    HW131649   6.637   3.206   1.459
10250SOL    HW231650   6.483   3.248   1.493
10251SOL     OW31651   1.996   1.794   4.503
10251SOL    HW131652   2.069   1.851   4.465
10251SOL    HW231653   1.910   1.814   4.457
10252SOL     OW31654   4.141   4.335   6.174
10252SOL    HW131655   4.078   4.369   6.104
10252SOL    HW231656   4.125   4.384   6.260
10253SOL     OW31657   2.863   5.400   0.556
10253SOL    HW131658   2.798   5.425   0.483
10253SOL    HW231659   2.838   5.311   0.593
10254SOL     OW31660   5.027   1.117   5.271
10254SOL    HW131661   4.947   1.175   5.254
10254SOL    HW231662   5.090   1.122   5.193
10255SOL     OW31663   2.470   6.291   1.363
10255SOL    HW131664   2.416   6.371   1.338
10255SOL    HW231665   2.496   6.241   1.280
10256SOL     OW31666   4.191   1.983   2.114
10256SOL    HW131667   4.119   1.927   2.154
10256SOL    HW231668   4.197   1.965   2.015
10257SOL     OW31669   1.904   5.262   4.199
10257SOL    HW131670   1.876   5.205   4.276
10257SOL    HW231671   1.881   5.358   4.218
10258SOL     OW31672   3.874   2.011   3.694
10258SOL    HW131673   3.906   1.968   3.778
10258SOL    HW231674   3.808   1.951   3.649
10259SOL     OW31675   0.517   3.979   2.751
10259SOL    HW131676   0.467   3.918   2.812
10259SOL    HW231677   0.459   4.000   2.672
10260SOL     OW31678   1.211   1.431   3.145
10260SOL    HW131679   1.292   1.420   3.087
10260SOL    HW231680   1.239   1.437   3.241
10261SOL     OW31681   6.412   5.145   1.288
10261SOL    HW131682   6.433   5.142   1.190
10261SOL    HW231683   6.461   5.071   1.335
10262SOL     OW31684   2.837   0.629   5.483
10262SOL    HW131685   2.859   0.536   5.514
10262SOL    HW231686   2.738   0.638   5.475
10263SOL     OW31687   5.701   6.918   0.841
10263SOL    HW131688   5.673   7.006   0.803
10263SOL    HW231689   5.796   6.924   0.871
10264SOL     OW31690   6.671   6.642   6.824
10264SOL    HW131691   6.653   6.637   6.726
10264SOL    HW231692   6.729   6.721   6.844
10265SOL     OW31693   3.175   2.845   1.529
10265SOL    HW131694   3.156   2.800   1.616
10265SOL    HW231695   3.088   2.869   1.485
10266SOL     OW31696   3.401   2.861   3.878
10266SOL    HW131697   3.471   2.835   3.812
10266SOL    HW231698   3.445   2.902   3.958
10267SOL     OW31699   5.323   1.961   0.308
10267SOL    HW131700   5.370   2.048   0.295
10267SOL    HW231701   5.280   1.934   0.222
10268SOL     OW31702   6.525   6.439   2.057
10268SOL    HW131703   6.479   6.479   1.977
10268SOL    HW231704   6.456   6.396   2.116
10269SOL     OW31705   0.797   3.994   6.478
10269SOL    HW131706   0.765   3.965   6.388
10269SOL    HW231707   0.722   4.037   6.529
10270SOL     OW31708   3.406   4.943   2.347
10270SOL    HW131709   3.324   4.933   2.403
10270SOL    HW231710   3.383   4.925   2.251
10271SOL     OW31711   3.758   2.614   6.868
10271SOL    HW131712   3.710   2.625   6.955
10271SOL    HW231713   3.826   2.687   6.858
10272SOL     OW31714   1.305   0.881   5.756
10272SOL    HW131715   1.270   0.836   5.838
10272SOL    HW231716   1.378   0.825   5.716
10273SOL     OW31717   2.942   5.548   2.769
10273SOL    HW131718   2.950   5.643   2.737
10273SOL    HW231719   3.005   5.490   2.717
10274SOL     OW31720   0.477   4.645   6.092
10274SOL    HW131721   0.543   4.573   6.072
10274SOL    HW231722   0.384   4.607   6.091
10275SOL     OW31723   0.580   6.350   2.127
10275SOL    HW131724   0.590   6.410   2.206
10275SOL    HW231725   0.668   6.342   2.079
10276SOL     OW31726   5.653   6.281   5.328
10276SOL    HW131727   5.561   6.291   5.365
10276SOL    HW231728   5.706   6.218   5.386
10277SOL     OW31729   1.867   6.123   5.314
10277SOL    HW131730   1.896   6.095   5.406
10277SOL    HW231731   1.934   6.186   5.275
10278SOL     OW31732   1.627   1.539   3.408
10278SOL    HW131733   1.612   1.445   3.438
10278SOL    HW231734   1.540   1.580   3.383
10279SOL     OW31735   1.116   4.864   4.357
10279SOL    HW131736   1.193   4.919   4.325
10279SOL    HW231737   1.141   4.767   4.354
10280SOL     OW31738   0.066   2.778   6.426
10280SOL    HW131739   7.018   2.761   6.495
10280SOL    HW231740   0.027   2.764   6.335
10281SOL     OW31741   5.654   1.594   3.488
10281SOL    HW131742   5.674   1.498   3.469
10281SOL    HW231743   5.684   1.650   3.410
10282SOL     OW31744   5.257   3.475   4.475
10282SOL    HW131745   5.277   3.381   4.503
10282SOL    HW231746   5.314   3.538   4.526
10283SOL     OW31747   2.083   3.078   1.252
10283SOL    HW131748   2.149   3.007   1.226
10283SOL    HW231749   2.105   3.112   1.343
10284SOL     OW31750   4.865   2.247   5.367
10284SOL    HW131751   4.849   2.149   5.356
10284SOL    HW231752   4.963   2.264   5.381
10285SOL     OW31753   5.290   6.182   3.387
10285SOL    HW131754   5.351   6.105   3.404
10285SOL    HW231755   5.195   6.150   3.388
10286SOL     OW31756   3.503   1.584   3.916
10286SOL    HW131757   3.566   1.606   3.991
10286SOL    HW231758   3.513   1.488   3.891
10287SOL     OW31759   3.365   5.578   1.765
10287SOL    HW131760   3.378   5.633   1.848
10287SOL    HW231761   3.268   5.558   1.752
10288SOL     OW31762   4.749   5.994   2.850
10288SOL    HW131763   4.839   5.977   2.809
10288SOL    HW231764   4.737   5.935   2.930
10289SOL     OW31765   3.088   6.342   6.685
10289SOL    HW131766   3.112   6.250   6.717
10289SOL    HW231767   3.072   6.339   6.586
10290SOL     OW31768   3.002   3.789   2.885
10290SOL    HW131769   2.976   3.836   2.969
10290SOL    HW231770   3.098   3.806   2.866
10291SOL     OW31771   3.513   1.741   2.054
10291SOL    HW131772   3.536   1.788   1.969
10291SOL    HW231773   3.512   1.807   2.130
10292SOL     OW31774   1.721   2.309   5.161
10292SOL    HW131775   1.699   2.379   5.229
10292SOL    HW231776   1.819   2.291   5.161
10293SOL     OW31777   1.171   3.830   2.527
10293SOL    HW131778   1.213   3.836   2.618
10293SOL    HW231779   1.191   3.740   2.488
10294SOL     OW31780   4.779   2.072   3.441
10294SOL    HW131781   4.826   2.126   3.371
10294SOL    HW231782   4.700   2.123   3.475
10295SOL     OW31783   0.544   3.318   6.193
10295SOL    HW131784   0.584   3.329   6.102
10295SOL    HW231785   0.505   3.405   6.223
10296SOL     OW31786   5.359   1.556   0.055
10296SOL    HW131787   5.275   1.518   0.094
10296SOL    HW231788   5.432   1.487   0.061
10297SOL     OW31789   1.901   1.058   6.035
10297SOL    HW131790   1.879   1.094   6.126
10297SOL    HW231791   2.000   1.054   6.024
10298SOL     OW31792   2.919   4.365   1.066
10298SOL    HW131793   2.932   4.434   1.137
10298SOL    HW231794   2.878   4.284   1.106
10299SOL     OW31795   3.871   4.820   2.880
10299SOL    HW131796   3.965   4.833   2.847
10299SOL    HW231797   3.807   4.839   2.805
10300SOL     OW31798   1.535   4.158   2.153
10300SOL    HW131799   1.621   4.118   2.121
10300SOL    HW231800   1.510   4.116   2.241
10301SOL     OW31801   5.096   1.766   5.091
10301SOL    HW131802   5.164   1.695   5.110
10301SOL    HW231803   5.127   1.853   5.130
10302SOL     OW31804   2.154   6.333   4.684
10302SOL    HW131805   2.066   6.339   4.637
10302SOL    HW231806   2.163   6.244   4.728
10303SOL     OW31807   1.784   5.931   2.834
10303SOL    HW131808   1.812   5.933   2.737
10303SOL    HW231809   1.686   5.944   2.840
10304SOL     OW31810   5.420   6.821   1.553
10304SOL    HW131811   5.432   6.907   1.603
10304SOL    HW231812   5.358   6.762   1.605
10305SOL     OW31813   1.048   4.532   6.080
10305SOL    HW131814   1.057   4.435   6.060
10305SOL    HW231815   0.995   4.544   6.164
10306SOL     OW31816   5.118   5.812   6.756
10306SOL    HW131817   5.190   5.743   6.743
10306SOL    HW231818   5.159   5.898   6.788
10307SOL     OW31819   2.999   2.196   5.338
10307SOL    HW131820   3.065   2.229   5.271
10307SOL    HW231821   2.986   2.265   5.409
10308SOL     OW31822   2.041   3.670   2.945
10308SOL    HW131823   1.957   3.724   2.947
10308SOL    HW231824   2.087   3.683   2.857
10309SOL     OW31825   6.835   2.287   7.006
10309SOL    HW131826   6.924   2.274   6.963
10309SOL    HW231827   6.846   2.300   0.082
10310SOL     OW31828   3.138   3.995   0.665
10310SOL    HW131829   3.195   3.979   0.746
10310SOL    HW231830   3.080   4.074   0.681
10311SOL     OW31831   6.460   5.743   0.346
10311SOL    HW131832   6.513   5.824   0.322
10311SOL    HW231833   6.363   5.765   0.347
10312SOL     OW31834   4.107   5.887   2.456
10312SOL    HW131835   4.039   5.949   2.495
10312SOL    HW231836   4.061   5.815   2.404
10313SOL     OW31837   4.334   6.008   1.716
10313SOL    HW131838   4.349   5.914   1.748
10313SOL    HW231839   4.275   6.056   1.781
10314SOL     OW31840   6.709   0.432   1.603
10314SOL    HW131841   6.613   0.461   1.605
10314SOL    HW231842   6.768   0.513   1.606
10315SOL     OW31843   5.251   5.670   5.463
10315SOL    HW131844   5.346   5.692   5.440
10315SOL    HW231845   5.244   5.572   5.481
10316SOL     OW31846   6.100   1.721   5.356
10316SOL    HW131847   6.002   1.730   5.335
10316SOL    HW231848   6.120   1.627   5.384
10317SOL     OW31849   4.536   6.153   5.784
10317SOL    HW131850   4.494   6.103   5.860
10317SOL    HW231851   4.486   6.135   5.700
10318SOL     OW31852   5.164   6.987   6.632
10318SOL    HW131853   5.241   6.931   6.603
10318SOL    HW231854   5.108   7.011   6.553
10319SOL     OW31855   0.629   2.837   5.705
10319SOL    HW131856   0.638   2.784   5.789
10319SOL    HW231857   0.625   2.935   5.727
10320SOL     OW31858   0.660   0.174   2.273
10320SOL    HW131859   0.716   0.207   2.349
10320SOL    HW231860   0.676   0.231   2.193
10321SOL     OW31861   4.098   2.038   1.783
10321SOL    HW131862   4.019   2.024   1.843
10321SOL    HW231863   4.135   1.950   1.755
10322SOL     OW31864   6.027   5.535   5.442
10322SOL    HW131865   6.018   5.435   5.441
10322SOL    HW231866   5.937   5.577   5.453
10323SOL     OW31867   5.620   3.520   5.237
10323SOL    HW131868   5.702   3.539   5.183
10323SOL    HW231869   5.542   3.504   5.176
10324SOL     OW31870   3.295   3.069   2.118
10324SOL    HW131871   3.267   3.051   2.024
10324SOL    HW231872   3.275   3.164   2.141
10325SOL     OW31873   6.705   4.290   2.157
10325SOL    HW131874   6.769   4.290   2.080
10325SOL    HW231875   6.730   4.218   2.221
10326SOL     OW31876   3.506   5.035   0.409
10326SOL    HW131877   3.513   5.030   0.309
10326SOL    HW231878   3.434   5.100   0.434
10327SOL     OW31879   2.297   1.770   0.937
10327SOL    HW131880   2.217   1.732   0.984
10327SOL    HW231881   2.369   1.700   0.932
10328SOL     OW31882   6.833   2.766   1.390
10328SOL    HW131883   6.847   2.777   1.292
10328SOL    HW231884   6.758   2.701   1.406
10329SOL     OW31885   3.300   0.999   3.661
10329SOL    HW131886   3.281   1.079   3.605
10329SOL    HW231887   3.314   1.027   3.756
10330SOL     OW31888   4.501   1.068   2.326
10330SOL    HW131889   4.480   1.141   2.262
10330SOL    HW231890   4.500   1.105   2.419
10331SOL     OW31891   6.449   0.748   6.056
10331SOL    HW131892   6.443   0.649   6.066
10331SOL    HW231893   6.433   0.773   5.960
10332SOL     OW31894   6.885   0.477   1.149
10332SOL    HW131895   6.824   0.453   1.075
10332SOL    HW231896   6.963   0.414   1.151
10333SOL     OW31897   0.217   4.733   5.198
10333SOL    HW131898   0.193   4.768   5.288
10333SOL    HW231899   0.162   4.779   5.129
10334SOL     OW31900   3.194   0.124   3.437
10334SOL    HW131901   3.122   0.109   3.505
10334SOL    HW231902   3.194   0.220   3.409
10335SOL     OW31903   2.624   4.215   6.368
10335SOL    HW131904   2.710   4.200   6.319
10335SOL    HW231905   2.634   4.187   6.463
10336SOL     OW31906   6.635   0.091   2.256
10336SOL    HW131907   6.565   0.148   2.214
10336SOL    HW231908   6.606   7.017   2.253
10337SOL     OW31909   0.230   6.506   5.642
10337SOL    HW131910   0.186   6.460   5.566
10337SOL    HW231911   0.162   6.556   5.696
10338SOL     OW31912   1.694   5.834   2.229
10338SOL    HW131913   1.791   5.857   2.220
10338SOL    HW231914   1.674   5.810   2.324
10339SOL     OW31915   4.328   4.000   6.607
10339SOL    HW131916   4.319   4.080   6.548
10339SOL    HW231917   4.252   3.996   6.671
10340SOL     OW31918   1.636   3.826   1.047
10340SOL    HW131919   1.540   3.811   1.072
10340SOL    HW231920   1.678   3.890   1.111
10341SOL     OW31921   2.148   3.407   2.611
10341SOL    HW131922   2.093   3.486   2.636
10341SOL    HW231923   2.228   3.437   2.559
10342SOL     OW31924   1.993   0.351   5.093
10342SOL    HW131925   1.900   0.315   5.094
10342SOL    HW231926   2.058   0.275   5.096
10343SOL     OW31927   3.800   5.873   0.110
10343SOL    HW131928   3.727   5.890   0.044
10343SOL    HW231929   3.888   5.871   0.062
10344SOL     OW31930   4.527   3.629   1.387
10344SOL    HW131931   4.610   3.668   1.427
10344SOL    HW231932   4.544   3.535   1.359
10345SOL     OW31933   1.624   1.440   6.335
10345SOL    HW131934   1.610   1.423   6.433
10345SOL    HW231935   1.603   1.357   6.283
10346SOL     OW31936   0.066   5.482   1.694
10346SOL    HW131937   0.042   5.432   1.778
10346SOL    HW231938   0.064   5.419   1.616
10347SOL     OW31939   4.238   1.880   3.917
10347SOL    HW131940   4.335   1.873   3.943
10347SOL    HW231941   4.232   1.897   3.818
10348SOL     OW31942   6.670   2.371   0.879
10348SOL    HW131943   6.580   2.414   0.879
10348SOL    HW231944   6.720   2.397   0.962
10349SOL     OW31945   1.067   1.055   0.555
10349SOL    HW131946   1.016   1.004   0.624
10349SOL    HW231947   1.074   1.001   0.471
10350SOL     OW31948   2.318   6.612   5.059
10350SOL    HW131949   2.322   6.626   4.960
10350SOL    HW231950   2.241   6.663   5.097
10351SOL     OW31951   4.221   4.674   5.985
10351SOL    HW131952   4.146   4.609   5.975
10351SOL    HW231953   4.219   4.713   6.077
10352SOL     OW31954   3.868   1.731   5.965
10352SOL    HW131955   3.904   1.671   5.894
10352SOL    HW231956   3.944   1.780   6.009
10353SOL     OW31957   6.917   2.554   4.833
10353SOL    HW131958   6.966   2.486   4.887
10353SOL    HW231959   6.837   2.585   4.885
10354SOL     OW31960   5.980   2.686   2.476
10354SOL    HW131961   5.881   2.698   2.489
10354SOL    HW231962   5.997   2.607   2.418
10355SOL     OW31963   1.504   6.962   1.937
10355SOL    HW131964   1.547   0.029   1.920
10355SOL    HW231965   1.551   6.916   2.012
10356SOL     OW31966   0.994   4.552   5.405
10356SOL    HW131967   1.000   4.616   5.481
10356SOL    HW231968   1.084   4.514   5.386
10357SOL     OW31969   1.843   3.209   6.348
10357SOL    HW131970   1.862   3.299   6.385
10357SOL    HW231971   1.747   3.203   6.321
10358SOL     OW31972   6.328   3.043   3.144
10358SOL    HW131973   6.329   2.996   3.056
10358SOL    HW231974   6.234   3.062   3.171
10359SOL     OW31975   0.641   1.642   1.947
10359SOL    HW131976   0.682   1.647   2.039
10359SOL    HW231977   0.577   1.565   1.944
10360SOL     OW31978   4.825   5.256   3.238
10360SOL    HW131979   4.790   5.176   3.287
10360SOL    HW231980   4.821   5.336   3.298
10361SOL     OW31981   3.278   6.610   3.517
10361SOL    HW131982   3.244   6.620   3.424
10361SOL    HW231983   3.211   6.646   3.582
10362SOL     OW31984   0.735   5.087   4.924
10362SOL    HW131985   0.651   5.111   4.973
10362SOL    HW231986   0.716   5.014   4.860
10363SOL     OW31987   4.914   1.626   1.690
10363SOL    HW131988   4.902   1.669   1.780
10363SOL    HW231989   4.909   1.526   1.700
10364SOL     OW31990   2.934   3.623   1.232
10364SOL    HW131991   2.887   3.543   1.269
10364SOL    HW231992   2.915   3.702   1.290
10365SOL     OW31993   4.761   4.958   5.892
10365SOL    HW131994   4.716   4.998   5.812
10365SOL    HW231995   4.715   4.991   5.975
10366SOL     OW31996   3.687   1.135   4.072
10366SOL    HW131997   3.594   1.107   4.099
10366SOL    HW231998   3.754   1.076   4.116
10367SOL     OW31999   6.220   1.848   2.701
10367SOL    HW132000   6.127   1.855   2.665
10367SOL    HW232001   6.281   1.812   2.631
10368SOL     OW32002   1.986   1.206   1.542
10368SOL    HW132003   1.985   1.278   1.474
10368SOL    HW232004   1.997   1.117   1.498
10369SOL     OW32005   4.007   0.829   5.352
10369SOL    HW132006   4.079   0.862   5.291
10369SOL    HW232007   4.000   0.730   5.345
10370SOL     OW32008   5.467   1.248   5.242
10370SOL    HW132009   5.458   1.167   5.184
10370SOL    HW232010   5.384   1.259   5.296
10371SOL     OW32011   3.163   6.042   5.077
10371SOL    HW132012   3.115   6.027   4.991
10371SOL    HW232013   3.124   6.122   5.124
10372SOL     OW32014   1.025   1.940   6.683
10372SOL    HW132015   1.056   1.935   6.778
10372SOL    HW232016   0.928   1.916   6.678
10373SOL     OW32017   2.011   6.087   4.940
10373SOL    HW132018   2.066   6.079   4.857
10373SOL    HW232019   2.062   6.047   5.017
10374SOL     OW32020   3.918   1.301   2.730
10374SOL    HW132021   3.846   1.368   2.713
10374SOL    HW232022   3.881   1.208   2.722
10375SOL     OW32023   3.323   1.683   6.086
10375SOL    HW132024   3.330   1.755   6.017
10375SOL    HW232025   3.291   1.722   6.172
10376SOL     OW32026   1.112   6.181   3.646
10376SOL    HW132027   1.115   6.171   3.546
10376SOL    HW232028   1.107   6.277   3.670
10377SOL     OW32029   6.892   0.722   3.903
10377SOL    HW132030   6.870   0.641   3.956
10377SOL    HW232031   6.957   0.698   3.830
10378SOL     OW32032   6.598   0.506   5.689
10378SOL    HW132033   6.643   0.579   5.740
10378SOL    HW232034   6.500   0.524   5.682
10379SOL     OW32035   3.484   6.812   5.125
10379SOL    HW132036   3.385   6.825   5.128
10379SOL    HW232037   3.528   6.895   5.090
10380SOL     OW32038   0.288   0.984   3.998
10380SOL    HW132039   0.378   1.011   4.034
10380SOL    HW232040   0.269   0.890   4.025
10381SOL     OW32041   4.045   5.532   6.301
10381SOL    HW132042   4.089   5.445   6.281
10381SOL    HW232043   4.113   5.598   6.331
10382SOL     OW32044   2.163   4.645   6.828
10382SOL    HW132045   2.115   4.623   6.744
10382SOL    HW232046   2.227   4.720   6.812
10383SOL     OW32047   0.463   3.669   1.044
10383SOL    HW132048   0.560   3.649   1.029
10383SOL    HW232049   0.408   3.623   0.974
10384SOL     OW32050   0.520   0.192   0.536
10384SOL    HW132051   0.610   0.164   0.504
10384SOL    HW232052   0.510   0.291   0.525
10385SOL     OW32053   4.280   0.484   6.604
10385SOL    HW132054   4.357   0.422   6.590
10385SOL    HW232055   4.300   0.572   6.561
10386SOL     OW32056   6.046   3.295   5.119
10386SOL    HW132057   5.995   3.359   5.061
10386SOL    HW232058   6.131   3.268   5.072
10387SOL     OW32059   3.863   2.149   2.226
10387SOL    HW132060   3.814   2.174   2.142
10387SOL    HW232061   3.951   2.196   2.228
10388SOL     OW32062   1.347   5.749   3.310
10388SOL    HW132063   1.346   5.663   3.360
10388SOL    HW232064   1.440   5.783   3.304
10389SOL     OW32065   0.234   6.637   1.657
10389SOL    HW132066   0.230   6.545   1.695
10389SOL    HW232067   0.302   6.691   1.707
10390SOL     OW32068   1.635   3.787   1.631
10390SOL    HW132069   1.549   3.838   1.642
10390SOL    HW232070   1.693   3.802   1.711
10391SOL     OW32071   1.031   5.640   5.024
10391SOL    HW132072   1.011   5.593   4.938
10391SOL    HW232073   1.125   5.621   5.051
10392SOL     OW32074   6.484   3.889   0.121
10392SOL    HW132075   6.518   3.815   0.062
10392SOL    HW232076   6.506   3.977   0.080
10393SOL     OW32077   1.886   1.669   2.854
10393SOL    HW132078   1.908   1.760   2.889
10393SOL    HW232079   1.802   1.674   2.800
10394SOL     OW32080   2.632   6.360   6.039
10394SOL    HW132081   2.551   6.350   5.981
10394SOL    HW232082   2.605   6.348   6.135
10395SOL     OW32083   6.011   0.783   4.574
10395SOL    HW132084   5.925   0.752   4.614
10395SOL    HW232085   6.088   0.755   4.632
10396SOL     OW32086   1.873   0.173   4.327
10396SOL    HW132087   1.912   0.239   4.263
10396SOL    HW232088   1.793   0.213   4.372
10397SOL     OW32089   3.597   1.871   3.624
10397SOL    HW132090   3.531   1.857   3.698
10397SOL    HW232091   3.559   1.834   3.539
10398SOL     OW32092   6.423   2.361   0.161
10398SOL    HW132093   6.375   2.404   0.237
10398SOL    HW232094   6.507   2.412   0.141
10399SOL     OW32095   4.436   1.235   5.242
10399SOL    HW132096   4.473   1.228   5.335
10399SOL    HW232097   4.506   1.207   5.177
10400SOL     OW32098   3.577   5.857   1.801
10400SOL    HW132099   3.635   5.806   1.864
10400SOL    HW232100   3.589   5.821   1.708
10401SOL     OW32101   6.750   0.364   2.265
10401SOL    HW132102   6.704   0.276   2.266
10401SOL    HW232103   6.715   0.419   2.188
10402SOL     OW32104   0.320   2.227   5.688
10402SOL    HW132105   0.243   2.211   5.750
10402SOL    HW232106   0.384   2.293   5.730
10403SOL     OW32107   5.419   1.585   2.395
10403SOL    HW132108   5.389   1.656   2.331
10403SOL    HW232109   5.398   1.613   2.489
10404SOL     OW32110   0.650   6.502   3.478
10404SOL    HW132111   0.561   6.498   3.434
10404SOL    HW232112   0.692   6.411   3.478
10405SOL     OW32113   1.747   5.232   5.122
10405SOL    HW132114   1.650   5.218   5.143
10405SOL    HW232115   1.775   5.168   5.051
10406SOL     OW32116   2.018   4.019   5.061
10406SOL    HW132117   2.105   3.975   5.081
10406SOL    HW232118   2.033   4.116   5.040
10407SOL     OW32119   1.419   1.017   6.766
10407SOL    HW132120   1.410   1.115   6.744
10407SOL    HW232121   1.480   0.974   6.700
10408SOL     OW32122   4.534   5.936   2.611
10408SOL    HW132123   4.491   5.982   2.533
10408SOL    HW232124   4.581   6.003   2.668
10409SOL     OW32125   0.770   4.618   1.305
10409SOL    HW132126   0.732   4.573   1.386
10409SOL    HW232127   0.777   4.552   1.230
10410SOL     OW32128   5.163   1.407   1.174
10410SOL    HW132129   5.182   1.440   1.267
10410SOL    HW232130   5.080   1.351   1.175
10411SOL     OW32131   2.964   5.098   4.146
10411SOL    HW132132   3.044   5.140   4.104
10411SOL    HW232133   2.918   5.166   4.204
10412SOL     OW32134   0.470   1.410   0.908
10412SOL    HW132135   0.477   1.509   0.916
10412SOL    HW232136   0.526   1.378   0.831
10413SOL     OW32137   1.190   1.931   0.910
10413SOL    HW132138   1.102   1.927   0.864
10413SOL    HW232139   1.248   1.999   0.864
10414SOL     OW32140   4.488   6.228   6.166
10414SOL    HW132141   4.409   6.283   6.194
10414SOL    HW232142   4.467   6.181   6.080
10415SOL     OW32143   2.115   4.849   4.440
10415SOL    HW132144   2.169   4.770   4.469
10415SOL    HW232145   2.150   4.931   4.484
10416SOL     OW32146   6.879   1.834   6.033
10416SOL    HW132147   6.947   1.836   5.960
10416SOL    HW232148   6.801   1.779   6.004
10417SOL     OW32149   4.282   4.664   3.340
10417SOL    HW132150   4.308   4.610   3.260
10417SOL    HW232151   4.297   4.611   3.423
10418SOL     OW32152   6.639   4.274   5.301
10418SOL    HW132153   6.723   4.228   5.273
10418SOL    HW232154   6.657   4.331   5.382
10419SOL     OW32155   2.796   1.274   4.920
10419SOL    HW132156   2.853   1.352   4.892
10419SOL    HW232157   2.709   1.278   4.871
10420SOL     OW32158   6.714   4.091   2.352
10420SOL    HW132159   6.663   4.012   2.386
10420SOL    HW232160   6.749   4.144   2.429
10421SOL     OW32161   1.410   3.651   3.906
10421SOL    HW132162   1.362   3.735   3.932
10421SOL    HW232163   1.502   3.673   3.876
10422SOL     OW32164   6.622   3.774   5.274
10422SOL    HW132165   6.583   3.712   5.207
10422SOL    HW232166   6.588   3.750   5.365
10423SOL     OW32167   4.003   4.830   4.712
10423SOL    HW132168   3.951   4.824   4.627
10423SOL    HW232169   3.941   4.845   4.789
10424SOL     OW32170   4.890   1.735   0.389
10424SOL    HW132171   4.976   1.770   0.427
10424SOL    HW232172   4.819   1.739   0.459
10425SOL     OW32173   0.513   6.536   1.720
10425SOL    HW132174   0.524   6.503   1.626
10425SOL    HW232175   0.590   6.595   1.744
10426SOL     OW32176   4.609   3.219   5.560
10426SOL    HW132177   4.706   3.240   5.555
10426SOL    HW232178   4.556   3.299   5.530
10427SOL     OW32179   5.330   5.226   5.974
10427SOL    HW132180   5.413   5.248   5.921
10427SOL    HW232181   5.260   5.192   5.912
10428SOL     OW32182   1.138   1.835   3.893
10428SOL    HW132183   1.081   1.772   3.840
10428SOL    HW232184   1.081   1.888   3.955
10429SOL     OW32185   1.337   4.076   3.115
10429SOL    HW132186   1.303   4.151   3.058
10429SOL    HW232187   1.354   3.996   3.057
10430SOL     OW32188   3.649   5.737   4.473
10430SOL    HW132189   3.562   5.785   4.460
10430SOL    HW232190   3.668   5.680   4.394
10431SOL     OW32191   2.456   1.128   4.261
10431SOL    HW132192   2.507   1.196   4.208
10431SOL    HW232193   2.394   1.175   4.324
10432SOL     OW32194   0.936   0.922   5.675
10432SOL    HW132195   0.968   1.016   5.672
10432SOL    HW232196   0.873   0.911   5.752
10433SOL     OW32197   1.084   6.177   1.515
10433SOL    HW132198   1.012   6.169   1.446
10433SOL    HW232199   1.130   6.265   1.504
10434SOL     OW32200   5.000   6.255   4.751
10434SOL    HW132201   4.923   6.193   4.735
10434SOL    HW232202   5.049   6.270   4.665
10435SOL     OW32203   1.216   2.375   6.091
10435SOL    HW132204   1.314   2.392   6.099
10435SOL    HW232205   1.170   2.406   6.174
10436SOL     OW32206   6.426   3.663   4.741
10436SOL    HW132207   6.440   3.749   4.691
10436SOL    HW232208   6.461   3.673   4.834
10437SOL     OW32209   5.136   4.965   5.513
10437SOL    HW132210   5.178   5.016   5.438
10437SOL    HW232211   5.153   4.867   5.501
10438SOL     OW32212   6.941   6.563   5.123
10438SOL    HW132213   6.863   6.524   5.172
10438SOL    HW232214   7.005   6.603   5.189
10439SOL     OW32215   6.402   0.862   4.820
10439SOL    HW132216   6.327   0.830   4.761
10439SOL    HW232217   6.402   0.809   4.905
10440SOL     OW32218   6.926   1.272   6.851
10440SOL    HW132219   6.853   1.301   6.788
10440SOL    HW232220   7.011   1.259   6.799
10441SOL     OW32221   3.358   1.921   1.215
10441SOL    HW132222   3.338   1.876   1.302
10441SOL    HW232223   3.348   2.020   1.225
10442SOL     OW32224   3.394   0.930   5.154
10442SOL    HW132225   3.328   0.962   5.222
10442SOL    HW232226   3.485   0.965   5.176
10443SOL     OW32227   0.154   2.181   2.697
10443SOL    HW132228   0.202   2.166   2.784
10443SOL    HW232229   0.060   2.150   2.705
10444SOL     OW32230   3.377   4.959   3.369
10444SOL    HW132231   3.337   4.938   3.458
10444SOL    HW232232   3.332   5.039   3.330
10445SOL     OW32233   0.327   3.646   2.023
10445SOL    HW132234   0.373   3.597   1.950
10445SOL    HW232235   0.244   3.689   1.988
10446SOL     OW32236   1.993   4.126   5.674
10446SOL    HW132237   1.969   4.222   5.661
10446SOL    HW232238   2.001   4.081   5.585
10447SOL     OW32239   6.121   1.780   2.302
10447SOL    HW132240   6.179   1.839   2.357
10447SOL    HW232241   6.132   1.685   2.331
10448SOL     OW32242   3.340   0.724   3.617
10448SOL    HW132243   3.371   0.696   3.708
10448SOL    HW232244   3.355   0.822   3.606
10449SOL     OW32245   3.576   5.503   0.101
10449SOL    HW132246   3.665   5.500   0.146
10449SOL    HW232247   3.587   5.538   0.008
10450SOL     OW32248   6.318   0.736   6.367
10450SOL    HW132249   6.301   0.799   6.291
10450SOL    HW232250   6.407   0.755   6.407
10451SOL     OW32251   2.636   0.699   3.779
10451SOL    HW132252   2.635   0.769   3.850
10451SOL    HW232253   2.725   0.699   3.733
10452SOL     OW32254   6.970   2.451   2.801
10452SOL    HW132255   6.995   2.461   2.898
10452SOL    HW232256   0.025   2.409   2.752
10453SOL     OW32257   4.537   6.059   2.366
10453SOL    HW132258   4.604   5.985   2.370
10453SOL    HW232259   4.581   6.143   2.336
10454SOL     OW32260   6.242   1.192   6.771
10454SOL    HW132261   6.193   1.198   6.858
10454SOL    HW232262   6.340   1.200   6.787
10455SOL     OW32263   6.036   6.153   4.455
10455SOL    HW132264   6.099   6.155   4.533
10455SOL    HW232265   5.944   6.178   4.486
10456SOL     OW32266   0.027   5.316   0.168
10456SOL    HW132267   6.966   5.259   0.168
10456SOL    HW232268   0.027   5.376   0.248
10457SOL     OW32269   4.442   3.460   6.868
10457SOL    HW132270   4.534   3.465   6.829
10457SOL    HW232271   4.399   3.550   6.861
10458SOL     OW32272   6.718   0.758   5.772
10458SOL    HW132273   6.815   0.761   5.796
10458SOL    HW232274   6.707   0.785   5.676
10459SOL     OW32275   6.350   4.815   0.927
10459SOL    HW132276   6.345   4.781   0.833
10459SOL    HW232277   6.428   4.773   0.973
10460SOL     OW32278   0.032   4.136   1.976
10460SOL    HW132279   6.987   4.099   2.040
10460SOL    HW232280   0.020   4.235   1.969
10461SOL     OW32281   6.762   4.416   5.495
10461SOL    HW132282   6.814   4.501   5.486
10461SOL    HW232283   6.799   4.362   5.571
10462SOL     OW32284   4.597   1.528   2.009
10462SOL    HW132285   4.530   1.463   1.973
10462SOL    HW232286   4.640   1.577   1.933
10463SOL     OW32287   4.892   1.561   6.124
10463SOL    HW132288   4.882   1.651   6.083
10463SOL    HW232289   4.855   1.562   6.217
10464SOL     OW32290   5.603   5.700   2.281
10464SOL    HW132291   5.672   5.675   2.213
10464SOL    HW232292   5.597   5.799   2.287
10465SOL     OW32293   5.004   4.390   2.656
10465SOL    HW132294   4.977   4.484   2.677
10465SOL    HW232295   4.970   4.365   2.565
10466SOL     OW32296   4.895   4.460   6.335
10466SOL    HW132297   4.888   4.369   6.375
10466SOL    HW232298   4.812   4.512   6.354
10467SOL     OW32299   1.544   2.554   6.906
10467SOL    HW132300   1.509   2.482   6.966
10467SOL    HW232301   1.579   2.629   6.961
10468SOL     OW32302   3.738   5.596   3.690
10468SOL    HW132303   3.676   5.653   3.637
10468SOL    HW232304   3.710   5.597   3.786
10469SOL     OW32305   4.859   3.914   5.863
10469SOL    HW132306   4.807   3.829   5.877
10469SOL    HW232307   4.852   3.942   5.767
10470SOL     OW32308   2.576   1.769   3.449
10470SOL    HW132309   2.557   1.867   3.441
10470SOL    HW232310   2.640   1.754   3.525
10471SOL     OW32311   2.940   0.544   6.776
10471SOL    HW132312   2.985   0.565   6.863
10471SOL    HW232313   3.009   0.516   6.709
10472SOL     OW32314   2.419   5.730   1.151
10472SOL    HW132315   2.439   5.632   1.154
10472SOL    HW232316   2.372   5.751   1.065
10473SOL     OW32317   5.481   6.316   5.797
10473SOL    HW132318   5.526   6.254   5.861
10473SOL    HW232319   5.443   6.394   5.846
10474SOL     OW32320   4.748   0.869   3.940
10474SOL    HW132321   4.760   0.826   3.851
10474SOL    HW232322   4.651   0.879   3.960
10475SOL     OW32323   2.140   6.373   1.737
10475SOL    HW132324   2.164   6.415   1.650
10475SOL    HW232325   2.192   6.288   1.749
10476SOL     OW32326   5.036   6.307   6.091
10476SOL    HW132327   5.075   6.294   6.000
10476SOL    HW232328   4.952   6.253   6.099
10477SOL     OW32329   6.766   0.216   4.188
10477SOL    HW132330   6.850   0.242   4.235
10477SOL    HW232331   6.688   0.231   4.248
10478SOL     OW32332   6.946   6.643   0.429
10478SOL    HW132333   6.858   6.659   0.474
10478SOL    HW232334   6.945   6.685   0.339
10479SOL     OW32335   6.581   1.519   2.066
10479SOL    HW132336   6.670   1.564   2.053
10479SOL    HW232337   6.552   1.528   2.161
10480SOL     OW32338   1.431   0.392   1.743
10480SOL    HW132339   1.467   0.481   1.715
10480SOL    HW232340   1.405   0.340   1.662
10481SOL     OW32341   1.346   6.223   2.912
10481SOL    HW132342   1.311   6.315   2.899
10481SOL    HW232343   1.350   6.202   3.010
10482SOL     OW32344   6.447   4.829   4.919
10482SOL    HW132345   6.507   4.775   4.979
10482SOL    HW232346   6.466   4.806   4.824
10483SOL     OW32347   4.951   5.795   0.158
10483SOL    HW132348   4.905   5.777   0.071
10483SOL    HW232349   4.895   5.857   0.213
10484SOL     OW32350   4.532   1.287   1.422
10484SOL    HW132351   4.603   1.353   1.446
10484SOL    HW232352   4.459   1.290   1.490
10485SOL     OW32353   3.354   4.358   6.718
10485SOL    HW132354   3.256   4.363   6.698
10485SOL    HW232355   3.377   4.267   6.751
10486SOL     OW32356   6.646   1.313   0.997
10486SOL    HW132357   6.681   1.400   0.962
10486SOL    HW232358   6.635   1.319   1.096
10487SOL     OW32359   5.335   6.859   2.342
10487SOL    HW132360   5.366   6.842   2.435
10487SOL    HW232361   5.408   6.906   2.291
10488SOL     OW32362   2.807   2.649   6.056
10488SOL    HW132363   2.762   2.590   5.989
10488SOL    HW232364   2.762   2.738   6.057
10489SOL     OW32365   0.744   6.986   5.305
10489SOL    HW132366   0.672   6.945   5.249
10489SOL    HW232367   0.704   7.016   5.392
10490SOL     OW32368   6.201   1.739   2.037
10490SOL    HW132369   6.157   1.809   1.982
10490SOL    HW232370   6.149   1.724   2.121
10491SOL     OW32371   1.764   3.383   0.199
10491SOL    HW132372   1.810   3.433   0.273
10491SOL    HW232373   1.801   3.412   0.111
10492SOL     OW32374   5.867   3.358   5.632
10492SOL    HW132375   5.821   3.273   5.610
10492SOL    HW232376   5.803   3.434   5.623
10493SOL     OW32377   3.277   0.993   1.947
10493SOL    HW132378   3.232   1.079   1.971
10493SOL    HW232379   3.327   1.004   1.861
10494SOL     OW32380   4.845   2.728   5.321
10494SOL    HW132381   4.749   2.721   5.347
10494SOL    HW232382   4.896   2.777   5.392
10495SOL     OW32383   2.048   6.879   0.324
10495SOL    HW132384   1.999   6.847   0.405
10495SOL    HW232385   2.111   6.953   0.350
10496SOL     OW32386   0.580   6.483   0.697
10496SOL    HW132387   0.526   6.408   0.658
10496SOL    HW232388   0.524   6.535   0.760
10497SOL     OW32389   2.072   6.356   2.027
10497SOL    HW132390   2.126   6.365   1.944
10497SOL    HW232391   2.000   6.426   2.027
10498SOL     OW32392   2.881   6.347   1.617
10498SOL    HW132393   2.907   6.257   1.580
10498SOL    HW232394   2.781   6.356   1.613
10499SOL     OW32395   3.254   6.193   1.973
10499SOL    HW132396   3.287   6.270   1.919
10499SOL    HW232397   3.157   6.178   1.953
10500SOL     OW32398   0.509   1.113   5.935
10500SOL    HW132399   0.488   1.041   5.869
10500SOL    HW232400   0.605   1.141   5.924
10501SOL     OW32401   1.934   5.539   3.111
10501SOL    HW132402   1.936   5.600   3.032
10501SOL    HW232403   1.973   5.585   3.191
10502SOL     OW32404   3.072   0.495   0.979
10502SOL    HW132405   3.160   0.522   1.019
10502SOL    HW232406   3.079   0.496   0.879
10503SOL     OW32407   4.593   2.661   0.253
10503SOL    HW132408   4.584   2.645   0.155
10503SOL    HW232409   4.575   2.576   0.302
10504SOL     OW32410   2.069   1.956   0.206
10504SOL    HW132411   1.973   1.973   0.229
10504SOL    HW232412   2.099   2.022   0.137
10505SOL     OW32413   6.009   5.679   0.776
10505SOL    HW132414   6.055   5.705   0.861
10505SOL    HW232415   6.015   5.580   0.764
10506SOL     OW32416   0.258   5.298   5.898
10506SOL    HW132417   0.331   5.244   5.941
10506SOL    HW232418   0.280   5.395   5.905
10507SOL     OW32419   2.652   6.850   6.775
10507SOL    HW132420   2.594   6.792   6.833
10507SOL    HW232421   2.651   6.815   6.682
10508SOL     OW32422   5.942   6.030   4.838
10508SOL    HW132423   5.879   6.049   4.913
10508SOL    HW232424   6.036   6.043   4.869
10509SOL     OW32425   0.609   6.394   5.829
10509SOL    HW132426   0.525   6.447   5.830
10509SOL    HW232427   0.687   6.455   5.820
10510SOL     OW32428   5.156   5.293   6.361
10510SOL    HW132429   5.085   5.258   6.299
10510SOL    HW232430   5.233   5.230   6.362
10511SOL     OW32431   4.974   2.633   1.114
10511SOL    HW132432   4.888   2.582   1.108
10511SOL    HW232433   4.969   2.714   1.056
10512SOL     OW32434   3.757   0.690   5.797
10512SOL    HW132435   3.789   0.603   5.761
10512SOL    HW232436   3.794   0.703   5.889
10513SOL     OW32437   0.184   2.551   5.368
10513SOL    HW132438   0.257   2.538   5.435
10513SOL    HW232439   0.184   2.646   5.335
10514SOL     OW32440   0.250   4.090   0.053
10514SOL    HW132441   0.295   4.103   0.141
10514SOL    HW232442   0.309   4.124   7.002
10515SOL     OW32443   6.530   2.348   3.091
10515SOL    HW132444   6.597   2.313   3.027
10515SOL    HW232445   6.453   2.285   3.098
10516SOL     OW32446   4.664   0.775   6.582
10516SOL    HW132447   4.706   0.842   6.522
10516SOL    HW232448   4.609   0.821   6.651
10517SOL     OW32449   0.270   2.199   2.948
10517SOL    HW132450   0.255   2.292   2.915
10517SOL    HW232451   0.203   2.178   3.019
10518SOL     OW32452   1.080   4.531   6.945
10518SOL    HW132453   1.167   4.559   6.905
10518SOL    HW232454   1.087   4.535   0.023
10519SOL     OW32455   2.385   2.378   6.376
10519SOL    HW132456   2.398   2.352   6.280
10519SOL    HW232457   2.290   2.364   6.402
10520SOL     OW32458   1.888   2.426   6.338
10520SOL    HW132459   1.854   2.514   6.306
10520SOL    HW232460   1.943   2.439   6.420
10521SOL     OW32461   6.080   5.113   1.532
10521SOL    HW132462   6.072   5.169   1.615
10521SOL    HW232463   6.091   5.173   1.453
10522SOL     OW32464   6.356   0.656   7.012
10522SOL    HW132465   6.278   0.716   0.003
10522SOL    HW232466   6.393   0.629   0.080
10523SOL     OW32467   0.452   6.038   4.916
10523SOL    HW132468   0.409   6.105   4.976
10523SOL    HW232469   0.463   6.077   4.825
10524SOL     OW32470   2.266   1.392   4.973
10524SOL    HW132471   2.251   1.458   5.047
10524SOL    HW232472   2.182   1.382   4.920
10525SOL     OW32473   3.276   0.088   5.702
10525SOL    HW132474   3.368   0.122   5.720
10525SOL    HW232475   3.217   0.164   5.675
10526SOL     OW32476   0.491   6.783   3.006
10526SOL    HW132477   0.417   6.749   2.949
10526SOL    HW232478   0.456   6.852   3.070
10527SOL     OW32479   7.022   2.781   4.656
10527SOL    HW132480   7.000   2.850   4.725
10527SOL    HW232481   6.998   2.691   4.691
10528SOL     OW32482   0.543   3.862   6.035
10528SOL    HW132483   0.446   3.845   6.018
10528SOL    HW232484   0.595   3.845   5.951
10529SOL     OW32485   2.409   6.240   4.074
10529SOL    HW132486   2.310   6.252   4.065
10529SOL    HW232487   2.429   6.197   4.162
10530SOL     OW32488   1.927   1.452   5.929
10530SOL    HW132489   1.896   1.484   6.018
10530SOL    HW232490   2.026   1.439   5.930
10531SOL     OW32491   1.028   3.227   4.361
10531SOL    HW132492   0.998   3.232   4.457
10531SOL    HW232493   1.025   3.131   4.331
10532SOL     OW32494   2.348   3.943   0.382
10532SOL    HW132495   2.349   3.847   0.410
10532SOL    HW232496   2.323   4.000   0.461
10533SOL     OW32497   3.335   1.792   4.301
10533SOL    HW132498   3.407   1.857   4.276
10533SOL    HW232499   3.360   1.701   4.266
10534SOL     OW32500   6.215   5.622   2.010
10534SOL    HW132501   6.171   5.705   1.976
10534SOL    HW232502   6.240   5.634   2.106
10535SOL     OW32503   0.318   2.210   1.258
10535SOL    HW132504   0.398   2.156   1.285
10535SOL    HW232505   0.287   2.265   1.335
10536SOL     OW32506   3.839   1.035   2.704
10536SOL    HW132507   3.860   0.949   2.749
10536SOL    HW232508   3.819   1.018   2.607
10537SOL     OW32509   3.308   5.647   3.577
10537SOL    HW132510   3.349   5.682   3.662
10537SOL    HW232511   3.266   5.558   3.595
10538SOL     OW32512   5.040   3.060   6.992
10538SOL    HW132513   4.965   3.021   0.024
10538SOL    HW232514   5.003   3.111   6.914
10539SOL     OW32515   0.634   4.126   6.805
10539SOL    HW132516   0.627   4.027   6.814
10539SOL    HW232517   0.717   4.149   6.754
10540SOL     OW32518   1.546   2.087   5.066
10540SOL    HW132519   1.604   2.169   5.076
10540SOL    HW232520   1.599   2.015   5.021
10541SOL     OW32521   3.753   3.555   1.870
10541SOL    HW132522   3.706   3.479   1.915
10541SOL    HW232523   3.731   3.641   1.917
10542SOL     OW32524   6.679   1.781   0.333
10542SOL    HW132525   6.670   1.863   0.390
10542SOL    HW232526   6.758   1.727   0.364
10543SOL     OW32527   0.397   1.381   4.866
10543SOL    HW132528   0.472   1.387   4.800
10543SOL    HW232529   0.356   1.290   4.861
10544SOL     OW32530   1.240   0.063   2.684
10544SOL    HW132531   1.152   0.093   2.648
10544SOL    HW232532   1.250   0.093   2.779
10545SOL     OW32533   5.673   1.334   2.836
10545SOL    HW132534   5.708   1.424   2.861
10545SOL    HW232535   5.707   1.266   2.900
10546SOL     OW32536   0.730   1.302   6.006
10546SOL    HW132537   0.783   1.339   5.930
10546SOL    HW232538   0.633   1.316   5.988
10547SOL     OW32539   4.615   1.932   1.399
10547SOL    HW132540   4.704   1.890   1.418
10547SOL    HW232541   4.568   1.880   1.328
10548SOL     OW32542   5.068   4.015   4.641
10548SOL    HW132543   5.098   4.107   4.668
10548SOL    HW232544   5.140   3.949   4.662
10549SOL     OW32545   6.673   0.576   2.061
10549SOL    HW132546   6.665   0.624   2.148
10549SOL    HW232547   6.686   0.643   1.988
10550SOL     OW32548   4.649   6.308   4.740
10550SOL    HW132549   4.717   6.235   4.730
10550SOL    HW232550   4.663   6.355   4.827
10551SOL     OW32551   1.804   2.472   5.419
10551SOL    HW132552   1.858   2.389   5.406
10551SOL    HW232553   1.840   2.522   5.498
10552SOL     OW32554   4.149   2.071   5.818
10552SOL    HW132555   4.070   2.101   5.870
10552SOL    HW232556   4.228   2.061   5.879
10553SOL     OW32557   1.211   4.822   2.049
10553SOL    HW132558   1.206   4.921   2.036
10553SOL    HW232559   1.306   4.792   2.038
10554SOL     OW32560   4.926   4.883   6.582
10554SOL    HW132561   4.842   4.911   6.536
10554SOL    HW232562   4.996   4.862   6.513
10555SOL     OW32563   2.757   3.265   1.088
10555SOL    HW132564   2.745   3.299   1.181
10555SOL    HW232565   2.850   3.283   1.057
10556SOL     OW32566   2.093   2.747   5.386
10556SOL    HW132567   2.084   2.670   5.324
10556SOL    HW232568   2.130   2.826   5.336
10557SOL     OW32569   1.373   2.654   3.221
10557SOL    HW132570   1.423   2.570   3.199
10557SOL    HW232571   1.298   2.665   3.155
10558SOL     OW32572   3.965   0.289   4.139
10558SOL    HW132573   3.871   0.319   4.155
10558SOL    HW232574   3.978   0.272   4.041
10559SOL     OW32575   3.719   0.299   1.177
10559SOL    HW132576   3.773   0.382   1.192
10559SOL    HW232577   3.697   0.257   1.266
10560SOL     OW32578   2.887   6.295   4.090
10560SOL    HW132579   2.947   6.374   4.082
10560SOL    HW232580   2.906   6.231   4.015
10561SOL     OW32581   2.539   4.683   0.544
10561SOL    HW132582   2.631   4.689   0.583
10561SOL    HW232583   2.472   4.704   0.615
10562SOL     OW32584   5.268   6.483   0.611
10562SOL    HW132585   5.351   6.538   0.615
10562SOL    HW232586   5.292   6.386   0.606
10563SOL     OW32587   1.238   0.630   4.205
10563SOL    HW132588   1.259   0.727   4.213
10563SOL    HW232589   1.322   0.577   4.207
10564SOL     OW32590   5.914   6.189   2.209
10564SOL    HW132591   5.858   6.202   2.127
10564SOL    HW232592   5.955   6.098   2.207
10565SOL     OW32593   0.473   0.716   5.355
10565SOL    HW132594   0.566   0.713   5.318
10565SOL    HW232595   0.408   0.725   5.279
10566SOL     OW32596   3.912   3.200   6.943
10566SOL    HW132597   3.926   3.123   6.880
10566SOL    HW232598   3.872   3.166   0.007
10567SOL     OW32599   2.446   2.252   4.237
10567SOL    HW132600   2.487   2.286   4.152
10567SOL    HW232601   2.475   2.309   4.313
10568SOL     OW32602   5.696   1.237   1.564
10568SOL    HW132603   5.682   1.183   1.481
10568SOL    HW232604   5.662   1.185   1.643
10569SOL     OW32605   6.723   2.726   1.722
10569SOL    HW132606   6.628   2.747   1.747
10569SOL    HW232607   6.770   2.687   1.800
10570SOL     OW32608   1.835   4.778   3.166
10570SOL    HW132609   1.742   4.744   3.159
10570SOL    HW232610   1.882   4.733   3.242
10571SOL     OW32611   0.380   4.780   4.461
10571SOL    HW132612   0.455   4.835   4.498
10571SOL    HW232613   0.388   4.687   4.495
10572SOL     OW32614   6.592   3.568   3.317
10572SOL    HW132615   6.579   3.489   3.377
10572SOL    HW232616   6.689   3.585   3.303
10573SOL     OW32617   5.029   6.030   4.430
10573SOL    HW132618   4.943   5.988   4.400
10573SOL    HW232619   5.051   6.000   4.522
10574SOL     OW32620   1.756   1.553   4.384
10574SOL    HW132621   1.698   1.634   4.378
10574SOL    HW232622   1.764   1.524   4.479
10575SOL     OW32623   6.819   0.897   3.324
10575SOL    HW132624   6.851   0.982   3.366
10575SOL    HW232625   6.775   0.917   3.237
10576SOL     OW32626   7.018   6.610   5.418
10576SOL    HW132627   0.049   6.530   5.391
10576SOL    HW232628   0.053   6.670   5.475
10577SOL     OW32629   1.322   2.571   6.633
10577SOL    HW132630   1.326   2.609   6.725
10577SOL    HW232631   1.347   2.641   6.566
10578SOL     OW32632   6.181   0.500   3.928
10578SOL    HW132633   6.217   0.569   3.865
10578SOL    HW232634   6.110   0.541   3.986
10579SOL     OW32635   3.654   1.579   0.487
10579SOL    HW132636   3.564   1.607   0.455
10579SOL    HW232637   3.645   1.505   0.553
10580SOL     OW32638   0.063   0.247   0.506
10580SOL    HW132639   7.020   0.178   0.537
10580SOL    HW232640   0.146   0.202   0.472
10581SOL     OW32641   5.761   6.791   2.858
10581SOL    HW132642   5.699   6.808   2.935
10581SOL    HW232643   5.808   6.704   2.871
10582SOL     OW32644   4.048   4.707   0.029
10582SOL    HW132645   3.990   4.712   0.110
10582SOL    HW232646   4.003   4.652   6.981
10583SOL     OW32647   4.159   1.090   5.500
10583SOL    HW132648   4.186   0.995   5.516
10583SOL    HW232649   4.074   1.109   5.549
10584SOL     OW32650   6.212   6.964   1.181
10584SOL    HW132651   6.279   7.000   1.246
10584SOL    HW232652   6.206   0.003   1.102
10585SOL     OW32653   1.546   3.528   5.520
10585SOL    HW132654   1.640   3.553   5.497
10585SOL    HW232655   1.538   3.428   5.523
10586SOL     OW32656   1.561   5.759   5.446
10586SOL    HW132657   1.572   5.733   5.350
10586SOL    HW232658   1.543   5.677   5.501
10587SOL     OW32659   5.956   4.642   0.079
10587SOL    HW132660   5.888   4.679   0.144
10587SOL    HW232661   6.031   4.707   0.070
10588SOL     OW32662   0.968   4.208   2.307
10588SOL    HW132663   0.921   4.225   2.394
10588SOL    HW232664   0.909   4.153   2.248
10589SOL     OW32665   5.812   1.637   4.199
10589SOL    HW132666   5.735   1.591   4.243
10589SOL    HW232667   5.891   1.575   4.197
10590SOL     OW32668   0.972   0.302   1.744
10590SOL    HW132669   0.997   0.388   1.789
10590SOL    HW232670   0.963   0.318   1.646
10591SOL     OW32671   1.266   1.849   6.193
10591SOL    HW132672   1.290   1.774   6.254
10591SOL    HW232673   1.283   1.822   6.098
10592SOL     OW32674   5.696   2.373   0.319
10592SOL    HW132675   5.687   2.323   0.406
10592SOL    HW232676   5.771   2.333   0.266
10593SOL     OW32677   2.531   5.017   0.471
10593SOL    HW132678   2.553   4.920   0.466
10593SOL    HW232679   2.582   5.066   0.400
10594SOL     OW32680   5.694   1.254   3.112
10594SOL    HW132681   5.720   1.159   3.098
10594SOL    HW232682   5.762   1.299   3.170
10595SOL     OW32683   3.502   0.435   6.095
10595SOL    HW132684   3.471   0.518   6.048
10595SOL    HW232685   3.426   0.371   6.104
10596SOL     OW32686   4.613   0.335   1.372
10596SOL    HW132687   4.538   0.275   1.402
10596SOL    HW232688   4.692   0.278   1.346
10597SOL     OW32689   3.102   0.920   4.820
10597SOL    HW132690   3.084   1.012   4.856
10597SOL    HW232691   3.068   0.914   4.726
10598SOL     OW32692   2.630   2.664   0.147
10598SOL    HW132693   2.680   2.736   0.194
10598SOL    HW232694   2.661   2.657   0.052
10599SOL     OW32695   5.434   2.135   0.072
10599SOL    HW132696   5.498   2.065   0.040
10599SOL    HW232697   5.340   2.107   0.050
10600SOL     OW32698   1.993   3.254   0.528
10600SOL    HW132699   1.932   3.333   0.520
10600SOL    HW232700   1.946   3.180   0.577
10601SOL     OW32701   1.632   4.948   6.177
10601SOL    HW132702   1.579   4.868   6.149
10601SOL    HW232703   1.668   4.934   6.269
10602SOL     OW32704   5.152   1.830   3.510
10602SOL    HW132705   5.192   1.874   3.429
10602SOL    HW232706   5.221   1.821   3.581
10603SOL     OW32707   2.315   5.809   3.311
10603SOL    HW132708   2.346   5.789   3.404
10603SOL    HW232709   2.249   5.884   3.313
10604SOL     OW32710   5.704   4.399   4.969
10604SOL    HW132711   5.717   4.363   5.062
10604SOL    HW232712   5.788   4.387   4.916
10605SOL     OW32713   1.683   4.564   0.821
10605SOL    HW132714   1.703   4.583   0.724
10605SOL    HW232715   1.585   4.570   0.836
10606SOL     OW32716   5.915   0.238   2.235
10606SOL    HW132717   5.849   0.177   2.279
10606SOL    HW232718   5.984   0.266   2.302
10607SOL     OW32719   4.427   3.542   5.718
10607SOL    HW132720   4.399   3.594   5.798
10607SOL    HW232721   4.355   3.548   5.648
10608SOL     OW32722   5.819   2.184   5.150
10608SOL    HW132723   5.889   2.112   5.156
10608SOL    HW232724   5.773   2.178   5.061
10609SOL     OW32725   3.249   6.642   1.645
10609SOL    HW132726   3.199   6.594   1.716
10609SOL    HW232727   3.207   6.624   1.556
10610SOL     OW32728   0.181   3.827   6.544
10610SOL    HW132729   0.136   3.912   6.570
10610SOL    HW232730   0.119   3.750   6.562
10611SOL     OW32731   4.591   3.317   6.383
10611SOL    HW132732   4.502   3.271   6.393
10611SOL    HW232733   4.576   3.414   6.367
10612SOL     OW32734   2.884   0.057   5.691
10612SOL    HW132735   2.906   6.996   5.638
10612SOL    HW232736   2.916   0.137   5.641
10613SOL     OW32737   0.133   0.084   5.321
10613SOL    HW132738   0.150   7.009   5.301
10613SOL    HW232739   0.220   0.132   5.332
10614SOL     OW32740   6.689   1.804   4.120
10614SOL    HW132741   6.771   1.748   4.103
10614SOL    HW232742   6.618   1.780   4.053
10615SOL     OW32743   3.692   5.275   5.889
10615SOL    HW132744   3.636   5.355   5.868
10615SOL    HW232745   3.660   5.197   5.835
10616SOL     OW32746   3.498   6.341   0.767
10616SOL    HW132747   3.481   6.435   0.738
10616SOL    HW232748   3.588   6.312   0.735
10617SOL     OW32749   2.701   2.981   0.719
10617SOL    HW132750   2.658   3.051   0.776
10617SOL    HW232751   2.636   2.951   0.649
10618SOL     OW32752   5.574   3.541   6.753
10618SOL    HW132753   5.664   3.547   6.796
10618SOL    HW232754   5.504   3.573   6.818
10619SOL     OW32755   0.434   3.689   1.744
10619SOL    HW132756   0.431   3.715   1.648
10619SOL    HW232757   0.495   3.750   1.794
10620SOL     OW32758   1.129   6.047   5.653
10620SOL    HW132759   1.162   5.975   5.592
10620SOL    HW232760   1.045   6.016   5.697
10621SOL     OW32761   1.269   5.847   0.960
10621SOL    HW132762   1.226   5.937   0.956
10621SOL    HW232763   1.369   5.857   0.958
10622SOL     OW32764   4.918   1.231   1.092
10622SOL    HW132765   4.830   1.191   1.118
10622SOL    HW232766   4.993   1.175   1.128
10623SOL     OW32767   6.086   3.619   3.501
10623SOL    HW132768   6.092   3.579   3.410
10623SOL    HW232769   6.137   3.705   3.503
10624SOL     OW32770   1.029   1.039   4.795
10624SOL    HW132771   0.947   0.982   4.804
10624SOL    HW232772   1.002   1.131   4.764
10625SOL     OW32773   0.878   4.385   0.246
10625SOL    HW132774   0.825   4.362   0.164
10625SOL    HW232775   0.919   4.475   0.235
10626SOL     OW32776   1.227   2.796   1.327
10626SOL    HW132777   1.225   2.808   1.426
10626SOL    HW232778   1.164   2.723   1.301
10627SOL     OW32779   5.238   6.044   2.277
10627SOL    HW132780   5.320   6.006   2.232
10627SOL    HW232781   5.262   6.077   2.368
10628SOL     OW32782   5.799   5.310   6.213
10628SOL    HW132783   5.889   5.315   6.255
10628SOL    HW232784   5.729   5.300   6.284
10629SOL     OW32785   2.604   4.554   5.182
10629SOL    HW132786   2.703   4.541   5.184
10629SOL    HW232787   2.574   4.573   5.089
10630SOL     OW32788   6.066   0.989   3.762
10630SOL    HW132789   5.993   0.925   3.784
10630SOL    HW232790   6.027   1.070   3.718
10631SOL     OW32791   1.819   5.034   4.906
10631SOL    HW132792   1.764   4.957   4.937
10631SOL    HW232793   1.913   5.023   4.938
10632SOL     OW32794   5.778   2.078   4.062
10632SOL    HW132795   5.863   2.127   4.081
10632SOL    HW232796   5.772   1.998   4.121
10633SOL     OW32797   2.924   4.520   1.281
10633SOL    HW132798   2.857   4.580   1.324
10633SOL    HW232799   3.014   4.536   1.321
10634SOL     OW32800   3.397   5.223   0.893
10634SOL    HW132801   3.454   5.155   0.939
10634SOL    HW232802   3.310   5.180   0.868
10635SOL     OW32803   3.068   1.075   1.341
10635SOL    HW132804   3.153   1.049   1.296
10635SOL    HW232805   3.087   1.114   1.431
10636SOL     OW32806   1.521   2.150   2.168
10636SOL    HW132807   1.608   2.184   2.131
10636SOL    HW232808   1.536   2.115   2.260
10637SOL     OW32809   3.557   4.282   5.792
10637SOL    HW132810   3.546   4.207   5.858
10637SOL    HW232811   3.494   4.356   5.816
10638SOL     OW32812   0.180   5.513   2.658
10638SOL    HW132813   0.235   5.430   2.650
10638SOL    HW232814   0.174   5.558   2.569
10639SOL     OW32815   0.753   2.087   3.236
10639SOL    HW132816   0.800   2.175   3.247
10639SOL    HW232817   0.665   2.091   3.283
10640SOL     OW32818   3.922   6.968   6.622
10640SOL    HW132819   3.925   6.879   6.666
10640SOL    HW232820   4.001   0.001   6.653
10641SOL     OW32821   3.171   2.012   0.188
10641SOL    HW132822   3.239   2.028   0.260
10641SOL    HW232823   3.217   1.983   0.105
10642SOL     OW32824   0.629   2.417   1.682
10642SOL    HW132825   0.685   2.411   1.764
10642SOL    HW232826   0.571   2.498   1.688
10643SOL     OW32827   2.101   4.945   5.726
10643SOL    HW132828   2.021   4.908   5.680
10643SOL    HW232829   2.136   5.023   5.674
10644SOL     OW32830   5.097   2.257   3.514
10644SOL    HW132831   5.058   2.186   3.456
10644SOL    HW232832   5.195   2.264   3.497
10645SOL     OW32833   0.707   0.771   4.370
10645SOL    HW132834   0.656   0.830   4.306
10645SOL    HW232835   0.803   0.770   4.344
10646SOL     OW32836   0.359   1.911   4.901
10646SOL    HW132837   0.345   1.973   4.824
10646SOL    HW232838   0.407   1.829   4.869
10647SOL     OW32839   4.930   6.280   6.854
10647SOL    HW132840   5.026   6.304   6.868
10647SOL    HW232841   4.872   6.341   6.908
10648SOL     OW32842   5.203   3.076   6.249
10648SOL    HW132843   5.295   3.112   6.262
10648SOL    HW232844   5.147   3.146   6.203
10649SOL     OW32845   0.501   4.621   3.702
10649SOL    HW132846   0.567   4.618   3.777
10649SOL    HW232847   0.410   4.639   3.739
10650SOL     OW32848   1.536   5.904   3.077
10650SOL    HW132849   1.578   5.988   3.110
10650SOL    HW232850   1.562   5.827   3.136
10651SOL     OW32851   4.804   0.434   5.988
10651SOL    HW132852   4.834   0.388   6.072
10651SOL    HW232853   4.746   0.372   5.935
10652SOL     OW32854   3.427   0.356   0.290
10652SOL    HW132855   3.363   0.428   0.264
10652SOL    HW232856   3.442   0.295   0.213
10653SOL     OW32857   4.769   4.974   4.114
10653SOL    HW132858   4.868   4.978   4.098
10653SOL    HW232859   4.733   5.067   4.122
10654SOL     OW32860   4.894   0.792   0.896
10654SOL    HW132861   4.823   0.783   0.965
10654SOL    HW232862   4.933   0.884   0.900
10655SOL     OW32863   3.370   5.585   1.496
10655SOL    HW132864   3.281   5.629   1.486
10655SOL    HW232865   3.392   5.576   1.593
10656SOL     OW32866   6.132   1.999   0.646
10656SOL    HW132867   6.117   1.901   0.657
10656SOL    HW232868   6.209   2.028   0.703
10657SOL     OW32869   6.277   6.865   0.191
10657SOL    HW132870   6.351   6.867   0.123
10657SOL    HW232871   6.224   6.781   0.179
10658SOL     OW32872   0.044   3.985   4.940
10658SOL    HW132873   6.987   4.040   4.968
10658SOL    HW232874   0.041   3.971   4.841
10659SOL     OW32875   6.715   6.340   0.867
10659SOL    HW132876   6.701   6.298   0.957
10659SOL    HW232877   6.707   6.270   0.796
10660SOL     OW32878   5.160   4.475   6.359
10660SOL    HW132879   5.207   4.530   6.428
10660SOL    HW232880   5.061   4.483   6.373
10661SOL     OW32881   0.152   6.510   2.715
10661SOL    HW132882   0.093   6.583   2.750
10661SOL    HW232883   0.247   6.543   2.711
10662SOL     OW32884   6.046   0.833   2.732
10662SOL    HW132885   6.038   0.754   2.794
10662SOL    HW232886   6.049   0.801   2.638
10663SOL     OW32887   0.647   6.735   1.309
10663SOL    HW132888   0.678   6.682   1.231
10663SOL    HW232889   0.722   6.745   1.375
10664SOL     OW32890   1.906   4.354   6.301
10664SOL    HW132891   1.915   4.453   6.302
10664SOL    HW232892   1.880   4.323   6.209
10665SOL     OW32893   1.440   0.700   0.068
10665SOL    HW132894   1.375   0.677   0.140
10665SOL    HW232895   1.391   0.712   7.003
10666SOL     OW32896   3.794   4.249   6.964
10666SOL    HW132897   3.796   4.348   6.981
10666SOL    HW232898   3.766   4.232   6.869
10667SOL     OW32899   3.847   1.984   5.616
10667SOL    HW132900   3.859   1.902   5.560
10667SOL    HW232901   3.831   2.062   5.556
10668SOL     OW32902   1.324   1.687   4.918
10668SOL    HW132903   1.241   1.652   4.875
10668SOL    HW232904   1.332   1.785   4.900
10669SOL     OW32905   6.690   6.818   0.923
10669SOL    HW132906   6.651   6.879   0.993
10669SOL    HW232907   6.643   6.730   0.926
10670SOL     OW32908   4.918   4.636   5.704
10670SOL    HW132909   4.940   4.675   5.794
10670SOL    HW232910   4.867   4.703   5.650
10671SOL     OW32911   2.166   3.186   3.030
10671SOL    HW132912   2.083   3.137   3.059
10671SOL    HW232913   2.160   3.282   3.058
10672SOL     OW32914   6.842   2.966   0.687
10672SOL    HW132915   6.835   2.898   0.760
10672SOL    HW232916   6.798   3.051   0.717
10673SOL     OW32917   2.241   2.474   5.458
10673SOL    HW132918   2.215   2.490   5.362
10673SOL    HW232919   2.339   2.455   5.463
10674SOL     OW32920   3.870   3.541   0.340
10674SOL    HW132921   3.954   3.525   0.392
10674SOL    HW232922   3.864   3.638   0.316
10675SOL     OW32923   1.546   0.879   6.563
10675SOL    HW132924   1.579   0.957   6.509
10675SOL    HW232925   1.512   0.808   6.501
10676SOL     OW32926   6.081   0.107   6.413
10676SOL    HW132927   6.037   0.019   6.393
10676SOL    HW232928   6.044   0.145   6.498
10677SOL     OW32929   0.952   1.125   2.374
10677SOL    HW132930   1.006   1.095   2.452
10677SOL    HW232931   0.979   1.075   2.292
10678SOL     OW32932   3.463   5.408   2.990
10678SOL    HW132933   3.543   5.373   3.038
10678SOL    HW232934   3.488   5.490   2.939
10679SOL     OW32935   5.649   5.126   6.024
10679SOL    HW132936   5.736   5.081   6.002
10679SOL    HW232937   5.655   5.223   6.000
10680SOL     OW32938   1.666   3.104   3.510
10680SOL    HW132939   1.717   3.184   3.542
10680SOL    HW232940   1.730   3.034   3.477
10681SOL     OW32941   0.355   3.791   6.762
10681SOL    HW132942   0.444   3.769   6.721
10681SOL    HW232943   0.297   3.833   6.692
10682SOL     OW32944   1.837   2.024   3.392
10682SOL    HW132945   1.917   2.052   3.444
10682SOL    HW232946   1.839   1.925   3.378
10683SOL     OW32947   2.975   2.214   3.594
10683SOL    HW132948   2.886   2.246   3.626
10683SOL    HW232949   2.981   2.224   3.495
10684SOL     OW32950   4.633   3.898   6.951
10684SOL    HW132951   4.605   3.925   0.021
10684SOL    HW232952   4.722   3.853   6.955
10685SOL     OW32953   0.100   3.937   2.831
10685SOL    HW132954   0.193   3.901   2.837
10685SOL    HW232955   0.037   3.873   2.875
10686SOL     OW32956   4.013   5.922   6.370
10686SOL    HW132957   3.975   5.922   6.277
10686SOL    HW232958   4.041   5.829   6.394
10687SOL     OW32959   0.302   5.308   1.822
10687SOL    HW132960   0.299   5.288   1.920
10687SOL    HW232961   0.242   5.245   1.774
10688SOL     OW32962   6.444   4.284   2.136
10688SOL    HW132963   6.394   4.371   2.131
10688SOL    HW232964   6.542   4.301   2.130
10689SOL     OW32965   6.944   7.009   3.124
10689SOL    HW132966   6.884   6.988   3.202
10689SOL    HW232967   7.018   0.048   3.154
10690SOL     OW32968   4.900   5.539   3.298
10690SOL    HW132969   4.898   5.536   3.198
10690SOL    HW232970   4.985   5.582   3.328
10691SOL     OW32971   6.759   1.764   1.841
10691SOL    HW132972   6.801   1.684   1.798
10691SOL    HW232973   6.693   1.805   1.777
10692SOL     OW32974   2.838   5.699   3.894
10692SOL    HW132975   2.779   5.633   3.848
10692SOL    HW232976   2.924   5.655   3.920
10693SOL     OW32977   1.898   1.158   1.186
10693SOL    HW132978   1.897   1.193   1.093
10693SOL    HW232979   1.964   1.210   1.240
10694SOL     OW32980   3.367   6.370   1.181
10694SOL    HW132981   3.389   6.315   1.101
10694SOL    HW232982   3.268   6.384   1.186
10695SOL     OW32983   6.557   2.392   4.036
10695SOL    HW132984   6.573   2.486   4.067
10695SOL    HW232985   6.626   2.367   3.968
10696SOL     OW32986   6.953   5.005   1.157
10696SOL    HW132987   6.907   4.919   1.181
10696SOL    HW232988   0.002   4.986   1.089
10697SOL     OW32989   0.298   6.148   3.672
10697SOL    HW132990   0.217   6.096   3.700
10697SOL    HW232991   0.285   6.182   3.578
10698SOL     OW32992   2.972   6.981   3.894
10698SOL    HW132993   2.912   6.965   3.972
10698SOL    HW232994   3.045   0.022   3.921
10699SOL     OW32995   4.397   1.655   2.773
10699SOL    HW132996   4.412   1.603   2.857
10699SOL    HW232997   4.384   1.752   2.796
10700SOL     OW32998   0.576   0.039   0.196
10700SOL    HW132999   0.627   0.019   0.112
10700SOL    HW233000   0.488   0.079   0.173
10701SOL     OW33001   4.463   6.273   6.579
10701SOL    HW133002   4.375   6.234   6.553
10701SOL    HW233003   4.462   6.295   6.677
10702SOL     OW33004   5.713   2.218   1.633
10702SOL    HW133005   5.639   2.285   1.625
10702SOL    HW233006   5.677   2.136   1.677
10703SOL     OW33007   3.747   3.738   3.185
10703SOL    HW133008   3.714   3.712   3.094
10703SOL    HW233009   3.775   3.656   3.235
10704SOL     OW33010   4.948   6.597   2.262
10704SOL    HW133011   4.969   6.678   2.207
10704SOL    HW233012   4.857   6.606   2.303
10705SOL     OW33013   1.493   3.618   6.902
10705SOL    HW133014   1.558   3.694   6.899
10705SOL    HW233015   1.422   3.638   6.971
10706SOL     OW33016   4.546   0.499   2.401
10706SOL    HW133017   4.450   0.488   2.373
10706SOL    HW233018   4.605   0.460   2.330
10707SOL     OW33019   0.041   6.855   5.999
10707SOL    HW133020   0.020   6.892   6.089
10707SOL    HW233021   6.988   6.877   5.936
10708SOL     OW33022   5.189   1.163   1.400
10708SOL    HW133023   5.252   1.108   1.455
10708SOL    HW233024   5.194   1.258   1.429
10709SOL     OW33025   6.000   0.675   5.635
10709SOL    HW133026   6.057   0.612   5.687
10709SOL    HW233027   5.959   0.742   5.696
10710SOL     OW33028   7.005   6.191   4.370
10710SOL    HW133029   0.004   6.286   4.392
10710SOL    HW233030   6.991   6.182   4.271
10711SOL     OW33031   2.231   6.951   4.053
10711SOL    HW133032   2.175   6.868   4.053
10711SOL    HW233033   2.325   6.927   4.077
10712SOL     OW33034   3.926   1.283   4.374
10712SOL    HW133035   3.923   1.364   4.432
10712SOL    HW233036   3.873   1.209   4.417
10713SOL     OW33037   2.249   5.510   1.891
10713SOL    HW133038   2.308   5.562   1.954
10713SOL    HW233039   2.271   5.535   1.797
10714SOL     OW33040   0.118   4.788   4.746
10714SOL    HW133041   0.214   4.761   4.750
10714SOL    HW233042   0.110   4.887   4.762
10715SOL     OW33043   5.416   1.499   3.983
10715SOL    HW133044   5.402   1.564   3.909
10715SOL    HW233045   5.414   1.406   3.947
10716SOL     OW33046   6.626   1.110   3.609
10716SOL    HW133047   6.663   1.017   3.613
10716SOL    HW233048   6.530   1.110   3.637
10717SOL     OW33049   0.727   1.321   1.187
10717SOL    HW133050   0.630   1.320   1.214
10717SOL    HW233051   0.759   1.416   1.182
10718SOL     OW33052   6.845   5.545   0.681
10718SOL    HW133053   6.762   5.547   0.625
10718SOL    HW233054   6.869   5.450   0.701
10719SOL     OW33055   5.027   0.245   2.849
10719SOL    HW133056   5.123   0.231   2.873
10719SOL    HW233057   5.021   0.312   2.776
10720SOL     OW33058   6.903   3.245   6.079
10720SOL    HW133059   6.892   3.183   6.001
10720SOL    HW233060   6.992   3.227   6.122
10721SOL     OW33061   6.380   2.115   4.319
10721SOL    HW133062   6.377   2.191   4.254
10721SOL    HW233063   6.311   2.047   4.295
10722SOL     OW33064   6.863   3.510   0.036
10722SOL    HW133065   6.873   3.550   6.966
10722SOL    HW233066   6.873   3.581   0.105
10723SOL     OW33067   5.423   3.928   6.909
10723SOL    HW133068   5.329   3.951   6.885
10723SOL    HW233069   5.484   3.952   6.833
10724SOL     OW33070   4.114   6.826   6.180
10724SOL    HW133071   4.135   6.760   6.108
10724SOL    HW233072   4.197   6.843   6.234
10725SOL     OW33073   0.437   5.542   4.675
10725SOL    HW133074   0.427   5.493   4.589
10725SOL    HW233075   0.532   5.573   4.686
10726SOL     OW33076   5.488   0.779   4.901
10726SOL    HW133077   5.528   0.829   4.824
10726SOL    HW233078   5.466   0.686   4.872
10727SOL     OW33079   2.077   4.675   4.739
10727SOL    HW133080   2.004   4.734   4.706
10727SOL    HW233081   2.066   4.659   4.837
10728SOL     OW33082   5.057   6.859   3.074
10728SOL    HW133083   5.126   6.807   3.124
10728SOL    HW233084   5.094   6.887   2.985
10729SOL     OW33085   6.308   2.035   2.885
10729SOL    HW133086   6.406   2.037   2.868
10729SOL    HW233087   6.266   1.967   2.825
10730SOL     OW33088   2.349   5.860   2.440
10730SOL    HW133089   2.298   5.804   2.374
10730SOL    HW233090   2.408   5.924   2.390
10731SOL     OW33091   3.138   5.387   0.373
10731SOL    HW133092   3.227   5.400   0.331
10731SOL    HW233093   3.102   5.475   0.403
10732SOL     OW33094   5.679   6.516   3.209
10732SOL    HW133095   5.606   6.466   3.254
10732SOL    HW233096   5.762   6.460   3.208
10733SOL     OW33097   5.885   1.411   0.584
10733SOL    HW133098   5.898   1.510   0.580
10733SOL    HW233099   5.817   1.384   0.515
10734SOL     OW33100   0.607   0.164   6.244
10734SOL    HW133101   0.693   0.213   6.228
10734SOL    HW233102   0.572   0.128   6.158
10735SOL     OW33103   0.793   5.397   2.658
10735SOL    HW133104   0.822   5.492   2.648
10735SOL    HW233105   0.872   5.337   2.647
10736SOL     OW33106   0.289   0.617   3.839
10736SOL    HW133107   0.358   0.546   3.856
10736SOL    HW233108   0.266   0.663   3.925
10737SOL     OW33109   0.461   2.036   1.412
10737SOL    HW133110   0.436   2.094   1.489
10737SOL    HW233111   0.505   1.953   1.446
10738SOL     OW33112   2.491   0.914   2.398
10738SOL    HW133113   2.538   1.001   2.388
10738SOL    HW233114   2.394   0.925   2.372
10739SOL     OW33115   6.143   1.553   2.453
10739SOL    HW133116   6.148   1.582   2.549
10739SOL    HW233117   6.194   1.468   2.441
10740SOL     OW33118   1.523   6.302   5.635
10740SOL    HW133119   1.511   6.401   5.640
10740SOL    HW233120   1.502   6.270   5.542
10741SOL     OW33121   1.552   2.799   3.592
10741SOL    HW133122   1.476   2.737   3.610
10741SOL    HW233123   1.551   2.826   3.496
10742SOL     OW33124   5.693   5.816   1.946
10742SOL    HW133125   5.597   5.789   1.941
10742SOL    HW233126   5.747   5.759   1.884
10743SOL     OW33127   3.545   1.180   5.022
10743SOL    HW133128   3.594   1.188   4.935
10743SOL    HW233129   3.609   1.150   5.093
10744SOL     OW33130   3.386   0.770   1.593
10744SOL    HW133131   3.456   0.698   1.585
10744SOL    HW233132   3.297   0.731   1.569
10745SOL     OW33133   2.567   5.067   0.955
10745SOL    HW133134   2.651   5.112   0.927
10745SOL    HW233135   2.497   5.135   0.976
10746SOL     OW33136   2.758   5.976   1.025
10746SOL    HW133137   2.767   6.066   1.068
10746SOL    HW233138   2.703   5.983   0.942
10747SOL     OW33139   6.010   2.222   4.150
10747SOL    HW133140   5.986   2.304   4.201
10747SOL    HW233141   6.094   2.182   4.188
10748SOL     OW33142   4.781   5.579   1.015
10748SOL    HW133143   4.686   5.566   1.041
10748SOL    HW233144   4.803   5.676   1.012
10749SOL     OW33145   6.214   4.758   3.547
10749SOL    HW133146   6.174   4.841   3.587
10749SOL    HW233147   6.236   4.774   3.451
10750SOL     OW33148   4.725   4.162   4.022
10750SOL    HW133149   4.687   4.243   3.978
10750SOL    HW233150   4.712   4.169   4.121
10751SOL     OW33151   1.415   3.382   5.017
10751SOL    HW133152   1.328   3.375   5.065
10751SOL    HW233153   1.401   3.428   4.930
10752SOL     OW33154   6.059   5.033   0.223
10752SOL    HW133155   6.095   4.974   0.151
10752SOL    HW233156   5.976   4.992   0.261
10753SOL     OW33157   4.535   0.151   4.528
10753SOL    HW133158   4.453   0.099   4.552
10753SOL    HW233159   4.510   0.248   4.516
10754SOL     OW33160   0.397   3.105   1.816
10754SOL    HW133161   0.305   3.066   1.814
10754SOL    HW233162   0.428   3.125   1.723
10755SOL     OW33163   0.016   1.949   1.747
10755SOL    HW133164   0.032   1.935   1.845
10755SOL    HW233165   0.051   1.870   1.696
10756SOL     OW33166   6.335   2.114   6.935
10756SOL    HW133167   6.260   2.164   6.979
10756SOL    HW233168   6.422   2.160   6.956
10757SOL     OW33169   0.005   3.784   0.726
10757SOL    HW133170   7.004   3.783   0.824
10757SOL    HW233171   6.972   3.716   0.679
10758SOL     OW33172   0.840   5.767   6.657
10758SOL    HW133173   0.804   5.856   6.683
10758SOL    HW233174   0.764   5.705   6.635
10759SOL     OW33175   1.468   2.624   5.857
10759SOL    HW133176   1.434   2.707   5.902
10759SOL    HW233177   1.428   2.543   5.901
10760SOL     OW33178   1.302   6.221   0.464
10760SOL    HW133179   1.305   6.317   0.491
10760SOL    HW233180   1.242   6.211   0.384
10761SOL     OW33181   0.845   2.288   6.486
10761SOL    HW133182   0.762   2.262   6.535
10761SOL    HW233183   0.829   2.282   6.388
10762SOL     OW33184   3.968   0.659   5.987
10762SOL    HW133185   4.053   0.705   5.961
10762SOL    HW233186   3.982   0.560   5.989
10763SOL     OW33187   5.461   0.697   2.452
10763SOL    HW133188   5.500   0.710   2.542
10763SOL    HW233189   5.385   0.632   2.457
10764SOL     OW33190   4.634   0.962   5.345
10764SOL    HW133191   4.702   0.931   5.412
10764SOL    HW233192   4.630   0.897   5.269
10765SOL     OW33193   5.658   1.502   2.359
10765SOL    HW133194   5.567   1.540   2.376
10765SOL    HW233195   5.682   1.438   2.432
10766SOL     OW33196   1.949   4.975   0.143
10766SOL    HW133197   2.011   4.979   0.064
10766SOL    HW233198   1.964   4.890   0.193
10767SOL     OW33199   2.048   6.543   0.692
10767SOL    HW133200   2.111   6.557   0.767
10767SOL    HW233201   2.047   6.447   0.665
10768SOL     OW33202   5.139   5.376   0.298
10768SOL    HW133203   5.191   5.417   0.223
10768SOL    HW233204   5.129   5.442   0.372
10769SOL     OW33205   2.773   4.421   5.427
10769SOL    HW133206   2.806   4.450   5.337
10769SOL    HW233207   2.709   4.345   5.416
10770SOL     OW33208   5.557   7.007   4.572
10770SOL    HW133209   5.571   0.027   4.662
10770SOL    HW233210   5.571   6.909   4.578
10771SOL     OW33211   4.233   0.086   5.343
10771SOL    HW133212   4.179   0.170   5.333
10771SOL    HW233213   4.175   0.008   5.323
10772SOL     OW33214   6.069   6.859   4.510
10772SOL    HW133215   6.088   6.928   4.579
10772SOL    HW233216   6.077   6.768   4.550
10773SOL     OW33217   6.761   4.558   6.769
10773SOL    HW133218   6.707   4.621   6.826
10773SOL    HW233219   6.795   4.483   6.825
10774SOL     OW33220   1.183   2.167   1.098
10774SOL    HW133221   1.261   2.229   1.087
10774SOL    HW233222   1.203   2.081   1.051
10775SOL     OW33223   1.525   4.416   1.464
10775SOL    HW133224   1.428   4.402   1.484
10775SOL    HW233225   1.535   4.460   1.375
10776SOL     OW33226   6.275   0.290   2.971
10776SOL    HW133227   6.230   0.220   2.915
10776SOL    HW233228   6.368   0.303   2.937
10777SOL     OW33229   3.344   1.030   3.935
10777SOL    HW133230   3.266   1.079   3.972
10777SOL    HW233231   3.374   0.961   4.000
10778SOL     OW33232   6.287   6.227   5.030
10778SOL    HW133233   6.339   6.255   4.949
10778SOL    HW233234   6.206   6.285   5.039
10779SOL     OW33235   5.689   4.611   3.065
10779SOL    HW133236   5.678   4.625   2.966
10779SOL    HW233237   5.600   4.591   3.105
10780SOL     OW33238   0.087   5.697   4.542
10780SOL    HW133239   7.021   5.720   4.585
10780SOL    HW233240   0.130   5.622   4.592
10781SOL     OW33241   6.056   1.022   4.956
10781SOL    HW133242   6.151   1.053   4.961
10781SOL    HW233243   6.016   1.052   4.869
10782SOL     OW33244   6.604   3.067   5.382
10782SOL    HW133245   6.594   2.976   5.342
10782SOL    HW233246   6.682   3.068   5.444
10783SOL     OW33247   2.096   2.677   2.530
10783SOL    HW133248   2.062   2.678   2.624
10783SOL    HW233249   2.034   2.729   2.472
10784SOL     OW33250   2.779   6.018   2.056
10784SOL    HW133251   2.808   5.922   2.063
10784SOL    HW233252   2.679   6.022   2.050
10785SOL     OW33253   1.611   5.194   1.762
10785SOL    HW133254   1.587   5.203   1.665
10785SOL    HW233255   1.706   5.164   1.770
10786SOL     OW33256   4.125   2.210   2.481
10786SOL    HW133257   4.113   2.240   2.386
10786SOL    HW233258   4.221   2.216   2.506
10787SOL     OW33259   2.974   1.414   4.101
10787SOL    HW133260   2.955   1.330   4.052
10787SOL    HW233261   3.055   1.458   4.063
10788SOL     OW33262   1.186   4.422   0.253
10788SOL    HW133263   1.115   4.357   0.282
10788SOL    HW233264   1.257   4.373   0.203
10789SOL     OW33265   6.201   1.059   0.219
10789SOL    HW133266   6.290   1.042   0.261
10789SOL    HW233267   6.130   1.061   0.290
10790SOL     OW33268   0.182   1.538   5.160
10790SOL    HW133269   0.155   1.597   5.084
10790SOL    HW233270   0.110   1.469   5.176
10791SOL     OW33271   1.981   1.539   2.167
10791SOL    HW133272   1.945   1.549   2.074
10791SOL    HW233273   1.932   1.600   2.229
10792SOL     OW33274   3.478   2.490   1.212
10792SOL    HW133275   3.421   2.516   1.290
10792SOL    HW233276   3.543   2.419   1.241
10793SOL     OW33277   5.462   1.561   4.746
10793SOL    HW133278   5.444   1.648   4.700
10793SOL    HW233279   5.376   1.518   4.771
10794SOL     OW33280   4.103   3.425   1.620
10794SOL    HW133281   4.076   3.337   1.661
10794SOL    HW233282   4.047   3.498   1.659
10795SOL     OW33283   0.108   4.166   2.298
10795SOL    HW133284   0.183   4.231   2.284
10795SOL    HW233285   0.083   4.164   2.395
10796SOL     OW33286   5.655   6.976   6.587
10796SOL    HW133287   5.663   0.004   6.501
10796SOL    HW233288   5.694   0.009   6.661
10797SOL     OW33289   3.895   2.823   6.915
10797SOL    HW133290   3.988   2.807   6.882
10797SOL    HW233291   3.846   2.880   6.848
10798SOL     OW33292   2.528   0.071   6.024
10798SOL    HW133293   2.509   6.995   6.035
10798SOL    HW233294   2.597   0.099   6.091
10799SOL     OW33295   2.999   1.873   2.618
10799SOL    HW133296   3.042   1.959   2.592
10799SOL    HW233297   3.063   1.819   2.673
10800SOL     OW33298   1.730   0.095   0.669
10800SOL    HW133299   1.708   0.178   0.721
10800SOL    HW233300   1.673   0.020   0.701
10801SOL     OW33301   2.071   6.171   5.485
10801SOL    HW133302   2.146   6.200   5.426
10801SOL    HW233303   2.101   6.175   5.581
10802SOL     OW33304   1.500   3.268   4.003
10802SOL    HW133305   1.543   3.331   4.067
10802SOL    HW233306   1.531   3.287   3.910
10803SOL     OW33307   5.112   4.138   5.782
10803SOL    HW133308   5.061   4.207   5.833
10803SOL    HW233309   5.186   4.102   5.838
10804SOL     OW33310   6.211   3.964   1.426
10804SOL    HW133311   6.172   4.028   1.492
10804SOL    HW233312   6.164   3.974   1.339
10805SOL     OW33313   4.132   6.930   0.514
10805SOL    HW133314   4.140   6.942   0.415
10805SOL    HW233315   4.216   6.888   0.549
10806SOL     OW33316   5.812   3.418   0.291
10806SOL    HW133317   5.735   3.445   0.232
10806SOL    HW233318   5.832   3.322   0.276
10807SOL     OW33319   3.321   5.889   3.414
10807SOL    HW133320   3.337   5.809   3.473
10807SOL    HW233321   3.366   5.969   3.453
10808SOL     OW33322   1.129   3.681   6.938
10808SOL    HW133323   1.197   3.737   6.984
10808SOL    HW233324   1.173   3.602   6.895
10809SOL     OW33325   2.759   1.495   4.263
10809SOL    HW133326   2.792   1.569   4.322
10809SOL    HW233327   2.820   1.486   4.184
10810SOL     OW33328   0.266   1.273   5.728
10810SOL    HW133329   0.180   1.290   5.679
10810SOL    HW233330   0.245   1.241   5.820
10811SOL     OW33331   4.122   4.969   5.802
10811SOL    HW133332   4.094   4.878   5.771
10811SOL    HW233333   4.097   5.037   5.732
10812SOL     OW33334   6.629   3.094   2.477
10812SOL    HW133335   6.690   3.088   2.556
10812SOL    HW233336   6.669   3.156   2.409
10813SOL     OW33337   2.651   5.941   1.762
10813SOL    HW133338   2.629   6.038   1.765
10813SOL    HW233339   2.748   5.929   1.742
10814SOL     OW33340   2.047   0.024   5.389
10814SOL    HW133341   2.123   7.020   5.330
10814SOL    HW233342   2.082   0.068   5.472
10815SOL     OW33343   5.006   4.112   3.167
10815SOL    HW133344   4.992   4.181   3.096
10815SOL    HW233345   4.983   4.022   3.130
10816SOL     OW33346   1.899   1.214   2.324
10816SOL    HW133347   1.976   1.201   2.386
10816SOL    HW233348   1.927   1.190   2.231
10817SOL     OW33349   5.513   0.276   2.883
10817SOL    HW133350   5.536   0.255   2.788
10817SOL    HW233351   5.432   0.223   2.909
10818SOL     OW33352   5.551   2.867   6.436
10818SOL    HW133353   5.556   2.942   6.503
10818SOL    HW233354   5.515   2.785   6.481
10819SOL     OW33355   0.384   4.194   6.699
10819SOL    HW133356   0.398   4.151   6.610
10819SOL    HW233357   0.466   4.179   6.756
10820SOL     OW33358   0.151   6.666   3.904
10820SOL    HW133359   0.090   6.614   3.844
10820SOL    HW233360   0.203   6.602   3.960
10821SOL     OW33361   6.895   6.731   2.145
10821SOL    HW133362   6.845   6.646   2.158
10821SOL    HW233363   6.991   6.718   2.171
10822SOL     OW33364   1.404   3.528   2.632
10822SOL    HW133365   1.382   3.438   2.670
10822SOL    HW233366   1.337   3.552   2.562
10823SOL     OW33367   2.806   5.600   1.578
10823SOL    HW133368   2.872   5.674   1.589
10823SOL    HW233369   2.724   5.635   1.532
10824SOL     OW33370   5.126   0.241   3.547
10824SOL    HW133371   5.105   0.164   3.488
10824SOL    HW233372   5.155   0.319   3.492
10825SOL     OW33373   2.679   1.632   1.264
10825SOL    HW133374   2.627   1.705   1.307
10825SOL    HW233375   2.761   1.670   1.220
10826SOL     OW33376   6.915   3.737   2.108
10826SOL    HW133377   6.955   3.709   2.195
10826SOL    HW233378   6.898   3.836   2.110
10827SOL     OW33379   6.560   3.694   4.441
10827SOL    HW133380   6.548   3.764   4.512
10827SOL    HW233381   6.481   3.633   4.442
10828SOL     OW33382   1.219   5.789   1.227
10828SOL    HW133383   1.170   5.703   1.229
10828SOL    HW233384   1.227   5.821   1.132
10829SOL     OW33385   2.938   3.658   1.584
10829SOL    HW133386   2.933   3.725   1.658
10829SOL    HW233387   2.891   3.695   1.503
10830SOL     OW33388   6.370   3.245   4.687
10830SOL    HW133389   6.287   3.251   4.743
10830SOL    HW233390   6.378   3.153   4.650
10831SOL     OW33391   5.168   0.840   2.462
10831SOL    HW133392   5.148   0.921   2.407
10831SOL    HW233393   5.195   0.869   2.554
10832SOL     OW33394   0.912   2.029   0.329
10832SOL    HW133395   0.830   2.047   0.384
10832SOL    HW233396   0.931   1.931   0.327
10833SOL     OW33397   2.315   0.865   3.759
10833SOL    HW133398   2.351   0.862   3.666
10833SOL    HW233399   2.243   0.796   3.770
10834SOL     OW33400   0.424   1.034   5.084
10834SOL    HW133401   0.450   1.009   5.177
10834SOL    HW233402   0.506   1.058   5.032
10835SOL     OW33403   6.488   1.597   2.313
10835SOL    HW133404   6.523   1.678   2.361
10835SOL    HW233405   6.475   1.523   2.379
10836SOL     OW33406   0.569   1.288   5.226
10836SOL    HW133407   0.523   1.373   5.252
10836SOL    HW233408   0.583   1.232   5.308
10837SOL     OW33409   6.464   4.449   0.363
10837SOL    HW133410   6.556   4.421   0.393
10837SOL    HW233411   6.472   4.529   0.303
10838SOL     OW33412   5.943   0.275   6.588
10838SOL    HW133413   5.861   0.294   6.533
10838SOL    HW233414   5.942   0.333   6.670
10839SOL     OW33415   2.775   1.904   6.956
10839SOL    HW133416   2.721   1.966   6.899
10839SOL    HW233417   2.721   1.875   0.013
10840SOL     OW33418   3.243   6.133   1.371
10840SOL    HW133419   3.291   6.165   1.289
10840SOL    HW233420   3.291   6.054   1.408
10841SOL     OW33421   3.814   6.019   5.888
10841SOL    HW133422   3.819   6.112   5.925
10841SOL    HW233423   3.758   6.019   5.805
10842SOL     OW33424   6.728   3.110   1.033
10842SOL    HW133425   6.758   3.145   0.944
10842SOL    HW233426   6.793   3.139   1.103
10843SOL     OW33427   1.467   1.548   2.220
10843SOL    HW133428   1.553   1.586   2.186
10843SOL    HW233429   1.394   1.569   2.155
10844SOL     OW33430   6.630   6.056   4.539
10844SOL    HW133431   6.703   6.001   4.498
10844SOL    HW233432   6.564   6.083   4.468
10845SOL     OW33433   1.197   1.279   2.007
10845SOL    HW133434   1.202   1.245   2.100
10845SOL    HW233435   1.230   1.209   1.943
10846SOL     OW33436   4.414   1.836   0.787
10846SOL    HW133437   4.436   1.933   0.780
10846SOL    HW233438   4.387   1.802   0.697
10847SOL     OW33439   2.989   1.255   5.819
10847SOL    HW133440   3.047   1.194   5.874
10847SOL    HW233441   3.034   1.275   5.733
10848SOL     OW33442   2.631   1.615   6.917
10848SOL    HW133443   2.721   1.581   6.944
10848SOL    HW233444   2.586   1.656   6.996
10849SOL     OW33445   2.999   4.989   3.782
10849SOL    HW133446   3.083   4.960   3.828
10849SOL    HW233447   2.924   4.929   3.809
10850SOL     OW33448   4.258   6.340   6.993
10850SOL    HW133449   4.214   6.276   0.035
10850SOL    HW233450   4.193   6.411   6.967
10851SOL     OW33451   2.772   3.031   6.203
10851SOL    HW133452   2.703   3.097   6.235
10851SOL    HW233453   2.739   2.988   6.119
10852SOL     OW33454   0.020   1.381   6.011
10852SOL    HW133455   0.073   1.346   6.089
10852SOL    HW233456   7.003   1.305   5.960
10853SOL     OW33457   3.016   2.237   4.406
10853SOL    HW133458   3.035   2.334   4.390
10853SOL    HW233459   3.054   2.183   4.332
10854SOL     OW33460   5.346   0.359   6.775
10854SOL    HW133461   5.438   0.320   6.777
10854SOL    HW233462   5.281   0.294   6.814
10855SOL     OW33463   1.891   5.918   2.591
10855SOL    HW133464   1.854   5.843   2.535
10855SOL    HW233465   1.991   5.912   2.594
10856SOL     OW33466   6.069   6.636   0.357
10856SOL    HW133467   6.120   6.719   0.379
10856SOL    HW233468   6.010   6.612   0.434
10857SOL     OW33469   6.633   2.445   3.328
10857SOL    HW133470   6.616   2.414   3.235
10857SOL    HW233471   6.610   2.372   3.393
10858SOL     OW33472   1.777   3.729   0.392
10858SOL    HW133473   1.868   3.714   0.352
10858SOL    HW233474   1.788   3.778   0.479
10859SOL     OW33475   0.810   3.653   3.415
10859SOL    HW133476   0.743   3.650   3.340
10859SOL    HW233477   0.787   3.584   3.483
10860SOL     OW33478   6.895   1.334   0.664
10860SOL    HW133479   6.941   1.416   0.697
10860SOL    HW233480   6.959   1.257   0.665
10861SOL     OW33481   3.536   2.759   1.826
10861SOL    HW133482   3.582   2.785   1.911
10861SOL    HW233483   3.506   2.841   1.777
10862SOL     OW33484   2.721   2.432   5.901
10862SOL    HW133485   2.723   2.375   5.982
10862SOL    HW233486   2.693   2.378   5.822
10863SOL     OW33487   2.562   0.018   2.964
10863SOL    HW133488   2.526   7.021   2.873
10863SOL    HW233489   2.631   0.090   2.959
10864SOL     OW33490   3.128   4.741   1.549
10864SOL    HW133491   3.083   4.715   1.634
10864SOL    HW233492   3.166   4.660   1.505
10865SOL     OW33493   5.603   3.203   3.666
10865SOL    HW133494   5.638   3.275   3.726
10865SOL    HW233495   5.580   3.244   3.577
10866SOL     OW33496   6.807   2.805   0.887
10866SOL    HW133497   6.742   2.815   0.962
10866SOL    HW233498   6.892   2.765   0.922
10867SOL     OW33499   2.780   2.775   0.363
10867SOL    HW133500   2.824   2.832   0.432
10867SOL    HW233501   2.721   2.707   0.408
10868SOL     OW33502   0.730   1.780   3.212
10868SOL    HW133503   0.649   1.742   3.168
10868SOL    HW233504   0.757   1.864   3.165
10869NA      NA33505   0.475   1.909   5.936
10870NA      NA33506   4.438   4.613   5.183
10871NA      NA33507   1.899   5.105   2.722
10872NA      NA33508   5.089   4.173   3.834
10873NA      NA33509   4.175   2.259   5.188
10874NA      NA33510   3.089   5.114   1.241
10875NA      NA33511   1.280   5.268   0.518
10876NA      NA33512   3.785   4.408   1.483
10877NA      NA33513   4.671   4.090   0.627
10878NA      NA33514   3.665   1.388   6.117
10879NA      NA33515   5.056   5.998   2.139
10880NA      NA33516   1.681   0.235   5.541
10881NA      NA33517   5.021   4.856   1.601
10882NA      NA33518   3.292   3.388   6.994
   7.02166   7.02166   7.02166
