Generated by trjconv : CNT in water t= 220.00000
33518
    1C        C    1   2.841   2.768   4.747
    1C        C    2   2.894   2.716   4.867
    1C        C    3   2.840   2.768   4.985
    1C        C    4   2.848   2.770   4.259
    1C        C    5   2.902   2.724   4.381
    1C        C    6   2.845   2.770   4.502
    1C        C    7   3.009   2.637   4.625
    1C        C    8   2.894   2.719   4.625
    1C        C    9   3.072   2.598   4.745
    1C        C   10   3.005   2.630   4.865
    1C        C   11   3.178   2.491   4.976
    1C        C   12   3.056   2.561   4.976
    1C        C   13   2.852   2.773   3.771
    1C        C   14   2.901   2.720   3.893
    1C        C   15   2.853   2.774   4.014
    1C        C   16   3.014   2.637   4.139
    1C        C   17   2.901   2.722   4.137
    1C        C   18   3.079   2.606   4.260
    1C        C   19   3.017   2.643   4.382
    1C        C   20   3.205   2.553   4.506
    1C        C   21   3.073   2.602   4.504
    1C        C   22   3.276   2.530   4.627
    1C        C   23   3.206   2.550   4.748
    1C        C   24   3.412   2.493   4.866
    1C        C   25   3.270   2.509   4.868
    1C        C   26   3.489   2.480   4.983
    1C        C   27   2.850   2.766   3.282
    1C        C   28   2.905   2.724   3.405
    1C        C   29   2.854   2.773   3.527
    1C        C   30   3.016   2.637   3.649
    1C        C   31   2.904   2.724   3.650
    1C        C   32   3.076   2.600   3.771
    1C        C   33   3.015   2.636   3.893
    1C        C   34   3.206   2.549   4.018
    1C        C   35   3.073   2.598   4.016
    1C        C   36   3.275   2.527   4.139
    1C        C   37   3.208   2.550   4.261
    1C        C   38   3.413   2.505   4.382
    1C        C   39   3.275   2.534   4.385
    1C        C   40   3.486   2.497   4.503
    1C        C   41   3.415   2.506   4.624
    1C        C   42   3.628   2.487   4.746
    1C        C   43   3.486   2.488   4.745
    1C        C   44   3.706   2.491   4.864
    1C        C   45   3.628   2.485   4.980
    1C        C   46   2.835   2.749   2.791
    1C        C   47   2.891   2.708   2.914
    1C        C   48   2.846   2.759   3.038
    1C        C   49   3.013   2.629   3.161
    1C        C   50   2.901   2.715   3.160
    1C        C   51   3.079   2.603   3.283
    1C        C   52   3.021   2.643   3.406
    1C        C   53   3.209   2.545   3.527
    1C        C   54   3.079   2.601   3.528
    1C        C   55   3.275   2.524   3.649
    1C        C   56   3.205   2.542   3.771
    1C        C   57   3.411   2.507   3.895
    1C        C   58   3.271   2.527   3.894
    1C        C   59   3.484   2.499   4.016
    1C        C   60   3.414   2.503   4.139
    1C        C   61   3.627   2.501   4.261
    1C        C   62   3.486   2.500   4.260
    1C        C   63   3.699   2.509   4.382
    1C        C   64   3.627   2.501   4.504
    1C        C   65   3.833   2.550   4.625
    1C        C   66   3.699   2.504   4.625
    1C        C   67   3.905   2.571   4.745
    1C        C   68   3.841   2.531   4.864
    1C        C   69   4.052   2.587   4.977
    1C        C   70   3.920   2.540   4.979
    1C        C   71   2.826   2.734   2.308
    1C        C   72   2.885   2.692   2.429
    1C        C   73   2.834   2.750   2.548
    1C        C   74   3.006   2.622   2.671
    1C        C   75   2.891   2.705   2.669
    1C        C   76   3.066   2.589   2.795
    1C        C   77   3.006   2.626   2.917
    1C        C   78   3.206   2.547   3.037
    1C        C   79   3.073   2.596   3.038
    1C        C   80   3.273   2.523   3.159
    1C        C   81   3.208   2.546   3.282
    1C        C   82   3.414   2.498   3.403
    1C        C   83   3.275   2.521   3.404
    1C        C   84   3.483   2.495   3.526
    1C        C   85   3.415   2.503   3.650
    1C        C   86   3.623   2.500   3.771
    1C        C   87   3.482   2.497   3.774
    1C        C   88   3.695   2.509   3.893
    1C        C   89   3.625   2.504   4.016
    1C        C   90   3.832   2.551   4.136
    1C        C   91   3.695   2.514   4.138
    1C        C   92   3.898   2.576   4.258
    1C        C   93   3.834   2.550   4.381
    1C        C   94   4.026   2.638   4.498
    1C        C   95   3.901   2.574   4.503
    1C        C   96   4.088   2.679   4.618
    1C        C   97   4.030   2.638   4.740
    1C        C   98   4.198   2.763   4.861
    1C        C   99   4.098   2.660   4.863
    1C        C  100   4.221   2.839   4.976
    1C        C  101   2.819   2.731   2.071
    1C        C  102   2.994   2.594   2.190
    1C        C  103   2.879   2.679   2.187
    1C        C  104   3.064   2.568   2.311
    1C        C  105   3.003   2.615   2.430
    1C        C  106   3.201   2.535   2.551
    1C        C  107   3.069   2.584   2.551
    1C        C  108   3.270   2.519   2.673
    1C        C  109   3.198   2.539   2.794
    1C        C  110   3.410   2.498   2.913
    1C        C  111   3.270   2.521   2.914
    1C        C  112   3.481   2.492   3.035
    1C        C  113   3.412   2.498   3.158
    1C        C  114   3.623   2.502   3.279
    1C        C  115   3.483   2.488   3.280
    1C        C  116   3.691   2.510   3.403
    1C        C  117   3.624   2.497   3.527
    1C        C  118   3.831   2.542   3.646
    1C        C  119   3.695   2.504   3.649
    1C        C  120   3.895   2.573   3.768
    1C        C  121   3.831   2.548   3.892
    1C        C  122   4.020   2.646   4.013
    1C        C  123   3.898   2.575   4.013
    1C        C  124   4.084   2.678   4.135
    1C        C  125   4.025   2.637   4.256
    1C        C  126   4.193   2.772   4.374
    1C        C  127   4.083   2.683   4.377
    1C        C  128   4.244   2.822   4.496
    1C        C  129   4.194   2.773   4.619
    1C        C  130   4.327   2.938   4.740
    1C        C  131   4.246   2.822   4.741
    1C        C  132   4.359   3.005   4.860
    1C        C  133   4.292   2.958   4.974
    1C        C  134   3.174   2.467   2.084
    1C        C  135   3.040   2.509   2.084
    1C        C  136   3.264   2.481   2.191
    1C        C  137   3.196   2.516   2.310
    1C        C  138   3.407   2.475   2.429
    1C        C  139   3.268   2.502   2.431
    1C        C  140   3.480   2.473   2.550
    1C        C  141   3.409   2.494   2.670
    1C        C  142   3.622   2.491   2.792
    1C        C  143   3.481   2.492   2.791
    1C        C  144   3.693   2.502   2.914
    1C        C  145   3.623   2.495   3.036
    1C        C  146   3.832   2.539   3.156
    1C        C  147   3.695   2.506   3.157
    1C        C  148   3.895   2.569   3.279
    1C        C  149   3.828   2.546   3.401
    1C        C  150   4.022   2.631   3.521
    1C        C  151   3.896   2.568   3.523
    1C        C  152   4.079   2.670   3.644
    1C        C  153   4.021   2.637   3.769
    1C        C  154   4.190   2.770   3.887
    1C        C  155   4.079   2.682   3.890
    1C        C  156   4.241   2.818   4.009
    1C        C  157   4.191   2.770   4.132
    1C        C  158   4.339   2.926   4.251
    1C        C  159   4.246   2.819   4.252
    1C        C  160   4.377   2.987   4.373
    1C        C  161   4.329   2.935   4.495
    1C        C  162   4.445   3.113   4.615
    1C        C  163   4.371   2.992   4.617
    1C        C  164   4.475   3.181   4.735
    1C        C  165   4.438   3.122   4.858
    1C        C  166   4.519   3.320   4.969
    1C        C  167   4.483   3.186   4.974
    1C        C  168   3.474   2.437   2.069
    1C        C  169   3.402   2.452   2.188
    1C        C  170   3.619   2.465   2.307
    1C        C  171   3.477   2.459   2.307
    1C        C  172   3.691   2.485   2.427
    1C        C  173   3.621   2.482   2.549
    1C        C  174   3.827   2.543   2.665
    1C        C  175   3.692   2.501   2.669
    1C        C  176   3.892   2.567   2.788
    1C        C  177   3.829   2.541   2.911
    1C        C  178   4.023   2.625   3.029
    1C        C  179   3.897   2.562   3.033
    1C        C  180   4.078   2.670   3.152
    1C        C  181   4.021   2.633   3.276
    1C        C  182   4.192   2.758   3.398
    1C        C  183   4.081   2.670   3.398
    1C        C  184   4.242   2.807   3.520
    1C        C  185   4.186   2.762   3.641
    1C        C  186   4.331   2.921   3.764
    1C        C  187   4.235   2.817   3.762
    1C        C  188   4.375   2.978   3.885
    1C        C  189   4.336   2.923   4.009
    1C        C  190   4.452   3.104   4.126
    1C        C  191   4.381   2.982   4.129
    1C        C  192   4.479   3.170   4.248
    1C        C  193   4.447   3.110   4.372
    1C        C  194   4.512   3.313   4.490
    1C        C  195   4.475   3.177   4.493
    1C        C  196   4.530   3.386   4.610
    1C        C  197   4.519   3.316   4.733
    1C        C  198   4.558   3.534   4.849
    1C        C  199   4.542   3.392   4.851
    1C        C  200   4.583   3.619   4.962
    1C        C  201   3.613   2.417   2.071
    1C        C  202   3.824   2.511   2.184
    1C        C  203   3.690   2.460   2.184
    1C        C  204   3.898   2.538   2.303
    1C        C  205   3.828   2.518   2.424
    1C        C  206   4.021   2.621   2.542
    1C        C  207   3.897   2.552   2.543
    1C        C  208   4.082   2.660   2.664
    1C        C  209   4.022   2.624   2.787
    1C        C  210   4.196   2.749   2.908
    1C        C  211   4.085   2.661   2.907
    1C        C  212   4.248   2.796   3.031
    1C        C  213   4.192   2.754   3.153
    1C        C  214   4.333   2.913   3.274
    1C        C  215   4.243   2.804   3.274
    1C        C  216   4.373   2.972   3.396
    1C        C  217   4.331   2.917   3.519
    1C        C  218   4.438   3.101   3.639
    1C        C  219   4.373   2.976   3.640
    1C        C  220   4.468   3.167   3.760
    1C        C  221   4.445   3.101   3.883
    1C        C  222   4.514   3.305   4.002
    1C        C  223   4.481   3.168   4.003
    1C        C  224   4.520   3.376   4.124
    1C        C  225   4.516   3.306   4.247
    1C        C  226   4.525   3.521   4.365
    1C        C  227   4.525   3.380   4.367
    1C        C  228   4.525   3.596   4.485
    1C        C  229   4.537   3.527   4.607
    1C        C  230   4.503   3.741   4.725
    1C        C  231   4.538   3.603   4.726
    1C        C  232   4.491   3.817   4.843
    1C        C  233   4.541   3.753   4.957
    1C        C  234   4.017   2.608   2.064
    1C        C  235   3.896   2.539   2.068
    1C        C  236   4.084   2.645   2.181
    1C        C  237   4.023   2.607   2.302
    1C        C  238   4.199   2.736   2.420
    1C        C  239   4.086   2.650   2.421
    1C        C  240   4.256   2.782   2.541
    1C        C  241   4.197   2.741   2.663
    1C        C  242   4.336   2.904   2.786
    1C        C  243   4.247   2.794   2.784
    1C        C  244   4.376   2.965   2.907
    1C        C  245   4.336   2.907   3.029
    1C        C  246   4.433   3.096   3.148
    1C        C  247   4.375   2.967   3.150
    1C        C  248   4.458   3.162   3.271
    1C        C  249   4.437   3.098   3.395
    1C        C  250   4.508   3.301   3.511
    1C        C  251   4.464   3.166   3.516
    1C        C  252   4.514   3.369   3.635
    1C        C  253   4.502   3.304   3.759
    1C        C  254   4.531   3.515   3.877
    1C        C  255   4.527   3.374   3.879
    1C        C  256   4.526   3.586   3.999
    1C        C  257   4.524   3.517   4.122
    1C        C  258   4.494   3.730   4.239
    1C        C  259   4.521   3.592   4.242
    1C        C  260   4.474   3.800   4.360
    1C        C  261   4.494   3.734   4.484
    1C        C  262   4.427   3.939   4.601
    1C        C  263   4.474   3.806   4.603
    1C        C  264   4.395   4.006   4.721
    1C        C  265   4.432   3.945   4.843
    1C        C  266   4.316   4.129   4.957
    1C        C  267   4.394   4.014   4.958
    1C        C  268   4.263   2.778   2.063
    1C        C  269   4.196   2.732   2.178
    1C        C  270   4.346   2.888   2.302
    1C        C  271   4.252   2.781   2.297
    1C        C  272   4.385   2.954   2.421
    1C        C  273   4.344   2.892   2.541
    1C        C  274   4.444   3.082   2.661
    1C        C  275   4.379   2.956   2.662
    1C        C  276   4.473   3.153   2.780
    1C        C  277   4.447   3.088   2.902
    1C        C  278   4.507   3.290   3.023
    1C        C  279   4.468   3.155   3.025
    1C        C  280   4.512   3.364   3.144
    1C        C  281   4.502   3.296   3.267
    1C        C  282   4.523   3.509   3.390
    1C        C  283   4.519   3.368   3.388
    1C        C  284   4.518   3.580   3.512
    1C        C  285   4.519   3.510   3.635
    1C        C  286   4.491   3.724   3.752
    1C        C  287   4.522   3.586   3.755
    1C        C  288   4.472   3.789   3.876
    1C        C  289   4.496   3.724   3.999
    1C        C  290   4.421   3.929   4.116
    1C        C  291   4.479   3.800   4.117
    1C        C  292   4.391   3.996   4.237
    1C        C  293   4.426   3.933   4.358
    1C        C  294   4.325   4.124   4.478
    1C        C  295   4.394   4.001   4.478
    1C        C  296   4.284   4.189   4.596
    1C        C  297   4.325   4.130   4.718
    1C        C  298   4.203   4.313   4.839
    1C        C  299   4.285   4.196   4.838
    1C        C  300   4.173   4.399   4.949
    1C        C  301   4.350   2.886   2.063
    1C        C  302   4.474   3.065   2.178
    1C        C  303   4.396   2.945   2.182
    1C        C  304   4.486   3.140   2.298
    1C        C  305   4.454   3.077   2.419
    1C        C  306   4.513   3.283   2.536
    1C        C  307   4.481   3.145   2.540
    1C        C  308   4.520   3.357   2.656
    1C        C  309   4.505   3.290   2.779
    1C        C  310   4.525   3.501   2.899
    1C        C  311   4.520   3.360   2.901
    1C        C  312   4.517   3.572   3.021
    1C        C  313   4.518   3.505   3.145
    1C        C  314   4.491   3.717   3.262
    1C        C  315   4.514   3.577   3.267
    1C        C  316   4.469   3.784   3.385
    1C        C  317   4.489   3.718   3.508
    1C        C  318   4.424   3.923   3.629
    1C        C  319   4.473   3.790   3.629
    1C        C  320   4.391   3.984   3.752
    1C        C  321   4.418   3.920   3.875
    1C        C  322   4.309   4.108   3.992
    1C        C  323   4.387   3.990   3.993
    1C        C  324   4.270   4.167   4.114
    1C        C  325   4.318   4.117   4.237
    1C        C  326   4.183   4.284   4.354
    1C        C  327   4.278   4.180   4.357
    1C        C  328   4.135   4.339   4.475
    1C        C  329   4.192   4.296   4.597
    1C        C  330   4.024   4.432   4.715
    1C        C  331   4.140   4.350   4.717
    1C        C  332   3.970   4.488   4.833
    1C        C  333   4.052   4.470   4.945
    1C        C  334   4.550   3.265   2.062
    1C        C  335   4.530   3.126   2.061
    1C        C  336   4.539   3.349   2.173
    1C        C  337   4.514   3.280   2.294
    1C        C  338   4.522   3.495   2.413
    1C        C  339   4.520   3.354   2.414
    1C        C  340   4.520   3.570   2.533
    1C        C  341   4.526   3.498   2.655
    1C        C  342   4.490   3.709   2.774
    1C        C  343   4.520   3.571   2.776
    1C        C  344   4.480   3.780   2.896
    1C        C  345   4.498   3.712   3.018
    1C        C  346   4.420   3.913   3.138
    1C        C  347   4.472   3.781   3.138
    1C        C  348   4.384   3.975   3.260
    1C        C  349   4.416   3.915   3.383
    1C        C  350   4.313   4.100   3.505
    1C        C  351   4.389   3.980   3.505
    1C        C  352   4.270   4.158   3.625
    1C        C  353   4.313   4.102   3.747
    1C        C  354   4.174   4.266   3.866
    1C        C  355   4.267   4.160   3.868
    1C        C  356   4.123   4.319   3.987
    1C        C  357   4.171   4.268   4.110
    1C        C  358   4.010   4.405   4.231
    1C        C  359   4.126   4.325   4.231
    1C        C  360   3.952   4.450   4.352
    1C        C  361   4.019   4.419   4.472
    1C        C  362   3.828   4.515   4.595
    1C        C  363   3.957   4.457   4.594
    1C        C  364   3.763   4.547   4.716
    1C        C  365   3.839   4.541   4.834
    1C        C  366   3.628   4.591   4.951
    1C        C  367   3.765   4.569   4.950
    1C        C  368   4.504   3.564   2.053
    1C        C  369   4.522   3.489   2.170
    1C        C  370   4.501   3.704   2.286
    1C        C  371   4.520   3.564   2.289
    1C        C  372   4.482   3.776   2.406
    1C        C  373   4.491   3.708   2.529
    1C        C  374   4.417   3.907   2.649
    1C        C  375   4.468   3.775   2.651
    1C        C  376   4.390   3.970   2.772
    1C        C  377   4.426   3.910   2.895
    1C        C  378   4.314   4.092   3.014
    1C        C  379   4.397   3.978   3.015
    1C        C  380   4.265   4.148   3.134
    1C        C  381   4.305   4.092   3.258
    1C        C  382   4.167   4.251   3.378
    1C        C  383   4.267   4.151   3.381
    1C        C  384   4.117   4.305   3.498
    1C        C  385   4.168   4.257   3.621
    1C        C  386   4.006   4.393   3.743
    1C        C  387   4.117   4.306   3.743
    1C        C  388   3.946   4.435   3.864
    1C        C  389   4.006   4.399   3.986
    1C        C  390   3.819   4.498   4.108
    1C        C  391   3.944   4.432   4.109
    1C        C  392   3.752   4.519   4.231
    1C        C  393   3.821   4.503   4.353
    1C        C  394   3.616   4.554   4.474
    1C        C  395   3.756   4.534   4.475
    1C        C  396   3.547   4.568   4.597
    1C        C  397   3.623   4.566   4.716
    1C        C  398   3.410   4.552   4.840
    1C        C  399   3.549   4.576   4.836
    1C        C  400   3.341   4.521   4.957
    1C        C  401   4.507   3.703   2.050
    1C        C  402   4.447   3.913   2.165
    1C        C  403   4.492   3.779   2.167
    1C        C  404   4.406   3.975   2.285
    1C        C  405   4.434   3.909   2.407
    1C        C  406   4.319   4.092   2.523
    1C        C  407   4.399   3.975   2.526
    1C        C  408   4.271   4.144   2.646
    1C        C  409   4.310   4.086   2.769
    1C        C  410   4.169   4.246   2.889
    1C        C  411   4.264   4.141   2.891
    1C        C  412   4.117   4.296   3.010
    1C        C  413   4.168   4.250   3.133
    1C        C  414   4.001   4.380   3.253
    1C        C  415   4.114   4.296   3.255
    1C        C  416   3.943   4.418   3.376
    1C        C  417   4.003   4.388   3.500
    1C        C  418   3.813   4.484   3.621
    1C        C  419   3.942   4.426   3.622
    1C        C  420   3.746   4.510   3.743
    1C        C  421   3.815   4.488   3.864
    1C        C  422   3.610   4.541   3.988
    1C        C  423   3.749   4.513   3.986
    1C        C  424   3.540   4.550   4.111
    1C        C  425   3.613   4.544   4.232
    1C        C  426   3.402   4.548   4.356
    1C        C  427   3.543   4.556   4.354
    1C        C  428   3.334   4.543   4.480
    1C        C  429   3.407   4.555   4.600
    1C        C  430   3.195   4.517   4.724
    1C        C  431   3.334   4.547   4.721
    1C        C  432   3.125   4.494   4.845
    1C        C  433   3.204   4.495   4.961
    1C        C  434   4.384   4.121   2.052
    1C        C  435   4.443   3.993   2.050
    1C        C  436   4.300   4.161   2.160
    1C        C  437   4.332   4.096   2.282
    1C        C  438   4.183   4.254   2.403
    1C        C  439   4.281   4.152   2.401
    1C        C  440   4.128   4.298   2.525
    1C        C  441   4.175   4.247   2.648
    1C        C  442   4.002   4.377   2.764
    1C        C  443   4.117   4.295   2.767
    1C        C  444   3.944   4.417   2.886
    1C        C  445   4.002   4.378   3.010
    1C        C  446   3.811   4.475   3.130
    1C        C  447   3.940   4.418   3.131
    1C        C  448   3.746   4.498   3.253
    1C        C  449   3.813   4.474   3.376
    1C        C  450   3.608   4.530   3.497
    1C        C  451   3.747   4.502   3.497
    1C        C  452   3.539   4.540   3.620
    1C        C  453   3.608   4.538   3.743
    1C        C  454   3.398   4.551   3.864
    1C        C  455   3.540   4.550   3.866
    1C        C  456   3.331   4.540   3.988
    1C        C  457   3.399   4.548   4.112
    1C        C  458   3.193   4.505   4.236
    1C        C  459   3.331   4.535   4.235
    1C        C  460   3.129   4.482   4.360
    1C        C  461   3.197   4.510   4.481
    1C        C  462   2.999   4.431   4.603
    1C        C  463   3.128   4.489   4.603
    1C        C  464   2.933   4.396   4.723
    1C        C  465   2.991   4.443   4.844
    1C        C  466   2.806   4.335   4.960
    1C        C  467   2.906   4.433   4.959
    1C        C  468   4.125   4.291   2.041
    1C        C  469   4.190   4.252   2.159
    1C        C  470   4.009   4.373   2.279
    1C        C  471   4.129   4.296   2.280
    1C        C  472   3.942   4.404   2.400
    1C        C  473   4.006   4.369   2.521
    1C        C  474   3.810   4.462   2.644
    1C        C  475   3.939   4.405   2.640
    1C        C  476   3.745   4.494   2.765
    1C        C  477   3.814   4.473   2.887
    1C        C  478   3.606   4.524   3.009
    1C        C  479   3.744   4.497   3.007
    1C        C  480   3.537   4.534   3.132
    1C        C  481   3.609   4.530   3.254
    1C        C  482   3.396   4.542   3.376
    1C        C  483   3.537   4.538   3.375
    1C        C  484   3.326   4.539   3.499
    1C        C  485   3.398   4.550   3.620
    1C        C  486   3.191   4.507   3.745
    1C        C  487   3.327   4.545   3.742
    1C        C  488   3.129   4.474   3.867
    1C        C  489   3.197   4.493   3.989
    1C        C  490   3.005   4.413   4.117
    1C        C  491   3.132   4.474   4.113
    1C        C  492   2.942   4.379   4.239
    1C        C  493   3.002   4.420   4.360
    1C        C  494   2.829   4.299   4.481
    1C        C  495   2.939   4.388   4.483
    1C        C  496   2.776   4.252   4.603
    1C        C  497   2.820   4.309   4.724
    1C        C  498   2.669   4.161   4.847
    1C        C  499   2.757   4.272   4.845
    1C        C  500   2.595   4.112   4.955
    1C        C  501   4.000   4.351   2.039
    1C        C  502   3.816   4.463   2.158
    1C        C  503   3.943   4.401   2.157
    1C        C  504   3.744   4.477   2.279
    1C        C  505   3.810   4.452   2.401
    1C        C  506   3.604   4.512   2.520
    1C        C  507   3.742   4.480   2.522
    1C        C  508   3.536   4.522   2.643
    1C        C  509   3.606   4.521   2.766
    1C        C  510   3.394   4.528   2.886
    1C        C  511   3.535   4.533   2.887
    1C        C  512   3.322   4.524   3.008
    1C        C  513   3.396   4.539   3.128
    1C        C  514   3.193   4.492   3.253
    1C        C  515   3.328   4.533   3.252
    1C        C  516   3.129   4.470   3.377
    1C        C  517   3.191   4.501   3.500
    1C        C  518   3.003   4.408   3.625
    1C        C  519   3.125   4.479   3.623
    1C        C  520   2.945   4.369   3.748
    1C        C  521   3.005   4.406   3.871
    1C        C  522   2.841   4.279   3.997
    1C        C  523   2.946   4.373   3.995
    1C        C  524   2.792   4.230   4.121
    1C        C  525   2.833   4.289   4.243
    1C        C  526   2.694   4.129   4.364
    1C        C  527   2.773   4.246   4.363
    1C        C  528   2.652   4.073   4.487
    1C        C  529   2.687   4.142   4.606
    1C        C  530   2.581   3.961   4.731
    1C        C  531   2.639   4.091   4.728
    1C        C  532   2.539   3.899   4.852
    1C        C  533   2.521   3.993   4.957
    1C        C  534   3.619   4.554   2.040
    1C        C  535   3.752   4.509   2.043
    1C        C  536   3.538   4.540   2.157
    1C        C  537   3.606   4.513   2.279
    1C        C  538   3.391   4.521   2.400
    1C        C  539   3.532   4.522   2.399
    1C        C  540   3.322   4.515   2.523
    1C        C  541   3.395   4.515   2.643
    1C        C  542   3.184   4.491   2.763
    1C        C  543   3.323   4.511   2.765
    1C        C  544   3.118   4.467   2.886
    1C        C  545   3.186   4.486   3.008
    1C        C  546   2.998   4.399   3.134
    1C        C  547   3.123   4.465   3.133
    1C        C  548   2.946   4.360   3.259
    1C        C  549   3.006   4.400   3.381
    1C        C  550   2.838   4.273   3.503
    1C        C  551   2.945   4.366   3.503
    1C        C  552   2.786   4.226   3.626
    1C        C  553   2.836   4.280   3.746
    1C        C  554   2.709   4.120   3.873
    1C        C  555   2.794   4.233   3.872
    1C        C  556   2.664   4.064   3.994
    1C        C  557   2.704   4.120   4.118
    1C        C  558   2.597   3.941   4.246
    1C        C  559   2.663   4.066   4.242
    1C        C  560   2.563   3.879   4.368
    1C        C  561   2.590   3.946   4.489
    1C        C  562   2.533   3.747   4.615
    1C        C  563   2.566   3.884   4.614
    1C        C  564   2.517   3.678   4.737
    1C        C  565   2.519   3.757   4.855
    1C        C  566   2.532   3.548   4.976
    1C        C  567   2.519   3.686   4.976
    1C        C  568   3.330   4.467   2.046
    1C        C  569   3.399   4.511   2.160
    1C        C  570   3.182   4.478   2.280
    1C        C  571   3.320   4.512   2.278
    1C        C  572   3.114   4.461   2.403
    1C        C  573   3.183   4.491   2.523
    1C        C  574   2.987   4.403   2.647
    1C        C  575   3.112   4.469   2.643
    1C        C  576   2.929   4.365   2.770
    1C        C  577   2.994   4.400   2.891
    1C        C  578   2.827   4.270   3.016
    1C        C  579   2.935   4.361   3.013
    1C        C  580   2.779   4.219   3.139
    1C        C  581   2.835   4.272   3.258
    1C        C  582   2.696   4.116   3.386
    1C        C  583   2.784   4.226   3.381
    1C        C  584   2.657   4.056   3.508
    1C        C  585   2.698   4.115   3.629
    1C        C  586   2.598   3.933   3.756
    1C        C  587   2.663   4.059   3.754
    1C        C  588   2.577   3.868   3.880
    1C        C  589   2.604   3.936   4.001
    1C        C  590   2.536   3.738   4.128
    1C        C  591   2.572   3.875   4.124
    1C        C  592   2.520   3.669   4.250
    1C        C  593   2.526   3.743   4.370
    1C        C  594   2.515   3.533   4.497
    1C        C  595   2.525   3.674   4.494
    1C        C  596   2.512   3.463   4.619
    1C        C  597   2.516   3.536   4.740
    1C        C  598   2.528   3.325   4.860
    1C        C  599   2.527   3.466   4.862
    1C        C  600   2.529   3.249   4.979
    1C        C  601   3.194   4.441   2.042
    1C        C  602   2.985   4.391   2.157
    1C        C  603   3.116   4.449   2.158
    1C        C  604   2.924   4.360   2.282
    1C        C  605   2.988   4.398   2.402
    1C        C  606   2.824   4.266   2.529
    1C        C  607   2.930   4.359   2.525
    1C        C  608   2.773   4.216   2.650
    1C        C  609   2.822   4.273   2.770
    1C        C  610   2.690   4.110   2.896
    1C        C  611   2.778   4.220   2.893
    1C        C  612   2.654   4.050   3.018
    1C        C  613   2.695   4.106   3.142
    1C        C  614   2.591   3.927   3.265
    1C        C  615   2.657   4.052   3.266
    1C        C  616   2.564   3.866   3.389
    1C        C  617   2.591   3.931   3.512
    1C        C  618   2.529   3.730   3.638
    1C        C  619   2.568   3.866   3.635
    1C        C  620   2.513   3.666   3.763
    1C        C  621   2.531   3.735   3.885
    1C        C  622   2.511   3.525   4.008
    1C        C  623   2.518   3.666   4.007
    1C        C  624   2.514   3.456   4.131
    1C        C  625   2.509   3.528   4.253
    1C        C  626   2.539   3.321   4.378
    1C        C  627   2.515   3.460   4.376
    1C        C  628   2.561   3.253   4.500
    1C        C  629   2.535   3.323   4.620
    1C        C  630   2.597   3.118   4.747
    1C        C  631   2.552   3.253   4.741
    1C        C  632   2.613   3.046   4.869
    1C        C  633   2.559   3.113   4.983
    1C        C  634   2.787   4.299   2.054
    1C        C  635   2.894   4.389   2.046
    1C        C  636   2.750   4.228   2.169
    1C        C  637   2.812   4.273   2.288
    1C        C  638   2.674   4.112   2.407
    1C        C  639   2.764   4.220   2.409
    1C        C  640   2.639   4.049   2.529
    1C        C  641   2.684   4.106   2.651
    1C        C  642   2.582   3.924   2.777
    1C        C  643   2.648   4.049   2.775
    1C        C  644   2.560   3.857   2.899
    1C        C  645   2.592   3.923   3.019
    1C        C  646   2.523   3.725   3.149
    1C        C  647   2.564   3.860   3.143
    1C        C  648   2.512   3.658   3.272
    1C        C  649   2.528   3.729   3.393
    1C        C  650   2.509   3.519   3.519
    1C        C  651   2.519   3.659   3.516
    1C        C  652   2.512   3.451   3.643
    1C        C  653   2.506   3.525   3.763
    1C        C  654   2.535   3.315   3.889
    1C        C  655   2.511   3.454   3.886
    1C        C  656   2.553   3.248   4.012
    1C        C  657   2.535   3.317   4.135
    1C        C  658   2.604   3.117   4.259
    1C        C  659   2.554   3.249   4.257
    1C        C  660   2.639   3.056   4.382
    1C        C  661   2.608   3.120   4.503
    1C        C  662   2.710   2.936   4.626
    1C        C  663   2.633   3.054   4.626
    1C        C  664   2.746   2.874   4.747
    1C        C  665   2.695   2.928   4.868
    1C        C  666   2.748   2.873   4.985
    1C        C  667   2.673   4.024   2.051
    1C        C  668   2.685   4.102   2.166
    1C        C  669   2.589   3.912   2.291
    1C        C  670   2.646   4.042   2.288
    1C        C  671   2.561   3.847   2.413
    1C        C  672   2.579   3.921   2.532
    1C        C  673   2.520   3.720   2.660
    1C        C  674   2.558   3.856   2.655
    1C        C  675   2.513   3.649   2.782
    1C        C  676   2.527   3.720   2.903
    1C        C  677   2.506   3.512   3.029
    1C        C  678   2.515   3.653   3.027
    1C        C  679   2.510   3.443   3.152
    1C        C  680   2.510   3.517   3.273
    1C        C  681   2.536   3.310   3.399
    1C        C  682   2.511   3.449   3.396
    1C        C  683   2.554   3.243   3.522
    1C        C  684   2.534   3.311   3.644
    1C        C  685   2.607   3.114   3.770
    1C        C  686   2.553   3.244   3.767
    1C        C  687   2.640   3.053   3.894
    1C        C  688   2.610   3.119   4.015
    1C        C  689   2.714   2.934   4.139
    1C        C  690   2.638   3.054   4.137
    1C        C  691   2.756   2.876   4.261
    1C        C  692   2.713   2.935   4.382
    1C        C  693   2.755   2.879   4.504
    1C        C  694   2.626   3.892   2.057
    1C        C  695   2.525   3.703   2.175
    1C        C  696   2.575   3.835   2.174
    1C        C  697   2.505   3.638   2.299
    1C        C  698   2.525   3.711   2.419
    1C        C  699   2.487   3.505   2.542
    1C        C  700   2.501   3.645   2.541
    1C        C  701   2.506   3.436   2.664
    1C        C  702   2.507   3.507   2.786
    1C        C  703   2.527   3.298   2.911
    1C        C  704   2.510   3.438   2.909
    1C        C  705   2.547   3.230   3.033
    1C        C  706   2.532   3.303   3.153
    1C        C  707   2.600   3.107   3.279
    1C        C  708   2.550   3.239   3.277
    1C        C  709   2.635   3.047   3.402
    1C        C  710   2.608   3.113   3.524
    1C        C  711   2.719   2.936   3.647
    1C        C  712   2.636   3.050   3.648
    1C        C  713   2.762   2.882   3.771
    1C        C  714   2.718   2.935   3.894
    1C        C  715   2.762   2.882   4.017
    1C        C  716   2.453   3.495   2.064
    1C        C  717   2.489   3.630   2.061
    1C        C  718   2.460   3.421   2.187
    1C        C  719   2.481   3.498   2.304
    1C        C  720   2.506   3.287   2.426
    1C        C  721   2.478   3.425   2.426
    1C        C  722   2.533   3.221   2.548
    1C        C  723   2.534   3.298   2.666
    1C        C  724   2.590   3.095   2.789
    1C        C  725   2.542   3.228   2.789
    1C        C  726   2.625   3.034   2.911
    1C        C  727   2.597   3.098   3.034
    1C        C  728   2.709   2.922   3.156
    1C        C  729   2.633   3.041   3.158
    1C        C  730   2.756   2.871   3.279
    1C        C  731   2.721   2.934   3.401
    1C        C  732   2.763   2.881   3.525
    1C        C  733   2.486   3.196   2.077
    1C        C  734   2.490   3.281   2.188
    1C        C  735   2.583   3.084   2.304
    1C        C  736   2.521   3.212   2.308
    1C        C  737   2.603   3.015   2.426
    1C        C  738   2.576   3.086   2.545
    1C        C  739   2.701   2.914   2.669
    1C        C  740   2.619   3.029   2.667
    1C        C  741   2.741   2.855   2.790
    1C        C  742   2.703   2.916   2.912
    1C        C  743   2.751   2.864   3.034
    1C        C  744   2.548   3.072   2.069
    1C        C  745   2.684   2.897   2.186
    1C        C  746   2.608   3.016   2.182
    1C        C  747   2.735   2.843   2.306
    1C        C  748   2.686   2.901   2.425
    1C        C  749   2.736   2.852   2.547
    1C        C  750   2.737   2.843   2.068
    1C        C  751   3.648   2.284   2.015
    1C        O  752   3.652   2.180   2.087
    1C        O  753   3.622   2.251   1.882
    1C        C  754   4.623   3.054   1.971
    1C        O  755   4.630   3.081   1.848
    1C        O  756   4.734   2.983   2.018
    1C        C  757   4.447   4.229   1.973
    1C        O  758   4.545   4.293   2.019
    1C        O  759   4.416   4.267   1.841
    1C        C  760   3.584   4.655   1.937
    1C        O  761   3.598   4.775   1.972
    1C        O  762   3.589   4.620   1.801
    1C        C  763   2.883   4.485   1.934
    1C        O  764   2.913   4.457   1.815
    1C        O  765   2.835   4.613   1.962
    1C        C  766   2.358   3.458   1.957
    1C        O  767   2.398   3.410   1.847
    1C        O  768   2.221   3.485   1.967
    1C        C  769   4.709   3.596   5.035
    1C        O  770   4.709   3.571   5.158
    1C        O  771   4.832   3.590   4.968
    1C        C  772   4.281   4.460   5.029
    1C        O  773   4.285   4.446   5.154
    1C        O  774   4.407   4.500   4.981
    1C        C  775   4.142   2.535   5.083
    1C        O  776   4.257   2.485   5.075
    1C        O  777   4.103   2.532   5.218
    1C        C  778   2.873   4.555   5.038
    1C        O  779   2.798   4.638   4.980
    1C        O  780   2.929   4.599   5.158
    1C        C  781   2.484   3.047   5.093
    1C        O  782   2.394   2.967   5.057
    1C        O  783   2.495   3.063   5.230
    1C        C  784   2.394   4.002   5.033
    1C        O  785   2.278   3.982   4.988
    1C        O  786   2.405   3.982   5.171
    1C        C  787   2.942   2.422   2.015
    1C        O  788   2.944   2.418   1.889
    1C        O  789   2.896   2.302   2.067
    1C        C  790   3.184   2.367   5.057
    1C        O  791   3.140   2.266   4.996
    1C        O  792   3.134   2.361   5.188
    1C        H  793   4.285   3.021   5.061
    1C        H  794   4.173   2.805   5.066
    1C        H  795   4.497   3.132   5.066
    1C        H  796   4.559   3.360   5.060
    1C        H  797   4.515   3.797   5.052
    1C        H  798   4.457   4.006   5.044
    1C        H  799   4.245   4.133   5.037
    1C        H  800   4.025   4.514   5.040
    1C        H  801   3.815   4.592   5.042
    1C        H  802   3.584   4.596   5.049
    1C        H  803   3.389   4.516   5.053
    1C        H  804   3.160   4.542   5.045
    1C        H  805   3.873   2.535   5.075
    1C        H  806   3.680   2.452   5.067
    1C        H  807   3.034   2.607   5.071
    1C        H  808   3.437   2.431   5.063
    1C        H  809   2.845   2.711   5.076
    1C        H  810   2.746   2.930   5.076
    1C        H  811   2.475   3.291   5.061
    1C        H  812   2.490   3.497   5.061
    1C        H  813   2.474   3.739   5.058
    1C        H  814   2.591   4.171   5.044
    1C        H  815   2.814   4.271   5.046
    1C        H  816   2.712   2.890   1.975
    1C        H  817   2.810   2.666   1.986
    1C        H  818   3.197   2.381   2.026
    1C        H  819   3.425   2.447   1.974
    1C        H  820   3.842   2.525   1.977
    1C        H  821   4.064   2.618   1.968
    1C        H  822   4.219   2.755   1.969
    1C        H  823   4.346   2.948   1.975
    1C        H  824   4.573   3.309   1.967
    1C        H  825   4.443   3.516   1.980
    1C        H  826   4.548   3.758   1.968
    1C        H  827   3.786   4.489   1.943
    1C        H  828   3.934   4.335   1.956
    1C        H  829   4.160   4.247   1.950
    1C        H  830   4.504   3.968   1.966
    1C        H  831   2.644   3.826   1.975
    1C        H  832   2.680   4.067   1.953
    1C        H  833   2.714   4.301   1.975
    1C        H  834   3.384   4.410   1.973
    1C        H  835   3.153   4.460   1.946
    1C        H  836   2.538   3.011   1.981
    1C        H  837   2.399   3.211   2.016
    1C        H  838   2.469   3.684   1.970
    2V3OU   H29  839   2.801   3.550   2.022
    2V3OU   C27  840   2.785   3.502   2.122
    2V3OU   H27  841   2.726   3.564   2.194
    2V3OU   H28  842   2.735   3.405   2.096
    2V3OU   O11  843   2.912   3.480   2.183
    2V3OU   C15  844   2.927   3.393   2.289
    2V3OU   C13  845   3.054   3.376   2.347
    2V3OU   C14  846   3.079   3.271   2.436
    2V3OU   C16  847   2.978   3.185   2.479
    2V3OU    H6  848   2.991   3.105   2.553
    2V3OU   C12  849   3.215   3.226   2.475
    2V3OU    O2  850   3.236   3.128   2.549
    2V3OU   C10  851   3.330   3.309   2.437
    2V3OU    C8  852   3.458   3.267   2.469
    2V3OU   O10  853   3.488   3.146   2.524
    2V3OU   H26  854   3.402   3.119   2.560
    2V3OU    C6  855   3.568   3.347   2.426
    2V3OU    C5  856   3.535   3.468   2.366
    2V3OU    C4  857   3.706   3.292   2.436
    2V3OU    H4  858   3.720   3.235   2.533
    2V3OU    H5  859   3.714   3.223   2.347
    2V3OU    C2  860   3.816   3.398   2.426
    2V3OU    O6  861   3.806   3.467   2.551
    2V3OU   H21  862   3.771   3.555   2.528
    2V3OU    C3  863   3.786   3.494   2.311
    2V3OU    H2  864   3.858   3.580   2.307
    2V3OU    H3  865   3.784   3.439   2.213
    2V3OU   C25  866   3.951   3.326   2.419
    2V3OU    O7  867   3.997   3.296   2.310
    2V3OU   C26  868   4.029   3.287   2.544
    2V3OU   H22  869   4.061   3.384   2.591
    2V3OU   H23  870   4.122   3.232   2.515
    2V3OU    O8  871   3.964   3.205   2.638
    2V3OU   H24  872   3.925   3.269   2.700
    2V3OU    C1  873   3.649   3.558   2.331
    2V3OU    H1  874   3.625   3.614   2.236
    2V3OU    O3  875   3.654   3.653   2.437
    2V3OU   C19  876   3.617   3.791   2.436
    2V3OU    H9  877   3.523   3.804   2.373
    2V3OU    O4  878   3.713   3.851   2.352
    2V3OU   C20  879   3.844   3.874   2.405
    2V3OU   H10  880   3.895   3.773   2.416
    2V3OU   C24  881   3.611   3.853   2.576
    2V3OU   H16  882   3.542   3.795   2.642
    2V3OU   H17  883   3.571   3.957   2.561
    2V3OU   C23  884   3.751   3.875   2.636
    2V3OU   H15  885   3.794   3.770   2.653
    2V3OU    N1  886   3.739   3.948   2.760
    2V3OU   H19  887   3.813   3.927   2.825
    2V3OU   H20  888   3.649   3.931   2.799
    2V3OU   C21  889   3.845   3.950   2.538
    2V3OU   H11  890   3.949   3.926   2.573
    2V3OU    O5  891   3.826   4.090   2.554
    2V3OU   H18  892   3.788   4.104   2.642
    2V3OU   C22  893   3.915   3.946   2.292
    2V3OU   H12  894   3.863   4.043   2.273
    2V3OU   H13  895   3.909   3.886   2.197
    2V3OU   H14  896   4.025   3.952   2.312
    2V3OU   C11  897   3.164   3.472   2.328
    2V3OU    O1  898   3.139   3.589   2.293
    2V3OU    C9  899   3.300   3.427   2.364
    2V3OU    C7  900   3.404   3.512   2.327
    2V3OU    O9  901   3.390   3.627   2.252
    2V3OU   H25  902   3.294   3.638   2.244
    2V3OU   C17  903   2.821   3.316   2.340
    2V3OU    H7  904   2.720   3.347   2.314
    2V3OU   C18  905   2.851   3.214   2.430
    2V3OU    H8  906   2.774   3.158   2.486
    3SOL     OW  907   2.900   5.085   0.591
    3SOL    HW1  908   2.861   5.124   0.674
    3SOL    HW2  909   2.984   5.133   0.567
    4SOL     OW  910   6.646   6.345   1.845
    4SOL    HW1  911   6.592   6.428   1.829
    4SOL    HW2  912   6.731   6.370   1.892
    5SOL     OW  913   4.630   1.524   2.709
    5SOL    HW1  914   4.624   1.429   2.740
    5SOL    HW2  915   4.720   1.561   2.732
    6SOL     OW  916   3.997   0.855   0.674
    6SOL    HW1  917   4.016   0.810   0.587
    6SOL    HW2  918   4.007   0.789   0.749
    7SOL     OW  919   6.749   3.437   2.122
    7SOL    HW1  920   6.738   3.459   2.025
    7SOL    HW2  921   6.783   3.344   2.132
    8SOL     OW  922   2.785   0.253   6.983
    8SOL    HW1  923   2.706   0.243   0.020
    8SOL    HW2  924   2.869   0.239   0.012
    9SOL     OW  925   6.263   6.847   6.341
    9SOL    HW1  926   6.268   6.776   6.271
    9SOL    HW2  927   6.289   6.810   6.430
   10SOL     OW  928   1.869   5.127   6.493
   10SOL    HW1  929   1.854   5.167   6.402
   10SOL    HW2  930   1.949   5.067   6.490
   11SOL     OW  931   2.866   0.301   6.210
   11SOL    HW1  932   2.944   0.265   6.261
   11SOL    HW2  933   2.835   0.233   6.143
   12SOL     OW  934   4.050   6.127   3.281
   12SOL    HW1  935   4.094   6.112   3.369
   12SOL    HW2  936   4.060   6.223   3.255
   13SOL     OW  937   4.261   5.767   3.981
   13SOL    HW1  938   4.233   5.788   4.075
   13SOL    HW2  939   4.329   5.835   3.952
   14SOL     OW  940   3.705   5.758   5.958
   14SOL    HW1  941   3.650   5.841   5.942
   14SOL    HW2  942   3.783   5.758   5.896
   15SOL     OW  943   1.779   6.555   1.479
   15SOL    HW1  944   1.800   6.549   1.382
   15SOL    HW2  945   1.819   6.477   1.528
   16SOL     OW  946   5.257   2.814   5.731
   16SOL    HW1  947   5.225   2.722   5.753
   16SOL    HW2  948   5.185   2.880   5.750
   17SOL     OW  949   5.274   5.508   5.714
   17SOL    HW1  950   5.294   5.445   5.639
   17SOL    HW2  951   5.356   5.562   5.735
   18SOL     OW  952   3.296   0.728   6.069
   18SOL    HW1  953   3.376   0.670   6.059
   18SOL    HW2  954   3.237   0.692   6.142
   19SOL     OW  955   0.594   0.293   3.392
   19SOL    HW1  956   0.664   0.304   3.463
   19SOL    HW2  957   0.638   0.289   3.303
   20SOL     OW  958   5.493   2.436   5.021
   20SOL    HW1  959   5.564   2.367   5.038
   20SOL    HW2  960   5.534   2.516   4.979
   21SOL     OW  961   3.859   2.118   2.573
   21SOL    HW1  962   3.948   2.074   2.559
   21SOL    HW2  963   3.796   2.088   2.502
   22SOL     OW  964   1.714   6.173   0.604
   22SOL    HW1  965   1.761   6.259   0.624
   22SOL    HW2  966   1.617   6.190   0.590
   23SOL     OW  967   5.497   6.290   3.119
   23SOL    HW1  968   5.513   6.238   3.036
   23SOL    HW2  969   5.579   6.287   3.177
   24SOL     OW  970   4.589   1.449   3.197
   24SOL    HW1  971   4.582   1.349   3.195
   24SOL    HW2  972   4.511   1.489   3.148
   25SOL     OW  973   3.156   0.342   5.129
   25SOL    HW1  974   3.207   0.262   5.096
   25SOL    HW2  975   3.059   0.329   5.111
   26SOL     OW  976   6.455   0.902   0.151
   26SOL    HW1  977   6.500   0.947   0.073
   26SOL    HW2  978   6.476   0.953   0.234
   27SOL     OW  979   0.957   2.232   2.107
   27SOL    HW1  980   1.005   2.229   2.195
   27SOL    HW2  981   0.965   2.143   2.062
   28SOL     OW  982   3.162   1.979   5.747
   28SOL    HW1  983   3.192   2.019   5.660
   28SOL    HW2  984   3.089   1.913   5.729
   29SOL     OW  985   4.686   2.195   1.882
   29SOL    HW1  986   4.713   2.143   1.963
   29SOL    HW2  987   4.650   2.133   1.812
   30SOL     OW  988   3.798   1.067   4.611
   30SOL    HW1  989   3.746   1.152   4.614
   30SOL    HW2  990   3.817   1.037   4.705
   31SOL     OW  991   1.432   2.523   6.399
   31SOL    HW1  992   1.485   2.541   6.316
   31SOL    HW2  993   1.453   2.431   6.433
   32SOL     OW  994   0.457   1.447   2.592
   32SOL    HW1  995   0.460   1.471   2.495
   32SOL    HW2  996   0.442   1.348   2.601
   33SOL     OW  997   2.229   4.519   6.605
   33SOL    HW1  998   2.157   4.552   6.666
   33SOL    HW2  999   2.268   4.434   6.642
   34SOL     OW 1000   2.854   0.796   4.282
   34SOL    HW1 1001   2.936   0.848   4.257
   34SOL    HW2 1002   2.849   0.788   4.382
   35SOL     OW 1003   3.019   3.816   0.149
   35SOL    HW1 1004   3.067   3.900   0.177
   35SOL    HW2 1005   2.945   3.840   0.087
   36SOL     OW 1006   6.080   1.026   4.668
   36SOL    HW1 1007   6.053   0.939   4.708
   36SOL    HW2 1008   6.175   1.020   4.636
   37SOL     OW 1009   0.729   1.437   0.635
   37SOL    HW1 1010   0.651   1.433   0.572
   37SOL    HW2 1011   0.798   1.371   0.607
   38SOL     OW 1012   6.881   4.310   2.727
   38SOL    HW1 1013   6.830   4.287   2.645
   38SOL    HW2 1014   6.976   4.332   2.703
   39SOL     OW 1015   0.054   4.953   0.006
   39SOL    HW1 1016   0.065   5.046   0.039
   39SOL    HW2 1017   0.121   4.893   0.051
   40SOL     OW 1018   5.525   1.629   0.794
   40SOL    HW1 1019   5.531   1.699   0.722
   40SOL    HW2 1020   5.515   1.539   0.752
   41SOL     OW 1021   6.900   6.006   3.865
   41SOL    HW1 1022   6.810   5.985   3.904
   41SOL    HW2 1023   6.956   6.052   3.934
   42SOL     OW 1024   2.906   5.195   5.327
   42SOL    HW1 1025   2.969   5.247   5.269
   42SOL    HW2 1026   2.843   5.143   5.270
   43SOL     OW 1027   6.073   6.247   5.332
   43SOL    HW1 1028   6.006   6.176   5.309
   43SOL    HW2 1029   6.026   6.326   5.371
   44SOL     OW 1030   4.950   1.804   6.329
   44SOL    HW1 1031   4.966   1.788   6.426
   44SOL    HW2 1032   4.865   1.759   6.302
   45SOL     OW 1033   4.393   6.099   3.047
   45SOL    HW1 1034   4.406   6.144   3.135
   45SOL    HW2 1035   4.314   6.138   3.000
   46SOL     OW 1036   0.753   2.932   3.199
   46SOL    HW1 1037   0.801   2.876   3.132
   46SOL    HW2 1038   0.788   2.912   3.290
   47SOL     OW 1039   4.712   4.422   0.689
   47SOL    HW1 1040   4.750   4.514   0.702
   47SOL    HW2 1041   4.787   4.356   0.682
   48SOL     OW 1042   6.921   2.948   5.581
   48SOL    HW1 1043   7.017   2.940   5.606
   48SOL    HW2 1044   6.868   2.977   5.661
   49SOL     OW 1045   5.495   4.041   1.622
   49SOL    HW1 1046   5.481   3.942   1.618
   49SOL    HW2 1047   5.593   4.061   1.612
   50SOL     OW 1048   5.443   0.760   4.668
   50SOL    HW1 1049   5.401   0.673   4.693
   50SOL    HW2 1050   5.518   0.781   4.730
   51SOL     OW 1051   2.659   6.771   3.355
   51SOL    HW1 1052   2.683   6.867   3.367
   51SOL    HW2 1053   2.569   6.765   3.312
   52SOL     OW 1054   5.860   2.201   3.340
   52SOL    HW1 1055   5.922   2.241   3.407
   52SOL    HW2 1056   5.904   2.122   3.297
   53SOL     OW 1057   3.559   6.541   4.527
   53SOL    HW1 1058   3.611   6.601   4.466
   53SOL    HW2 1059   3.514   6.469   4.474
   54SOL     OW 1060   3.571   5.351   0.996
   54SOL    HW1 1061   3.641   5.357   1.068
   54SOL    HW2 1062   3.527   5.262   0.999
   55SOL     OW 1063   2.968   2.542   6.515
   55SOL    HW1 1064   2.876   2.510   6.496
   55SOL    HW2 1065   3.024   2.467   6.549
   56SOL     OW 1066   0.101   6.848   0.983
   56SOL    HW1 1067   0.151   6.851   0.897
   56SOL    HW2 1068   0.131   6.923   1.042
   57SOL     OW 1069   5.143   1.210   0.806
   57SOL    HW1 1070   5.198   1.135   0.769
   57SOL    HW2 1071   5.203   1.283   0.839
   58SOL     OW 1072   6.536   6.462   5.649
   58SOL    HW1 1073   6.619   6.408   5.664
   58SOL    HW2 1074   6.499   6.441   5.559
   59SOL     OW 1075   1.162   1.706   5.077
   59SOL    HW1 1076   1.152   1.742   5.169
   59SOL    HW2 1077   1.222   1.626   5.078
   60SOL     OW 1078   5.145   2.210   5.773
   60SOL    HW1 1079   5.229   2.260   5.793
   60SOL    HW2 1080   5.167   2.120   5.736
   61SOL     OW 1081   5.690   2.235   5.080
   61SOL    HW1 1082   5.709   2.238   5.178
   61SOL    HW2 1083   5.776   2.230   5.030
   62SOL     OW 1084   0.853   1.244   1.580
   62SOL    HW1 1085   0.821   1.182   1.508
   62SOL    HW2 1086   0.826   1.207   1.669
   63SOL     OW 1087   4.998   1.312   3.300
   63SOL    HW1 1088   5.020   1.329   3.396
   63SOL    HW2 1089   5.077   1.269   3.255
   64SOL     OW 1090   6.957   3.492   5.204
   64SOL    HW1 1091   7.001   3.494   5.115
   64SOL    HW2 1092   7.003   3.556   5.266
   65SOL     OW 1093   0.458   5.350   6.653
   65SOL    HW1 1094   0.509   5.274   6.613
   65SOL    HW2 1095   0.508   5.435   6.636
   66SOL     OW 1096   3.958   1.212   5.459
   66SOL    HW1 1097   4.005   1.225   5.546
   66SOL    HW2 1098   3.860   1.225   5.472
   67SOL     OW 1099   5.188   4.080   5.889
   67SOL    HW1 1100   5.117   4.149   5.902
   67SOL    HW2 1101   5.274   4.115   5.927
   68SOL     OW 1102   5.735   1.072   6.595
   68SOL    HW1 1103   5.699   0.979   6.593
   68SOL    HW2 1104   5.802   1.080   6.669
   69SOL     OW 1105   0.612   3.399   5.841
   69SOL    HW1 1106   0.655   3.468   5.900
   69SOL    HW2 1107   0.521   3.431   5.814
   70SOL     OW 1108   5.317   3.751   4.897
   70SOL    HW1 1109   5.396   3.711   4.850
   70SOL    HW2 1110   5.238   3.751   4.837
   71SOL     OW 1111   4.423   1.858   3.210
   71SOL    HW1 1112   4.490   1.790   3.241
   71SOL    HW2 1113   4.452   1.949   3.239
   72SOL     OW 1114   1.847   6.239   4.276
   72SOL    HW1 1115   1.892   6.155   4.244
   72SOL    HW2 1116   1.819   6.294   4.197
   73SOL     OW 1117   3.531   0.873   1.426
   73SOL    HW1 1118   3.621   0.888   1.386
   73SOL    HW2 1119   3.518   0.935   1.504
   74SOL     OW 1120   4.927   6.876   6.965
   74SOL    HW1 1121   4.851   6.939   6.982
   74SOL    HW2 1122   4.919   6.797   0.002
   75SOL     OW 1123   4.283   0.606   0.986
   75SOL    HW1 1124   4.280   0.701   0.957
   75SOL    HW2 1125   4.338   0.553   0.921
   76SOL     OW 1126   3.494   3.199   0.904
   76SOL    HW1 1127   3.506   3.223   1.001
   76SOL    HW2 1128   3.504   3.101   0.893
   77SOL     OW 1129   6.823   0.011   3.156
   77SOL    HW1 1130   6.769   6.989   3.226
   77SOL    HW2 1131   6.857   6.967   3.090
   78SOL     OW 1132   5.845   1.946   0.186
   78SOL    HW1 1133   5.801   1.966   0.274
   78SOL    HW2 1134   5.912   2.018   0.166
   79SOL     OW 1135   3.407   6.228   0.897
   79SOL    HW1 1136   3.438   6.205   0.805
   79SOL    HW2 1137   3.351   6.311   0.894
   80SOL     OW 1138   5.273   0.968   4.686
   80SOL    HW1 1139   5.323   0.882   4.687
   80SOL    HW2 1140   5.290   1.017   4.601
   81SOL     OW 1141   1.902   0.042   2.604
   81SOL    HW1 1142   1.904   0.128   2.655
   81SOL    HW2 1143   1.847   6.998   2.654
   82SOL     OW 1144   5.984   4.746   1.114
   82SOL    HW1 1145   5.910   4.762   1.178
   82SOL    HW2 1146   6.050   4.682   1.153
   83SOL     OW 1147   0.672   0.631   6.900
   83SOL    HW1 1148   0.650   0.680   6.984
   83SOL    HW2 1149   0.703   0.539   6.921
   84SOL     OW 1150   5.992   2.593   3.505
   84SOL    HW1 1151   6.023   2.641   3.423
   84SOL    HW2 1152   6.022   2.498   3.501
   85SOL     OW 1153   1.587   0.883   4.110
   85SOL    HW1 1154   1.594   0.791   4.071
   85SOL    HW2 1155   1.592   0.950   4.036
   86SOL     OW 1156   6.838   1.151   5.008
   86SOL    HW1 1157   6.769   1.212   5.047
   86SOL    HW2 1158   6.795   1.063   4.986
   87SOL     OW 1159   4.650   3.566   0.734
   87SOL    HW1 1160   4.674   3.569   0.637
   87SOL    HW2 1161   4.732   3.556   0.789
   88SOL     OW 1162   3.320   1.677   5.372
   88SOL    HW1 1163   3.339   1.647   5.278
   88SOL    HW2 1164   3.406   1.699   5.418
   89SOL     OW 1165   1.240   2.605   5.929
   89SOL    HW1 1166   1.309   2.641   5.991
   89SOL    HW2 1167   1.271   2.518   5.891
   90SOL     OW 1168   3.723   4.901   2.159
   90SOL    HW1 1169   3.707   4.990   2.118
   90SOL    HW2 1170   3.673   4.831   2.108
   91SOL     OW 1171   5.368   4.334   5.445
   91SOL    HW1 1172   5.354   4.351   5.543
   91SOL    HW2 1173   5.351   4.238   5.425
   92SOL     OW 1174   4.004   4.839   0.592
   92SOL    HW1 1175   3.925   4.779   0.581
   92SOL    HW2 1176   4.012   4.899   0.512
   93SOL     OW 1177   3.129   4.287   6.896
   93SOL    HW1 1178   3.089   4.215   6.952
   93SOL    HW2 1179   3.066   4.310   6.822
   94SOL     OW 1180   2.066   5.853   6.731
   94SOL    HW1 1181   2.091   5.801   6.813
   94SOL    HW2 1182   1.969   5.876   6.734
   95SOL     OW 1183   1.339   0.385   3.905
   95SOL    HW1 1184   1.314   0.301   3.856
   95SOL    HW2 1185   1.348   0.365   4.002
   96SOL     OW 1186   3.352   0.394   5.355
   96SOL    HW1 1187   3.285   0.395   5.429
   96SOL    HW2 1188   3.325   0.459   5.284
   97SOL     OW 1189   1.995   3.438   5.871
   97SOL    HW1 1190   2.017   3.356   5.817
   97SOL    HW2 1191   1.919   3.486   5.828
   98SOL     OW 1192   0.008   3.813   1.026
   98SOL    HW1 1193   0.031   3.827   1.122
   98SOL    HW2 1194   7.007   3.718   1.010
   99SOL     OW 1195   3.731   2.777   1.018
   99SOL    HW1 1196   3.778   2.866   1.016
   99SOL    HW2 1197   3.672   2.773   1.099
  100SOL     OW 1198   6.805   0.097   4.868
  100SOL    HW1 1199   6.743   0.145   4.929
  100SOL    HW2 1200   6.806   7.023   4.891
  101SOL     OW 1201   1.369   4.902   1.973
  101SOL    HW1 1202   1.398   4.833   1.907
  101SOL    HW2 1203   1.381   4.866   2.066
  102SOL     OW 1204   4.106   5.804   2.471
  102SOL    HW1 1205   4.098   5.730   2.539
  102SOL    HW2 1206   4.156   5.770   2.392
  103SOL     OW 1207   2.304   1.788   1.775
  103SOL    HW1 1208   2.305   1.826   1.868
  103SOL    HW2 1209   2.247   1.705   1.773
  104SOL     OW 1210   0.713   5.363   2.770
  104SOL    HW1 1211   0.629   5.353   2.716
  104SOL    HW2 1212   0.745   5.458   2.764
  105SOL     OW 1213   6.546   2.389   6.280
  105SOL    HW1 1214   6.452   2.358   6.293
  105SOL    HW2 1215   6.551   2.448   6.200
  106SOL     OW 1216   3.517   6.261   5.044
  106SOL    HW1 1217   3.597   6.287   5.097
  106SOL    HW2 1218   3.486   6.339   4.989
  107SOL     OW 1219   1.831   1.629   1.734
  107SOL    HW1 1220   1.873   1.717   1.756
  107SOL    HW2 1221   1.733   1.632   1.753
  108SOL     OW 1222   2.750   5.882   5.679
  108SOL    HW1 1223   2.708   5.973   5.681
  108SOL    HW2 1224   2.700   5.821   5.741
  109SOL     OW 1225   0.041   0.010   1.713
  109SOL    HW1 1226   6.978   6.988   1.736
  109SOL    HW2 1227   0.087   6.984   1.639
  110SOL     OW 1228   3.609   6.031   4.537
  110SOL    HW1 1229   3.536   6.034   4.469
  110SOL    HW2 1230   3.692   6.073   4.499
  111SOL     OW 1231   2.049   0.765   4.404
  111SOL    HW1 1232   2.011   0.677   4.433
  111SOL    HW2 1233   2.127   0.788   4.461
  112SOL     OW 1234   3.358   6.459   6.492
  112SOL    HW1 1235   3.337   6.544   6.541
  112SOL    HW2 1236   3.455   6.459   6.466
  113SOL     OW 1237   0.173   5.675   3.604
  113SOL    HW1 1238   0.255   5.623   3.629
  113SOL    HW2 1239   0.184   5.770   3.635
  114SOL     OW 1240   0.872   0.135   1.837
  114SOL    HW1 1241   0.893   0.093   1.749
  114SOL    HW2 1242   0.796   0.085   1.880
  115SOL     OW 1243   4.236   1.817   2.994
  115SOL    HW1 1244   4.300   1.832   3.070
  115SOL    HW2 1245   4.267   1.869   2.914
  116SOL     OW 1246   5.926   5.522   1.586
  116SOL    HW1 1247   5.980   5.443   1.612
  116SOL    HW2 1248   5.913   5.581   1.666
  117SOL     OW 1249   1.969   2.284   0.507
  117SOL    HW1 1250   1.883   2.298   0.556
  117SOL    HW2 1251   1.952   2.288   0.408
  118SOL     OW 1252   1.734   0.816   2.508
  118SOL    HW1 1253   1.793   0.786   2.433
  118SOL    HW2 1254   1.680   0.738   2.541
  119SOL     OW 1255   0.403   0.367   6.894
  119SOL    HW1 1256   0.386   0.271   6.874
  119SOL    HW2 1257   0.361   0.424   6.823
  120SOL     OW 1258   5.694   6.676   6.983
  120SOL    HW1 1259   5.741   6.745   0.015
  120SOL    HW2 1260   5.612   6.716   6.942
  121SOL     OW 1261   0.996   3.675   6.092
  121SOL    HW1 1262   0.979   3.774   6.098
  121SOL    HW2 1263   1.019   3.651   5.998
  122SOL     OW 1264   1.877   3.552   5.627
  122SOL    HW1 1265   1.793   3.506   5.658
  122SOL    HW2 1266   1.889   3.536   5.529
  123SOL     OW 1267   0.914   1.214   2.888
  123SOL    HW1 1268   0.988   1.272   2.855
  123SOL    HW2 1269   0.939   1.118   2.877
  124SOL     OW 1270   3.812   3.002   0.404
  124SOL    HW1 1271   3.717   3.006   0.434
  124SOL    HW2 1272   3.825   2.925   0.341
  125SOL     OW 1273   3.059   1.794   0.513
  125SOL    HW1 1274   3.064   1.821   0.609
  125SOL    HW2 1275   3.085   1.871   0.455
  126SOL     OW 1276   1.886   4.378   0.915
  126SOL    HW1 1277   1.893   4.457   0.855
  126SOL    HW2 1278   1.894   4.408   1.010
  127SOL     OW 1279   0.773   5.465   0.304
  127SOL    HW1 1280   0.871   5.446   0.301
  127SOL    HW2 1281   0.738   5.475   0.211
  128SOL     OW 1282   5.333   2.460   1.231
  128SOL    HW1 1283   5.315   2.421   1.322
  128SOL    HW2 1284   5.267   2.423   1.166
  129SOL     OW 1285   2.027   3.155   6.351
  129SOL    HW1 1286   1.947   3.110   6.391
  129SOL    HW2 1287   2.004   3.191   6.261
  130SOL     OW 1288   1.204   2.123   4.576
  130SOL    HW1 1289   1.284   2.123   4.515
  130SOL    HW2 1290   1.232   2.091   4.666
  131SOL     OW 1291   5.264   1.251   3.209
  131SOL    HW1 1292   5.362   1.237   3.195
  131SOL    HW2 1293   5.249   1.342   3.248
  132SOL     OW 1294   2.847   3.062   1.222
  132SOL    HW1 1295   2.747   3.053   1.221
  132SOL    HW2 1296   2.879   3.069   1.316
  133SOL     OW 1297   5.091   0.177   4.378
  133SOL    HW1 1298   5.048   0.264   4.352
  133SOL    HW2 1299   5.122   0.129   4.296
  134SOL     OW 1300   6.538   0.504   2.553
  134SOL    HW1 1301   6.480   0.573   2.510
  134SOL    HW2 1302   6.597   0.548   2.621
  135SOL     OW 1303   5.393   3.437   3.569
  135SOL    HW1 1304   5.368   3.520   3.520
  135SOL    HW2 1305   5.483   3.449   3.612
  136SOL     OW 1306   2.824   4.386   5.847
  136SOL    HW1 1307   2.899   4.360   5.908
  136SOL    HW2 1308   2.832   4.336   5.761
  137SOL     OW 1309   5.719   2.228   3.577
  137SOL    HW1 1310   5.749   2.228   3.481
  137SOL    HW2 1311   5.783   2.175   3.632
  138SOL     OW 1312   1.020   4.328   2.267
  138SOL    HW1 1313   1.099   4.288   2.221
  138SOL    HW2 1314   1.011   4.289   2.359
  139SOL     OW 1315   1.724   0.059   4.992
  139SOL    HW1 1316   1.758   6.990   5.012
  139SOL    HW2 1317   1.707   0.068   4.894
  140SOL     OW 1318   1.415   6.328   3.064
  140SOL    HW1 1319   1.490   6.274   3.024
  140SOL    HW2 1320   1.435   6.345   3.161
  141SOL     OW 1321   0.380   2.551   5.300
  141SOL    HW1 1322   0.399   2.634   5.353
  141SOL    HW2 1323   0.460   2.490   5.302
  142SOL     OW 1324   1.178   3.509   1.200
  142SOL    HW1 1325   1.134   3.459   1.125
  142SOL    HW2 1326   1.225   3.444   1.259
  143SOL     OW 1327   5.915   4.446   0.532
  143SOL    HW1 1328   5.865   4.486   0.456
  143SOL    HW2 1329   5.979   4.377   0.498
  144SOL     OW 1330   1.545   5.017   5.856
  144SOL    HW1 1331   1.574   5.072   5.778
  144SOL    HW2 1332   1.594   4.930   5.855
  145SOL     OW 1333   6.876   5.514   0.293
  145SOL    HW1 1334   6.797   5.464   0.259
  145SOL    HW2 1335   6.847   5.604   0.325
  146SOL     OW 1336   4.866   0.281   6.131
  146SOL    HW1 1337   4.769   0.261   6.117
  146SOL    HW2 1338   4.920   0.199   6.113
  147SOL     OW 1339   5.530   3.679   6.849
  147SOL    HW1 1340   5.476   3.611   6.800
  147SOL    HW2 1341   5.627   3.660   6.838
  148SOL     OW 1342   6.686   5.687   6.905
  148SOL    HW1 1343   6.658   5.591   6.912
  148SOL    HW2 1344   6.611   5.740   6.865
  149SOL     OW 1345   3.489   2.029   4.019
  149SOL    HW1 1346   3.465   1.934   4.040
  149SOL    HW2 1347   3.439   2.059   3.938
  150SOL     OW 1348   5.902   6.726   0.918
  150SOL    HW1 1349   5.886   6.738   0.820
  150SOL    HW2 1350   5.992   6.761   0.943
  151SOL     OW 1351   2.991   2.874   1.068
  151SOL    HW1 1352   2.949   2.926   1.142
  151SOL    HW2 1353   2.974   2.922   0.981
  152SOL     OW 1354   0.790   1.073   1.811
  152SOL    HW1 1355   0.787   1.017   1.893
  152SOL    HW2 1356   0.701   1.118   1.799
  153SOL     OW 1357   2.769   1.142   2.749
  153SOL    HW1 1358   2.851   1.199   2.745
  153SOL    HW2 1359   2.733   1.142   2.843
  154SOL     OW 1360   0.209   2.632   2.032
  154SOL    HW1 1361   0.202   2.667   1.939
  154SOL    HW2 1362   0.227   2.534   2.030
  155SOL     OW 1363   0.457   1.393   3.744
  155SOL    HW1 1364   0.506   1.338   3.812
  155SOL    HW2 1365   0.366   1.416   3.780
  156SOL     OW 1366   6.719   1.610   0.673
  156SOL    HW1 1367   6.763   1.579   0.757
  156SOL    HW2 1368   6.622   1.584   0.675
  157SOL     OW 1369   5.290   3.605   1.993
  157SOL    HW1 1370   5.382   3.629   1.964
  157SOL    HW2 1371   5.279   3.624   2.091
  158SOL     OW 1372   2.185   4.673   2.647
  158SOL    HW1 1373   2.171   4.702   2.552
  158SOL    HW2 1374   2.259   4.605   2.651
  159SOL     OW 1375   4.792   4.331   2.288
  159SOL    HW1 1376   4.800   4.263   2.360
  159SOL    HW2 1377   4.695   4.348   2.268
  160SOL     OW 1378   5.283   5.592   1.069
  160SOL    HW1 1379   5.192   5.575   1.105
  160SOL    HW2 1380   5.350   5.590   1.144
  161SOL     OW 1381   1.904   6.066   3.963
  161SOL    HW1 1382   1.965   6.039   4.037
  161SOL    HW2 1383   1.958   6.093   3.883
  162SOL     OW 1384   3.709   6.043   0.335
  162SOL    HW1 1385   3.773   6.093   0.277
  162SOL    HW2 1386   3.746   6.036   0.428
  163SOL     OW 1387   5.893   5.417   0.570
  163SOL    HW1 1388   5.810   5.399   0.623
  163SOL    HW2 1389   5.938   5.499   0.605
  164SOL     OW 1390   0.082   4.371   1.638
  164SOL    HW1 1391   7.021   4.339   1.594
  164SOL    HW2 1392   0.059   4.444   1.702
  165SOL     OW 1393   4.992   3.265   1.462
  165SOL    HW1 1394   4.998   3.205   1.541
  165SOL    HW2 1395   4.920   3.232   1.400
  166SOL     OW 1396   0.528   3.846   2.599
  166SOL    HW1 1397   0.606   3.878   2.545
  166SOL    HW2 1398   0.498   3.757   2.564
  167SOL     OW 1399   5.223   2.978   7.000
  167SOL    HW1 1400   5.284   3.019   0.044
  167SOL    HW2 1401   5.169   2.906   0.020
  168SOL     OW 1402   2.964   3.394   1.430
  168SOL    HW1 1403   2.899   3.435   1.366
  168SOL    HW2 1404   3.041   3.356   1.379
  169SOL     OW 1405   5.168   1.851   1.798
  169SOL    HW1 1406   5.071   1.826   1.797
  169SOL    HW2 1407   5.220   1.784   1.744
  170SOL     OW 1408   1.011   0.736   2.500
  170SOL    HW1 1409   1.029   0.796   2.579
  170SOL    HW2 1410   0.918   0.700   2.507
  171SOL     OW 1411   3.148   4.905   6.445
  171SOL    HW1 1412   3.241   4.938   6.427
  171SOL    HW2 1413   3.133   4.902   6.544
  172SOL     OW 1414   6.584   1.277   3.067
  172SOL    HW1 1415   6.548   1.360   3.024
  172SOL    HW2 1416   6.670   1.251   3.023
  173SOL     OW 1417   5.580   1.425   4.245
  173SOL    HW1 1418   5.539   1.516   4.252
  173SOL    HW2 1419   5.679   1.434   4.234
  174SOL     OW 1420   3.801   4.855   3.488
  174SOL    HW1 1421   3.876   4.792   3.466
  174SOL    HW2 1422   3.801   4.873   3.587
  175SOL     OW 1423   3.137   0.231   1.754
  175SOL    HW1 1424   3.236   0.244   1.757
  175SOL    HW2 1425   3.092   0.320   1.742
  176SOL     OW 1426   0.588   4.432   0.714
  176SOL    HW1 1427   0.686   4.415   0.714
  176SOL    HW2 1428   0.568   4.510   0.774
  177SOL     OW 1429   5.228   2.718   2.655
  177SOL    HW1 1430   5.299   2.735   2.586
  177SOL    HW2 1431   5.138   2.719   2.611
  178SOL     OW 1432   2.339   2.751   6.463
  178SOL    HW1 1433   2.269   2.688   6.497
  178SOL    HW2 1434   2.295   2.830   6.420
  179SOL     OW 1435   3.723   1.479   5.568
  179SOL    HW1 1436   3.709   1.411   5.640
  179SOL    HW2 1437   3.696   1.440   5.480
  180SOL     OW 1438   2.072   6.784   0.020
  180SOL    HW1 1439   2.122   6.832   0.093
  180SOL    HW2 1440   2.013   6.714   0.061
  181SOL     OW 1441   3.049   3.314   6.100
  181SOL    HW1 1442   3.146   3.310   6.078
  181SOL    HW2 1443   3.032   3.390   6.163
  182SOL     OW 1444   3.600   1.857   5.716
  182SOL    HW1 1445   3.529   1.848   5.785
  182SOL    HW2 1446   3.606   1.953   5.687
  183SOL     OW 1447   4.166   2.239   3.573
  183SOL    HW1 1448   4.222   2.206   3.496
  183SOL    HW2 1449   4.173   2.175   3.649
  184SOL     OW 1450   1.280   6.354   4.547
  184SOL    HW1 1451   1.346   6.413   4.503
  184SOL    HW2 1452   1.248   6.396   4.632
  185SOL     OW 1453   0.783   1.114   6.197
  185SOL    HW1 1454   0.805   1.049   6.270
  185SOL    HW2 1455   0.865   1.166   6.173
  186SOL     OW 1456   5.718   0.354   4.066
  186SOL    HW1 1457   5.802   0.300   4.071
  186SOL    HW2 1458   5.706   0.405   4.151
  187SOL     OW 1459   4.681   0.183   2.347
  187SOL    HW1 1460   4.774   0.173   2.382
  187SOL    HW2 1461   4.665   0.279   2.321
  188SOL     OW 1462   0.946   1.933   3.583
  188SOL    HW1 1463   0.971   1.956   3.677
  188SOL    HW2 1464   0.902   2.011   3.539
  189SOL     OW 1465   2.279   5.218   1.638
  189SOL    HW1 1466   2.369   5.251   1.666
  189SOL    HW2 1467   2.219   5.215   1.718
  190SOL     OW 1468   5.016   2.369   4.889
  190SOL    HW1 1469   4.994   2.273   4.905
  190SOL    HW2 1470   5.098   2.394   4.940
  191SOL     OW 1471   5.894   0.381   0.064
  191SOL    HW1 1472   5.796   0.361   0.065
  191SOL    HW2 1473   5.945   0.298   0.041
  192SOL     OW 1474   1.536   5.535   1.628
  192SOL    HW1 1475   1.549   5.543   1.529
  192SOL    HW2 1476   1.439   5.535   1.649
  193SOL     OW 1477   4.376   3.682   5.541
  193SOL    HW1 1478   4.431   3.757   5.578
  193SOL    HW2 1479   4.423   3.643   5.462
  194SOL     OW 1480   4.115   0.756   3.110
  194SOL    HW1 1481   4.201   0.719   3.074
  194SOL    HW2 1482   4.040   0.728   3.051
  195SOL     OW 1483   1.943   0.399   5.274
  195SOL    HW1 1484   1.921   0.496   5.284
  195SOL    HW2 1485   1.881   0.358   5.207
  196SOL     OW 1486   2.556   0.590   0.859
  196SOL    HW1 1487   2.533   0.670   0.915
  196SOL    HW2 1488   2.648   0.601   0.822
  197SOL     OW 1489   2.779   0.252   1.572
  197SOL    HW1 1490   2.744   0.271   1.480
  197SOL    HW2 1491   2.853   0.186   1.567
  198SOL     OW 1492   4.880   0.733   1.451
  198SOL    HW1 1493   4.806   0.772   1.506
  198SOL    HW2 1494   4.864   0.635   1.439
  199SOL     OW 1495   6.991   1.376   3.851
  199SOL    HW1 1496   6.954   1.407   3.938
  199SOL    HW2 1497   6.982   1.448   3.783
  200SOL     OW 1498   0.976   4.175   1.781
  200SOL    HW1 1499   0.945   4.104   1.845
  200SOL    HW2 1500   1.070   4.201   1.804
  201SOL     OW 1501   6.655   6.961   5.673
  201SOL    HW1 1502   6.694   6.991   5.587
  201SOL    HW2 1503   6.594   0.009   5.709
  202SOL     OW 1504   4.724   1.413   6.595
  202SOL    HW1 1505   4.769   1.325   6.581
  202SOL    HW2 1506   4.627   1.404   6.573
  203SOL     OW 1507   5.303   2.134   5.222
  203SOL    HW1 1508   5.395   2.096   5.224
  203SOL    HW2 1509   5.238   2.064   5.192
  204SOL     OW 1510   0.418   0.443   5.344
  204SOL    HW1 1511   0.403   0.517   5.409
  204SOL    HW2 1512   0.344   0.443   5.277
  205SOL     OW 1513   0.792   1.526   2.489
  205SOL    HW1 1514   0.884   1.527   2.527
  205SOL    HW2 1515   0.757   1.432   2.490
  206SOL     OW 1516   0.409   4.324   0.994
  206SOL    HW1 1517   0.412   4.416   0.953
  206SOL    HW2 1518   0.314   4.296   1.006
  207SOL     OW 1519   6.112   1.636   3.402
  207SOL    HW1 1520   6.192   1.589   3.442
  207SOL    HW2 1521   6.047   1.659   3.474
  208SOL     OW 1522   6.069   3.227   4.734
  208SOL    HW1 1523   6.081   3.326   4.746
  208SOL    HW2 1524   6.135   3.194   4.666
  209SOL     OW 1525   0.683   4.610   3.639
  209SOL    HW1 1526   0.658   4.684   3.576
  209SOL    HW2 1527   0.772   4.630   3.681
  210SOL     OW 1528   4.074   2.208   0.736
  210SOL    HW1 1529   4.010   2.218   0.660
  210SOL    HW2 1530   4.055   2.277   0.805
  211SOL     OW 1531   2.219   6.240   2.789
  211SOL    HW1 1532   2.199   6.287   2.703
  211SOL    HW2 1533   2.150   6.264   2.857
  212SOL     OW 1534   1.349   3.770   1.851
  212SOL    HW1 1535   1.330   3.835   1.778
  212SOL    HW2 1536   1.445   3.775   1.877
  213SOL     OW 1537   3.073   0.751   0.522
  213SOL    HW1 1538   3.045   0.738   0.427
  213SOL    HW2 1539   3.054   0.846   0.548
  214SOL     OW 1540   4.515   4.667   1.636
  214SOL    HW1 1541   4.494   4.586   1.691
  214SOL    HW2 1542   4.443   4.735   1.648
  215SOL     OW 1543   2.444   4.093   0.932
  215SOL    HW1 1544   2.348   4.118   0.916
  215SOL    HW2 1545   2.468   4.015   0.875
  216SOL     OW 1546   2.046   6.033   4.201
  216SOL    HW1 1547   2.001   5.987   4.278
  216SOL    HW2 1548   2.141   6.054   4.226
  217SOL     OW 1549   0.753   2.075   4.043
  217SOL    HW1 1550   0.694   1.995   4.049
  217SOL    HW2 1551   0.756   2.121   4.132
  218SOL     OW 1552   0.021   3.634   4.356
  218SOL    HW1 1553   0.063   3.554   4.400
  218SOL    HW2 1554   6.948   3.639   4.383
  219SOL     OW 1555   4.367   0.017   6.388
  219SOL    HW1 1556   4.402   0.094   6.334
  219SOL    HW2 1557   4.327   0.052   6.473
  220SOL     OW 1558   2.921   6.927   1.389
  220SOL    HW1 1559   2.941   6.976   1.474
  220SOL    HW2 1560   2.887   6.992   1.321
  221SOL     OW 1561   7.003   3.484   0.783
  221SOL    HW1 1562   0.055   3.471   0.719
  221SOL    HW2 1563   7.010   3.416   0.856
  222SOL     OW 1564   1.713   5.020   5.574
  222SOL    HW1 1565   1.761   5.101   5.540
  222SOL    HW2 1566   1.774   4.970   5.635
  223SOL     OW 1567   5.999   3.222   6.702
  223SOL    HW1 1568   5.908   3.224   6.661
  223SOL    HW2 1569   6.064   3.266   6.639
  224SOL     OW 1570   1.867   1.112   4.302
  224SOL    HW1 1571   1.919   1.162   4.232
  224SOL    HW2 1572   1.836   1.177   4.372
  225SOL     OW 1573   4.239   3.698   6.492
  225SOL    HW1 1574   4.209   3.634   6.422
  225SOL    HW2 1575   4.313   3.754   6.456
  226SOL     OW 1576   2.186   1.625   5.757
  226SOL    HW1 1577   2.261   1.633   5.691
  226SOL    HW2 1578   2.183   1.532   5.792
  227SOL     OW 1579   1.815   3.669   2.299
  227SOL    HW1 1580   1.801   3.601   2.371
  227SOL    HW2 1581   1.813   3.761   2.338
  228SOL     OW 1582   3.104   6.586   3.725
  228SOL    HW1 1583   3.138   6.647   3.797
  228SOL    HW2 1584   3.128   6.491   3.747
  229SOL     OW 1585   5.999   6.166   6.924
  229SOL    HW1 1586   5.917   6.186   6.870
  229SOL    HW2 1587   5.979   6.182   7.021
  230SOL     OW 1588   3.302   5.140   3.637
  230SOL    HW1 1589   3.375   5.079   3.607
  230SOL    HW2 1590   3.321   5.170   3.731
  231SOL     OW 1591   6.331   2.231   5.964
  231SOL    HW1 1592   6.341   2.328   5.940
  231SOL    HW2 1593   6.421   2.188   5.967
  232SOL     OW 1594   0.729   3.347   6.717
  232SOL    HW1 1595   0.663   3.325   6.789
  232SOL    HW2 1596   0.696   3.311   6.630
  233SOL     OW 1597   3.084   1.793   2.745
  233SOL    HW1 1598   3.180   1.808   2.719
  233SOL    HW2 1599   3.078   1.713   2.804
  234SOL     OW 1600   5.277   0.388   5.366
  234SOL    HW1 1601   5.303   0.355   5.456
  234SOL    HW2 1602   5.235   0.314   5.313
  235SOL     OW 1603   3.409   2.419   1.482
  235SOL    HW1 1604   3.447   2.335   1.521
  235SOL    HW2 1605   3.478   2.491   1.482
  236SOL     OW 1606   5.150   3.338   6.340
  236SOL    HW1 1607   5.121   3.278   6.265
  236SOL    HW2 1608   5.196   3.418   6.302
  237SOL     OW 1609   6.033   4.473   1.559
  237SOL    HW1 1610   6.077   4.459   1.648
  237SOL    HW2 1611   6.085   4.425   1.488
  238SOL     OW 1612   4.864   2.283   0.461
  238SOL    HW1 1613   4.850   2.358   0.396
  238SOL    HW2 1614   4.952   2.240   0.443
  239SOL     OW 1615   0.765   5.368   0.031
  239SOL    HW1 1616   0.814   5.383   6.969
  239SOL    HW2 1617   0.821   5.313   0.093
  240SOL     OW 1618   0.030   2.467   3.448
  240SOL    HW1 1619   0.092   2.435   3.377
  240SOL    HW2 1620   0.007   2.392   3.509
  241SOL     OW 1621   2.534   1.525   5.215
  241SOL    HW1 1622   2.509   1.573   5.131
  241SOL    HW2 1623   2.613   1.570   5.257
  242SOL     OW 1624   3.433   3.598   4.212
  242SOL    HW1 1625   3.485   3.557   4.138
  242SOL    HW2 1626   3.496   3.627   4.284
  243SOL     OW 1627   3.918   0.695   5.854
  243SOL    HW1 1628   3.936   0.618   5.915
  243SOL    HW2 1629   3.952   0.779   5.897
  244SOL     OW 1630   6.242   2.730   4.923
  244SOL    HW1 1631   6.160   2.674   4.923
  244SOL    HW2 1632   6.251   2.777   5.011
  245SOL     OW 1633   5.751   3.761   3.972
  245SOL    HW1 1634   5.800   3.675   3.968
  245SOL    HW2 1635   5.750   3.795   4.066
  246SOL     OW 1636   4.603   2.618   3.658
  246SOL    HW1 1637   4.574   2.571   3.741
  246SOL    HW2 1638   4.577   2.563   3.578
  247SOL     OW 1639   2.946   1.878   1.766
  247SOL    HW1 1640   3.022   1.893   1.702
  247SOL    HW2 1641   2.921   1.965   1.809
  248SOL     OW 1642   3.580   1.391   2.495
  248SOL    HW1 1643   3.671   1.430   2.507
  248SOL    HW2 1644   3.569   1.313   2.557
  249SOL     OW 1645   4.245   0.485   4.903
  249SOL    HW1 1646   4.186   0.511   4.827
  249SOL    HW2 1647   4.191   0.441   4.974
  250SOL     OW 1648   4.789   2.825   1.028
  250SOL    HW1 1649   4.840   2.783   0.953
  250SOL    HW2 1650   4.848   2.887   1.079
  251SOL     OW 1651   4.381   4.220   5.869
  251SOL    HW1 1652   4.443   4.269   5.807
  251SOL    HW2 1653   4.290   4.261   5.864
  252SOL     OW 1654   6.411   6.023   0.129
  252SOL    HW1 1655   6.339   5.955   0.112
  252SOL    HW2 1656   6.369   6.109   0.160
  253SOL     OW 1657   2.427   5.810   6.560
  253SOL    HW1 1658   2.415   5.888   6.499
  253SOL    HW2 1659   2.500   5.830   6.626
  254SOL     OW 1660   5.674   3.022   3.670
  254SOL    HW1 1661   5.653   3.120   3.667
  254SOL    HW2 1662   5.589   2.970   3.662
  255SOL     OW 1663   1.552   3.481   4.866
  255SOL    HW1 1664   1.586   3.470   4.772
  255SOL    HW2 1665   1.465   3.530   4.865
  256SOL     OW 1666   6.575   3.687   6.139
  256SOL    HW1 1667   6.558   3.654   6.232
  256SOL    HW2 1668   6.599   3.784   6.141
  257SOL     OW 1669   4.649   6.983   3.305
  257SOL    HW1 1670   4.701   0.029   3.354
  257SOL    HW2 1671   4.554   6.984   3.335
  258SOL     OW 1672   2.133   5.175   5.139
  258SOL    HW1 1673   2.176   5.085   5.146
  258SOL    HW2 1674   2.062   5.183   5.209
  259SOL     OW 1675   0.650   2.053   1.874
  259SOL    HW1 1676   0.695   2.065   1.786
  259SOL    HW2 1677   0.697   1.983   1.928
  260SOL     OW 1678   4.616   1.040   0.643
  260SOL    HW1 1679   4.643   0.958   0.593
  260SOL    HW2 1680   4.676   1.116   0.616
  261SOL     OW 1681   6.617   3.310   0.811
  261SOL    HW1 1682   6.518   3.325   0.809
  261SOL    HW2 1683   6.638   3.221   0.773
  262SOL     OW 1684   0.018   3.859   0.628
  262SOL    HW1 1685   6.954   3.868   0.580
  262SOL    HW2 1686   0.006   3.881   0.725
  263SOL     OW 1687   1.518   0.825   3.301
  263SOL    HW1 1688   1.421   0.846   3.288
  263SOL    HW2 1689   1.571   0.910   3.295
  264SOL     OW 1690   5.737   3.169   6.637
  264SOL    HW1 1691   5.667   3.166   6.566
  264SOL    HW2 1692   5.739   3.082   6.685
  265SOL     OW 1693   5.266   5.899   2.459
  265SOL    HW1 1694   5.169   5.896   2.437
  265SOL    HW2 1695   5.316   5.839   2.396
  266SOL     OW 1696   3.222   2.901   5.313
  266SOL    HW1 1697   3.279   2.853   5.247
  266SOL    HW2 1698   3.277   2.970   5.360
  267SOL     OW 1699   0.580   1.408   6.677
  267SOL    HW1 1700   0.561   1.472   6.751
  267SOL    HW2 1701   0.677   1.416   6.651
  268SOL     OW 1702   3.594   0.842   5.842
  268SOL    HW1 1703   3.693   0.858   5.834
  268SOL    HW2 1704   3.547   0.889   5.767
  269SOL     OW 1705   1.097   3.499   2.015
  269SOL    HW1 1706   1.074   3.491   1.918
  269SOL    HW2 1707   1.197   3.508   2.025
  270SOL     OW 1708   0.614   0.278   0.472
  270SOL    HW1 1709   0.607   0.229   0.385
  270SOL    HW2 1710   0.708   0.307   0.486
  271SOL     OW 1711   1.013   1.407   6.913
  271SOL    HW1 1712   1.039   1.326   6.861
  271SOL    HW2 1713   0.978   1.477   6.851
  272SOL     OW 1714   3.230   5.351   4.449
  272SOL    HW1 1715   3.327   5.370   4.465
  272SOL    HW2 1716   3.220   5.296   4.366
  273SOL     OW 1717   2.094   4.357   4.633
  273SOL    HW1 1718   2.159   4.282   4.649
  273SOL    HW2 1719   2.144   4.442   4.616
  274SOL     OW 1720   4.544   1.984   3.492
  274SOL    HW1 1721   4.465   2.023   3.444
  274SOL    HW2 1722   4.540   2.009   3.589
  275SOL     OW 1723   5.834   4.375   5.416
  275SOL    HW1 1724   5.748   4.426   5.411
  275SOL    HW2 1725   5.877   4.374   5.326
  276SOL     OW 1726   0.408   6.481   2.411
  276SOL    HW1 1727   0.488   6.486   2.351
  276SOL    HW2 1728   0.331   6.442   2.360
  277SOL     OW 1729   1.093   4.177   0.867
  277SOL    HW1 1730   1.191   4.163   0.882
  277SOL    HW2 1731   1.075   4.179   0.768
  278SOL     OW 1732   5.875   4.939   2.180
  278SOL    HW1 1733   5.844   5.008   2.114
  278SOL    HW2 1734   5.853   4.969   2.272
  279SOL     OW 1735   6.694   2.919   4.339
  279SOL    HW1 1736   6.668   2.893   4.247
  279SOL    HW2 1737   6.751   3.002   4.336
  280SOL     OW 1738   2.852   7.000   2.952
  280SOL    HW1 1739   2.889   0.028   2.874
  280SOL    HW2 1740   2.888   0.015   3.037
  281SOL     OW 1741   2.561   4.523   2.326
  281SOL    HW1 1742   2.636   4.457   2.332
  281SOL    HW2 1743   2.540   4.542   2.230
  282SOL     OW 1744   3.089   1.844   5.346
  282SOL    HW1 1745   3.169   1.785   5.359
  282SOL    HW2 1746   3.119   1.940   5.342
  283SOL     OW 1747   6.395   1.735   6.486
  283SOL    HW1 1748   6.365   1.828   6.503
  283SOL    HW2 1749   6.495   1.732   6.484
  284SOL     OW 1750   1.484   3.906   4.079
  284SOL    HW1 1751   1.565   3.938   4.031
  284SOL    HW2 1752   1.504   3.901   4.177
  285SOL     OW 1753   5.965   4.590   5.645
  285SOL    HW1 1754   5.867   4.584   5.622
  285SOL    HW2 1755   5.975   4.632   5.736
  286SOL     OW 1756   3.974   5.970   5.390
  286SOL    HW1 1757   3.919   6.008   5.465
  286SOL    HW2 1758   3.919   5.903   5.339
  287SOL     OW 1759   0.277   4.700   6.803
  287SOL    HW1 1760   0.203   4.758   6.836
  287SOL    HW2 1761   0.362   4.752   6.803
  288SOL     OW 1762   3.708   1.929   6.192
  288SOL    HW1 1763   3.670   1.844   6.231
  288SOL    HW2 1764   3.799   1.910   6.155
  289SOL     OW 1765   0.167   4.393   4.878
  289SOL    HW1 1766   0.150   4.374   4.975
  289SOL    HW2 1767   0.165   4.307   4.827
  290SOL     OW 1768   6.060   1.889   4.357
  290SOL    HW1 1769   6.103   1.842   4.280
  290SOL    HW2 1770   6.034   1.982   4.330
  291SOL     OW 1771   1.549   2.242   4.549
  291SOL    HW1 1772   1.558   2.317   4.483
  291SOL    HW2 1773   1.535   2.157   4.499
  292SOL     OW 1774   1.335   1.731   3.136
  292SOL    HW1 1775   1.425   1.772   3.119
  292SOL    HW2 1776   1.274   1.800   3.175
  293SOL     OW 1777   4.324   4.844   1.682
  293SOL    HW1 1778   4.343   4.852   1.780
  293SOL    HW2 1779   4.229   4.819   1.668
  294SOL     OW 1780   6.913   5.494   6.440
  294SOL    HW1 1781   7.000   5.504   6.392
  294SOL    HW2 1782   6.929   5.461   6.533
  295SOL     OW 1783   3.261   1.848   4.456
  295SOL    HW1 1784   3.279   1.750   4.441
  295SOL    HW2 1785   3.347   1.898   4.463
  296SOL     OW 1786   4.483   1.734   2.796
  296SOL    HW1 1787   4.551   1.787   2.848
  296SOL    HW2 1788   4.515   1.640   2.786
  297SOL     OW 1789   1.991   4.601   2.798
  297SOL    HW1 1790   1.988   4.503   2.819
  297SOL    HW2 1791   2.070   4.621   2.741
  298SOL     OW 1792   3.908   6.292   0.779
  298SOL    HW1 1793   3.831   6.355   0.790
  298SOL    HW2 1794   3.990   6.333   0.820
  299SOL     OW 1795   4.443   4.066   6.554
  299SOL    HW1 1796   4.403   4.022   6.635
  299SOL    HW2 1797   4.539   4.089   6.573
  300SOL     OW 1798   6.049   1.106   1.691
  300SOL    HW1 1799   6.112   1.088   1.767
  300SOL    HW2 1800   6.100   1.101   1.605
  301SOL     OW 1801   5.029   3.550   1.760
  301SOL    HW1 1802   5.024   3.455   1.793
  301SOL    HW2 1803   5.093   3.555   1.684
  302SOL     OW 1804   0.900   0.448   3.445
  302SOL    HW1 1805   0.984   0.402   3.416
  302SOL    HW2 1806   0.851   0.390   3.510
  303SOL     OW 1807   6.284   6.879   1.325
  303SOL    HW1 1808   6.293   6.919   1.233
  303SOL    HW2 1809   6.219   6.803   1.322
  304SOL     OW 1810   2.719   0.305   4.254
  304SOL    HW1 1811   2.704   0.229   4.316
  304SOL    HW2 1812   2.645   0.371   4.264
  305SOL     OW 1813   0.530   3.000   0.146
  305SOL    HW1 1814   0.471   2.925   0.175
  305SOL    HW2 1815   0.535   3.003   0.046
  306SOL     OW 1816   2.394   0.563   3.600
  306SOL    HW1 1817   2.409   0.614   3.515
  306SOL    HW2 1818   2.297   0.561   3.621
  307SOL     OW 1819   5.351   6.784   0.543
  307SOL    HW1 1820   5.265   6.779   0.593
  307SOL    HW2 1821   5.420   6.829   0.599
  308SOL     OW 1822   5.693   3.333   5.150
  308SOL    HW1 1823   5.701   3.394   5.070
  308SOL    HW2 1824   5.665   3.387   5.229
  309SOL     OW 1825   3.300   5.398   6.936
  309SOL    HW1 1826   3.253   5.352   6.860
  309SOL    HW2 1827   3.232   5.446   6.991
  310SOL     OW 1828   6.133   7.016   4.898
  310SOL    HW1 1829   6.164   0.017   4.989
  310SOL    HW2 1830   6.155   6.921   4.879
  311SOL     OW 1831   5.491   4.395   2.212
  311SOL    HW1 1832   5.566   4.329   2.213
  311SOL    HW2 1833   5.513   4.470   2.151
  312SOL     OW 1834   4.194   1.695   5.569
  312SOL    HW1 1835   4.196   1.743   5.482
  312SOL    HW2 1836   4.109   1.641   5.576
  313SOL     OW 1837   3.336   4.144   1.822
  313SOL    HW1 1838   3.300   4.100   1.905
  313SOL    HW2 1839   3.428   4.110   1.804
  314SOL     OW 1840   3.634   5.374   6.661
  314SOL    HW1 1841   3.595   5.395   6.751
  314SOL    HW2 1842   3.729   5.343   6.672
  315SOL     OW 1843   1.529   2.700   3.529
  315SOL    HW1 1844   1.494   2.708   3.436
  315SOL    HW2 1845   1.625   2.671   3.526
  316SOL     OW 1846   3.146   1.321   3.604
  316SOL    HW1 1847   3.095   1.403   3.629
  316SOL    HW2 1848   3.239   1.327   3.638
  317SOL     OW 1849   0.581   0.633   0.756
  317SOL    HW1 1850   0.484   0.627   0.734
  317SOL    HW2 1851   0.600   0.722   0.797
  318SOL     OW 1852   1.089   6.281   6.895
  318SOL    HW1 1853   1.021   6.346   6.863
  318SOL    HW2 1854   1.055   6.188   6.880
  319SOL     OW 1855   0.031   0.432   3.735
  319SOL    HW1 1856   0.038   0.456   3.832
  319SOL    HW2 1857   0.095   0.488   3.682
  320SOL     OW 1858   5.897   2.173   0.397
  320SOL    HW1 1859   5.965   2.155   0.327
  320SOL    HW2 1860   5.826   2.233   0.360
  321SOL     OW 1861   3.996   1.347   0.578
  321SOL    HW1 1862   4.089   1.384   0.573
  321SOL    HW2 1863   4.000   1.248   0.588
  322SOL     OW 1864   3.650   3.979   4.400
  322SOL    HW1 1865   3.642   3.962   4.302
  322SOL    HW2 1866   3.564   3.958   4.445
  323SOL     OW 1867   0.973   3.213   6.679
  323SOL    HW1 1868   0.892   3.268   6.702
  323SOL    HW2 1869   0.980   3.136   6.741
  324SOL     OW 1870   2.603   1.972   4.375
  324SOL    HW1 1871   2.686   1.921   4.353
  324SOL    HW2 1872   2.526   1.908   4.382
  325SOL     OW 1873   1.168   2.861   1.730
  325SOL    HW1 1874   1.079   2.885   1.691
  325SOL    HW2 1875   1.237   2.860   1.657
  326SOL     OW 1876   1.046   5.068   0.186
  326SOL    HW1 1877   1.054   5.069   0.086
  326SOL    HW2 1878   0.963   5.116   0.213
  327SOL     OW 1879   1.333   5.432   3.354
  327SOL    HW1 1880   1.289   5.362   3.410
  327SOL    HW2 1881   1.428   5.407   3.337
  328SOL     OW 1882   1.401   5.989   1.637
  328SOL    HW1 1883   1.339   6.066   1.622
  328SOL    HW2 1884   1.420   5.981   1.735
  329SOL     OW 1885   3.958   3.980   4.407
  329SOL    HW1 1886   3.866   4.010   4.434
  329SOL    HW2 1887   4.015   3.970   4.488
  330SOL     OW 1888   2.931   0.333   1.171
  330SOL    HW1 1889   2.983   0.405   1.215
  330SOL    HW2 1890   2.885   0.370   1.090
  331SOL     OW 1891   3.651   5.652   0.459
  331SOL    HW1 1892   3.681   5.580   0.522
  331SOL    HW2 1893   3.554   5.670   0.473
  332SOL     OW 1894   3.046   1.616   4.352
  332SOL    HW1 1895   3.046   1.699   4.296
  332SOL    HW2 1896   3.053   1.536   4.293
  333SOL     OW 1897   3.611   6.530   6.420
  333SOL    HW1 1898   3.595   6.600   6.489
  333SOL    HW2 1899   3.687   6.559   6.361
  334SOL     OW 1900   2.730   0.532   1.673
  334SOL    HW1 1901   2.775   0.444   1.658
  334SOL    HW2 1902   2.741   0.589   1.591
  335SOL     OW 1903   3.649   6.812   4.384
  335SOL    HW1 1904   3.627   6.907   4.405
  335SOL    HW2 1905   3.748   6.798   4.389
  336SOL     OW 1906   2.129   0.683   3.979
  336SOL    HW1 1907   2.208   0.728   3.939
  336SOL    HW2 1908   2.079   0.747   4.038
  337SOL     OW 1909   0.086   3.146   0.021
  337SOL    HW1 1910   0.012   3.192   0.070
  337SOL    HW2 1911   0.171   3.156   0.072
  338SOL     OW 1912   3.128   2.839   1.448
  338SOL    HW1 1913   3.109   2.766   1.513
  338SOL    HW2 1914   3.061   2.912   1.459
  339SOL     OW 1915   3.048   6.657   4.816
  339SOL    HW1 1916   3.023   6.661   4.913
  339SOL    HW2 1917   3.026   6.567   4.780
  340SOL     OW 1918   4.937   4.222   5.995
  340SOL    HW1 1919   4.975   4.192   6.082
  340SOL    HW2 1920   4.838   4.210   5.995
  341SOL     OW 1921   6.891   0.774   4.286
  341SOL    HW1 1922   6.804   0.755   4.242
  341SOL    HW2 1923   6.913   0.871   4.275
  342SOL     OW 1924   6.003   3.858   0.125
  342SOL    HW1 1925   5.976   3.935   0.067
  342SOL    HW2 1926   5.932   3.841   0.194
  343SOL     OW 1927   1.830   5.513   0.724
  343SOL    HW1 1928   1.827   5.445   0.797
  343SOL    HW2 1929   1.884   5.591   0.754
  344SOL     OW 1930   1.068   5.102   2.164
  344SOL    HW1 1931   1.025   5.028   2.112
  344SOL    HW2 1932   1.033   5.190   2.132
  345SOL     OW 1933   5.716   0.937   4.343
  345SOL    HW1 1934   5.628   0.931   4.390
  345SOL    HW2 1935   5.778   0.994   4.396
  346SOL     OW 1936   1.922   0.649   2.913
  346SOL    HW1 1937   1.935   0.700   2.828
  346SOL    HW2 1938   1.863   0.701   2.975
  347SOL     OW 1939   3.022   5.537   6.118
  347SOL    HW1 1940   2.942   5.542   6.177
  347SOL    HW2 1941   3.091   5.479   6.161
  348SOL     OW 1942   5.394   5.137   1.686
  348SOL    HW1 1943   5.440   5.053   1.715
  348SOL    HW2 1944   5.463   5.207   1.666
  349SOL     OW 1945   6.877   4.179   0.718
  349SOL    HW1 1946   6.809   4.141   0.780
  349SOL    HW2 1947   6.968   4.170   0.759
  350SOL     OW 1948   3.747   2.667   0.761
  350SOL    HW1 1949   3.711   2.706   0.845
  350SOL    HW2 1950   3.697   2.583   0.739
  351SOL     OW 1951   2.113   2.821   0.163
  351SOL    HW1 1952   2.022   2.836   0.202
  351SOL    HW2 1953   2.125   2.882   0.085
  352SOL     OW 1954   3.274   0.347   4.845
  352SOL    HW1 1955   3.373   0.359   4.854
  352SOL    HW2 1956   3.232   0.345   4.935
  353SOL     OW 1957   2.685   6.950   0.721
  353SOL    HW1 1958   2.689   6.857   0.757
  353SOL    HW2 1959   2.774   6.993   0.729
  354SOL     OW 1960   3.203   2.786   0.083
  354SOL    HW1 1961   3.189   2.801   7.008
  354SOL    HW2 1962   3.204   2.688   0.102
  355SOL     OW 1963   0.071   2.971   2.759
  355SOL    HW1 1964   7.016   2.998   2.704
  355SOL    HW2 1965   0.078   3.032   2.838
  356SOL     OW 1966   3.619   6.168   5.393
  356SOL    HW1 1967   3.605   6.081   5.439
  356SOL    HW2 1968   3.709   6.168   5.348
  357SOL     OW 1969   6.478   6.367   5.393
  357SOL    HW1 1970   6.423   6.284   5.383
  357SOL    HW2 1971   6.485   6.413   5.304
  358SOL     OW 1972   5.191   6.909   1.671
  358SOL    HW1 1973   5.192   6.869   1.762
  358SOL    HW2 1974   5.149   7.000   1.675
  359SOL     OW 1975   1.245   2.287   2.028
  359SOL    HW1 1976   1.153   2.325   2.041
  359SOL    HW2 1977   1.303   2.315   2.105
  360SOL     OW 1978   1.241   5.893   6.438
  360SOL    HW1 1979   1.198   5.808   6.466
  360SOL    HW2 1980   1.241   5.899   6.338
  361SOL     OW 1981   5.822   6.029   3.268
  361SOL    HW1 1982   5.768   5.968   3.326
  361SOL    HW2 1983   5.793   6.123   3.283
  362SOL     OW 1984   3.686   4.117   1.405
  362SOL    HW1 1985   3.589   4.096   1.413
  362SOL    HW2 1986   3.713   4.114   1.308
  363SOL     OW 1987   5.065   4.367   3.812
  363SOL    HW1 1988   5.082   4.334   3.719
  363SOL    HW2 1989   5.058   4.466   3.812
  364SOL     OW 1990   6.643   5.825   6.149
  364SOL    HW1 1991   6.625   5.876   6.065
  364SOL    HW2 1992   6.739   5.794   6.149
  365SOL     OW 1993   5.735   4.712   2.270
  365SOL    HW1 1994   5.638   4.719   2.246
  365SOL    HW2 1995   5.788   4.777   2.215
  366SOL     OW 1996   6.201   0.885   0.022
  366SOL    HW1 1997   6.280   0.891   0.083
  366SOL    HW2 1998   6.216   0.810   6.980
  367SOL     OW 1999   4.948   3.026   1.127
  367SOL    HW1 2000   4.959   3.101   1.192
  367SOL    HW2 2001   5.000   3.046   1.044
  368SOL     OW 2002   0.089   3.827   5.055
  368SOL    HW1 2003   7.017   3.843   5.082
  368SOL    HW2 2004   0.148   3.894   5.101
  369SOL     OW 2005   6.670   5.399   1.793
  369SOL    HW1 2006   6.606   5.329   1.762
  369SOL    HW2 2007   6.651   5.485   1.745
  370SOL     OW 2008   2.972   1.817   5.644
  370SOL    HW1 2009   3.013   1.769   5.566
  370SOL    HW2 2010   2.873   1.805   5.642
  371SOL     OW 2011   2.493   3.354   6.599
  371SOL    HW1 2012   2.573   3.413   6.607
  371SOL    HW2 2013   2.474   3.310   6.687
  372SOL     OW 2014   0.527   6.943   5.409
  372SOL    HW1 2015   0.555   0.011   5.381
  372SOL    HW2 2016   0.485   6.947   5.499
  373SOL     OW 2017   6.334   5.994   5.133
  373SOL    HW1 2018   6.425   6.010   5.172
  373SOL    HW2 2019   6.339   5.997   5.033
  374SOL     OW 2020   2.776   1.622   2.229
  374SOL    HW1 2021   2.841   1.663   2.292
  374SOL    HW2 2022   2.822   1.554   2.172
  375SOL     OW 2023   1.206   4.539   3.375
  375SOL    HW1 2024   1.149   4.501   3.303
  375SOL    HW2 2025   1.302   4.532   3.349
  376SOL     OW 2026   1.979   2.066   4.539
  376SOL    HW1 2027   2.053   2.060   4.607
  376SOL    HW2 2028   2.019   2.066   4.447
  377SOL     OW 2029   0.104   2.899   1.814
  377SOL    HW1 2030   0.096   2.966   1.741
  377SOL    HW2 2031   0.018   2.894   1.865
  378SOL     OW 2032   3.615   2.846   5.565
  378SOL    HW1 2033   3.648   2.876   5.654
  378SOL    HW2 2034   3.672   2.771   5.531
  379SOL     OW 2035   6.089   3.997   1.540
  379SOL    HW1 2036   6.139   4.083   1.539
  379SOL    HW2 2037   5.997   4.012   1.503
  380SOL     OW 2038   3.081   1.424   1.615
  380SOL    HW1 2039   3.148   1.482   1.661
  380SOL    HW2 2040   3.004   1.407   1.676
  381SOL     OW 2041   1.552   4.319   2.531
  381SOL    HW1 2042   1.462   4.362   2.539
  381SOL    HW2 2043   1.622   4.384   2.559
  382SOL     OW 2044   5.568   6.452   5.873
  382SOL    HW1 2045   5.665   6.447   5.895
  382SOL    HW2 2046   5.552   6.411   5.783
  383SOL     OW 2047   5.585   3.293   6.176
  383SOL    HW1 2048   5.638   3.363   6.128
  383SOL    HW2 2049   5.613   3.202   6.144
  384SOL     OW 2050   6.348   4.897   4.412
  384SOL    HW1 2051   6.399   4.814   4.433
  384SOL    HW2 2052   6.410   4.975   4.412
  385SOL     OW 2053   4.718   6.146   5.933
  385SOL    HW1 2054   4.723   6.053   5.897
  385SOL    HW2 2055   4.661   6.147   6.016
  386SOL     OW 2056   3.329   6.447   5.845
  386SOL    HW1 2057   3.330   6.358   5.799
  386SOL    HW2 2058   3.420   6.465   5.883
  387SOL     OW 2059   6.939   6.510   3.070
  387SOL    HW1 2060   7.009   6.577   3.096
  387SOL    HW2 2061   6.914   6.523   2.973
  388SOL     OW 2062   1.031   2.296   3.788
  388SOL    HW1 2063   1.114   2.351   3.782
  388SOL    HW2 2064   0.974   2.328   3.864
  389SOL     OW 2065   4.218   4.131   1.686
  389SOL    HW1 2066   4.259   4.053   1.637
  389SOL    HW2 2067   4.286   4.172   1.746
  390SOL     OW 2068   3.771   1.140   0.062
  390SOL    HW1 2069   3.838   1.195   0.112
  390SOL    HW2 2070   3.791   1.144   6.987
  391SOL     OW 2071   2.329   4.179   5.308
  391SOL    HW1 2072   2.242   4.155   5.352
  391SOL    HW2 2073   2.368   4.098   5.265
  392SOL     OW 2074   1.848   3.566   1.870
  392SOL    HW1 2075   1.944   3.588   1.851
  392SOL    HW2 2076   1.842   3.511   1.954
  393SOL     OW 2077   1.426   5.145   0.551
  393SOL    HW1 2078   1.368   5.227   0.544
  393SOL    HW2 2079   1.522   5.172   0.551
  394SOL     OW 2080   0.842   2.919   0.130
  394SOL    HW1 2081   0.856   2.976   0.049
  394SOL    HW2 2082   0.751   2.937   0.167
  395SOL     OW 2083   5.214   4.783   2.872
  395SOL    HW1 2084   5.148   4.767   2.945
  395SOL    HW2 2085   5.241   4.695   2.831
  396SOL     OW 2086   2.429   2.760   1.723
  396SOL    HW1 2087   2.458   2.668   1.694
  396SOL    HW2 2088   2.422   2.762   1.823
  397SOL     OW 2089   5.393   1.997   6.446
  397SOL    HW1 2090   5.364   2.048   6.527
  397SOL    HW2 2091   5.394   2.057   6.367
  398SOL     OW 2092   1.663   6.173   3.497
  398SOL    HW1 2093   1.759   6.150   3.480
  398SOL    HW2 2094   1.654   6.217   3.586
  399SOL     OW 2095   5.613   6.649   4.373
  399SOL    HW1 2096   5.663   6.702   4.305
  399SOL    HW2 2097   5.559   6.711   4.430
  400SOL     OW 2098   6.218   6.502   5.553
  400SOL    HW1 2099   6.260   6.415   5.527
  400SOL    HW2 2100   6.216   6.509   5.653
  401SOL     OW 2101   5.418   0.019   6.212
  401SOL    HW1 2102   5.338   0.008   6.153
  401SOL    HW2 2103   5.485   6.970   6.192
  402SOL     OW 2104   6.403   6.935   3.176
  402SOL    HW1 2105   6.342   7.011   3.197
  402SOL    HW2 2106   6.351   6.860   3.136
  403SOL     OW 2107   3.983   0.710   5.584
  403SOL    HW1 2108   3.984   0.611   5.566
  403SOL    HW2 2109   3.983   0.726   5.682
  404SOL     OW 2110   1.917   5.106   5.337
  404SOL    HW1 2111   1.913   5.022   5.282
  404SOL    HW2 2112   1.824   5.143   5.347
  405SOL     OW 2113   2.124   3.814   3.101
  405SOL    HW1 2114   2.183   3.733   3.101
  405SOL    HW2 2115   2.143   3.869   3.182
  406SOL     OW 2116   0.472   4.582   4.562
  406SOL    HW1 2117   0.471   4.669   4.611
  406SOL    HW2 2118   0.380   4.563   4.527
  407SOL     OW 2119   2.155   2.069   4.786
  407SOL    HW1 2120   2.116   2.042   4.874
  407SOL    HW2 2121   2.170   2.167   4.784
  408SOL     OW 2122   3.303   2.007   3.079
  408SOL    HW1 2123   3.287   1.913   3.048
  408SOL    HW2 2124   3.285   2.071   3.004
  409SOL     OW 2125   6.578   3.207   1.511
  409SOL    HW1 2126   6.558   3.267   1.433
  409SOL    HW2 2127   6.647   3.140   1.484
  410SOL     OW 2128   1.275   2.021   1.104
  410SOL    HW1 2129   1.374   2.008   1.099
  410SOL    HW2 2130   1.229   1.934   1.088
  411SOL     OW 2131   6.230   0.776   1.596
  411SOL    HW1 2132   6.145   0.724   1.610
  411SOL    HW2 2133   6.208   0.866   1.558
  412SOL     OW 2134   3.418   5.110   2.996
  412SOL    HW1 2135   3.436   5.191   3.052
  412SOL    HW2 2136   3.387   5.139   2.905
  413SOL     OW 2137   4.819   4.400   1.533
  413SOL    HW1 2138   4.902   4.390   1.588
  413SOL    HW2 2139   4.744   4.350   1.577
  414SOL     OW 2140   3.311   6.728   3.872
  414SOL    HW1 2141   3.308   6.828   3.869
  414SOL    HW2 2142   3.355   6.694   3.789
  415SOL     OW 2143   0.306   0.830   6.996
  415SOL    HW1 2144   0.391   0.877   6.970
  415SOL    HW2 2145   0.328   0.758   0.039
  416SOL     OW 2146   5.210   5.013   5.019
  416SOL    HW1 2147   5.305   5.014   5.051
  416SOL    HW2 2148   5.162   5.093   5.054
  417SOL     OW 2149   2.156   1.329   6.679
  417SOL    HW1 2150   2.237   1.273   6.662
  417SOL    HW2 2151   2.164   1.373   6.768
  418SOL     OW 2152   2.518   6.710   5.885
  418SOL    HW1 2153   2.449   6.665   5.828
  418SOL    HW2 2154   2.517   6.808   5.868
  419SOL     OW 2155   0.480   6.982   2.986
  419SOL    HW1 2156   0.411   6.972   2.914
  419SOL    HW2 2157   0.435   7.000   3.073
  420SOL     OW 2158   5.442   1.481   6.213
  420SOL    HW1 2159   5.530   1.435   6.226
  420SOL    HW2 2160   5.384   1.425   6.155
  421SOL     OW 2161   5.833   3.851   5.193
  421SOL    HW1 2162   5.874   3.939   5.217
  421SOL    HW2 2163   5.828   3.794   5.275
  422SOL     OW 2164   5.353   3.099   0.611
  422SOL    HW1 2165   5.272   3.079   0.556
  422SOL    HW2 2166   5.387   3.191   0.587
  423SOL     OW 2167   2.653   1.622   0.055
  423SOL    HW1 2168   2.627   1.685   0.128
  423SOL    HW2 2169   2.701   1.543   0.094
  424SOL     OW 2170   1.807   4.956   3.135
  424SOL    HW1 2171   1.738   4.934   3.203
  424SOL    HW2 2172   1.897   4.957   3.178
  425SOL     OW 2173   5.000   1.274   4.607
  425SOL    HW1 2174   4.968   1.362   4.644
  425SOL    HW2 2175   4.987   1.203   4.676
  426SOL     OW 2176   2.472   2.648   4.943
  426SOL    HW1 2177   2.457   2.738   4.983
  426SOL    HW2 2178   2.461   2.578   5.014
  427SOL     OW 2179   5.537   0.413   3.554
  427SOL    HW1 2180   5.474   0.461   3.493
  427SOL    HW2 2181   5.584   0.341   3.504
  428SOL     OW 2182   3.231   0.296   3.041
  428SOL    HW1 2183   3.263   0.273   3.132
  428SOL    HW2 2184   3.309   0.310   2.980
  429SOL     OW 2185   0.549   5.247   4.054
  429SOL    HW1 2186   0.482   5.262   3.981
  429SOL    HW2 2187   0.540   5.318   4.123
  430SOL     OW 2188   1.624   6.810   3.438
  430SOL    HW1 2189   1.722   6.810   3.418
  430SOL    HW2 2190   1.578   6.742   3.382
  431SOL     OW 2191   2.542   1.995   0.734
  431SOL    HW1 2192   2.519   1.924   0.800
  431SOL    HW2 2193   2.608   2.059   0.774
  432SOL     OW 2194   6.245   1.923   0.614
  432SOL    HW1 2195   6.271   1.830   0.639
  432SOL    HW2 2196   6.206   1.969   0.693
  433SOL     OW 2197   2.573   6.109   5.955
  433SOL    HW1 2198   2.549   6.020   5.916
  433SOL    HW2 2199   2.672   6.111   5.973
  434SOL     OW 2200   4.318   5.677   4.310
  434SOL    HW1 2201   4.416   5.692   4.307
  434SOL    HW2 2202   4.293   5.605   4.245
  435SOL     OW 2203   3.715   1.818   5.311
  435SOL    HW1 2204   3.790   1.874   5.345
  435SOL    HW2 2205   3.660   1.786   5.389
  436SOL     OW 2206   3.403   6.161   2.501
  436SOL    HW1 2207   3.338   6.193   2.570
  436SOL    HW2 2208   3.472   6.231   2.484
  437SOL     OW 2209   0.019   1.291   5.367
  437SOL    HW1 2210   0.010   1.390   5.359
  437SOL    HW2 2211   0.049   1.252   5.280
  438SOL     OW 2212   2.158   3.770   3.435
  438SOL    HW1 2213   2.130   3.780   3.530
  438SOL    HW2 2214   2.189   3.858   3.399
  439SOL     OW 2215   6.116   7.020   2.416
  439SOL    HW1 2216   6.068   7.012   2.503
  439SOL    HW2 2217   6.173   0.079   2.417
  440SOL     OW 2218   3.852   1.449   6.247
  440SOL    HW1 2219   3.929   1.453   6.310
  440SOL    HW2 2220   3.811   1.540   6.238
  441SOL     OW 2221   5.790   4.226   3.186
  441SOL    HW1 2222   5.731   4.156   3.227
  441SOL    HW2 2223   5.885   4.197   3.191
  442SOL     OW 2224   4.383   4.847   5.627
  442SOL    HW1 2225   4.305   4.908   5.644
  442SOL    HW2 2226   4.351   4.761   5.587
  443SOL     OW 2227   5.820   4.236   4.028
  443SOL    HW1 2228   5.804   4.249   4.126
  443SOL    HW2 2229   5.894   4.170   4.015
  444SOL     OW 2230   4.150   1.069   6.643
  444SOL    HW1 2231   4.091   1.040   6.568
  444SOL    HW2 2232   4.116   1.031   6.729
  445SOL     OW 2233   2.065   5.575   3.393
  445SOL    HW1 2234   2.150   5.613   3.430
  445SOL    HW2 2235   2.057   5.479   3.421
  446SOL     OW 2236   4.107   5.546   3.044
  446SOL    HW1 2237   4.103   5.513   3.139
  446SOL    HW2 2238   4.105   5.468   2.982
  447SOL     OW 2239   6.447   2.955   5.080
  447SOL    HW1 2240   6.541   2.989   5.088
  447SOL    HW2 2241   6.417   2.921   5.169
  448SOL     OW 2242   1.875   1.342   2.751
  448SOL    HW1 2243   1.961   1.296   2.773
  448SOL    HW2 2244   1.883   1.387   2.662
  449SOL     OW 2245   2.594   1.867   3.100
  449SOL    HW1 2246   2.634   1.911   3.180
  449SOL    HW2 2247   2.494   1.875   3.104
  450SOL     OW 2248   1.730   4.591   3.978
  450SOL    HW1 2249   1.641   4.616   3.939
  450SOL    HW2 2250   1.773   4.672   4.018
  451SOL     OW 2251   1.310   2.551   4.146
  451SOL    HW1 2252   1.327   2.531   4.050
  451SOL    HW2 2253   1.358   2.485   4.204
  452SOL     OW 2254   3.979   0.752   1.529
  452SOL    HW1 2255   3.947   0.761   1.435
  452SOL    HW2 2256   3.922   0.810   1.589
  453SOL     OW 2257   3.601   6.733   6.840
  453SOL    HW1 2258   3.661   6.672   6.892
  453SOL    HW2 2259   3.528   6.766   6.900
  454SOL     OW 2260   6.686   4.137   6.685
  454SOL    HW1 2261   6.759   4.182   6.633
  454SOL    HW2 2262   6.717   4.046   6.713
  455SOL     OW 2263   6.448   3.463   5.301
  455SOL    HW1 2264   6.544   3.487   5.317
  455SOL    HW2 2265   6.399   3.542   5.264
  456SOL     OW 2266   1.645   0.551   4.529
  456SOL    HW1 2267   1.554   0.566   4.489
  456SOL    HW2 2268   1.662   0.619   4.601
  457SOL     OW 2269   1.059   4.999   4.605
  457SOL    HW1 2270   0.994   4.958   4.541
  457SOL    HW2 2271   1.127   4.930   4.631
  458SOL     OW 2272   3.458   0.661   3.118
  458SOL    HW1 2273   3.519   0.692   3.045
  458SOL    HW2 2274   3.364   0.661   3.085
  459SOL     OW 2275   2.133   0.640   5.395
  459SOL    HW1 2276   2.140   0.737   5.374
  459SOL    HW2 2277   2.058   0.600   5.341
  460SOL     OW 2278   1.293   1.476   5.285
  460SOL    HW1 2279   1.388   1.504   5.295
  460SOL    HW2 2280   1.269   1.411   5.357
  461SOL     OW 2281   6.454   5.058   5.707
  461SOL    HW1 2282   6.436   5.134   5.644
  461SOL    HW2 2283   6.537   5.078   5.760
  462SOL     OW 2284   4.075   3.743   4.891
  462SOL    HW1 2285   4.040   3.799   4.966
  462SOL    HW2 2286   4.135   3.672   4.928
  463SOL     OW 2287   6.640   0.262   3.018
  463SOL    HW1 2288   6.655   0.195   2.944
  463SOL    HW2 2289   6.697   0.238   3.096
  464SOL     OW 2290   3.395   6.964   5.935
  464SOL    HW1 2291   3.300   6.983   5.913
  464SOL    HW2 2292   3.411   6.978   6.033
  465SOL     OW 2293   0.617   2.494   6.750
  465SOL    HW1 2294   0.657   2.584   6.769
  465SOL    HW2 2295   0.678   2.423   6.785
  466SOL     OW 2296   2.741   6.596   4.215
  466SOL    HW1 2297   2.803   6.574   4.139
  466SOL    HW2 2298   2.776   6.554   4.298
  467SOL     OW 2299   0.682   1.970   2.289
  467SOL    HW1 2300   0.773   1.940   2.262
  467SOL    HW2 2301   0.676   2.069   2.280
  468SOL     OW 2302   4.742   6.474   6.366
  468SOL    HW1 2303   4.705   6.389   6.402
  468SOL    HW2 2304   4.728   6.548   6.433
  469SOL     OW 2305   3.063   4.436   6.057
  469SOL    HW1 2306   2.988   4.496   6.084
  469SOL    HW2 2307   3.107   4.398   6.139
  470SOL     OW 2308   3.811   6.088   2.357
  470SOL    HW1 2309   3.894   6.115   2.406
  470SOL    HW2 2310   3.817   5.992   2.331
  471SOL     OW 2311   2.871   2.255   3.927
  471SOL    HW1 2312   2.892   2.230   4.021
  471SOL    HW2 2313   2.817   2.183   3.884
  472SOL     OW 2314   6.099   5.060   6.907
  472SOL    HW1 2315   6.020   5.049   6.967
  472SOL    HW2 2316   6.176   5.095   6.960
  473SOL     OW 2317   6.552   2.299   2.601
  473SOL    HW1 2318   6.479   2.272   2.665
  473SOL    HW2 2319   6.640   2.269   2.637
  474SOL     OW 2320   6.149   4.684   5.460
  474SOL    HW1 2321   6.087   4.655   5.533
  474SOL    HW2 2322   6.169   4.781   5.470
  475SOL     OW 2323   6.153   3.614   0.046
  475SOL    HW1 2324   6.110   3.565   6.994
  475SOL    HW2 2325   6.119   3.708   0.049
  476SOL     OW 2326   0.413   4.041   1.518
  476SOL    HW1 2327   0.384   3.948   1.497
  476SOL    HW2 2328   0.497   4.038   1.573
  477SOL     OW 2329   1.864   5.768   3.453
  477SOL    HW1 2330   1.869   5.793   3.550
  477SOL    HW2 2331   1.927   5.693   3.435
  478SOL     OW 2332   4.586   5.952   3.469
  478SOL    HW1 2333   4.632   6.004   3.397
  478SOL    HW2 2334   4.525   6.012   3.520
  479SOL     OW 2335   3.636   3.431   4.786
  479SOL    HW1 2336   3.546   3.435   4.742
  479SOL    HW2 2337   3.679   3.344   4.764
  480SOL     OW 2338   1.665   0.301   2.705
  480SOL    HW1 2339   1.594   0.250   2.656
  480SOL    HW2 2340   1.723   0.237   2.756
  481SOL     OW 2341   0.746   6.771   1.255
  481SOL    HW1 2342   0.755   6.844   1.322
  481SOL    HW2 2343   0.774   6.684   1.296
  482SOL     OW 2344   4.492   4.930   2.867
  482SOL    HW1 2345   4.511   4.926   2.769
  482SOL    HW2 2346   4.578   4.943   2.917
  483SOL     OW 2347   6.584   2.659   2.922
  483SOL    HW1 2348   6.588   2.635   3.019
  483SOL    HW2 2349   6.491   2.643   2.889
  484SOL     OW 2350   1.454   4.111   5.099
  484SOL    HW1 2351   1.375   4.152   5.053
  484SOL    HW2 2352   1.534   4.169   5.084
  485SOL     OW 2353   5.267   3.606   2.485
  485SOL    HW1 2354   5.234   3.513   2.467
  485SOL    HW2 2355   5.250   3.628   2.581
  486SOL     OW 2356   5.282   0.594   6.368
  486SOL    HW1 2357   5.226   0.519   6.333
  486SOL    HW2 2358   5.223   0.674   6.384
  487SOL     OW 2359   0.539   0.249   3.125
  487SOL    HW1 2360   0.440   0.243   3.141
  487SOL    HW2 2361   0.557   0.248   3.027
  488SOL     OW 2362   1.542   6.671   3.236
  488SOL    HW1 2363   1.482   6.591   3.240
  488SOL    HW2 2364   1.509   6.734   3.166
  489SOL     OW 2365   6.152   5.363   4.873
  489SOL    HW1 2366   6.223   5.365   4.803
  489SOL    HW2 2367   6.195   5.368   4.963
  490SOL     OW 2368   1.791   5.803   4.804
  490SOL    HW1 2369   1.712   5.748   4.834
  490SOL    HW2 2370   1.874   5.768   4.849
  491SOL     OW 2371   0.510   3.551   0.049
  491SOL    HW1 2372   0.592   3.604   0.069
  491SOL    HW2 2373   0.455   3.542   0.133
  492SOL     OW 2374   1.743   1.514   5.851
  492SOL    HW1 2375   1.801   1.478   5.924
  492SOL    HW2 2376   1.793   1.513   5.765
  493SOL     OW 2377   2.521   6.961   5.801
  493SOL    HW1 2378   2.589   7.007   5.745
  493SOL    HW2 2379   2.430   6.974   5.761
  494SOL     OW 2380   2.411   1.898   6.058
  494SOL    HW1 2381   2.428   1.815   6.111
  494SOL    HW2 2382   2.467   1.972   6.094
  495SOL     OW 2383   4.140   6.455   5.360
  495SOL    HW1 2384   4.233   6.494   5.363
  495SOL    HW2 2385   4.073   6.528   5.377
  496SOL     OW 2386   6.195   1.164   2.205
  496SOL    HW1 2387   6.238   1.248   2.238
  496SOL    HW2 2388   6.097   1.181   2.190
  497SOL     OW 2389   3.696   1.338   4.660
  497SOL    HW1 2390   3.751   1.399   4.718
  497SOL    HW2 2391   3.699   1.371   4.566
  498SOL     OW 2392   0.549   4.718   1.762
  498SOL    HW1 2393   0.479   4.648   1.772
  498SOL    HW2 2394   0.622   4.683   1.702
  499SOL     OW 2395   2.472   5.883   5.847
  499SOL    HW1 2396   2.478   5.806   5.783
  499SOL    HW2 2397   2.440   5.850   5.936
  500SOL     OW 2398   5.186   3.152   5.608
  500SOL    HW1 2399   5.191   3.241   5.564
  500SOL    HW2 2400   5.123   3.093   5.556
  501SOL     OW 2401   2.703   0.018   2.278
  501SOL    HW1 2402   2.752   0.086   2.334
  501SOL    HW2 2403   2.711   0.042   2.182
  502SOL     OW 2404   1.102   4.646   6.770
  502SOL    HW1 2405   1.135   4.737   6.792
  502SOL    HW2 2406   1.157   4.607   6.696
  503SOL     OW 2407   2.309   5.144   6.064
  503SOL    HW1 2408   2.321   5.045   6.067
  503SOL    HW2 2409   2.383   5.185   6.009
  504SOL     OW 2410   0.331   5.813   2.332
  504SOL    HW1 2411   0.319   5.800   2.430
  504SOL    HW2 2412   0.270   5.885   2.300
  505SOL     OW 2413   3.781   0.129   4.908
  505SOL    HW1 2414   3.867   0.086   4.937
  505SOL    HW2 2415   3.740   0.177   4.986
  506SOL     OW 2416   3.151   5.692   2.544
  506SOL    HW1 2417   3.061   5.701   2.503
  506SOL    HW2 2418   3.195   5.782   2.548
  507SOL     OW 2419   4.085   0.843   2.489
  507SOL    HW1 2420   4.013   0.812   2.427
  507SOL    HW2 2421   4.057   0.929   2.531
  508SOL     OW 2422   6.639   2.347   3.634
  508SOL    HW1 2423   6.718   2.393   3.676
  508SOL    HW2 2424   6.588   2.413   3.578
  509SOL     OW 2425   4.618   0.598   6.897
  509SOL    HW1 2426   4.620   0.498   6.890
  509SOL    HW2 2427   4.708   0.635   6.874
  510SOL     OW 2428   0.061   4.934   5.800
  510SOL    HW1 2429   0.152   4.896   5.786
  510SOL    HW2 2430   7.017   4.860   5.799
  511SOL     OW 2431   1.650   1.773   6.457
  511SOL    HW1 2432   1.578   1.797   6.523
  511SOL    HW2 2433   1.650   1.674   6.441
  512SOL     OW 2434   5.836   2.506   6.970
  512SOL    HW1 2435   5.901   2.561   0.000
  512SOL    HW2 2436   5.766   2.469   0.008
  513SOL     OW 2437   5.730   6.391   2.524
  513SOL    HW1 2438   5.733   6.428   2.432
  513SOL    HW2 2439   5.636   6.393   2.558
  514SOL     OW 2440   0.645   0.212   4.314
  514SOL    HW1 2441   0.548   0.231   4.300
  514SOL    HW2 2442   0.657   0.118   4.346
  515SOL     OW 2443   2.139   0.725   6.299
  515SOL    HW1 2444   2.209   0.656   6.313
  515SOL    HW2 2445   2.182   0.814   6.286
  516SOL     OW 2446   2.429   4.246   1.931
  516SOL    HW1 2447   2.476   4.306   1.866
  516SOL    HW2 2448   2.457   4.269   2.024
  517SOL     OW 2449   3.206   4.865   2.310
  517SOL    HW1 2450   3.248   4.880   2.221
  517SOL    HW2 2451   3.123   4.810   2.299
  518SOL     OW 2452   2.442   2.303   4.039
  518SOL    HW1 2453   2.355   2.267   4.072
  518SOL    HW2 2454   2.516   2.241   4.065
  519SOL     OW 2455   6.966   6.854   3.509
  519SOL    HW1 2456   7.012   6.897   3.431
  519SOL    HW2 2457   6.894   6.915   3.543
  520SOL     OW 2458   1.208   4.234   6.815
  520SOL    HW1 2459   1.205   4.147   6.765
  520SOL    HW2 2460   1.124   4.244   6.868
  521SOL     OW 2461   4.619   5.385   4.419
  521SOL    HW1 2462   4.660   5.393   4.510
  521SOL    HW2 2463   4.538   5.326   4.424
  522SOL     OW 2464   4.011   3.931   1.798
  522SOL    HW1 2465   3.979   3.852   1.849
  522SOL    HW2 2466   4.110   3.941   1.810
  523SOL     OW 2467   0.070   6.253   1.708
  523SOL    HW1 2468   0.014   6.312   1.766
  523SOL    HW2 2469   0.167   6.278   1.719
  524SOL     OW 2470   0.694   3.289   2.214
  524SOL    HW1 2471   0.758   3.251   2.281
  524SOL    HW2 2472   0.652   3.215   2.161
  525SOL     OW 2473   2.021   3.959   6.498
  525SOL    HW1 2474   1.947   3.983   6.435
  525SOL    HW2 2475   2.066   3.876   6.465
  526SOL     OW 2476   2.925   6.884   4.298
  526SOL    HW1 2477   2.872   6.955   4.251
  526SOL    HW2 2478   2.869   6.802   4.308
  527SOL     OW 2479   0.386   2.280   6.963
  527SOL    HW1 2480   0.470   2.319   7.000
  527SOL    HW2 2481   0.343   2.345   6.901
  528SOL     OW 2482   0.830   2.540   3.710
  528SOL    HW1 2483   0.919   2.521   3.668
  528SOL    HW2 2484   0.817   2.478   3.787
  529SOL     OW 2485   2.324   0.467   5.315
  529SOL    HW1 2486   2.288   0.445   5.224
  529SOL    HW2 2487   2.252   0.505   5.371
  530SOL     OW 2488   3.682   2.966   2.431
  530SOL    HW1 2489   3.725   2.943   2.517
  530SOL    HW2 2490   3.590   3.003   2.448
  531SOL     OW 2491   1.612   0.567   2.712
  531SOL    HW1 2492   1.632   0.469   2.720
  531SOL    HW2 2493   1.561   0.597   2.793
  532SOL     OW 2494   1.253   3.800   0.775
  532SOL    HW1 2495   1.174   3.847   0.737
  532SOL    HW2 2496   1.245   3.797   0.875
  533SOL     OW 2497   4.908   6.684   3.823
  533SOL    HW1 2498   4.841   6.759   3.814
  533SOL    HW2 2499   4.931   6.650   3.733
  534SOL     OW 2500   6.800   6.101   2.159
  534SOL    HW1 2501   6.756   6.107   2.248
  534SOL    HW2 2502   6.737   6.061   2.092
  535SOL     OW 2503   6.964   4.574   2.971
  535SOL    HW1 2504   6.870   4.546   2.949
  535SOL    HW2 2505   6.980   4.559   3.069
  536SOL     OW 2506   6.261   5.438   2.964
  536SOL    HW1 2507   6.234   5.510   3.028
  536SOL    HW2 2508   6.359   5.445   2.945
  537SOL     OW 2509   3.547   6.587   4.188
  537SOL    HW1 2510   3.510   6.504   4.146
  537SOL    HW2 2511   3.481   6.622   4.255
  538SOL     OW 2512   0.950   4.719   4.893
  538SOL    HW1 2513   0.878   4.734   4.825
  538SOL    HW2 2514   0.959   4.621   4.911
  539SOL     OW 2515   1.701   5.886   2.071
  539SOL    HW1 2516   1.645   5.846   2.144
  539SOL    HW2 2517   1.766   5.817   2.038
  540SOL     OW 2518   1.960   0.763   3.745
  540SOL    HW1 2519   1.879   0.815   3.769
  540SOL    HW2 2520   2.000   0.724   3.828
  541SOL     OW 2521   4.654   6.122   3.270
  541SOL    HW1 2522   4.707   6.044   3.239
  541SOL    HW2 2523   4.625   6.176   3.191
  542SOL     OW 2524   3.679   6.088   6.178
  542SOL    HW1 2525   3.714   6.181   6.162
  542SOL    HW2 2526   3.580   6.088   6.167
  543SOL     OW 2527   5.409   3.647   3.848
  543SOL    HW1 2528   5.456   3.594   3.777
  543SOL    HW2 2529   5.339   3.705   3.806
  544SOL     OW 2530   0.272   5.150   0.661
  544SOL    HW1 2531   0.271   5.186   0.754
  544SOL    HW2 2532   0.365   5.122   0.636
  545SOL     OW 2533   4.471   1.345   0.637
  545SOL    HW1 2534   4.436   1.259   0.673
  545SOL    HW2 2535   4.552   1.373   0.690
  546SOL     OW 2536   0.985   3.504   1.759
  546SOL    HW1 2537   0.914   3.574   1.748
  546SOL    HW2 2538   1.063   3.526   1.701
  547SOL     OW 2539   3.261   3.046   1.219
  547SOL    HW1 2540   3.247   2.963   1.166
  547SOL    HW2 2541   3.308   3.023   1.305
  548SOL     OW 2542   3.638   3.765   1.059
  548SOL    HW1 2543   3.701   3.754   1.136
  548SOL    HW2 2544   3.689   3.758   0.973
  549SOL     OW 2545   5.493   2.792   1.980
  549SOL    HW1 2546   5.495   2.763   1.885
  549SOL    HW2 2547   5.406   2.765   2.021
  550SOL     OW 2548   0.700   5.213   3.346
  550SOL    HW1 2549   0.783   5.257   3.313
  550SOL    HW2 2550   0.648   5.176   3.268
  551SOL     OW 2551   6.942   0.533   1.573
  551SOL    HW1 2552   6.960   0.463   1.642
  551SOL    HW2 2553   7.017   0.534   1.506
  552SOL     OW 2554   5.128   4.386   5.330
  552SOL    HW1 2555   5.225   4.363   5.343
  552SOL    HW2 2556   5.113   4.416   5.236
  553SOL     OW 2557   3.185   6.673   3.480
  553SOL    HW1 2558   3.256   6.609   3.451
  553SOL    HW2 2559   3.146   6.643   3.566
  554SOL     OW 2560   6.019   6.216   0.160
  554SOL    HW1 2561   5.975   6.264   0.236
  554SOL    HW2 2562   6.105   6.177   0.191
  555SOL     OW 2563   3.059   5.073   5.052
  555SOL    HW1 2564   3.109   4.988   5.066
  555SOL    HW2 2565   2.962   5.058   5.070
  556SOL     OW 2566   5.222   1.129   4.217
  556SOL    HW1 2567   5.309   1.165   4.184
  556SOL    HW2 2568   5.179   1.075   4.144
  557SOL     OW 2569   6.892   5.112   6.211
  557SOL    HW1 2570   6.880   5.039   6.144
  557SOL    HW2 2571   6.956   5.083   6.282
  558SOL     OW 2572   3.382   3.131   4.401
  558SOL    HW1 2573   3.423   3.222   4.393
  558SOL    HW2 2574   3.290   3.132   4.362
  559SOL     OW 2575   6.844   5.872   5.948
  559SOL    HW1 2576   6.759   5.916   5.919
  559SOL    HW2 2577   6.881   5.820   5.871
  560SOL     OW 2578   6.222   3.608   2.999
  560SOL    HW1 2579   6.308   3.633   3.044
  560SOL    HW2 2580   6.176   3.691   2.967
  561SOL     OW 2581   0.380   2.559   0.206
  561SOL    HW1 2582   0.379   2.627   0.133
  561SOL    HW2 2583   0.287   2.542   0.238
  562SOL     OW 2584   4.195   0.964   6.262
  562SOL    HW1 2585   4.211   1.060   6.240
  562SOL    HW2 2586   4.109   0.955   6.311
  563SOL     OW 2587   2.033   1.494   3.528
  563SOL    HW1 2588   2.103   1.435   3.567
  563SOL    HW2 2589   2.072   1.546   3.452
  564SOL     OW 2590   1.064   2.365   0.179
  564SOL    HW1 2591   1.111   2.320   0.103
  564SOL    HW2 2592   1.130   2.409   0.239
  565SOL     OW 2593   3.243   3.548   3.188
  565SOL    HW1 2594   3.189   3.470   3.220
  565SOL    HW2 2595   3.337   3.519   3.171
  566SOL     OW 2596   1.820   3.611   3.340
  566SOL    HW1 2597   1.815   3.605   3.241
  566SOL    HW2 2598   1.912   3.586   3.371
  567SOL     OW 2599   3.161   2.567   1.336
  567SOL    HW1 2600   3.239   2.527   1.385
  567SOL    HW2 2601   3.183   2.662   1.311
  568SOL     OW 2602   5.164   6.797   0.078
  568SOL    HW1 2603   5.130   6.705   0.063
  568SOL    HW2 2604   5.112   6.862   0.022
  569SOL     OW 2605   0.831   2.529   0.957
  569SOL    HW1 2606   0.803   2.622   0.933
  569SOL    HW2 2607   0.762   2.486   1.015
  570SOL     OW 2608   3.355   0.207   6.563
  570SOL    HW1 2609   3.343   0.248   6.653
  570SOL    HW2 2610   3.290   0.132   6.551
  571SOL     OW 2611   2.826   4.749   4.031
  571SOL    HW1 2612   2.893   4.790   3.969
  571SOL    HW2 2613   2.870   4.680   4.088
  572SOL     OW 2614   1.579   5.000   5.186
  572SOL    HW1 2615   1.518   5.042   5.118
  572SOL    HW2 2616   1.530   4.927   5.234
  573SOL     OW 2617   6.231   0.980   5.589
  573SOL    HW1 2618   6.141   1.015   5.563
  573SOL    HW2 2619   6.302   1.036   5.545
  574SOL     OW 2620   3.673   0.422   5.336
  574SOL    HW1 2621   3.613   0.437   5.414
  574SOL    HW2 2622   3.642   0.341   5.285
  575SOL     OW 2623   4.381   2.702   1.716
  575SOL    HW1 2624   4.343   2.612   1.695
  575SOL    HW2 2625   4.446   2.729   1.645
  576SOL     OW 2626   1.312   3.297   3.172
  576SOL    HW1 2627   1.254   3.279   3.251
  576SOL    HW2 2628   1.316   3.215   3.114
  577SOL     OW 2629   1.687   0.688   2.022
  577SOL    HW1 2630   1.751   0.612   2.009
  577SOL    HW2 2631   1.736   0.774   2.019
  578SOL     OW 2632   0.765   5.097   5.027
  578SOL    HW1 2633   0.772   5.009   5.075
  578SOL    HW2 2634   0.669   5.117   5.008
  579SOL     OW 2635   1.767   4.209   3.124
  579SOL    HW1 2636   1.815   4.122   3.135
  579SOL    HW2 2637   1.690   4.214   3.187
  580SOL     OW 2638   3.957   5.163   5.661
  580SOL    HW1 2639   3.899   5.095   5.616
  580SOL    HW2 2640   3.932   5.168   5.758
  581SOL     OW 2641   2.171   3.096   2.537
  581SOL    HW1 2642   2.235   3.094   2.614
  581SOL    HW2 2643   2.085   3.054   2.564
  582SOL     OW 2644   4.612   5.898   2.671
  582SOL    HW1 2645   4.592   5.802   2.649
  582SOL    HW2 2646   4.696   5.925   2.624
  583SOL     OW 2647   2.930   5.811   5.484
  583SOL    HW1 2648   2.838   5.812   5.521
  583SOL    HW2 2649   2.967   5.904   5.482
  584SOL     OW 2650   3.005   6.957   6.160
  584SOL    HW1 2651   3.051   0.022   6.161
  584SOL    HW2 2652   2.958   6.943   6.247
  585SOL     OW 2653   4.198   1.003   0.432
  585SOL    HW1 2654   4.101   1.022   0.445
  585SOL    HW2 2655   4.226   1.028   0.340
  586SOL     OW 2656   3.362   0.838   0.592
  586SOL    HW1 2657   3.269   0.832   0.555
  586SOL    HW2 2658   3.364   0.800   0.684
  587SOL     OW 2659   4.871   2.424   2.942
  587SOL    HW1 2660   4.933   2.396   2.869
  587SOL    HW2 2661   4.902   2.386   3.029
  588SOL     OW 2662   2.072   5.331   1.204
  588SOL    HW1 2663   2.135   5.325   1.281
  588SOL    HW2 2664   2.117   5.297   1.121
  589SOL     OW 2665   3.483   5.712   1.728
  589SOL    HW1 2666   3.507   5.789   1.668
  589SOL    HW2 2667   3.566   5.666   1.758
  590SOL     OW 2668   5.482   1.392   1.313
  590SOL    HW1 2669   5.430   1.356   1.390
  590SOL    HW2 2670   5.524   1.317   1.263
  591SOL     OW 2671   3.757   5.991   3.701
  591SOL    HW1 2672   3.832   5.929   3.725
  591SOL    HW2 2673   3.795   6.082   3.681
  592SOL     OW 2674   4.502   0.705   2.531
  592SOL    HW1 2675   4.474   0.731   2.438
  592SOL    HW2 2676   4.475   0.610   2.548
  593SOL     OW 2677   5.070   1.827   4.044
  593SOL    HW1 2678   5.106   1.920   4.045
  593SOL    HW2 2679   5.125   1.770   3.983
  594SOL     OW 2680   6.025   0.320   1.125
  594SOL    HW1 2681   5.933   0.334   1.088
  594SOL    HW2 2682   6.088   0.387   1.085
  595SOL     OW 2683   5.129   6.428   3.822
  595SOL    HW1 2684   5.121   6.498   3.751
  595SOL    HW2 2685   5.113   6.469   3.911
  596SOL     OW 2686   0.474   4.788   3.030
  596SOL    HW1 2687   0.383   4.806   3.068
  596SOL    HW2 2688   0.477   4.695   2.994
  597SOL     OW 2689   2.977   6.487   6.705
  597SOL    HW1 2690   3.034   6.444   6.774
  597SOL    HW2 2691   2.939   6.417   6.644
  598SOL     OW 2692   3.765   4.068   4.643
  598SOL    HW1 2693   3.709   4.058   4.560
  598SOL    HW2 2694   3.707   4.058   4.723
  599SOL     OW 2695   2.191   5.603   2.732
  599SOL    HW1 2696   2.240   5.542   2.794
  599SOL    HW2 2697   2.169   5.689   2.780
  600SOL     OW 2698   6.164   2.619   6.287
  600SOL    HW1 2699   6.115   2.663   6.212
  600SOL    HW2 2700   6.258   2.651   6.289
  601SOL     OW 2701   1.347   0.830   4.235
  601SOL    HW1 2702   1.438   0.856   4.202
  601SOL    HW2 2703   1.309   0.905   4.289
  602SOL     OW 2704   2.306   0.964   6.250
  602SOL    HW1 2705   2.326   0.904   6.172
  602SOL    HW2 2706   2.391   1.004   6.283
  603SOL     OW 2707   2.790   2.618   5.406
  603SOL    HW1 2708   2.716   2.679   5.376
  603SOL    HW2 2709   2.875   2.670   5.414
  604SOL     OW 2710   1.122   1.808   1.023
  604SOL    HW1 2711   1.048   1.750   1.059
  604SOL    HW2 2712   1.105   1.828   0.927
  605SOL     OW 2713   6.180   4.659   1.362
  605SOL    HW1 2714   6.270   4.702   1.370
  605SOL    HW2 2715   6.179   4.599   1.282
  606SOL     OW 2716   4.926   6.738   5.603
  606SOL    HW1 2717   4.933   6.645   5.566
  606SOL    HW2 2718   5.017   6.780   5.606
  607SOL     OW 2719   6.859   4.809   4.758
  607SOL    HW1 2720   6.933   4.784   4.697
  607SOL    HW2 2721   6.771   4.795   4.712
  608SOL     OW 2722   3.967   6.229   6.521
  608SOL    HW1 2723   4.061   6.258   6.499
  608SOL    HW2 2724   3.945   6.255   6.615
  609SOL     OW 2725   3.605   2.804   2.188
  609SOL    HW1 2726   3.690   2.762   2.158
  609SOL    HW2 2727   3.623   2.862   2.268
  610SOL     OW 2728   5.675   3.318   0.169
  610SOL    HW1 2729   5.637   3.304   0.078
  610SOL    HW2 2730   5.645   3.245   0.230
  611SOL     OW 2731   4.624   0.320   1.662
  611SOL    HW1 2732   4.562   0.314   1.584
  611SOL    HW2 2733   4.585   0.270   1.739
  612SOL     OW 2734   3.419   5.778   4.357
  612SOL    HW1 2735   3.330   5.785   4.312
  612SOL    HW2 2736   3.471   5.863   4.341
  613SOL     OW 2737   4.696   4.666   5.589
  613SOL    HW1 2738   4.770   4.698   5.647
  613SOL    HW2 2739   4.679   4.733   5.516
  614SOL     OW 2740   4.961   4.796   5.574
  614SOL    HW1 2741   4.960   4.776   5.672
  614SOL    HW2 2742   5.045   4.760   5.534
  615SOL     OW 2743   6.638   2.428   1.014
  615SOL    HW1 2744   6.573   2.424   0.939
  615SOL    HW2 2745   6.590   2.451   1.099
  616SOL     OW 2746   0.244   2.140   2.328
  616SOL    HW1 2747   0.207   2.223   2.287
  616SOL    HW2 2748   0.324   2.162   2.384
  617SOL     OW 2749   0.601   4.582   5.654
  617SOL    HW1 2750   0.667   4.523   5.608
  617SOL    HW2 2751   0.524   4.528   5.686
  618SOL     OW 2752   1.071   2.261   0.646
  618SOL    HW1 2753   1.018   2.242   0.563
  618SOL    HW2 2754   1.042   2.348   0.685
  619SOL     OW 2755   2.860   1.807   0.831
  619SOL    HW1 2756   2.839   1.827   0.927
  619SOL    HW2 2757   2.779   1.772   0.785
  620SOL     OW 2758   4.531   2.342   0.324
  620SOL    HW1 2759   4.460   2.404   0.290
  620SOL    HW2 2760   4.510   2.317   0.419
  621SOL     OW 2761   3.268   5.741   6.906
  621SOL    HW1 2762   3.356   5.707   6.874
  621SOL    HW2 2763   3.252   5.833   6.870
  622SOL     OW 2764   1.103   1.025   6.450
  622SOL    HW1 2765   1.171   0.956   6.478
  622SOL    HW2 2766   1.141   1.116   6.464
  623SOL     OW 2767   1.089   6.073   5.976
  623SOL    HW1 2768   0.999   6.075   5.934
  623SOL    HW2 2769   1.159   6.063   5.905
  624SOL     OW 2770   0.231   2.209   1.386
  624SOL    HW1 2771   0.192   2.167   1.304
  624SOL    HW2 2772   0.166   2.274   1.424
  625SOL     OW 2773   2.432   2.117   1.111
  625SOL    HW1 2774   2.527   2.136   1.085
  625SOL    HW2 2775   2.370   2.163   1.047
  626SOL     OW 2776   2.571   5.752   3.746
  626SOL    HW1 2777   2.495   5.721   3.689
  626SOL    HW2 2778   2.633   5.676   3.764
  627SOL     OW 2779   5.247   0.476   0.743
  627SOL    HW1 2780   5.153   0.448   0.761
  627SOL    HW2 2781   5.282   0.428   0.663
  628SOL     OW 2782   5.401   5.265   5.559
  628SOL    HW1 2783   5.346   5.233   5.636
  628SOL    HW2 2784   5.440   5.186   5.511
  629SOL     OW 2785   6.835   6.500   1.121
  629SOL    HW1 2786   6.783   6.509   1.206
  629SOL    HW2 2787   6.905   6.430   1.132
  630SOL     OW 2788   6.113   1.280   2.538
  630SOL    HW1 2789   6.112   1.203   2.602
  630SOL    HW2 2790   6.207   1.312   2.526
  631SOL     OW 2791   3.740   6.781   4.800
  631SOL    HW1 2792   3.810   6.810   4.866
  631SOL    HW2 2793   3.747   6.836   4.717
  632SOL     OW 2794   2.720   2.077   0.514
  632SOL    HW1 2795   2.646   2.036   0.568
  632SOL    HW2 2796   2.681   2.143   0.450
  633SOL     OW 2797   4.105   5.114   0.114
  633SOL    HW1 2798   4.116   5.072   0.024
  633SOL    HW2 2799   4.190   5.161   0.139
  634SOL     OW 2800   4.928   4.417   1.923
  634SOL    HW1 2801   4.952   4.389   1.831
  634SOL    HW2 2802   4.834   4.451   1.924
  635SOL     OW 2803   4.327   5.867   2.095
  635SOL    HW1 2804   4.417   5.907   2.075
  635SOL    HW2 2805   4.269   5.937   2.136
  636SOL     OW 2806   5.178   5.758   6.797
  636SOL    HW1 2807   5.145   5.852   6.793
  636SOL    HW2 2808   5.118   5.704   6.856
  637SOL     OW 2809   6.251   3.833   1.854
  637SOL    HW1 2810   6.275   3.929   1.837
  637SOL    HW2 2811   6.275   3.778   1.774
  638SOL     OW 2812   4.762   1.999   2.080
  638SOL    HW1 2813   4.683   2.016   2.140
  638SOL    HW2 2814   4.845   2.027   2.127
  639SOL     OW 2815   5.187   3.934   2.537
  639SOL    HW1 2816   5.119   3.902   2.472
  639SOL    HW2 2817   5.188   3.875   2.617
  640SOL     OW 2818   1.075   4.913   5.108
  640SOL    HW1 2819   1.036   4.864   5.030
  640SOL    HW2 2820   1.143   4.979   5.076
  641SOL     OW 2821   0.221   5.390   4.566
  641SOL    HW1 2822   0.143   5.355   4.514
  641SOL    HW2 2823   0.253   5.475   4.523
  642SOL     OW 2824   6.840   3.865   4.220
  642SOL    HW1 2825   6.875   3.879   4.312
  642SOL    HW2 2826   6.915   3.878   4.154
  643SOL     OW 2827   5.713   4.652   5.478
  643SOL    HW1 2828   5.622   4.683   5.450
  643SOL    HW2 2829   5.772   4.644   5.398
  644SOL     OW 2830   1.519   6.373   3.323
  644SOL    HW1 2831   1.469   6.413   3.399
  644SOL    HW2 2832   1.586   6.307   3.357
  645SOL     OW 2833   5.575   2.125   4.520
  645SOL    HW1 2834   5.633   2.112   4.600
  645SOL    HW2 2835   5.533   2.037   4.495
  646SOL     OW 2836   2.774   1.593   3.439
  646SOL    HW1 2837   2.740   1.502   3.462
  646SOL    HW2 2838   2.760   1.610   3.342
  647SOL     OW 2839   5.719   2.934   5.829
  647SOL    HW1 2840   5.689   2.985   5.910
  647SOL    HW2 2841   5.643   2.924   5.766
  648SOL     OW 2842   0.055   3.798   3.331
  648SOL    HW1 2843   0.115   3.724   3.360
  648SOL    HW2 2844   7.012   3.763   3.265
  649SOL     OW 2845   4.199   3.942   0.839
  649SOL    HW1 2846   4.291   3.952   0.878
  649SOL    HW2 2847   4.200   3.974   0.744
  650SOL     OW 2848   5.153   4.222   0.874
  650SOL    HW1 2849   5.248   4.246   0.857
  650SOL    HW2 2850   5.149   4.148   0.941
  651SOL     OW 2851   0.043   6.802   6.765
  651SOL    HW1 2852   0.059   6.733   6.835
  651SOL    HW2 2853   7.008   6.763   6.693
  652SOL     OW 2854   5.696   6.077   3.623
  652SOL    HW1 2855   5.642   6.029   3.692
  652SOL    HW2 2856   5.675   6.040   3.533
  653SOL     OW 2857   3.584   5.906   5.089
  653SOL    HW1 2858   3.592   6.000   5.055
  653SOL    HW2 2859   3.561   5.845   5.013
  654SOL     OW 2860   0.080   4.239   5.930
  654SOL    HW1 2861   0.119   4.152   5.961
  654SOL    HW2 2862   0.088   4.245   5.830
  655SOL     OW 2863   0.761   6.874   2.270
  655SOL    HW1 2864   0.849   6.919   2.281
  655SOL    HW2 2865   0.772   6.788   2.220
  656SOL     OW 2866   1.736   5.752   1.580
  656SOL    HW1 2867   1.724   5.806   1.663
  656SOL    HW2 2868   1.679   5.670   1.585
  657SOL     OW 2869   1.851   2.284   1.729
  657SOL    HW1 2870   1.879   2.313   1.820
  657SOL    HW2 2871   1.930   2.287   1.667
  658SOL     OW 2872   2.939   3.747   6.010
  658SOL    HW1 2873   2.892   3.661   5.994
  658SOL    HW2 2874   3.026   3.730   6.058
  659SOL     OW 2875   2.830   6.627   6.120
  659SOL    HW1 2876   2.748   6.570   6.122
  659SOL    HW2 2877   2.847   6.663   6.212
  660SOL     OW 2878   5.003   4.018   1.720
  660SOL    HW1 2879   5.024   3.937   1.776
  660SOL    HW2 2880   5.076   4.086   1.732
  661SOL     OW 2881   4.287   6.315   3.676
  661SOL    HW1 2882   4.249   6.406   3.662
  661SOL    HW2 2883   4.241   6.271   3.754
  662SOL     OW 2884   4.021   1.189   5.183
  662SOL    HW1 2885   3.969   1.183   5.269
  662SOL    HW2 2886   4.099   1.249   5.196
  663SOL     OW 2887   2.313   3.782   6.016
  663SOL    HW1 2888   2.234   3.721   6.024
  663SOL    HW2 2889   2.352   3.774   5.924
  664SOL     OW 2890   0.282   6.424   6.464
  664SOL    HW1 2891   0.356   6.362   6.438
  664SOL    HW2 2892   0.205   6.411   6.402
  665SOL     OW 2893   4.341   5.487   2.075
  665SOL    HW1 2894   4.265   5.490   2.140
  665SOL    HW2 2895   4.308   5.453   1.987
  666SOL     OW 2896   5.031   1.266   1.898
  666SOL    HW1 2897   4.986   1.310   1.976
  666SOL    HW2 2898   5.116   1.223   1.929
  667SOL     OW 2899   1.426   5.428   2.343
  667SOL    HW1 2900   1.424   5.365   2.420
  667SOL    HW2 2901   1.444   5.521   2.375
  668SOL     OW 2902   4.959   6.009   6.162
  668SOL    HW1 2903   5.007   6.089   6.126
  668SOL    HW2 2904   4.992   5.989   6.255
  669SOL     OW 2905   5.025   0.292   3.473
  669SOL    HW1 2906   5.044   0.277   3.570
  669SOL    HW2 2907   5.110   0.289   3.421
  670SOL     OW 2908   3.028   2.551   1.653
  670SOL    HW1 2909   3.029   2.488   1.576
  670SOL    HW2 2910   2.996   2.504   1.735
  671SOL     OW 2911   3.294   6.491   0.916
  671SOL    HW1 2912   3.311   6.514   1.011
  671SOL    HW2 2913   3.233   6.560   0.876
  672SOL     OW 2914   6.485   5.711   1.687
  672SOL    HW1 2915   6.419   5.747   1.621
  672SOL    HW2 2916   6.438   5.662   1.759
  673SOL     OW 2917   6.541   0.255   1.311
  673SOL    HW1 2918   6.500   0.346   1.303
  673SOL    HW2 2919   6.540   0.227   1.407
  674SOL     OW 2920   0.538   1.442   5.164
  674SOL    HW1 2921   0.491   1.524   5.134
  674SOL    HW2 2922   0.541   1.439   5.264
  675SOL     OW 2923   6.944   2.414   2.644
  675SOL    HW1 2924   6.943   2.454   2.552
  675SOL    HW2 2925   6.896   2.327   2.642
  676SOL     OW 2926   3.076   5.471   3.578
  676SOL    HW1 2927   3.048   5.376   3.564
  676SOL    HW2 2928   3.136   5.477   3.657
  677SOL     OW 2929   5.303   1.227   0.094
  677SOL    HW1 2930   5.393   1.270   0.093
  677SOL    HW2 2931   5.294   1.169   0.176
  678SOL     OW 2932   2.753   6.092   4.935
  678SOL    HW1 2933   2.843   6.119   4.970
  678SOL    HW2 2934   2.710   6.029   4.999
  679SOL     OW 2935   4.701   1.886   4.211
  679SOL    HW1 2936   4.777   1.833   4.247
  679SOL    HW2 2937   4.711   1.897   4.113
  680SOL     OW 2938   5.049   5.935   4.925
  680SOL    HW1 2939   5.144   5.945   4.955
  680SOL    HW2 2940   5.028   5.837   4.915
  681SOL     OW 2941   4.417   5.549   1.763
  681SOL    HW1 2942   4.498   5.559   1.820
  681SOL    HW2 2943   4.413   5.457   1.725
  682SOL     OW 2944   6.195   1.076   1.938
  682SOL    HW1 2945   6.249   0.992   1.931
  682SOL    HW2 2946   6.179   1.097   2.035
  683SOL     OW 2947   4.954   2.783   0.817
  683SOL    HW1 2948   5.012   2.702   0.807
  683SOL    HW2 2949   4.995   2.860   0.769
  684SOL     OW 2950   6.608   1.397   0.938
  684SOL    HW1 2951   6.653   1.308   0.930
  684SOL    HW2 2952   6.540   1.407   0.865
  685SOL     OW 2953   3.055   1.723   3.938
  685SOL    HW1 2954   3.133   1.768   3.894
  685SOL    HW2 2955   2.975   1.729   3.880
  686SOL     OW 2956   4.665   2.318   4.073
  686SOL    HW1 2957   4.628   2.264   4.149
  686SOL    HW2 2958   4.646   2.414   4.089
  687SOL     OW 2959   0.519   1.932   3.709
  687SOL    HW1 2960   0.538   1.845   3.755
  687SOL    HW2 2961   0.470   1.993   3.771
  688SOL     OW 2962   0.560   1.730   6.491
  688SOL    HW1 2963   0.610   1.644   6.482
  688SOL    HW2 2964   0.462   1.712   6.491
  689SOL     OW 2965   0.948   4.654   6.406
  689SOL    HW1 2966   0.936   4.602   6.321
  689SOL    HW2 2967   0.876   4.629   6.471
  690SOL     OW 2968   6.711   2.999   3.557
  690SOL    HW1 2969   6.762   3.027   3.476
  690SOL    HW2 2970   6.637   2.937   3.530
  691SOL     OW 2971   3.059   1.296   0.614
  691SOL    HW1 2972   2.961   1.289   0.597
  691SOL    HW2 2973   3.105   1.333   0.533
  692SOL     OW 2974   4.104   2.257   4.216
  692SOL    HW1 2975   4.005   2.258   4.201
  692SOL    HW2 2976   4.124   2.250   4.314
  693SOL     OW 2977   4.761   6.500   3.970
  693SOL    HW1 2978   4.774   6.579   3.910
  693SOL    HW2 2979   4.708   6.430   3.921
  694SOL     OW 2980   4.425   6.941   4.737
  694SOL    HW1 2981   4.458   7.000   4.663
  694SOL    HW2 2982   4.329   6.961   4.755
  695SOL     OW 2983   4.050   6.858   3.839
  695SOL    HW1 2984   4.045   6.845   3.938
  695SOL    HW2 2985   4.123   6.924   3.818
  696SOL     OW 2986   5.229   4.767   3.586
  696SOL    HW1 2987   5.207   4.709   3.507
  696SOL    HW2 2988   5.296   4.836   3.559
  697SOL     OW 2989   1.800   3.891   2.440
  697SOL    HW1 2990   1.840   3.906   2.531
  697SOL    HW2 2991   1.745   3.971   2.415
  698SOL     OW 2992   5.192   6.330   1.386
  698SOL    HW1 2993   5.131   6.299   1.313
  698SOL    HW2 2994   5.138   6.373   1.458
  699SOL     OW 2995   1.563   3.421   6.843
  699SOL    HW1 2996   1.528   3.350   6.905
  699SOL    HW2 2997   1.488   3.455   6.786
  700SOL     OW 2998   3.515   0.434   2.446
  700SOL    HW1 2999   3.467   0.452   2.532
  700SOL    HW2 3000   3.582   0.362   2.461
  701SOL     OW 3001   6.735   3.442   0.165
  701SOL    HW1 3002   6.655   3.386   0.143
  701SOL    HW2 3003   6.748   3.512   0.094
  702SOL     OW 3004   1.477   6.322   4.852
  702SOL    HW1 3005   1.484   6.254   4.779
  702SOL    HW2 3006   1.401   6.384   4.833
  703SOL     OW 3007   3.405   3.320   5.811
  703SOL    HW1 3008   3.495   3.277   5.803
  703SOL    HW2 3009   3.400   3.399   5.749
  704SOL     OW 3010   1.492   2.814   6.272
  704SOL    HW1 3011   1.427   2.885   6.299
  704SOL    HW2 3012   1.470   2.782   6.179
  705SOL     OW 3013   6.011   5.696   2.779
  705SOL    HW1 3014   5.962   5.712   2.864
  705SOL    HW2 3015   6.080   5.767   2.765
  706SOL     OW 3016   4.043   1.931   5.118
  706SOL    HW1 3017   3.963   1.913   5.060
  706SOL    HW2 3018   4.116   1.972   5.062
  707SOL     OW 3019   4.768   4.611   3.297
  707SOL    HW1 3020   4.822   4.535   3.259
  707SOL    HW2 3021   4.762   4.601   3.396
  708SOL     OW 3022   2.894   0.783   2.903
  708SOL    HW1 3023   2.881   0.688   2.931
  708SOL    HW2 3024   2.836   0.804   2.824
  709SOL     OW 3025   1.058   5.789   0.976
  709SOL    HW1 3026   0.968   5.748   0.976
  709SOL    HW2 3027   1.064   5.856   1.050
  710SOL     OW 3028   4.126   2.287   1.254
  710SOL    HW1 3029   4.089   2.216   1.195
  710SOL    HW2 3030   4.226   2.281   1.255
  711SOL     OW 3031   0.206   3.105   5.900
  711SOL    HW1 3032   0.135   3.035   5.905
  711SOL    HW2 3033   0.220   3.132   5.805
  712SOL     OW 3034   4.820   2.445   1.157
  712SOL    HW1 3035   4.856   2.475   1.246
  712SOL    HW2 3036   4.788   2.350   1.164
  713SOL     OW 3037   3.423   3.566   5.689
  713SOL    HW1 3038   3.519   3.588   5.707
  713SOL    HW2 3039   3.406   3.569   5.590
  714SOL     OW 3040   0.029   5.021   3.636
  714SOL    HW1 3041   0.006   5.055   3.545
  714SOL    HW2 3042   6.968   4.997   3.685
  715SOL     OW 3043   5.342   5.988   6.534
  715SOL    HW1 3044   5.392   5.919   6.587
  715SOL    HW2 3045   5.321   6.066   6.593
  716SOL     OW 3046   0.734   1.153   2.221
  716SOL    HW1 3047   0.678   1.071   2.231
  716SOL    HW2 3048   0.699   1.225   2.282
  717SOL     OW 3049   6.942   4.497   3.777
  717SOL    HW1 3050   0.018   4.498   3.773
  717SOL    HW2 3051   6.905   4.569   3.719
  718SOL     OW 3052   4.683   3.213   5.766
  718SOL    HW1 3053   4.687   3.173   5.857
  718SOL    HW2 3054   4.661   3.310   5.773
  719SOL     OW 3055   5.881   0.078   2.683
  719SOL    HW1 3056   5.902   0.004   2.747
  719SOL    HW2 3057   5.782   0.092   2.680
  720SOL     OW 3058   2.331   0.555   6.354
  720SOL    HW1 3059   2.357   0.630   6.415
  720SOL    HW2 3060   2.411   0.498   6.335
  721SOL     OW 3061   2.324   1.893   2.015
  721SOL    HW1 3062   2.404   1.840   2.044
  721SOL    HW2 3063   2.308   1.968   2.080
  722SOL     OW 3064   2.798   1.026   5.610
  722SOL    HW1 3065   2.885   1.051   5.653
  722SOL    HW2 3066   2.817   0.971   5.528
  723SOL     OW 3067   2.050   4.668   3.307
  723SOL    HW1 3068   1.982   4.677   3.380
  723SOL    HW2 3069   2.086   4.575   3.306
  724SOL     OW 3070   0.724   1.358   3.878
  724SOL    HW1 3071   0.741   1.455   3.892
  724SOL    HW2 3072   0.765   1.328   3.792
  725SOL     OW 3073   1.215   5.175   2.782
  725SOL    HW1 3074   1.170   5.256   2.821
  725SOL    HW2 3075   1.240   5.112   2.856
  726SOL     OW 3076   2.903   5.100   1.528
  726SOL    HW1 3077   2.811   5.135   1.547
  726SOL    HW2 3078   2.966   5.133   1.599
  727SOL     OW 3079   5.835   4.467   5.939
  727SOL    HW1 3080   5.833   4.471   6.039
  727SOL    HW2 3081   5.821   4.558   5.901
  728SOL     OW 3082   6.583   3.351   3.887
  728SOL    HW1 3083   6.571   3.271   3.827
  728SOL    HW2 3084   6.589   3.320   3.982
  729SOL     OW 3085   0.105   2.427   1.176
  729SOL    HW1 3086   0.187   2.392   1.131
  729SOL    HW2 3087   0.117   2.421   1.275
  730SOL     OW 3088   6.864   0.271   3.935
  730SOL    HW1 3089   6.905   0.345   3.882
  730SOL    HW2 3090   6.897   0.276   4.030
  731SOL     OW 3091   4.313   5.284   6.519
  731SOL    HW1 3092   4.354   5.274   6.610
  731SOL    HW2 3093   4.240   5.352   6.523
  732SOL     OW 3094   6.055   3.169   2.248
  732SOL    HW1 3095   6.033   3.241   2.182
  732SOL    HW2 3096   5.972   3.122   2.276
  733SOL     OW 3097   5.426   7.012   5.097
  733SOL    HW1 3098   5.484   6.970   5.167
  733SOL    HW2 3099   5.474   7.010   5.009
  734SOL     OW 3100   6.090   5.219   2.808
  734SOL    HW1 3101   6.166   5.155   2.798
  734SOL    HW2 3102   6.121   5.311   2.787
  735SOL     OW 3103   3.972   1.647   0.602
  735SOL    HW1 3104   3.955   1.559   0.558
  735SOL    HW2 3105   3.922   1.652   0.688
  736SOL     OW 3106   0.689   1.022   3.738
  736SOL    HW1 3107   0.752   0.986   3.668
  736SOL    HW2 3108   0.595   1.016   3.704
  737SOL     OW 3109   5.107   1.820   5.851
  737SOL    HW1 3110   5.108   1.815   5.951
  737SOL    HW2 3111   5.187   1.771   5.814
  738SOL     OW 3112   2.946   3.781   1.524
  738SOL    HW1 3113   2.864   3.772   1.468
  738SOL    HW2 3114   2.979   3.690   1.550
  739SOL     OW 3115   4.555   0.445   4.443
  739SOL    HW1 3116   4.604   0.423   4.527
  739SOL    HW2 3117   4.458   0.457   4.462
  740SOL     OW 3118   5.539   1.273   2.914
  740SOL    HW1 3119   5.563   1.202   2.848
  740SOL    HW2 3120   5.606   1.274   2.988
  741SOL     OW 3121   1.878   0.182   3.838
  741SOL    HW1 3122   1.785   0.214   3.856
  741SOL    HW2 3123   1.940   0.260   3.829
  742SOL     OW 3124   2.092   6.723   1.671
  742SOL    HW1 3125   2.085   6.626   1.694
  742SOL    HW2 3126   2.173   6.738   1.614
  743SOL     OW 3127   0.383   5.098   3.306
  743SOL    HW1 3128   0.321   5.020   3.299
  743SOL    HW2 3129   0.331   5.183   3.295
  744SOL     OW 3130   5.773   0.786   1.057
  744SOL    HW1 3131   5.842   0.852   1.087
  744SOL    HW2 3132   5.813   0.722   0.992
  745SOL     OW 3133   1.655   5.414   5.135
  745SOL    HW1 3134   1.673   5.500   5.089
  745SOL    HW2 3135   1.601   5.354   5.076
  746SOL     OW 3136   6.207   3.682   6.232
  746SOL    HW1 3137   6.198   3.748   6.306
  746SOL    HW2 3138   6.232   3.729   6.147
  747SOL     OW 3139   4.266   5.788   4.832
  747SOL    HW1 3140   4.304   5.772   4.924
  747SOL    HW2 3141   4.220   5.705   4.801
  748SOL     OW 3142   4.568   5.326   2.423
  748SOL    HW1 3143   4.559   5.376   2.337
  748SOL    HW2 3144   4.503   5.250   2.424
  749SOL     OW 3145   5.633   3.636   4.518
  749SOL    HW1 3146   5.554   3.634   4.456
  749SOL    HW2 3147   5.684   3.721   4.504
  750SOL     OW 3148   2.710   1.265   1.730
  750SOL    HW1 3149   2.678   1.307   1.646
  750SOL    HW2 3150   2.646   1.192   1.757
  751SOL     OW 3151   4.475   1.580   0.213
  751SOL    HW1 3152   4.385   1.619   0.196
  751SOL    HW2 3153   4.498   1.588   0.310
  752SOL     OW 3154   2.717   3.408   1.107
  752SOL    HW1 3155   2.675   3.319   1.090
  752SOL    HW2 3156   2.814   3.405   1.084
  753SOL     OW 3157   1.003   3.581   5.810
  753SOL    HW1 3158   1.087   3.631   5.788
  753SOL    HW2 3159   0.996   3.501   5.750
  754SOL     OW 3160   4.545   1.524   6.149
  754SOL    HW1 3161   4.445   1.520   6.157
  754SOL    HW2 3162   4.570   1.546   6.055
  755SOL     OW 3163   2.448   4.687   5.299
  755SOL    HW1 3164   2.525   4.729   5.250
  755SOL    HW2 3165   2.369   4.683   5.238
  756SOL     OW 3166   2.211   5.466   0.136
  756SOL    HW1 3167   2.133   5.527   0.126
  756SOL    HW2 3168   2.193   5.399   0.208
  757SOL     OW 3169   0.891   6.293   4.112
  757SOL    HW1 3170   0.797   6.323   4.095
  757SOL    HW2 3171   0.951   6.326   4.039
  758SOL     OW 3172   4.453   0.808   3.462
  758SOL    HW1 3173   4.371   0.829   3.409
  758SOL    HW2 3174   4.426   0.783   3.555
  759SOL     OW 3175   0.322   2.900   2.714
  759SOL    HW1 3176   0.336   2.856   2.625
  759SOL    HW2 3177   0.226   2.897   2.738
  760SOL     OW 3178   6.014   0.126   3.866
  760SOL    HW1 3179   6.022   0.222   3.839
  760SOL    HW2 3180   6.082   0.071   3.818
  761SOL     OW 3181   5.737   4.052   6.753
  761SOL    HW1 3182   5.782   4.136   6.723
  761SOL    HW2 3183   5.641   4.054   6.728
  762SOL     OW 3184   3.242   0.105   5.550
  762SOL    HW1 3185   3.177   0.060   5.489
  762SOL    HW2 3186   3.303   0.036   5.590
  763SOL     OW 3187   4.327   6.179   5.942
  763SOL    HW1 3188   4.357   6.089   5.912
  763SOL    HW2 3189   4.227   6.185   5.935
  764SOL     OW 3190   5.206   1.037   5.700
  764SOL    HW1 3191   5.257   0.977   5.638
  764SOL    HW2 3192   5.195   1.127   5.658
  765SOL     OW 3193   1.771   5.918   1.036
  765SOL    HW1 3194   1.802   5.875   1.121
  765SOL    HW2 3195   1.672   5.930   1.038
  766SOL     OW 3196   2.876   2.100   5.415
  766SOL    HW1 3197   2.872   2.190   5.374
  766SOL    HW2 3198   2.971   2.077   5.436
  767SOL     OW 3199   6.776   6.256   3.970
  767SOL    HW1 3200   6.750   6.186   3.903
  767SOL    HW2 3201   6.778   6.346   3.926
  768SOL     OW 3202   1.892   5.272   3.610
  768SOL    HW1 3203   1.815   5.335   3.622
  768SOL    HW2 3204   1.972   5.307   3.658
  769SOL     OW 3205   3.067   0.852   5.943
  769SOL    HW1 3206   3.082   0.916   5.868
  769SOL    HW2 3207   3.154   0.834   5.990
  770SOL     OW 3208   1.534   5.111   3.885
  770SOL    HW1 3209   1.626   5.126   3.919
  770SOL    HW2 3210   1.531   5.024   3.834
  771SOL     OW 3211   1.239   4.657   2.766
  771SOL    HW1 3212   1.163   4.716   2.738
  771SOL    HW2 3213   1.248   4.657   2.865
  772SOL     OW 3214   6.084   4.386   0.126
  772SOL    HW1 3215   6.098   4.341   0.214
  772SOL    HW2 3216   6.057   4.481   0.141
  773SOL     OW 3217   0.935   3.888   3.062
  773SOL    HW1 3218   0.982   3.865   2.976
  773SOL    HW2 3219   0.856   3.945   3.042
  774SOL     OW 3220   1.583   1.556   2.160
  774SOL    HW1 3221   1.544   1.466   2.143
  774SOL    HW2 3222   1.683   1.552   2.154
  775SOL     OW 3223   2.224   1.602   4.151
  775SOL    HW1 3224   2.152   1.622   4.084
  775SOL    HW2 3225   2.223   1.505   4.173
  776SOL     OW 3226   6.807   0.736   6.240
  776SOL    HW1 3227   6.719   0.689   6.225
  776SOL    HW2 3228   6.871   0.673   6.285
  777SOL     OW 3229   1.800   4.033   1.572
  777SOL    HW1 3230   1.742   3.959   1.607
  777SOL    HW2 3231   1.895   4.016   1.597
  778SOL     OW 3232   2.352   6.840   1.600
  778SOL    HW1 3233   2.333   6.912   1.667
  778SOL    HW2 3234   2.449   6.840   1.578
  779SOL     OW 3235   6.546   2.276   2.122
  779SOL    HW1 3236   6.548   2.250   2.218
  779SOL    HW2 3237   6.543   2.194   2.065
  780SOL     OW 3238   0.903   2.157   4.585
  780SOL    HW1 3239   0.880   2.253   4.603
  780SOL    HW2 3240   0.996   2.138   4.617
  781SOL     OW 3241   5.690   6.024   1.214
  781SOL    HW1 3242   5.625   6.007   1.288
  781SOL    HW2 3243   5.642   6.022   1.126
  782SOL     OW 3244   1.331   3.225   5.505
  782SOL    HW1 3245   1.427   3.223   5.476
  782SOL    HW2 3246   1.326   3.252   5.602
  783SOL     OW 3247   5.102   4.577   2.109
  783SOL    HW1 3248   5.044   4.544   2.035
  783SOL    HW2 3249   5.171   4.509   2.132
  784SOL     OW 3250   4.106   4.957   1.826
  784SOL    HW1 3251   4.054   4.872   1.827
  784SOL    HW2 3252   4.080   5.013   1.905
  785SOL     OW 3253   0.577   1.323   3.221
  785SOL    HW1 3254   0.593   1.224   3.230
  785SOL    HW2 3255   0.659   1.372   3.251
  786SOL     OW 3256   6.930   0.713   2.280
  786SOL    HW1 3257   6.897   0.761   2.360
  786SOL    HW2 3258   6.898   0.618   2.282
  787SOL     OW 3259   1.599   0.467   6.968
  787SOL    HW1 3260   1.535   0.400   6.931
  787SOL    HW2 3261   1.570   0.495   0.036
  788SOL     OW 3262   4.472   2.171   0.942
  788SOL    HW1 3263   4.543   2.107   0.910
  788SOL    HW2 3264   4.468   2.168   1.042
  789SOL     OW 3265   4.490   5.039   1.882
  789SOL    HW1 3266   4.453   5.025   1.974
  789SOL    HW2 3267   4.576   4.988   1.874
  790SOL     OW 3268   2.471   1.712   2.747
  790SOL    HW1 3269   2.499   1.619   2.774
  790SOL    HW2 3270   2.470   1.719   2.647
  791SOL     OW 3271   2.575   6.323   5.274
  791SOL    HW1 3272   2.543   6.393   5.338
  791SOL    HW2 3273   2.596   6.239   5.324
  792SOL     OW 3274   1.014   0.627   1.883
  792SOL    HW1 3275   0.933   0.568   1.885
  792SOL    HW2 3276   1.060   0.624   1.972
  793SOL     OW 3277   5.046   5.651   4.861
  793SOL    HW1 3278   5.142   5.624   4.850
  793SOL    HW2 3279   4.988   5.570   4.860
  794SOL     OW 3280   2.626   3.845   5.685
  794SOL    HW1 3281   2.623   3.927   5.629
  794SOL    HW2 3282   2.533   3.811   5.700
  795SOL     OW 3283   3.953   0.433   5.511
  795SOL    HW1 3284   3.921   0.360   5.451
  795SOL    HW2 3285   3.967   0.398   5.603
  796SOL     OW 3286   1.084   2.666   6.858
  796SOL    HW1 3287   1.020   2.742   6.865
  796SOL    HW2 3288   1.162   2.682   6.918
  797SOL     OW 3289   4.671   0.611   1.053
  797SOL    HW1 3290   4.628   0.698   1.076
  797SOL    HW2 3291   4.695   0.611   0.955
  798SOL     OW 3292   3.665   6.878   2.259
  798SOL    HW1 3293   3.700   6.899   2.351
  798SOL    HW2 3294   3.632   6.784   2.257
  799SOL     OW 3295   0.550   0.428   6.338
  799SOL    HW1 3296   0.540   0.524   6.365
  799SOL    HW2 3297   0.483   0.406   6.267
  800SOL     OW 3298   6.847   0.855   2.516
  800SOL    HW1 3299   6.766   0.912   2.506
  800SOL    HW2 3300   6.875   0.852   2.612
  801SOL     OW 3301   2.405   4.412   5.156
  801SOL    HW1 3302   2.372   4.333   5.207
  801SOL    HW2 3303   2.498   4.435   5.186
  802SOL     OW 3304   3.426   2.350   6.822
  802SOL    HW1 3305   3.357   2.410   6.863
  802SOL    HW2 3306   3.504   2.405   6.792
  803SOL     OW 3307   1.468   0.434   5.761
  803SOL    HW1 3308   1.440   0.530   5.767
  803SOL    HW2 3309   1.464   0.392   5.852
  804SOL     OW 3310   6.698   6.560   1.357
  804SOL    HW1 3311   6.758   6.602   1.425
  804SOL    HW2 3312   6.607   6.601   1.363
  805SOL     OW 3313   1.992   0.849   4.148
  805SOL    HW1 3314   1.901   0.890   4.150
  805SOL    HW2 3315   2.011   0.807   4.237
  806SOL     OW 3316   5.666   0.627   6.017
  806SOL    HW1 3317   5.603   0.572   6.072
  806SOL    HW2 3318   5.688   0.711   6.065
  807SOL     OW 3319   0.626   6.973   4.399
  807SOL    HW1 3320   0.630   6.946   4.495
  807SOL    HW2 3321   0.532   6.993   4.373
  808SOL     OW 3322   4.875   2.958   0.073
  808SOL    HW1 3323   4.857   3.037   0.132
  808SOL    HW2 3324   4.967   2.923   0.092
  809SOL     OW 3325   0.806   4.672   0.856
  809SOL    HW1 3326   0.782   4.638   0.947
  809SOL    HW2 3327   0.819   4.595   0.794
  810SOL     OW 3328   3.640   4.276   0.084
  810SOL    HW1 3329   3.642   4.298   0.181
  810SOL    HW2 3330   3.576   4.337   0.037
  811SOL     OW 3331   5.368   5.617   3.980
  811SOL    HW1 3332   5.455   5.602   3.933
  811SOL    HW2 3333   5.356   5.548   4.051
  812SOL     OW 3334   0.020   1.835   1.992
  812SOL    HW1 3335   6.962   1.821   2.048
  812SOL    HW2 3336   0.082   1.898   2.037
  813SOL     OW 3337   3.164   0.237   4.352
  813SOL    HW1 3338   3.213   0.231   4.265
  813SOL    HW2 3339   3.098   0.162   4.358
  814SOL     OW 3340   6.489   5.485   2.560
  814SOL    HW1 3341   6.486   5.486   2.660
  814SOL    HW2 3342   6.563   5.545   2.528
  815SOL     OW 3343   5.913   2.922   3.608
  815SOL    HW1 3344   5.832   2.979   3.620
  815SOL    HW2 3345   5.955   2.942   3.519
  816SOL     OW 3346   5.565   5.365   0.370
  816SOL    HW1 3347   5.511   5.357   0.454
  816SOL    HW2 3348   5.549   5.455   0.329
  817SOL     OW 3349   1.086   5.266   1.400
  817SOL    HW1 3350   1.184   5.249   1.404
  817SOL    HW2 3351   1.047   5.260   1.492
  818SOL     OW 3352   6.073   3.004   3.859
  818SOL    HW1 3353   6.044   2.938   3.790
  818SOL    HW2 3354   6.169   2.989   3.882
  819SOL     OW 3355   6.020   2.895   1.382
  819SOL    HW1 3356   6.066   2.814   1.419
  819SOL    HW2 3357   5.929   2.903   1.422
  820SOL     OW 3358   3.108   2.179   4.744
  820SOL    HW1 3359   3.120   2.215   4.837
  820SOL    HW2 3360   3.079   2.253   4.683
  821SOL     OW 3361   6.480   4.689   6.232
  821SOL    HW1 3362   6.562   4.697   6.175
  821SOL    HW2 3363   6.471   4.595   6.264
  822SOL     OW 3364   0.037   3.440   3.196
  822SOL    HW1 3365   0.029   3.529   3.152
  822SOL    HW2 3366   0.110   3.442   3.264
  823SOL     OW 3367   6.135   4.495   6.294
  823SOL    HW1 3368   6.184   4.478   6.209
  823SOL    HW2 3369   6.037   4.491   6.278
  824SOL     OW 3370   4.610   1.132   6.157
  824SOL    HW1 3371   4.683   1.189   6.194
  824SOL    HW2 3372   4.648   1.045   6.125
  825SOL     OW 3373   6.320   5.413   0.806
  825SOL    HW1 3374   6.300   5.462   0.891
  825SOL    HW2 3375   6.244   5.352   0.784
  826SOL     OW 3376   3.805   2.641   5.608
  826SOL    HW1 3377   3.855   2.626   5.523
  826SOL    HW2 3378   3.860   2.698   5.669
  827SOL     OW 3379   2.790   4.186   5.345
  827SOL    HW1 3380   2.719   4.115   5.343
  827SOL    HW2 3381   2.879   4.143   5.358
  828SOL     OW 3382   5.919   6.305   6.344
  828SOL    HW1 3383   5.977   6.226   6.324
  828SOL    HW2 3384   5.963   6.362   6.413
  829SOL     OW 3385   3.786   3.414   1.955
  829SOL    HW1 3386   3.780   3.332   2.011
  829SOL    HW2 3387   3.804   3.388   1.860
  830SOL     OW 3388   5.660   4.720   6.743
  830SOL    HW1 3389   5.677   4.774   6.660
  830SOL    HW2 3390   5.564   4.694   6.746
  831SOL     OW 3391   6.037   0.046   1.082
  831SOL    HW1 3392   6.024   0.144   1.095
  831SOL    HW2 3393   5.949   7.022   1.093
  832SOL     OW 3394   4.254   2.093   4.004
  832SOL    HW1 3395   4.334   2.149   3.982
  832SOL    HW2 3396   4.204   2.136   4.079
  833SOL     OW 3397   1.802   3.559   6.445
  833SOL    HW1 3398   1.826   3.616   6.366
  833SOL    HW2 3399   1.763   3.616   6.517
  834SOL     OW 3400   5.205   3.537   1.106
  834SOL    HW1 3401   5.230   3.634   1.106
  834SOL    HW2 3402   5.228   3.497   1.195
  835SOL     OW 3403   2.474   0.103   4.894
  835SOL    HW1 3404   2.458   0.120   4.991
  835SOL    HW2 3405   2.538   0.027   4.883
  836SOL     OW 3406   3.842   0.560   5.122
  836SOL    HW1 3407   3.877   0.634   5.064
  836SOL    HW2 3408   3.788   0.599   5.196
  837SOL     OW 3409   0.274   0.355   0.906
  837SOL    HW1 3410   0.310   0.441   0.870
  837SOL    HW2 3411   0.332   0.279   0.877
  838SOL     OW 3412   2.796   6.389   4.679
  838SOL    HW1 3413   2.746   6.347   4.754
  838SOL    HW2 3414   2.894   6.369   4.689
  839SOL     OW 3415   2.176   1.482   1.907
  839SOL    HW1 3416   2.097   1.523   1.953
  839SOL    HW2 3417   2.145   1.430   1.828
  840SOL     OW 3418   6.219   5.799   0.022
  840SOL    HW1 3419   6.136   5.786   6.992
  840SOL    HW2 3420   6.266   5.882   7.016
  841SOL     OW 3421   3.337   5.605   6.056
  841SOL    HW1 3422   3.313   5.690   6.104
  841SOL    HW2 3423   3.338   5.623   5.957
  842SOL     OW 3424   3.752   7.003   6.251
  842SOL    HW1 3425   3.655   6.977   6.257
  842SOL    HW2 3426   3.808   6.921   6.236
  843SOL     OW 3427   1.257   1.737   1.381
  843SOL    HW1 3428   1.185   1.804   1.361
  843SOL    HW2 3429   1.246   1.703   1.474
  844SOL     OW 3430   0.057   6.685   1.204
  844SOL    HW1 3431   0.078   6.753   1.133
  844SOL    HW2 3432   6.984   6.658   1.198
  845SOL     OW 3433   5.283   4.011   3.459
  845SOL    HW1 3434   5.241   4.078   3.396
  845SOL    HW2 3435   5.368   3.977   3.419
  846SOL     OW 3436   2.408   0.536   5.701
  846SOL    HW1 3437   2.391   0.439   5.719
  846SOL    HW2 3438   2.320   0.585   5.702
  847SOL     OW 3439   1.042   3.217   1.643
  847SOL    HW1 3440   1.079   3.241   1.733
  847SOL    HW2 3441   0.944   3.202   1.650
  848SOL     OW 3442   6.623   6.719   5.568
  848SOL    HW1 3443   6.617   6.793   5.635
  848SOL    HW2 3444   6.563   6.644   5.596
  849SOL     OW 3445   6.057   4.168   6.163
  849SOL    HW1 3446   6.031   4.072   6.172
  849SOL    HW2 3447   6.157   4.176   6.167
  850SOL     OW 3448   6.188   0.094   4.659
  850SOL    HW1 3449   6.157   0.189   4.645
  850SOL    HW2 3450   6.179   0.070   4.756
  851SOL     OW 3451   0.225   2.932   0.261
  851SOL    HW1 3452   0.173   3.015   0.284
  851SOL    HW2 3453   0.170   2.852   0.282
  852SOL     OW 3454   1.224   4.096   0.254
  852SOL    HW1 3455   1.207   4.041   0.336
  852SOL    HW2 3456   1.296   4.163   0.274
  853SOL     OW 3457   0.742   4.739   0.212
  853SOL    HW1 3458   0.697   4.827   0.198
  853SOL    HW2 3459   0.841   4.750   0.206
  854SOL     OW 3460   4.757   5.929   0.092
  854SOL    HW1 3461   4.671   5.899   0.132
  854SOL    HW2 3462   4.739   5.979   0.007
  855SOL     OW 3463   6.436   0.283   0.548
  855SOL    HW1 3464   6.480   0.369   0.576
  855SOL    HW2 3465   6.351   0.304   0.499
  856SOL     OW 3466   1.419   1.201   6.700
  856SOL    HW1 3467   1.496   1.140   6.688
  856SOL    HW2 3468   1.424   1.243   6.791
  857SOL     OW 3469   6.166   5.185   2.324
  857SOL    HW1 3470   6.171   5.094   2.282
  857SOL    HW2 3471   6.252   5.204   2.371
  858SOL     OW 3472   3.166   4.863   1.473
  858SOL    HW1 3473   3.207   4.888   1.560
  858SOL    HW2 3474   3.173   4.764   1.460
  859SOL     OW 3475   5.995   6.290   4.776
  859SOL    HW1 3476   6.018   6.251   4.687
  859SOL    HW2 3477   5.990   6.217   4.845
  860SOL     OW 3478   6.470   2.445   6.631
  860SOL    HW1 3479   6.420   2.520   6.674
  860SOL    HW2 3480   6.428   2.423   6.543
  861SOL     OW 3481   2.156   4.871   3.604
  861SOL    HW1 3482   2.172   4.918   3.691
  861SOL    HW2 3483   2.160   4.772   3.619
  862SOL     OW 3484   2.143   4.048   2.947
  862SOL    HW1 3485   2.153   4.020   2.852
  862SOL    HW2 3486   2.119   3.969   3.003
  863SOL     OW 3487   6.248   1.016   6.088
  863SOL    HW1 3488   6.232   0.946   6.018
  863SOL    HW2 3489   6.172   1.082   6.086
  864SOL     OW 3490   4.055   6.023   4.474
  864SOL    HW1 3491   4.039   5.950   4.541
  864SOL    HW2 3492   4.151   6.050   4.479
  865SOL     OW 3493   1.896   0.130   5.835
  865SOL    HW1 3494   1.821   0.097   5.893
  865SOL    HW2 3495   1.944   0.052   5.795
  866SOL     OW 3496   2.799   0.932   0.659
  866SOL    HW1 3497   2.740   0.983   0.721
  866SOL    HW2 3498   2.894   0.963   0.671
  867SOL     OW 3499   4.882   3.593   0.845
  867SOL    HW1 3500   4.940   3.670   0.872
  867SOL    HW2 3501   4.878   3.526   0.919
  868SOL     OW 3502   6.732   1.123   1.653
  868SOL    HW1 3503   6.637   1.156   1.657
  868SOL    HW2 3504   6.778   1.165   1.574
  869SOL     OW 3505   6.966   4.142   2.959
  869SOL    HW1 3506   6.922   4.174   2.875
  869SOL    HW2 3507   0.023   4.198   2.977
  870SOL     OW 3508   3.848   4.124   0.859
  870SOL    HW1 3509   3.827   4.206   0.912
  870SOL    HW2 3510   3.895   4.057   0.917
  871SOL     OW 3511   5.040   2.123   3.473
  871SOL    HW1 3512   5.072   2.207   3.429
  871SOL    HW2 3513   4.952   2.141   3.519
  872SOL     OW 3514   5.762   2.529   3.915
  872SOL    HW1 3515   5.759   2.529   3.815
  872SOL    HW2 3516   5.838   2.586   3.946
  873SOL     OW 3517   5.217   5.425   5.287
  873SOL    HW1 3518   5.201   5.327   5.303
  873SOL    HW2 3519   5.152   5.478   5.342
  874SOL     OW 3520   6.826   3.869   6.722
  874SOL    HW1 3521   6.925   3.865   6.715
  874SOL    HW2 3522   6.785   3.825   6.642
  875SOL     OW 3523   4.777   5.110   1.109
  875SOL    HW1 3524   4.693   5.103   1.056
  875SOL    HW2 3525   4.794   5.024   1.157
  876SOL     OW 3526   7.012   5.489   2.098
  876SOL    HW1 3527   6.985   5.393   2.105
  876SOL    HW2 3528   0.070   5.505   2.154
  877SOL     OW 3529   3.093   4.736   6.252
  877SOL    HW1 3530   3.152   4.717   6.174
  877SOL    HW2 3531   3.127   4.816   6.301
  878SOL     OW 3532   4.569   6.460   4.689
  878SOL    HW1 3533   4.546   6.372   4.647
  878SOL    HW2 3534   4.656   6.492   4.653
  879SOL     OW 3535   4.407   0.659   1.495
  879SOL    HW1 3536   4.403   0.635   1.398
  879SOL    HW2 3537   4.492   0.708   1.514
  880SOL     OW 3538   3.149   3.484   4.085
  880SOL    HW1 3539   3.170   3.581   4.088
  880SOL    HW2 3540   3.050   3.471   4.080
  881SOL     OW 3541   5.140   3.774   5.554
  881SOL    HW1 3542   5.151   3.786   5.653
  881SOL    HW2 3543   5.084   3.694   5.536
  882SOL     OW 3544   0.986   2.038   3.832
  882SOL    HW1 3545   1.001   2.134   3.806
  882SOL    HW2 3546   0.894   2.029   3.872
  883SOL     OW 3547   3.032   0.703   0.939
  883SOL    HW1 3548   3.105   0.658   0.992
  883SOL    HW2 3549   3.017   0.795   0.975
  884SOL     OW 3550   6.392   4.221   6.246
  884SOL    HW1 3551   6.410   4.318   6.256
  884SOL    HW2 3552   6.412   4.174   6.332
  885SOL     OW 3553   4.031   0.734   4.949
  885SOL    HW1 3554   4.126   0.750   4.974
  885SOL    HW2 3555   4.026   0.670   4.873
  886SOL     OW 3556   3.382   0.243   0.480
  886SOL    HW1 3557   3.313   0.309   0.449
  886SOL    HW2 3558   3.443   0.287   0.545
  887SOL     OW 3559   3.613   6.412   3.790
  887SOL    HW1 3560   3.682   6.426   3.861
  887SOL    HW2 3561   3.607   6.494   3.733
  888SOL     OW 3562   0.280   5.901   3.219
  888SOL    HW1 3563   0.240   5.985   3.183
  888SOL    HW2 3564   0.359   5.924   3.277
  889SOL     OW 3565   0.098   1.768   6.744
  889SOL    HW1 3566   0.029   1.727   6.802
  889SOL    HW2 3567   0.135   1.850   6.788
  890SOL     OW 3568   2.065   4.995   3.234
  890SOL    HW1 3569   2.143   5.047   3.200
  890SOL    HW2 3570   2.089   4.898   3.237
  891SOL     OW 3571   6.548   3.818   1.241
  891SOL    HW1 3572   6.515   3.735   1.286
  891SOL    HW2 3573   6.647   3.813   1.229
  892SOL     OW 3574   2.923   3.883   4.634
  892SOL    HW1 3575   2.901   3.831   4.552
  892SOL    HW2 3576   2.844   3.936   4.664
  893SOL     OW 3577   2.223   6.534   3.772
  893SOL    HW1 3578   2.154   6.605   3.756
  893SOL    HW2 3579   2.298   6.546   3.706
  894SOL     OW 3580   1.039   3.274   2.249
  894SOL    HW1 3581   1.008   3.185   2.215
  894SOL    HW2 3582   0.981   3.303   2.325
  895SOL     OW 3583   0.799   5.119   4.049
  895SOL    HW1 3584   0.703   5.140   4.036
  895SOL    HW2 3585   0.849   5.202   4.075
  896SOL     OW 3586   5.188   4.683   1.683
  896SOL    HW1 3587   5.228   4.632   1.606
  896SOL    HW2 3588   5.260   4.703   1.750
  897SOL     OW 3589   3.377   1.075   6.909
  897SOL    HW1 3590   3.427   1.113   6.831
  897SOL    HW2 3591   3.440   1.061   6.985
  898SOL     OW 3592   4.161   6.493   3.018
  898SOL    HW1 3593   4.258   6.513   3.021
  898SOL    HW2 3594   4.130   6.467   3.110
  899SOL     OW 3595   0.473   6.710   0.240
  899SOL    HW1 3596   0.385   6.664   0.231
  899SOL    HW2 3597   0.458   6.808   0.257
  900SOL     OW 3598   5.289   0.105   0.363
  900SOL    HW1 3599   5.307   0.022   0.309
  900SOL    HW2 3600   5.240   0.171   0.306
  901SOL     OW 3601   1.433   0.790   3.620
  901SOL    HW1 3602   1.383   0.780   3.533
  901SOL    HW2 3603   1.394   0.727   3.687
  902SOL     OW 3604   1.054   2.491   1.208
  902SOL    HW1 3605   1.062   2.436   1.125
  902SOL    HW2 3606   0.996   2.444   1.274
  903SOL     OW 3607   0.843   3.310   7.013
  903SOL    HW1 3608   0.769   3.249   6.986
  903SOL    HW2 3609   0.843   3.391   6.955
  904SOL     OW 3610   1.813   1.758   2.418
  904SOL    HW1 3611   1.845   1.665   2.436
  904SOL    HW2 3612   1.716   1.765   2.442
  905SOL     OW 3613   5.250   3.639   6.008
  905SOL    HW1 3614   5.345   3.610   5.994
  905SOL    HW2 3615   5.242   3.685   6.096
  906SOL     OW 3616   0.589   2.146   6.386
  906SOL    HW1 3617   0.541   2.187   6.309
  906SOL    HW2 3618   0.534   2.156   6.469
  907SOL     OW 3619   5.135   3.072   0.425
  907SOL    HW1 3620   5.061   3.108   0.368
  907SOL    HW2 3621   5.106   2.986   0.466
  908SOL     OW 3622   2.511   4.455   3.082
  908SOL    HW1 3623   2.491   4.416   2.992
  908SOL    HW2 3624   2.602   4.496   3.081
  909SOL     OW 3625   4.018   6.983   1.673
  909SOL    HW1 3626   3.965   6.928   1.608
  909SOL    HW2 3627   4.105   7.009   1.630
  910SOL     OW 3628   3.318   1.940   1.295
  910SOL    HW1 3629   3.303   1.842   1.281
  910SOL    HW2 3630   3.229   1.988   1.295
  911SOL     OW 3631   1.191   6.385   6.441
  911SOL    HW1 3632   1.265   6.401   6.507
  911SOL    HW2 3633   1.188   6.461   6.376
  912SOL     OW 3634   6.109   0.997   3.061
  912SOL    HW1 3635   6.145   0.987   3.154
  912SOL    HW2 3636   6.010   0.995   3.064
  913SOL     OW 3637   3.139   0.668   3.875
  913SOL    HW1 3638   3.137   0.685   3.777
  913SOL    HW2 3639   3.050   0.634   3.905
  914SOL     OW 3640   2.331   0.268   5.779
  914SOL    HW1 3641   2.389   0.254   5.859
  914SOL    HW2 3642   2.292   0.180   5.751
  915SOL     OW 3643   6.745   3.093   0.133
  915SOL    HW1 3644   6.734   3.020   0.066
  915SOL    HW2 3645   6.673   3.162   0.119
  916SOL     OW 3646   1.655   2.969   2.474
  916SOL    HW1 3647   1.735   2.950   2.416
  916SOL    HW2 3648   1.658   2.911   2.555
  917SOL     OW 3649   0.912   6.540   1.859
  917SOL    HW1 3650   0.980   6.614   1.867
  917SOL    HW2 3651   0.841   6.567   1.794
  918SOL     OW 3652   3.724   0.537   0.970
  918SOL    HW1 3653   3.811   0.575   0.939
  918SOL    HW2 3654   3.666   0.519   0.891
  919SOL     OW 3655   6.743   0.135   2.586
  919SOL    HW1 3656   6.709   0.109   2.496
  919SOL    HW2 3657   6.669   0.126   2.653
  920SOL     OW 3658   2.324   4.405   2.138
  920SOL    HW1 3659   2.324   4.495   2.095
  920SOL    HW2 3660   2.290   4.412   2.232
  921SOL     OW 3661   3.924   5.549   4.212
  921SOL    HW1 3662   3.901   5.635   4.167
  921SOL    HW2 3663   3.971   5.568   4.299
  922SOL     OW 3664   2.890   3.473   4.128
  922SOL    HW1 3665   2.883   3.443   4.223
  922SOL    HW2 3666   2.888   3.573   4.125
  923SOL     OW 3667   2.412   3.554   6.178
  923SOL    HW1 3668   2.347   3.605   6.123
  923SOL    HW2 3669   2.472   3.617   6.227
  924SOL     OW 3670   6.237   3.600   2.023
  924SOL    HW1 3671   6.326   3.582   2.066
  924SOL    HW2 3672   6.244   3.681   1.965
  925SOL     OW 3673   0.175   2.138   6.552
  925SOL    HW1 3674   0.256   2.081   6.568
  925SOL    HW2 3675   0.120   2.142   6.636
  926SOL     OW 3676   6.431   0.501   1.237
  926SOL    HW1 3677   6.395   0.594   1.226
  926SOL    HW2 3678   6.472   0.471   1.150
  927SOL     OW 3679   5.386   4.246   3.249
  927SOL    HW1 3680   5.435   4.219   3.166
  927SOL    HW2 3681   5.295   4.278   3.226
  928SOL     OW 3682   1.790   5.929   0.554
  928SOL    HW1 3683   1.768   6.026   0.566
  928SOL    HW2 3684   1.880   5.921   0.512
  929SOL     OW 3685   0.558   0.870   6.827
  929SOL    HW1 3686   0.564   0.896   6.731
  929SOL    HW2 3687   0.596   0.778   6.839
  930SOL     OW 3688   5.543   6.716   5.926
  930SOL    HW1 3689   5.549   6.618   5.911
  930SOL    HW2 3690   5.620   6.762   5.881
  931SOL     OW 3691   6.567   1.329   4.870
  931SOL    HW1 3692   6.534   1.367   4.956
  931SOL    HW2 3693   6.667   1.332   4.869
  932SOL     OW 3694   3.186   0.669   3.561
  932SOL    HW1 3695   3.187   0.570   3.552
  932SOL    HW2 3696   3.190   0.711   3.471
  933SOL     OW 3697   1.600   5.780   3.257
  933SOL    HW1 3698   1.606   5.726   3.173
  933SOL    HW2 3699   1.688   5.778   3.304
  934SOL     OW 3700   2.622   6.123   6.810
  934SOL    HW1 3701   2.614   6.183   6.889
  934SOL    HW2 3702   2.647   6.177   6.729
  935SOL     OW 3703   4.931   3.936   4.325
  935SOL    HW1 3704   4.943   3.847   4.283
  935SOL    HW2 3705   4.925   3.925   4.425
  936SOL     OW 3706   6.769   0.498   5.895
  936SOL    HW1 3707   6.791   0.495   5.797
  936SOL    HW2 3708   6.845   0.539   5.945
  937SOL     OW 3709   5.589   1.882   6.183
  937SOL    HW1 3710   5.496   1.846   6.182
  937SOL    HW2 3711   5.626   1.875   6.276
  938SOL     OW 3712   5.878   4.340   6.577
  938SOL    HW1 3713   5.808   4.371   6.641
  938SOL    HW2 3714   5.967   4.338   6.623
  939SOL     OW 3715   0.538   6.716   4.290
  939SOL    HW1 3716   0.558   6.638   4.348
  939SOL    HW2 3717   0.587   6.797   4.323
  940SOL     OW 3718   0.209   4.014   1.016
  940SOL    HW1 3719   0.149   3.935   1.021
  940SOL    HW2 3720   0.235   4.043   1.108
  941SOL     OW 3721   5.576   2.309   6.764
  941SOL    HW1 3722   5.608   2.402   6.747
  941SOL    HW2 3723   5.532   2.305   6.854
  942SOL     OW 3724   6.133   6.970   3.043
  942SOL    HW1 3725   6.196   6.893   3.032
  942SOL    HW2 3726   6.079   6.957   3.127
  943SOL     OW 3727   1.511   4.206   2.985
  943SOL    HW1 3728   1.574   4.135   3.017
  943SOL    HW2 3729   1.551   4.296   3.004
  944SOL     OW 3730   0.211   5.386   5.671
  944SOL    HW1 3731   0.302   5.395   5.712
  944SOL    HW2 3732   0.175   5.295   5.689
  945SOL     OW 3733   0.375   4.480   6.150
  945SOL    HW1 3734   0.304   4.495   6.081
  945SOL    HW2 3735   0.463   4.512   6.115
  946SOL     OW 3736   4.944   4.259   5.489
  946SOL    HW1 3737   4.968   4.163   5.480
  946SOL    HW2 3738   5.013   4.316   5.443
  947SOL     OW 3739   3.679   3.291   3.478
  947SOL    HW1 3740   3.639   3.332   3.396
  947SOL    HW2 3741   3.773   3.323   3.489
  948SOL     OW 3742   5.199   0.944   2.801
  948SOL    HW1 3743   5.111   0.982   2.830
  948SOL    HW2 3744   5.210   0.852   2.838
  949SOL     OW 3745   2.261   5.736   0.517
  949SOL    HW1 3746   2.282   5.642   0.492
  949SOL    HW2 3747   2.341   5.778   0.560
  950SOL     OW 3748   6.119   5.761   2.147
  950SOL    HW1 3749   6.050   5.688   2.145
  950SOL    HW2 3750   6.203   5.725   2.187
  951SOL     OW 3751   1.589   0.086   4.226
  951SOL    HW1 3752   1.675   0.052   4.187
  951SOL    HW2 3753   1.562   0.028   4.302
  952SOL     OW 3754   4.380   2.378   3.144
  952SOL    HW1 3755   4.422   2.406   3.058
  952SOL    HW2 3756   4.431   2.302   3.183
  953SOL     OW 3757   5.735   5.328   4.635
  953SOL    HW1 3758   5.660   5.268   4.660
  953SOL    HW2 3759   5.822   5.281   4.648
  954SOL     OW 3760   3.616   6.087   2.145
  954SOL    HW1 3761   3.529   6.082   2.194
  954SOL    HW2 3762   3.691   6.097   2.210
  955SOL     OW 3763   0.621   3.651   1.042
  955SOL    HW1 3764   0.529   3.620   1.019
  955SOL    HW2 3765   0.669   3.678   0.958
  956SOL     OW 3766   6.224   0.293   1.373
  956SOL    HW1 3767   6.207   0.387   1.344
  956SOL    HW2 3768   6.175   0.230   1.313
  957SOL     OW 3769   5.537   2.803   2.580
  957SOL    HW1 3770   5.486   2.801   2.494
  957SOL    HW2 3771   5.596   2.884   2.581
  958SOL     OW 3772   4.590   0.997   1.370
  958SOL    HW1 3773   4.594   1.096   1.363
  958SOL    HW2 3774   4.502   0.964   1.336
  959SOL     OW 3775   3.430   6.367   4.333
  959SOL    HW1 3776   3.505   6.328   4.278
  959SOL    HW2 3777   3.386   6.294   4.386
  960SOL     OW 3778   1.036   0.165   1.542
  960SOL    HW1 3779   0.967   0.117   1.488
  960SOL    HW2 3780   1.123   0.116   1.537
  961SOL     OW 3781   4.200   6.583   3.642
  961SOL    HW1 3782   4.198   6.679   3.673
  961SOL    HW2 3783   4.136   6.572   3.566
  962SOL     OW 3784   6.735   0.596   4.638
  962SOL    HW1 3785   6.801   0.667   4.661
  962SOL    HW2 3786   6.642   0.631   4.652
  963SOL     OW 3787   5.426   1.236   6.542
  963SOL    HW1 3788   5.494   1.258   6.612
  963SOL    HW2 3789   5.376   1.319   6.517
  964SOL     OW 3790   5.297   4.856   6.911
  964SOL    HW1 3791   5.237   4.882   6.836
  964SOL    HW2 3792   5.297   4.928   6.980
  965SOL     OW 3793   5.978   1.516   2.102
  965SOL    HW1 3794   6.019   1.454   2.035
  965SOL    HW2 3795   5.887   1.483   2.127
  966SOL     OW 3796   5.642   2.557   3.035
  966SOL    HW1 3797   5.631   2.504   2.951
  966SOL    HW2 3798   5.628   2.654   3.015
  967SOL     OW 3799   2.879   4.519   1.067
  967SOL    HW1 3800   2.795   4.535   1.014
  967SOL    HW2 3801   2.879   4.425   1.102
  968SOL     OW 3802   4.521   0.774   1.798
  968SOL    HW1 3803   4.527   0.674   1.801
  968SOL    HW2 3804   4.460   0.806   1.871
  969SOL     OW 3805   2.410   4.048   5.570
  969SOL    HW1 3806   2.313   4.052   5.545
  969SOL    HW2 3807   2.429   4.117   5.640
  970SOL     OW 3808   5.114   0.396   6.230
  970SOL    HW1 3809   5.123   0.306   6.274
  970SOL    HW2 3810   5.039   0.393   6.164
  971SOL     OW 3811   6.873   2.943   2.591
  971SOL    HW1 3812   6.884   2.863   2.650
  971SOL    HW2 3813   6.784   2.938   2.545
  972SOL     OW 3814   5.921   1.722   1.950
  972SOL    HW1 3815   5.967   1.643   1.991
  972SOL    HW2 3816   5.925   1.799   2.013
  973SOL     OW 3817   0.961   5.387   6.801
  973SOL    HW1 3818   0.961   5.387   6.701
  973SOL    HW2 3819   1.053   5.410   6.834
  974SOL     OW 3820   6.210   5.560   1.484
  974SOL    HW1 3821   6.174   5.597   1.399
  974SOL    HW2 3822   6.215   5.633   1.553
  975SOL     OW 3823   2.368   0.425   0.475
  975SOL    HW1 3824   2.362   0.513   0.523
  975SOL    HW2 3825   2.448   0.375   0.507
  976SOL     OW 3826   0.191   3.760   1.253
  976SOL    HW1 3827   0.213   3.856   1.275
  976SOL    HW2 3828   0.147   3.718   1.332
  977SOL     OW 3829   0.177   0.566   1.856
  977SOL    HW1 3830   0.185   0.536   1.761
  977SOL    HW2 3831   0.124   0.651   1.859
  978SOL     OW 3832   5.341   2.233   6.914
  978SOL    HW1 3833   5.408   2.231   6.988
  978SOL    HW2 3834   5.266   2.171   6.934
  979SOL     OW 3835   0.675   3.096   6.945
  979SOL    HW1 3836   0.604   3.166   6.937
  979SOL    HW2 3837   0.678   3.042   6.861
  980SOL     OW 3838   5.748   1.965   3.997
  980SOL    HW1 3839   5.669   2.019   4.027
  980SOL    HW2 3840   5.733   1.933   3.904
  981SOL     OW 3841   7.007   1.154   4.749
  981SOL    HW1 3842   6.929   1.095   4.770
  981SOL    HW2 3843   7.008   1.231   4.812
  982SOL     OW 3844   0.667   1.237   4.876
  982SOL    HW1 3845   0.764   1.214   4.869
  982SOL    HW2 3846   0.613   1.167   4.829
  983SOL     OW 3847   6.610   2.752   3.458
  983SOL    HW1 3848   6.700   2.713   3.439
  983SOL    HW2 3849   6.543   2.713   3.395
  984SOL     OW 3850   2.454   2.493   3.845
  984SOL    HW1 3851   2.442   2.415   3.906
  984SOL    HW2 3852   2.421   2.576   3.890
  985SOL     OW 3853   6.592   3.506   4.999
  985SOL    HW1 3854   6.596   3.438   5.071
  985SOL    HW2 3855   6.661   3.487   4.929
  986SOL     OW 3856   4.121   4.298   0.969
  986SOL    HW1 3857   4.067   4.236   0.912
  986SOL    HW2 3858   4.063   4.334   1.043
  987SOL     OW 3859   4.759   6.518   2.653
  987SOL    HW1 3860   4.803   6.564   2.576
  987SOL    HW2 3861   4.667   6.488   2.625
  988SOL     OW 3862   3.409   4.436   0.932
  988SOL    HW1 3863   3.345   4.506   0.964
  988SOL    HW2 3864   3.362   4.349   0.921
  989SOL     OW 3865   6.595   2.117   6.356
  989SOL    HW1 3866   6.500   2.087   6.347
  989SOL    HW2 3867   6.602   2.214   6.334
  990SOL     OW 3868   3.556   0.808   2.233
  990SOL    HW1 3869   3.611   0.805   2.149
  990SOL    HW2 3870   3.598   0.872   2.298
  991SOL     OW 3871   0.590   3.514   3.646
  991SOL    HW1 3872   0.560   3.590   3.587
  991SOL    HW2 3873   0.627   3.551   3.731
  992SOL     OW 3874   0.062   3.126   2.103
  992SOL    HW1 3875   0.075   3.221   2.132
  992SOL    HW2 3876   0.147   3.092   2.063
  993SOL     OW 3877   6.911   4.571   0.857
  993SOL    HW1 3878   6.951   4.549   0.768
  993SOL    HW2 3879   6.823   4.617   0.844
  994SOL     OW 3880   4.324   5.058   2.118
  994SOL    HW1 3881   4.259   5.104   2.059
  994SOL    HW2 3882   4.279   4.985   2.168
  995SOL     OW 3883   3.973   3.410   6.174
  995SOL    HW1 3884   4.038   3.385   6.246
  995SOL    HW2 3885   3.974   3.509   6.162
  996SOL     OW 3886   3.589   4.968   4.777
  996SOL    HW1 3887   3.509   4.934   4.826
  996SOL    HW2 3888   3.666   4.976   4.840
  997SOL     OW 3889   1.064   6.979   2.984
  997SOL    HW1 3890   1.043   6.942   2.894
  997SOL    HW2 3891   0.979   7.007   3.029
  998SOL     OW 3892   5.866   0.432   5.954
  998SOL    HW1 3893   5.918   0.468   5.877
  998SOL    HW2 3894   5.787   0.491   5.973
  999SOL     OW 3895   5.389   4.075   2.260
  999SOL    HW1 3896   5.320   4.084   2.331
  999SOL    HW2 3897   5.462   4.014   2.291
 1000SOL     OW 3898   3.944   1.654   1.416
 1000SOL    HW1 3899   3.848   1.675   1.434
 1000SOL    HW2 3900   3.951   1.563   1.375
 1001SOL     OW 3901   4.182   6.080   2.153
 1001SOL    HW1 3902   4.241   6.154   2.185
 1001SOL    HW2 3903   4.169   6.088   2.054
 1002SOL     OW 3904   5.344   2.012   1.136
 1002SOL    HW1 3905   5.407   2.089   1.137
 1002SOL    HW2 3906   5.326   1.983   1.230
 1003SOL     OW 3907   2.009   5.386   3.140
 1003SOL    HW1 3908   1.992   5.482   3.119
 1003SOL    HW2 3909   2.044   5.377   3.233
 1004SOL     OW 3910   0.964   1.268   1.929
 1004SOL    HW1 3911   1.012   1.196   1.878
 1004SOL    HW2 3912   0.865   1.253   1.922
 1005SOL     OW 3913   1.904   2.875   4.237
 1005SOL    HW1 3914   1.870   2.793   4.190
 1005SOL    HW2 3915   1.827   2.935   4.257
 1006SOL     OW 3916   1.331   4.164   0.631
 1006SOL    HW1 3917   1.425   4.175   0.599
 1006SOL    HW2 3918   1.331   4.135   0.727
 1007SOL     OW 3919   4.168   1.005   5.770
 1007SOL    HW1 3920   4.194   0.910   5.787
 1007SOL    HW2 3921   4.175   1.057   5.856
 1008SOL     OW 3922   0.551   1.974   5.612
 1008SOL    HW1 3923   0.491   2.053   5.607
 1008SOL    HW2 3924   0.520   1.904   5.548
 1009SOL     OW 3925   0.113   5.634   5.580
 1009SOL    HW1 3926   0.140   5.540   5.603
 1009SOL    HW2 3927   0.194   5.686   5.553
 1010SOL     OW 3928   2.723   2.445   1.066
 1010SOL    HW1 3929   2.783   2.525   1.063
 1010SOL    HW2 3930   2.771   2.368   1.107
 1011SOL     OW 3931   1.252   5.306   3.128
 1011SOL    HW1 3932   1.274   5.322   3.225
 1011SOL    HW2 3933   1.322   5.246   3.088
 1012SOL     OW 3934   0.062   6.921   2.081
 1012SOL    HW1 3935   0.119   6.995   2.119
 1012SOL    HW2 3936   0.117   6.869   2.015
 1013SOL     OW 3937   0.317   0.797   6.368
 1013SOL    HW1 3938   0.302   0.816   6.271
 1013SOL    HW2 3939   0.280   0.872   6.422
 1014SOL     OW 3940   0.238   4.190   5.095
 1014SOL    HW1 3941   0.189   4.150   5.017
 1014SOL    HW2 3942   0.216   4.138   5.178
 1015SOL     OW 3943   2.018   0.238   6.095
 1015SOL    HW1 3944   1.948   0.248   6.025
 1015SOL    HW2 3945   2.109   0.249   6.053
 1016SOL     OW 3946   4.220   3.976   0.559
 1016SOL    HW1 3947   4.286   4.037   0.516
 1016SOL    HW2 3948   4.136   3.973   0.505
 1017SOL     OW 3949   4.060   2.135   1.021
 1017SOL    HW1 3950   4.107   2.133   0.933
 1017SOL    HW2 3951   3.999   2.057   1.029
 1018SOL     OW 3952   0.856   4.547   4.370
 1018SOL    HW1 3953   0.817   4.638   4.361
 1018SOL    HW2 3954   0.783   4.481   4.386
 1019SOL     OW 3955   0.000   5.838   1.065
 1019SOL    HW1 3956   0.024   5.742   1.051
 1019SOL    HW2 3957   6.931   5.855   1.031
 1020SOL     OW 3958   6.697   1.583   1.915
 1020SOL    HW1 3959   6.731   1.576   1.821
 1020SOL    HW2 3960   6.649   1.498   1.939
 1021SOL     OW 3961   5.420   6.677   1.911
 1021SOL    HW1 3962   5.398   6.758   1.964
 1021SOL    HW2 3963   5.466   6.704   1.826
 1022SOL     OW 3964   2.863   4.700   5.386
 1022SOL    HW1 3965   2.887   4.664   5.296
 1022SOL    HW2 3966   2.946   4.733   5.431
 1023SOL     OW 3967   0.616   1.027   2.650
 1023SOL    HW1 3968   0.615   1.080   2.734
 1023SOL    HW2 3969   0.703   1.039   2.603
 1024SOL     OW 3970   0.358   2.054   3.907
 1024SOL    HW1 3971   0.371   2.146   3.944
 1024SOL    HW2 3972   0.291   2.057   3.833
 1025SOL     OW 3973   3.793   3.197   0.889
 1025SOL    HW1 3974   3.701   3.184   0.853
 1025SOL    HW2 3975   3.795   3.277   0.949
 1026SOL     OW 3976   2.639   3.224   1.498
 1026SOL    HW1 3977   2.649   3.300   1.562
 1026SOL    HW2 3978   2.608   3.143   1.547
 1027SOL     OW 3979   3.020   0.144   2.395
 1027SOL    HW1 3980   3.002   0.058   2.444
 1027SOL    HW2 3981   2.947   0.210   2.416
 1028SOL     OW 3982   1.488   6.774   2.568
 1028SOL    HW1 3983   1.534   6.704   2.512
 1028SOL    HW2 3984   1.549   6.801   2.643
 1029SOL     OW 3985   1.173   1.690   5.898
 1029SOL    HW1 3986   1.263   1.733   5.896
 1029SOL    HW2 3987   1.152   1.664   5.992
 1030SOL     OW 3988   3.516   3.463   1.773
 1030SOL    HW1 3989   3.464   3.532   1.823
 1030SOL    HW2 3990   3.478   3.372   1.792
 1031SOL     OW 3991   4.640   3.510   1.743
 1031SOL    HW1 3992   4.544   3.489   1.762
 1031SOL    HW2 3993   4.687   3.427   1.711
 1032SOL     OW 3994   0.927   1.100   5.033
 1032SOL    HW1 3995   0.916   1.190   5.074
 1032SOL    HW2 3996   1.019   1.065   5.052
 1033SOL     OW 3997   1.858   5.439   1.396
 1033SOL    HW1 3998   1.846   5.389   1.310
 1033SOL    HW2 3999   1.955   5.441   1.420
 1034SOL     OW 4000   1.658   5.394   4.233
 1034SOL    HW1 4001   1.721   5.432   4.300
 1034SOL    HW2 4002   1.696   5.406   4.141
 1035SOL     OW 4003   6.810   2.012   6.638
 1035SOL    HW1 4004   6.836   2.106   6.616
 1035SOL    HW2 4005   6.865   1.948   6.585
 1036SOL     OW 4006   4.178   1.039   1.834
 1036SOL    HW1 4007   4.177   0.945   1.800
 1036SOL    HW2 4008   4.267   1.059   1.874
 1037SOL     OW 4009   1.610   1.477   2.561
 1037SOL    HW1 4010   1.704   1.461   2.530
 1037SOL    HW2 4011   1.548   1.417   2.510
 1038SOL     OW 4012   1.954   1.449   5.387
 1038SOL    HW1 4013   1.906   1.394   5.319
 1038SOL    HW2 4014   1.979   1.537   5.347
 1039SOL     OW 4015   3.928   3.948   4.087
 1039SOL    HW1 4016   4.001   3.982   4.147
 1039SOL    HW2 4017   3.966   3.884   4.020
 1040SOL     OW 4018   4.999   0.898   2.033
 1040SOL    HW1 4019   4.963   0.927   2.122
 1040SOL    HW2 4020   4.925   0.894   1.966
 1041SOL     OW 4021   0.195   6.092   3.036
 1041SOL    HW1 4022   0.177   6.052   2.946
 1041SOL    HW2 4023   0.271   6.156   3.029
 1042SOL     OW 4024   4.281   5.275   2.637
 1042SOL    HW1 4025   4.251   5.200   2.578
 1042SOL    HW2 4026   4.201   5.312   2.685
 1043SOL     OW 4027   3.537   2.076   3.220
 1043SOL    HW1 4028   3.470   2.010   3.187
 1043SOL    HW2 4029   3.585   2.117   3.143
 1044SOL     OW 4030   6.152   5.442   2.422
 1044SOL    HW1 4031   6.143   5.348   2.388
 1044SOL    HW2 4032   6.136   5.443   2.521
 1045SOL     OW 4033   4.194   0.653   2.642
 1045SOL    HW1 4034   4.119   0.609   2.691
 1045SOL    HW2 4035   4.159   0.728   2.587
 1046SOL     OW 4036   1.683   1.573   0.396
 1046SOL    HW1 4037   1.694   1.579   0.495
 1046SOL    HW2 4038   1.653   1.481   0.370
 1047SOL     OW 4039   2.478   6.980   4.291
 1047SOL    HW1 4040   2.503   7.007   4.198
 1047SOL    HW2 4041   2.474   6.880   4.298
 1048SOL     OW 4042   3.378   6.767   2.233
 1048SOL    HW1 4043   3.299   6.800   2.182
 1048SOL    HW2 4044   3.352   6.749   2.328
 1049SOL     OW 4045   6.055   6.679   3.981
 1049SOL    HW1 4046   6.049   6.761   4.038
 1049SOL    HW2 4047   6.056   6.598   4.040
 1050SOL     OW 4048   3.720   4.847   2.421
 1050SOL    HW1 4049   3.722   4.885   2.329
 1050SOL    HW2 4050   3.787   4.773   2.429
 1051SOL     OW 4051   0.538   5.254   0.793
 1051SOL    HW1 4052   0.554   5.159   0.820
 1051SOL    HW2 4053   0.521   5.258   0.694
 1052SOL     OW 4054   4.416   1.023   5.583
 1052SOL    HW1 4055   4.402   1.120   5.605
 1052SOL    HW2 4056   4.367   0.967   5.650
 1053SOL     OW 4057   6.001   3.617   2.364
 1053SOL    HW1 4058   5.999   3.548   2.291
 1053SOL    HW2 4059   5.911   3.622   2.406
 1054SOL     OW 4060   3.001   3.648   0.956
 1054SOL    HW1 4061   2.920   3.679   1.005
 1054SOL    HW2 4062   3.026   3.715   0.887
 1055SOL     OW 4063   3.967   6.674   5.467
 1055SOL    HW1 4064   3.930   6.683   5.560
 1055SOL    HW2 4065   3.974   6.764   5.425
 1056SOL     OW 4066   1.649   3.090   0.290
 1056SOL    HW1 4067   1.669   3.033   0.210
 1056SOL    HW2 4068   1.638   3.185   0.260
 1057SOL     OW 4069   3.517   3.275   1.156
 1057SOL    HW1 4070   3.525   3.244   1.251
 1057SOL    HW2 4071   3.481   3.368   1.153
 1058SOL     OW 4072   5.185   2.233   3.819
 1058SOL    HW1 4073   5.245   2.309   3.795
 1058SOL    HW2 4074   5.100   2.267   3.857
 1059SOL     OW 4075   1.941   0.757   2.346
 1059SOL    HW1 4076   1.995   0.700   2.409
 1059SOL    HW2 4077   1.973   0.741   2.253
 1060SOL     OW 4078   0.450   4.476   3.745
 1060SOL    HW1 4079   0.532   4.530   3.727
 1060SOL    HW2 4080   0.471   4.379   3.735
 1061SOL     OW 4081   6.763   3.333   6.059
 1061SOL    HW1 4082   6.780   3.390   5.979
 1061SOL    HW2 4083   6.850   3.312   6.104
 1062SOL     OW 4084   5.174   5.107   5.679
 1062SOL    HW1 4085   5.088   5.132   5.725
 1062SOL    HW2 4086   5.212   5.026   5.724
 1063SOL     OW 4087   0.794   5.833   0.509
 1063SOL    HW1 4088   0.775   5.793   0.419
 1063SOL    HW2 4089   0.732   5.795   0.577
 1064SOL     OW 4090   1.296   4.422   2.588
 1064SOL    HW1 4091   1.205   4.383   2.577
 1064SOL    HW2 4092   1.299   4.477   2.671
 1065SOL     OW 4093   4.684   0.883   2.654
 1065SOL    HW1 4094   4.622   0.830   2.596
 1065SOL    HW2 4095   4.775   0.885   2.612
 1066SOL     OW 4096   4.641   6.734   2.805
 1066SOL    HW1 4097   4.543   6.740   2.823
 1066SOL    HW2 4098   4.662   6.642   2.772
 1067SOL     OW 4099   1.410   2.338   0.229
 1067SOL    HW1 4100   1.368   2.406   0.289
 1067SOL    HW2 4101   1.382   2.246   0.259
 1068SOL     OW 4102   6.804   4.255   1.280
 1068SOL    HW1 4103   6.797   4.313   1.199
 1068SOL    HW2 4104   6.721   4.201   1.290
 1069SOL     OW 4105   5.377   5.925   1.014
 1069SOL    HW1 4106   5.343   5.912   0.921
 1069SOL    HW2 4107   5.300   5.941   1.075
 1070SOL     OW 4108   1.468   0.493   1.466
 1070SOL    HW1 4109   1.439   0.412   1.516
 1070SOL    HW2 4110   1.461   0.573   1.526
 1071SOL     OW 4111   2.333   1.831   3.664
 1071SOL    HW1 4112   2.380   1.789   3.742
 1071SOL    HW2 4113   2.393   1.826   3.584
 1072SOL     OW 4114   2.470   0.975   1.258
 1072SOL    HW1 4115   2.479   0.901   1.325
 1072SOL    HW2 4116   2.400   1.039   1.288
 1073SOL     OW 4117   4.706   0.533   3.258
 1073SOL    HW1 4118   4.790   0.490   3.224
 1073SOL    HW2 4119   4.728   0.593   3.334
 1074SOL     OW 4120   2.509   5.289   1.765
 1074SOL    HW1 4121   2.488   5.268   1.861
 1074SOL    HW2 4122   2.534   5.386   1.758
 1075SOL     OW 4123   5.958   0.388   3.378
 1075SOL    HW1 4124   6.045   0.382   3.427
 1075SOL    HW2 4125   5.937   0.484   3.360
 1076SOL     OW 4126   0.804   2.142   5.600
 1076SOL    HW1 4127   0.744   2.064   5.619
 1076SOL    HW2 4128   0.752   2.227   5.611
 1077SOL     OW 4129   6.325   6.967   0.550
 1077SOL    HW1 4130   6.409   6.932   0.509
 1077SOL    HW2 4131   6.347   7.021   0.631
 1078SOL     OW 4132   0.312   0.750   2.756
 1078SOL    HW1 4133   0.406   0.749   2.721
 1078SOL    HW2 4134   0.253   0.799   2.692
 1079SOL     OW 4135   1.286   5.883   2.023
 1079SOL    HW1 4136   1.372   5.931   2.008
 1079SOL    HW2 4137   1.210   5.941   1.992
 1080SOL     OW 4138   2.376   5.505   3.747
 1080SOL    HW1 4139   2.448   5.496   3.816
 1080SOL    HW2 4140   2.299   5.447   3.771
 1081SOL     OW 4141   6.661   5.433   5.604
 1081SOL    HW1 4142   6.681   5.501   5.675
 1081SOL    HW2 4143   6.565   5.438   5.579
 1082SOL     OW 4144   5.677   2.021   5.809
 1082SOL    HW1 4145   5.691   2.096   5.874
 1082SOL    HW2 4146   5.596   2.039   5.754
 1083SOL     OW 4147   4.675   4.145   0.308
 1083SOL    HW1 4148   4.719   4.188   0.387
 1083SOL    HW2 4149   4.716   4.056   0.291
 1084SOL     OW 4150   6.566   6.597   6.389
 1084SOL    HW1 4151   6.478   6.635   6.419
 1084SOL    HW2 4152   6.624   6.581   6.468
 1085SOL     OW 4153   1.822   4.270   4.399
 1085SOL    HW1 4154   1.911   4.227   4.385
 1085SOL    HW2 4155   1.751   4.199   4.401
 1086SOL     OW 4156   6.682   4.657   0.389
 1086SOL    HW1 4157   6.653   4.564   0.367
 1086SOL    HW2 4158   6.779   4.656   0.416
 1087SOL     OW 4159   0.166   2.057   5.121
 1087SOL    HW1 4160   0.097   2.052   5.048
 1087SOL    HW2 4161   0.216   1.971   5.126
 1088SOL     OW 4162   6.884   3.878   2.734
 1088SOL    HW1 4163   6.923   3.911   2.648
 1088SOL    HW2 4164   6.891   3.778   2.737
 1089SOL     OW 4165   6.275   5.740   4.681
 1089SOL    HW1 4166   6.364   5.706   4.714
 1089SOL    HW2 4167   6.205   5.723   4.750
 1090SOL     OW 4168   3.514   1.728   3.229
 1090SOL    HW1 4169   3.474   1.690   3.313
 1090SOL    HW2 4170   3.593   1.785   3.253
 1091SOL     OW 4171   2.464   2.492   4.263
 1091SOL    HW1 4172   2.563   2.509   4.261
 1091SOL    HW2 4173   2.440   2.428   4.191
 1092SOL     OW 4174   1.140   4.726   0.426
 1092SOL    HW1 4175   1.097   4.773   0.349
 1092SOL    HW2 4176   1.079   4.728   0.505
 1093SOL     OW 4177   2.852   6.690   1.411
 1093SOL    HW1 4178   2.887   6.781   1.435
 1093SOL    HW2 4179   2.864   6.675   1.313
 1094SOL     OW 4180   0.885   6.401   2.955
 1094SOL    HW1 4181   0.967   6.348   2.977
 1094SOL    HW2 4182   0.908   6.498   2.950
 1095SOL     OW 4183   0.514   3.020   5.947
 1095SOL    HW1 4184   0.479   2.936   5.987
 1095SOL    HW2 4185   0.438   3.080   5.924
 1096SOL     OW 4186   3.544   4.547   1.239
 1096SOL    HW1 4187   3.631   4.561   1.191
 1096SOL    HW2 4188   3.559   4.493   1.321
 1097SOL     OW 4189   2.310   4.976   3.804
 1097SOL    HW1 4190   2.270   5.013   3.888
 1097SOL    HW2 4191   2.407   4.958   3.818
 1098SOL     OW 4192   5.185   3.686   6.417
 1098SOL    HW1 4193   5.098   3.638   6.403
 1098SOL    HW2 4194   5.254   3.649   6.354
 1099SOL     OW 4195   3.784   1.182   6.540
 1099SOL    HW1 4196   3.818   1.187   6.634
 1099SOL    HW2 4197   3.770   1.275   6.505
 1100SOL     OW 4198   4.562   1.578   4.528
 1100SOL    HW1 4199   4.548   1.605   4.623
 1100SOL    HW2 4200   4.569   1.660   4.470
 1101SOL     OW 4201   5.668   4.071   5.894
 1101SOL    HW1 4202   5.592   4.018   5.856
 1101SOL    HW2 4203   5.713   4.122   5.820
 1102SOL     OW 4204   1.120   0.450   4.778
 1102SOL    HW1 4205   1.115   0.492   4.868
 1102SOL    HW2 4206   1.058   0.371   4.774
 1103SOL     OW 4207   3.490   1.282   0.320
 1103SOL    HW1 4208   3.430   1.245   0.249
 1103SOL    HW2 4209   3.438   1.293   0.405
 1104SOL     OW 4210   1.694   3.254   4.131
 1104SOL    HW1 4211   1.597   3.274   4.144
 1104SOL    HW2 4212   1.745   3.339   4.121
 1105SOL     OW 4213   5.768   3.009   4.940
 1105SOL    HW1 4214   5.766   3.106   4.918
 1105SOL    HW2 4215   5.710   2.991   5.019
 1106SOL     OW 4216   0.622   2.426   1.092
 1106SOL    HW1 4217   0.562   2.411   1.014
 1106SOL    HW2 4218   0.568   2.432   1.176
 1107SOL     OW 4219   1.190   0.322   0.222
 1107SOL    HW1 4220   1.156   0.378   0.297
 1107SOL    HW2 4221   1.177   0.225   0.245
 1108SOL     OW 4222   3.378   6.595   5.600
 1108SOL    HW1 4223   3.365   6.539   5.682
 1108SOL    HW2 4224   3.450   6.555   5.543
 1109SOL     OW 4225   5.448   0.979   4.431
 1109SOL    HW1 4226   5.491   1.005   4.518
 1109SOL    HW2 4227   5.412   1.061   4.385
 1110SOL     OW 4228   4.536   2.092   2.903
 1110SOL    HW1 4229   4.575   2.178   2.869
 1110SOL    HW2 4230   4.607   2.022   2.905
 1111SOL     OW 4231   5.684   5.956   6.729
 1111SOL    HW1 4232   5.743   6.029   6.765
 1111SOL    HW2 4233   5.661   5.893   6.802
 1112SOL     OW 4234   5.761   0.884   2.409
 1112SOL    HW1 4235   5.690   0.943   2.449
 1112SOL    HW2 4236   5.775   0.805   2.468
 1113SOL     OW 4237   5.515   4.759   1.327
 1113SOL    HW1 4238   5.447   4.703   1.374
 1113SOL    HW2 4239   5.484   4.854   1.324
 1114SOL     OW 4240   2.520   1.055   6.372
 1114SOL    HW1 4241   2.537   1.150   6.399
 1114SOL    HW2 4242   2.591   1.025   6.307
 1115SOL     OW 4243   3.762   3.384   5.670
 1115SOL    HW1 4244   3.721   3.473   5.689
 1115SOL    HW2 4245   3.710   3.313   5.716
 1116SOL     OW 4246   5.420   6.737   6.485
 1116SOL    HW1 4247   5.482   6.664   6.514
 1116SOL    HW2 4248   5.335   6.697   6.451
 1117SOL     OW 4249   0.790   2.426   2.072
 1117SOL    HW1 4250   0.790   2.472   1.983
 1117SOL    HW2 4251   0.862   2.356   2.073
 1118SOL     OW 4252   2.346   5.077   0.597
 1118SOL    HW1 4253   2.395   4.997   0.631
 1118SOL    HW2 4254   2.255   5.080   0.638
 1119SOL     OW 4255   4.209   4.455   1.620
 1119SOL    HW1 4256   4.256   4.472   1.707
 1119SOL    HW2 4257   4.256   4.502   1.546
 1120SOL     OW 4258   6.086   5.624   0.409
 1120SOL    HW1 4259   6.183   5.632   0.432
 1120SOL    HW2 4260   6.076   5.612   0.310
 1121SOL     OW 4261   6.891   4.248   4.533
 1121SOL    HW1 4262   6.840   4.230   4.449
 1121SOL    HW2 4263   6.894   4.346   4.550
 1122SOL     OW 4264   5.513   3.026   2.119
 1122SOL    HW1 4265   5.549   2.946   2.072
 1122SOL    HW2 4266   5.432   3.000   2.172
 1123SOL     OW 4267   5.196   2.312   3.315
 1123SOL    HW1 4268   5.156   2.284   3.228
 1123SOL    HW2 4269   5.187   2.411   3.326
 1124SOL     OW 4270   0.071   4.052   5.324
 1124SOL    HW1 4271   7.015   4.028   5.268
 1124SOL    HW2 4272   0.047   4.125   5.387
 1125SOL     OW 4273   1.908   1.954   3.864
 1125SOL    HW1 4274   1.960   1.929   3.783
 1125SOL    HW2 4275   1.871   2.046   3.854
 1126SOL     OW 4276   6.077   5.383   6.065
 1126SOL    HW1 4277   6.083   5.284   6.056
 1126SOL    HW2 4278   6.083   5.425   5.974
 1127SOL     OW 4279   5.311   6.347   4.607
 1127SOL    HW1 4280   5.400   6.306   4.629
 1127SOL    HW2 4281   5.242   6.275   4.600
 1128SOL     OW 4282   5.807   1.424   4.059
 1128SOL    HW1 4283   5.784   1.351   3.995
 1128SOL    HW2 4284   5.732   1.489   4.063
 1129SOL     OW 4285   1.970   6.723   0.747
 1129SOL    HW1 4286   1.883   6.750   0.706
 1129SOL    HW2 4287   2.043   6.780   0.709
 1130SOL     OW 4288   2.420   4.739   0.905
 1130SOL    HW1 4289   2.434   4.660   0.964
 1130SOL    HW2 4290   2.372   4.811   0.955
 1131SOL     OW 4291   1.448   6.831   5.439
 1131SOL    HW1 4292   1.443   6.766   5.516
 1131SOL    HW2 4293   1.534   6.882   5.444
 1132SOL     OW 4294   4.583   0.143   2.772
 1132SOL    HW1 4295   4.590   0.234   2.731
 1132SOL    HW2 4296   4.630   0.143   2.860
 1133SOL     OW 4297   1.378   1.302   6.946
 1133SOL    HW1 4298   1.377   1.402   6.955
 1133SOL    HW2 4299   1.292   1.265   6.982
 1134SOL     OW 4300   5.200   7.016   2.703
 1134SOL    HW1 4301   5.171   0.020   2.794
 1134SOL    HW2 4302   5.130   6.959   2.661
 1135SOL     OW 4303   2.107   6.371   4.338
 1135SOL    HW1 4304   2.167   6.352   4.260
 1135SOL    HW2 4305   2.038   6.298   4.345
 1136SOL     OW 4306   4.532   4.543   3.195
 1136SOL    HW1 4307   4.452   4.597   3.222
 1136SOL    HW2 4308   4.612   4.574   3.247
 1137SOL     OW 4309   1.284   6.688   0.201
 1137SOL    HW1 4310   1.363   6.743   0.175
 1137SOL    HW2 4311   1.204   6.717   0.148
 1138SOL     OW 4312   0.041   1.006   5.864
 1138SOL    HW1 4313   6.984   0.969   5.911
 1138SOL    HW2 4314   0.071   0.942   5.794
 1139SOL     OW 4315   2.597   5.188   3.211
 1139SOL    HW1 4316   2.688   5.202   3.172
 1139SOL    HW2 4317   2.540   5.137   3.147
 1140SOL     OW 4318   2.886   0.991   2.307
 1140SOL    HW1 4319   2.812   0.946   2.257
 1140SOL    HW2 4320   2.949   1.033   2.243
 1141SOL     OW 4321   0.349   6.254   0.288
 1141SOL    HW1 4322   0.342   6.158   0.262
 1141SOL    HW2 4323   0.340   6.263   0.387
 1142SOL     OW 4324   3.162   0.140   3.913
 1142SOL    HW1 4325   3.201   0.058   3.954
 1142SOL    HW2 4326   3.204   0.156   3.824
 1143SOL     OW 4327   2.147   2.752   2.859
 1143SOL    HW1 4328   2.247   2.755   2.851
 1143SOL    HW2 4329   2.114   2.841   2.890
 1144SOL     OW 4330   6.193   4.527   3.337
 1144SOL    HW1 4331   6.288   4.498   3.351
 1144SOL    HW2 4332   6.191   4.604   3.274
 1145SOL     OW 4333   6.875   3.120   0.779
 1145SOL    HW1 4334   6.803   3.054   0.798
 1145SOL    HW2 4335   6.945   3.077   0.721
 1146SOL     OW 4336   0.174   1.399   2.008
 1146SOL    HW1 4337   0.121   1.459   1.949
 1146SOL    HW2 4338   0.116   1.364   2.082
 1147SOL     OW 4339   3.111   5.488   1.752
 1147SOL    HW1 4340   3.144   5.410   1.807
 1147SOL    HW2 4341   3.100   5.567   1.812
 1148SOL     OW 4342   4.708   6.433   0.766
 1148SOL    HW1 4343   4.801   6.420   0.732
 1148SOL    HW2 4344   4.708   6.425   0.866
 1149SOL     OW 4345   5.374   2.442   2.702
 1149SOL    HW1 4346   5.335   2.533   2.693
 1149SOL    HW2 4347   5.474   2.448   2.711
 1150SOL     OW 4348   0.805   4.416   6.892
 1150SOL    HW1 4349   0.779   4.461   6.976
 1150SOL    HW2 4350   0.733   4.352   6.864
 1151SOL     OW 4351   5.578   4.417   5.264
 1151SOL    HW1 4352   5.577   4.373   5.174
 1151SOL    HW2 4353   5.496   4.391   5.314
 1152SOL     OW 4354   4.982   5.421   6.092
 1152SOL    HW1 4355   4.922   5.444   6.169
 1152SOL    HW2 4356   4.989   5.500   6.031
 1153SOL     OW 4357   6.809   6.929   1.809
 1153SOL    HW1 4358   6.797   6.830   1.807
 1153SOL    HW2 4359   6.754   6.968   1.882
 1154SOL     OW 4360   0.414   4.831   0.768
 1154SOL    HW1 4361   0.331   4.851   0.819
 1154SOL    HW2 4362   0.480   4.906   0.780
 1155SOL     OW 4363   2.993   4.957   5.683
 1155SOL    HW1 4364   3.042   5.041   5.706
 1155SOL    HW2 4365   3.019   4.927   5.591
 1156SOL     OW 4366   4.235   1.836   5.329
 1156SOL    HW1 4367   4.175   1.860   5.253
 1156SOL    HW2 4368   4.303   1.908   5.343
 1157SOL     OW 4369   5.038   1.232   5.936
 1157SOL    HW1 4370   4.965   1.205   5.999
 1157SOL    HW2 4371   5.063   1.155   5.879
 1158SOL     OW 4372   6.895   5.025   4.956
 1158SOL    HW1 4373   6.839   5.016   5.038
 1158SOL    HW2 4374   6.873   4.952   4.892
 1159SOL     OW 4375   6.320   6.874   3.835
 1159SOL    HW1 4376   6.323   6.860   3.934
 1159SOL    HW2 4377   6.262   6.803   3.794
 1160SOL     OW 4378   4.324   4.917   1.334
 1160SOL    HW1 4379   4.398   4.981   1.352
 1160SOL    HW2 4380   4.258   4.920   1.410
 1161SOL     OW 4381   6.921   5.702   6.215
 1161SOL    HW1 4382   6.933   5.735   6.308
 1161SOL    HW2 4383   7.003   5.652   6.187
 1162SOL     OW 4384   2.105   2.358   6.388
 1162SOL    HW1 4385   2.117   2.352   6.289
 1162SOL    HW2 4386   2.144   2.278   6.432
 1163SOL     OW 4387   6.489   4.029   1.983
 1163SOL    HW1 4388   6.431   3.971   1.926
 1163SOL    HW2 4389   6.481   4.124   1.953
 1164SOL     OW 4390   4.696   2.171   4.297
 1164SOL    HW1 4391   4.786   2.213   4.308
 1164SOL    HW2 4392   4.705   2.072   4.289
 1165SOL     OW 4393   4.425   5.400   3.711
 1165SOL    HW1 4394   4.518   5.435   3.718
 1165SOL    HW2 4395   4.372   5.459   3.650
 1166SOL     OW 4396   2.607   6.573   0.244
 1166SOL    HW1 4397   2.670   6.512   0.197
 1166SOL    HW2 4398   2.547   6.520   0.305
 1167SOL     OW 4399   4.385   6.435   0.254
 1167SOL    HW1 4400   4.340   6.489   0.325
 1167SOL    HW2 4401   4.439   6.363   0.297
 1168SOL     OW 4402   5.776   2.866   1.488
 1168SOL    HW1 4403   5.683   2.899   1.475
 1168SOL    HW2 4404   5.775   2.767   1.502
 1169SOL     OW 4405   4.268   1.704   5.974
 1169SOL    HW1 4406   4.345   1.722   5.911
 1169SOL    HW2 4407   4.271   1.770   6.049
 1170SOL     OW 4408   5.421   0.153   3.073
 1170SOL    HW1 4409   5.441   0.148   2.975
 1170SOL    HW2 4410   5.327   0.121   3.090
 1171SOL     OW 4411   3.118   6.335   6.936
 1171SOL    HW1 4412   3.193   6.318   6.871
 1171SOL    HW2 4413   3.054   6.259   6.933
 1172SOL     OW 4414   4.545   4.273   0.863
 1172SOL    HW1 4415   4.610   4.334   0.817
 1172SOL    HW2 4416   4.499   4.323   0.936
 1173SOL     OW 4417   3.663   1.079   1.153
 1173SOL    HW1 4418   3.669   1.163   1.205
 1173SOL    HW2 4419   3.700   1.094   1.061
 1174SOL     OW 4420   3.263   3.903   1.654
 1174SOL    HW1 4421   3.342   3.961   1.636
 1174SOL    HW2 4422   3.195   3.954   1.707
 1175SOL     OW 4423   4.361   3.888   6.346
 1175SOL    HW1 4424   4.398   3.923   6.259
 1175SOL    HW2 4425   4.395   3.943   6.421
 1176SOL     OW 4426   5.125   3.615   0.456
 1176SOL    HW1 4427   5.100   3.549   0.527
 1176SOL    HW2 4428   5.108   3.708   0.490
 1177SOL     OW 4429   6.227   3.821   4.709
 1177SOL    HW1 4430   6.154   3.863   4.655
 1177SOL    HW2 4431   6.244   3.729   4.676
 1178SOL     OW 4432   3.382   4.236   0.332
 1178SOL    HW1 4433   3.368   4.247   0.430
 1178SOL    HW2 4434   3.456   4.296   0.302
 1179SOL     OW 4435   2.809   5.577   0.864
 1179SOL    HW1 4436   2.744   5.652   0.877
 1179SOL    HW2 4437   2.775   5.515   0.793
 1180SOL     OW 4438   2.574   6.374   3.981
 1180SOL    HW1 4439   2.590   6.313   4.058
 1180SOL    HW2 4440   2.600   6.467   4.006
 1181SOL     OW 4441   0.024   5.517   4.955
 1181SOL    HW1 4442   6.991   5.449   4.909
 1181SOL    HW2 4443   0.104   5.538   4.898
 1182SOL     OW 4444   5.582   5.545   3.845
 1182SOL    HW1 4445   5.600   5.627   3.790
 1182SOL    HW2 4446   5.582   5.465   3.786
 1183SOL     OW 4447   2.343   4.732   0.303
 1183SOL    HW1 4448   2.423   4.685   0.339
 1183SOL    HW2 4449   2.354   4.831   0.315
 1184SOL     OW 4450   6.825   1.377   4.808
 1184SOL    HW1 4451   6.907   1.416   4.849
 1184SOL    HW2 4452   6.828   1.392   4.709
 1185SOL     OW 4453   0.891   0.524   1.060
 1185SOL    HW1 4454   0.966   0.590   1.056
 1185SOL    HW2 4455   0.810   0.568   1.098
 1186SOL     OW 4456   5.267   6.219   5.535
 1186SOL    HW1 4457   5.259   6.222   5.634
 1186SOL    HW2 4458   5.363   6.229   5.508
 1187SOL     OW 4459   4.810   0.215   5.795
 1187SOL    HW1 4460   4.730   0.163   5.764
 1187SOL    HW2 4461   4.783   0.310   5.812
 1188SOL     OW 4462   3.552   5.985   5.895
 1188SOL    HW1 4463   3.594   6.075   5.885
 1188SOL    HW2 4464   3.454   5.995   5.911
 1189SOL     OW 4465   5.997   1.768   1.417
 1189SOL    HW1 4466   6.096   1.778   1.415
 1189SOL    HW2 4467   5.970   1.718   1.499
 1190SOL     OW 4468   3.712   5.533   3.739
 1190SOL    HW1 4469   3.706   5.590   3.657
 1190SOL    HW2 4470   3.799   5.485   3.740
 1191SOL     OW 4471   4.079   5.646   4.445
 1191SOL    HW1 4472   4.159   5.681   4.395
 1191SOL    HW2 4473   4.052   5.712   4.515
 1192SOL     OW 4474   4.968   4.556   2.349
 1192SOL    HW1 4475   5.022   4.565   2.265
 1192SOL    HW2 4476   4.900   4.483   2.336
 1193SOL     OW 4477   6.723   2.140   5.075
 1193SOL    HW1 4478   6.755   2.153   5.169
 1193SOL    HW2 4479   6.802   2.121   5.016
 1194SOL     OW 4480   5.605   6.947   1.623
 1194SOL    HW1 4481   5.651   6.978   1.707
 1194SOL    HW2 4482   5.568   6.856   1.638
 1195SOL     OW 4483   0.574   4.191   0.848
 1195SOL    HW1 4484   0.511   4.225   0.918
 1195SOL    HW2 4485   0.585   4.260   0.777
 1196SOL     OW 4486   6.728   5.017   3.374
 1196SOL    HW1 4487   6.820   5.046   3.347
 1196SOL    HW2 4488   6.662   5.086   3.345
 1197SOL     OW 4489   4.706   0.112   4.913
 1197SOL    HW1 4490   4.658   0.162   4.984
 1197SOL    HW2 4491   4.735   0.023   4.949
 1198SOL     OW 4492   1.517   3.090   3.110
 1198SOL    HW1 4493   1.564   3.063   3.195
 1198SOL    HW2 4494   1.563   3.049   3.032
 1199SOL     OW 4495   3.470   3.989   1.077
 1199SOL    HW1 4496   3.436   3.984   1.171
 1199SOL    HW2 4497   3.496   3.898   1.046
 1200SOL     OW 4498   3.751   4.097   3.949
 1200SOL    HW1 4499   3.835   4.044   3.965
 1200SOL    HW2 4500   3.702   4.109   4.035
 1201SOL     OW 4501   1.005   1.353   4.512
 1201SOL    HW1 4502   0.968   1.260   4.510
 1201SOL    HW2 4503   0.954   1.407   4.579
 1202SOL     OW 4504   0.329   5.799   5.616
 1202SOL    HW1 4505   0.338   5.886   5.567
 1202SOL    HW2 4506   0.369   5.726   5.561
 1203SOL     OW 4507   6.851   6.335   0.002
 1203SOL    HW1 4508   6.836   6.360   0.097
 1203SOL    HW2 4509   6.922   6.264   7.020
 1204SOL     OW 4510   4.384   1.451   1.551
 1204SOL    HW1 4511   4.476   1.413   1.552
 1204SOL    HW2 4512   4.322   1.389   1.502
 1205SOL     OW 4513   3.971   3.073   0.631
 1205SOL    HW1 4514   3.896   3.037   0.576
 1205SOL    HW2 4515   3.934   3.123   0.710
 1206SOL     OW 4516   2.586   2.797   5.336
 1206SOL    HW1 4517   2.633   2.847   5.409
 1206SOL    HW2 4518   2.530   2.861   5.283
 1207SOL     OW 4519   2.471   6.416   0.902
 1207SOL    HW1 4520   2.416   6.336   0.877
 1207SOL    HW2 4521   2.447   6.444   0.996
 1208SOL     OW 4522   3.540   3.558   1.208
 1208SOL    HW1 4523   3.584   3.634   1.159
 1208SOL    HW2 4524   3.458   3.591   1.255
 1209SOL     OW 4525   4.138   1.028   4.221
 1209SOL    HW1 4526   4.073   1.050   4.293
 1209SOL    HW2 4527   4.191   1.109   4.198
 1210SOL     OW 4528   3.484   0.017   3.582
 1210SOL    HW1 4529   3.582   0.026   3.569
 1210SOL    HW2 4530   3.439   0.008   3.492
 1211SOL     OW 4531   0.297   3.443   2.515
 1211SOL    HW1 4532   0.232   3.478   2.582
 1211SOL    HW2 4533   0.339   3.359   2.550
 1212SOL     OW 4534   6.198   0.547   0.306
 1212SOL    HW1 4535   6.281   0.598   0.282
 1212SOL    HW2 4536   6.133   0.609   0.350
 1213SOL     OW 4537   6.211   2.297   1.006
 1213SOL    HW1 4538   6.258   2.367   0.953
 1213SOL    HW2 4539   6.135   2.338   1.055
 1214SOL     OW 4540   1.256   2.929   6.656
 1214SOL    HW1 4541   1.296   3.004   6.602
 1214SOL    HW2 4542   1.209   2.865   6.596
 1215SOL     OW 4543   1.322   4.625   3.055
 1215SOL    HW1 4544   1.407   4.616   3.003
 1215SOL    HW2 4545   1.289   4.534   3.080
 1216SOL     OW 4546   5.015   0.325   1.195
 1216SOL    HW1 4547   5.076   0.330   1.274
 1216SOL    HW2 4548   4.994   0.417   1.163
 1217SOL     OW 4549   2.119   4.552   0.865
 1217SOL    HW1 4550   2.155   4.625   0.807
 1217SOL    HW2 4551   2.106   4.585   0.958
 1218SOL     OW 4552   1.491   4.038   4.754
 1218SOL    HW1 4553   1.524   4.133   4.759
 1218SOL    HW2 4554   1.432   4.027   4.674
 1219SOL     OW 4555   5.321   6.065   2.098
 1219SOL    HW1 4556   5.420   6.076   2.082
 1219SOL    HW2 4557   5.273   6.145   2.065
 1220SOL     OW 4558   0.800   4.369   3.054
 1220SOL    HW1 4559   0.714   4.402   3.092
 1220SOL    HW2 4560   0.875   4.389   3.118
 1221SOL     OW 4561   5.098   4.057   6.568
 1221SOL    HW1 4562   5.116   4.155   6.560
 1221SOL    HW2 4563   5.168   4.006   6.518
 1222SOL     OW 4564   6.761   0.684   6.987
 1222SOL    HW1 4565   6.762   0.773   0.009
 1222SOL    HW2 4566   6.722   0.693   6.895
 1223SOL     OW 4567   3.965   1.732   0.158
 1223SOL    HW1 4568   3.889   1.678   0.122
 1223SOL    HW2 4569   3.937   1.778   0.242
 1224SOL     OW 4570   3.521   5.849   0.760
 1224SOL    HW1 4571   3.533   5.755   0.791
 1224SOL    HW2 4572   3.474   5.902   0.832
 1225SOL     OW 4573   2.835   3.170   5.965
 1225SOL    HW1 4574   2.910   3.220   6.009
 1225SOL    HW2 4575   2.842   3.181   5.866
 1226SOL     OW 4576   2.644   5.981   1.596
 1226SOL    HW1 4577   2.659   5.884   1.612
 1226SOL    HW2 4578   2.591   6.020   1.671
 1227SOL     OW 4579   6.785   4.409   6.034
 1227SOL    HW1 4580   6.864   4.385   5.978
 1227SOL    HW2 4581   6.701   4.376   5.991
 1228SOL     OW 4582   3.373   1.908   6.298
 1228SOL    HW1 4583   3.378   1.865   6.208
 1228SOL    HW2 4584   3.357   2.006   6.286
 1229SOL     OW 4585   3.792   5.009   5.493
 1229SOL    HW1 4586   3.744   5.061   5.422
 1229SOL    HW2 4587   3.728   4.945   5.536
 1230SOL     OW 4588   4.580   6.933   2.628
 1230SOL    HW1 4589   4.631   6.866   2.681
 1230SOL    HW2 4590   4.583   7.022   2.675
 1231SOL     OW 4591   2.015   2.853   4.506
 1231SOL    HW1 4592   1.970   2.915   4.570
 1231SOL    HW2 4593   1.987   2.875   4.413
 1232SOL     OW 4594   0.628   1.794   5.099
 1232SOL    HW1 4595   0.571   1.726   5.146
 1232SOL    HW2 4596   0.721   1.760   5.091
 1233SOL     OW 4597   0.644   4.449   4.769
 1233SOL    HW1 4598   0.628   4.496   4.855
 1233SOL    HW2 4599   0.616   4.509   4.693
 1234SOL     OW 4600   6.510   3.781   5.014
 1234SOL    HW1 4601   6.557   3.697   4.990
 1234SOL    HW2 4602   6.412   3.763   5.023
 1235SOL     OW 4603   0.163   6.076   2.344
 1235SOL    HW1 4604   0.255   6.103   2.371
 1235SOL    HW2 4605   0.110   6.158   2.323
 1236SOL     OW 4606   4.482   1.682   6.909
 1236SOL    HW1 4607   4.484   1.586   6.936
 1236SOL    HW2 4608   4.575   1.717   6.903
 1237SOL     OW 4609   2.218   5.175   5.584
 1237SOL    HW1 4610   2.237   5.234   5.505
 1237SOL    HW2 4611   2.247   5.082   5.563
 1238SOL     OW 4612   2.521   1.361   0.286
 1238SOL    HW1 4613   2.538   1.278   0.338
 1238SOL    HW2 4614   2.608   1.402   0.258
 1239SOL     OW 4615   0.108   6.855   5.854
 1239SOL    HW1 4616   0.020   6.900   5.843
 1239SOL    HW2 4617   0.165   6.872   5.774
 1240SOL     OW 4618   5.287   6.315   1.983
 1240SOL    HW1 4619   5.382   6.312   2.015
 1240SOL    HW2 4620   5.245   6.400   2.014
 1241SOL     OW 4621   5.394   3.793   4.084
 1241SOL    HW1 4622   5.444   3.872   4.119
 1241SOL    HW2 4623   5.448   3.749   4.011
 1242SOL     OW 4624   0.329   3.464   1.588
 1242SOL    HW1 4625   0.321   3.436   1.492
 1242SOL    HW2 4626   0.392   3.541   1.595
 1243SOL     OW 4627   0.029   0.174   4.724
 1243SOL    HW1 4628   6.961   0.181   4.763
 1243SOL    HW2 4629   0.085   0.112   4.779
 1244SOL     OW 4630   6.516   0.139   4.130
 1244SOL    HW1 4631   6.486   0.053   4.088
 1244SOL    HW2 4632   6.590   0.121   4.194
 1245SOL     OW 4633   4.570   5.143   0.314
 1245SOL    HW1 4634   4.616   5.079   0.254
 1245SOL    HW2 4635   4.620   5.152   0.400
 1246SOL     OW 4636   2.364   6.414   1.561
 1246SOL    HW1 4637   2.429   6.337   1.560
 1246SOL    HW2 4638   2.410   6.495   1.596
 1247SOL     OW 4639   2.214   0.573   6.780
 1247SOL    HW1 4640   2.272   0.528   6.848
 1247SOL    HW2 4641   2.264   0.650   6.739
 1248SOL     OW 4642   2.175   0.358   5.024
 1248SOL    HW1 4643   2.151   0.341   4.928
 1248SOL    HW2 4644   2.196   0.454   5.036
 1249SOL     OW 4645   5.623   2.174   2.680
 1249SOL    HW1 4646   5.690   2.241   2.648
 1249SOL    HW2 4647   5.583   2.204   2.766
 1250SOL     OW 4648   6.184   4.961   4.214
 1250SOL    HW1 4649   6.253   4.923   4.277
 1250SOL    HW2 4650   6.095   4.921   4.235
 1251SOL     OW 4651   3.225   0.515   4.447
 1251SOL    HW1 4652   3.232   0.435   4.386
 1251SOL    HW2 4653   3.177   0.588   4.399
 1252SOL     OW 4654   3.789   3.247   4.672
 1252SOL    HW1 4655   3.768   3.149   4.678
 1252SOL    HW2 4656   3.887   3.259   4.659
 1253SOL     OW 4657   3.400   5.396   2.034
 1253SOL    HW1 4658   3.376   5.313   2.084
 1253SOL    HW2 4659   3.394   5.474   2.096
 1254SOL     OW 4660   0.918   2.465   2.636
 1254SOL    HW1 4661   0.833   2.474   2.687
 1254SOL    HW2 4662   0.916   2.525   2.556
 1255SOL     OW 4663   6.468   2.040   4.977
 1255SOL    HW1 4664   6.552   2.017   5.026
 1255SOL    HW2 4665   6.489   2.060   4.882
 1256SOL     OW 4666   6.772   6.647   3.558
 1256SOL    HW1 4667   6.806   6.564   3.514
 1256SOL    HW2 4668   6.846   6.714   3.564
 1257SOL     OW 4669   0.282   6.435   4.482
 1257SOL    HW1 4670   0.188   6.469   4.481
 1257SOL    HW2 4671   0.310   6.417   4.576
 1258SOL     OW 4672   1.639   5.415   3.556
 1258SOL    HW1 4673   1.622   5.398   3.459
 1258SOL    HW2 4674   1.553   5.442   3.600
 1259SOL     OW 4675   3.925   1.378   4.025
 1259SOL    HW1 4676   3.961   1.468   4.046
 1259SOL    HW2 4677   3.926   1.322   4.108
 1260SOL     OW 4678   1.628   1.615   6.957
 1260SOL    HW1 4679   1.689   1.665   6.895
 1260SOL    HW2 4680   1.668   1.613   0.025
 1261SOL     OW 4681   0.633   5.595   6.630
 1261SOL    HW1 4682   0.581   5.652   6.566
 1261SOL    HW2 4683   0.699   5.540   6.579
 1262SOL     OW 4684   4.915   4.092   1.458
 1262SOL    HW1 4685   4.889   4.075   1.553
 1262SOL    HW2 4686   5.001   4.143   1.455
 1263SOL     OW 4687   0.347   1.713   2.292
 1263SOL    HW1 4688   0.320   1.772   2.368
 1263SOL    HW2 4689   0.318   1.619   2.310
 1264SOL     OW 4690   7.005   4.216   0.212
 1264SOL    HW1 4691   6.943   4.295   0.209
 1264SOL    HW2 4692   7.020   4.182   0.119
 1265SOL     OW 4693   5.721   5.004   4.701
 1265SOL    HW1 4694   5.746   5.015   4.605
 1265SOL    HW2 4695   5.736   4.909   4.729
 1266SOL     OW 4696   0.220   1.070   4.325
 1266SOL    HW1 4697   0.217   1.129   4.244
 1266SOL    HW2 4698   0.276   0.990   4.305
 1267SOL     OW 4699   5.831   1.248   1.082
 1267SOL    HW1 4700   5.843   1.192   1.000
 1267SOL    HW2 4701   5.875   1.337   1.069
 1268SOL     OW 4702   2.717   2.944   6.399
 1268SOL    HW1 4703   2.706   3.042   6.383
 1268SOL    HW2 4704   2.653   2.915   6.470
 1269SOL     OW 4705   5.953   3.290   4.399
 1269SOL    HW1 4706   5.930   3.233   4.320
 1269SOL    HW2 4707   5.884   3.361   4.411
 1270SOL     OW 4708   1.756   4.446   2.657
 1270SOL    HW1 4709   1.805   4.400   2.731
 1270SOL    HW2 4710   1.795   4.537   2.643
 1271SOL     OW 4711   3.792   1.847   2.797
 1271SOL    HW1 4712   3.876   1.797   2.814
 1271SOL    HW2 4713   3.800   1.939   2.836
 1272SOL     OW 4714   5.516   5.101   6.778
 1272SOL    HW1 4715   5.580   5.091   6.702
 1272SOL    HW2 4716   5.445   5.032   6.771
 1273SOL     OW 4717   0.980   4.144   6.012
 1273SOL    HW1 4718   1.023   4.077   6.073
 1273SOL    HW2 4719   0.997   4.118   5.917
 1274SOL     OW 4720   0.077   4.400   0.965
 1274SOL    HW1 4721   7.015   4.451   0.951
 1274SOL    HW2 4722   0.106   4.409   1.060
 1275SOL     OW 4723   3.314   1.995   3.384
 1275SOL    HW1 4724   3.410   2.020   3.397
 1275SOL    HW2 4725   3.298   1.973   3.287
 1276SOL     OW 4726   5.825   4.864   5.112
 1276SOL    HW1 4727   5.865   4.814   5.035
 1276SOL    HW2 4728   5.787   4.951   5.080
 1277SOL     OW 4729   2.115   5.244   6.254
 1277SOL    HW1 4730   2.186   5.203   6.196
 1277SOL    HW2 4731   2.157   5.311   6.315
 1278SOL     OW 4732   1.316   0.182   4.895
 1278SOL    HW1 4733   1.235   0.237   4.914
 1278SOL    HW2 4734   1.310   0.094   4.943
 1279SOL     OW 4735   1.888   4.961   6.822
 1279SOL    HW1 4736   1.792   4.933   6.814
 1279SOL    HW2 4737   1.898   5.055   6.791
 1280SOL     OW 4738   4.532   6.366   3.817
 1280SOL    HW1 4739   4.445   6.381   3.769
 1280SOL    HW2 4740   4.570   6.278   3.788
 1281SOL     OW 4741   2.736   6.098   3.054
 1281SOL    HW1 4742   2.637   6.084   3.053
 1281SOL    HW2 4743   2.772   6.087   2.961
 1282SOL     OW 4744   6.356   2.040   6.349
 1282SOL    HW1 4745   6.268   2.082   6.372
 1282SOL    HW2 4746   6.344   1.979   6.270
 1283SOL     OW 4747   6.724   2.949   5.177
 1283SOL    HW1 4748   6.785   2.931   5.254
 1283SOL    HW2 4749   6.718   2.867   5.120
 1284SOL     OW 4750   4.372   1.676   1.741
 1284SOL    HW1 4751   4.396   1.594   1.689
 1284SOL    HW2 4752   4.338   1.746   1.679
 1285SOL     OW 4753   4.831   1.416   5.382
 1285SOL    HW1 4754   4.854   1.460   5.469
 1285SOL    HW2 4755   4.819   1.486   5.311
 1286SOL     OW 4756   4.394   2.798   0.760
 1286SOL    HW1 4757   4.301   2.826   0.735
 1286SOL    HW2 4758   4.437   2.870   0.814
 1287SOL     OW 4759   5.287   4.326   5.718
 1287SOL    HW1 4760   5.189   4.316   5.735
 1287SOL    HW2 4761   5.338   4.296   5.799
 1288SOL     OW 4762   3.831   3.976   6.235
 1288SOL    HW1 4763   3.780   3.916   6.297
 1288SOL    HW2 4764   3.857   4.059   6.283
 1289SOL     OW 4765   0.825   0.189   1.093
 1289SOL    HW1 4766   0.836   0.207   1.191
 1289SOL    HW2 4767   0.728   0.179   1.072
 1290SOL     OW 4768   1.504   6.984   0.479
 1290SOL    HW1 4769   1.538   6.893   0.455
 1290SOL    HW2 4770   1.543   7.012   0.566
 1291SOL     OW 4771   0.412   4.172   3.917
 1291SOL    HW1 4772   0.493   4.173   3.857
 1291SOL    HW2 4773   0.331   4.195   3.864
 1292SOL     OW 4774   0.714   6.051   2.525
 1292SOL    HW1 4775   0.717   6.049   2.425
 1292SOL    HW2 4776   0.660   6.129   2.555
 1293SOL     OW 4777   2.471   2.304   6.823
 1293SOL    HW1 4778   2.371   2.294   6.830
 1293SOL    HW2 4779   2.492   2.361   6.744
 1294SOL     OW 4780   0.260   3.287   5.663
 1294SOL    HW1 4781   0.350   3.264   5.627
 1294SOL    HW2 4782   0.269   3.361   5.731
 1295SOL     OW 4783   0.364   3.562   1.269
 1295SOL    HW1 4784   0.315   3.647   1.249
 1295SOL    HW2 4785   0.413   3.532   1.187
 1296SOL     OW 4786   4.704   6.912   5.110
 1296SOL    HW1 4787   4.741   6.832   5.064
 1296SOL    HW2 4788   4.769   6.942   5.181
 1297SOL     OW 4789   0.867   6.816   0.999
 1297SOL    HW1 4790   0.888   6.913   0.984
 1297SOL    HW2 4791   0.830   6.804   1.091
 1298SOL     OW 4792   4.781   5.918   3.190
 1298SOL    HW1 4793   4.842   5.950   3.117
 1298SOL    HW2 4794   4.775   5.818   3.186
 1299SOL     OW 4795   2.435   2.536   3.573
 1299SOL    HW1 4796   2.449   2.540   3.672
 1299SOL    HW2 4797   2.339   2.556   3.552
 1300SOL     OW 4798   1.981   3.123   0.782
 1300SOL    HW1 4799   2.015   3.212   0.813
 1300SOL    HW2 4800   1.897   3.135   0.729
 1301SOL     OW 4801   0.668   6.566   1.690
 1301SOL    HW1 4802   0.606   6.488   1.689
 1301SOL    HW2 4803   0.724   6.566   1.607
 1302SOL     OW 4804   5.264   6.949   5.447
 1302SOL    HW1 4805   5.228   6.888   5.518
 1302SOL    HW2 4806   5.196   7.019   5.427
 1303SOL     OW 4807   4.293   1.269   1.140
 1303SOL    HW1 4808   4.367   1.315   1.092
 1303SOL    HW2 4809   4.245   1.208   1.077
 1304SOL     OW 4810   1.982   0.108   0.788
 1304SOL    HW1 4811   1.929   0.084   0.706
 1304SOL    HW2 4812   2.021   0.199   0.777
 1305SOL     OW 4813   5.964   4.032   0.612
 1305SOL    HW1 4814   5.969   3.943   0.657
 1305SOL    HW2 4815   5.887   4.084   0.649
 1306SOL     OW 4816   1.043   6.008   4.343
 1306SOL    HW1 4817   1.075   6.072   4.413
 1306SOL    HW2 4818   1.071   6.040   4.253
 1307SOL     OW 4819   2.185   4.083   4.173
 1307SOL    HW1 4820   2.201   4.086   4.271
 1307SOL    HW2 4821   2.217   4.168   4.131
 1308SOL     OW 4822   0.108   6.805   6.133
 1308SOL    HW1 4823   0.099   6.826   6.036
 1308SOL    HW2 4824   0.043   6.733   6.157
 1309SOL     OW 4825   5.855   4.941   5.667
 1309SOL    HW1 4826   5.868   4.918   5.570
 1309SOL    HW2 4827   5.760   4.965   5.684
 1310SOL     OW 4828   0.298   3.483   2.960
 1310SOL    HW1 4829   0.198   3.472   2.958
 1310SOL    HW2 4830   0.332   3.457   3.050
 1311SOL     OW 4831   0.076   5.981   6.022
 1311SOL    HW1 4832   0.070   5.961   6.120
 1311SOL    HW2 4833   0.015   5.920   5.972
 1312SOL     OW 4834   1.398   6.471   0.042
 1312SOL    HW1 4835   1.483   6.507   0.002
 1312SOL    HW2 4836   1.373   6.527   0.121
 1313SOL     OW 4837   0.188   4.973   2.868
 1313SOL    HW1 4838   0.255   5.048   2.860
 1313SOL    HW2 4839   0.210   4.903   2.801
 1314SOL     OW 4840   3.842   1.522   4.781
 1314SOL    HW1 4841   3.914   1.590   4.771
 1314SOL    HW2 4842   3.840   1.490   4.876
 1315SOL     OW 4843   6.831   1.270   2.964
 1315SOL    HW1 4844   6.890   1.234   3.036
 1315SOL    HW2 4845   6.878   1.345   2.917
 1316SOL     OW 4846   3.634   0.040   5.841
 1316SOL    HW1 4847   3.703   7.015   5.895
 1316SOL    HW2 4848   3.545   0.031   5.885
 1317SOL     OW 4849   1.481   4.213   5.953
 1317SOL    HW1 4850   1.448   4.302   5.923
 1317SOL    HW2 4851   1.514   4.219   6.047
 1318SOL     OW 4852   1.183   2.636   0.615
 1318SOL    HW1 4853   1.211   2.709   0.677
 1318SOL    HW2 4854   1.116   2.577   0.661
 1319SOL     OW 4855   6.798   5.959   0.953
 1319SOL    HW1 4856   6.698   5.955   0.951
 1319SOL    HW2 4857   6.831   6.016   0.878
 1320SOL     OW 4858   3.566   4.022   0.020
 1320SOL    HW1 4859   3.507   3.971   0.084
 1320SOL    HW2 4860   3.584   4.113   0.058
 1321SOL     OW 4861   5.028   3.182   6.144
 1321SOL    HW1 4862   5.047   3.214   6.052
 1321SOL    HW2 4863   5.000   3.086   6.142
 1322SOL     OW 4864   3.614   1.684   4.422
 1322SOL    HW1 4865   3.599   1.751   4.495
 1322SOL    HW2 4866   3.529   1.635   4.405
 1323SOL     OW 4867   3.493   6.821   6.350
 1323SOL    HW1 4868   3.397   6.819   6.377
 1323SOL    HW2 4869   3.551   6.826   6.432
 1324SOL     OW 4870   0.378   3.070   6.626
 1324SOL    HW1 4871   0.332   3.120   6.699
 1324SOL    HW2 4872   0.386   3.128   6.545
 1325SOL     OW 4873   3.776   6.363   5.132
 1325SOL    HW1 4874   3.770   6.443   5.191
 1325SOL    HW2 4875   3.862   6.316   5.150
 1326SOL     OW 4876   4.921   3.466   5.315
 1326SOL    HW1 4877   4.927   3.366   5.322
 1326SOL    HW2 4878   4.842   3.491   5.259
 1327SOL     OW 4879   1.389   6.287   0.771
 1327SOL    HW1 4880   1.418   6.342   0.849
 1327SOL    HW2 4881   1.351   6.346   0.700
 1328SOL     OW 4882   2.379   3.467   0.300
 1328SOL    HW1 4883   2.390   3.392   0.235
 1328SOL    HW2 4884   2.469   3.503   0.325
 1329SOL     OW 4885   0.697   2.463   2.836
 1329SOL    HW1 4886   0.660   2.400   2.904
 1329SOL    HW2 4887   0.630   2.476   2.762
 1330SOL     OW 4888   1.708   1.905   1.547
 1330SOL    HW1 4889   1.671   1.831   1.603
 1330SOL    HW2 4890   1.647   1.922   1.470
 1331SOL     OW 4891   4.646   2.715   3.328
 1331SOL    HW1 4892   4.729   2.664   3.306
 1331SOL    HW2 4893   4.570   2.651   3.341
 1332SOL     OW 4894   2.854   0.073   1.179
 1332SOL    HW1 4895   2.869   0.172   1.184
 1332SOL    HW2 4896   2.756   0.054   1.179
 1333SOL     OW 4897   2.994   3.572   2.980
 1333SOL    HW1 4898   2.928   3.517   3.032
 1333SOL    HW2 4899   3.087   3.551   3.010
 1334SOL     OW 4900   6.639   1.276   3.898
 1334SOL    HW1 4901   6.646   1.360   3.953
 1334SOL    HW2 4902   6.549   1.235   3.912
 1335SOL     OW 4903   2.488   2.187   2.342
 1335SOL    HW1 4904   2.445   2.188   2.433
 1335SOL    HW2 4905   2.587   2.183   2.352
 1336SOL     OW 4906   2.790   1.705   4.838
 1336SOL    HW1 4907   2.801   1.772   4.911
 1336SOL    HW2 4908   2.708   1.727   4.784
 1337SOL     OW 4909   1.116   1.676   2.942
 1337SOL    HW1 4910   1.017   1.669   2.930
 1337SOL    HW2 4911   1.147   1.610   3.010
 1338SOL     OW 4912   6.793   2.825   4.778
 1338SOL    HW1 4913   6.792   2.771   4.862
 1338SOL    HW2 4914   6.713   2.886   4.777
 1339SOL     OW 4915   6.338   2.076   0.150
 1339SOL    HW1 4916   6.328   1.993   0.205
 1339SOL    HW2 4917   6.416   2.067   0.088
 1340SOL     OW 4918   5.128   1.341   2.685
 1340SOL    HW1 4919   5.194   1.317   2.756
 1340SOL    HW2 4920   5.167   1.413   2.627
 1341SOL     OW 4921   4.548   6.845   6.730
 1341SOL    HW1 4922   4.473   6.886   6.783
 1341SOL    HW2 4923   4.613   6.916   6.703
 1342SOL     OW 4924   2.900   5.380   6.432
 1342SOL    HW1 4925   2.945   5.432   6.504
 1342SOL    HW2 4926   2.837   5.439   6.382
 1343SOL     OW 4927   5.522   5.804   2.793
 1343SOL    HW1 4928   5.541   5.811   2.890
 1343SOL    HW2 4929   5.427   5.774   2.779
 1344SOL     OW 4930   0.325   5.996   4.495
 1344SOL    HW1 4931   0.266   6.060   4.447
 1344SOL    HW2 4932   0.315   5.905   4.455
 1345SOL     OW 4933   0.719   5.744   2.516
 1345SOL    HW1 4934   0.751   5.838   2.532
 1345SOL    HW2 4935   0.788   5.679   2.549
 1346SOL     OW 4936   1.933   5.422   5.327
 1346SOL    HW1 4937   1.834   5.407   5.317
 1346SOL    HW2 4938   1.968   5.361   5.399
 1347SOL     OW 4939   6.926   6.869   5.643
 1347SOL    HW1 4940   6.856   6.938   5.623
 1347SOL    HW2 4941   6.881   6.784   5.671
 1348SOL     OW 4942   6.717   6.362   4.670
 1348SOL    HW1 4943   6.714   6.446   4.615
 1348SOL    HW2 4944   6.760   6.289   4.616
 1349SOL     OW 4945   5.489   2.872   5.322
 1349SOL    HW1 4946   5.508   2.883   5.224
 1349SOL    HW2 4947   5.461   2.778   5.339
 1350SOL     OW 4948   5.167   5.176   5.381
 1350SOL    HW1 4949   5.209   5.173   5.471
 1350SOL    HW2 4950   5.097   5.105   5.376
 1351SOL     OW 4951   5.609   1.994   3.452
 1351SOL    HW1 4952   5.706   1.986   3.477
 1351SOL    HW2 4953   5.568   2.071   3.501
 1352SOL     OW 4954   6.308   5.872   3.954
 1352SOL    HW1 4955   6.280   5.878   3.858
 1352SOL    HW2 4956   6.289   5.958   4.000
 1353SOL     OW 4957   0.645   2.342   0.067
 1353SOL    HW1 4958   0.622   2.359   0.163
 1353SOL    HW2 4959   0.724   2.397   0.042
 1354SOL     OW 4960   0.388   4.491   1.812
 1354SOL    HW1 4961   0.412   4.396   1.793
 1354SOL    HW2 4962   0.317   4.494   1.882
 1355SOL     OW 4963   6.024   3.639   4.324
 1355SOL    HW1 4964   6.102   3.652   4.384
 1355SOL    HW2 4965   6.040   3.558   4.266
 1356SOL     OW 4966   3.358   2.926   2.247
 1356SOL    HW1 4967   3.308   2.891   2.326
 1356SOL    HW2 4968   3.423   2.856   2.215
 1357SOL     OW 4969   0.088   4.404   6.548
 1357SOL    HW1 4970   0.167   4.460   6.573
 1357SOL    HW2 4971   0.111   4.351   6.466
 1358SOL     OW 4972   5.821   6.557   6.527
 1358SOL    HW1 4973   5.811   6.652   6.497
 1358SOL    HW2 4974   5.834   6.554   6.626
 1359SOL     OW 4975   5.744   4.878   2.737
 1359SOL    HW1 4976   5.819   4.815   2.755
 1359SOL    HW2 4977   5.780   4.970   2.724
 1360SOL     OW 4978   2.788   3.809   0.357
 1360SOL    HW1 4979   2.716   3.769   0.413
 1360SOL    HW2 4980   2.858   3.740   0.338
 1361SOL     OW 4981   6.391   4.682   5.277
 1361SOL    HW1 4982   6.345   4.626   5.346
 1361SOL    HW2 4983   6.449   4.623   5.220
 1362SOL     OW 4984   3.807   3.920   3.595
 1362SOL    HW1 4985   3.903   3.892   3.598
 1362SOL    HW2 4986   3.765   3.904   3.685
 1363SOL     OW 4987   0.187   4.948   4.431
 1363SOL    HW1 4988   0.171   4.953   4.332
 1363SOL    HW2 4989   0.161   5.035   4.473
 1364SOL     OW 4990   4.851   4.269   0.454
 1364SOL    HW1 4991   4.906   4.271   0.538
 1364SOL    HW2 4992   4.879   4.344   0.394
 1365SOL     OW 4993   0.188   4.354   6.291
 1365SOL    HW1 4994   0.112   4.378   6.231
 1365SOL    HW2 4995   0.271   4.400   6.261
 1366SOL     OW 4996   1.815   6.068   6.584
 1366SOL    HW1 4997   1.813   6.059   6.484
 1366SOL    HW2 4998   1.791   5.980   6.625
 1367SOL     OW 4999   2.366   7.018   3.167
 1367SOL    HW1 5000   2.292   0.030   3.224
 1367SOL    HW2 5001   2.357   6.918   3.160
 1368SOL     OW 5002   5.487   6.664   3.728
 1368SOL    HW1 5003   5.555   6.708   3.669
 1368SOL    HW2 5004   5.487   6.565   3.710
 1369SOL     OW 5005   2.068   6.307   2.985
 1369SOL    HW1 5006   2.096   6.387   3.039
 1369SOL    HW2 5007   1.989   6.264   3.029
 1370SOL     OW 5008   3.469   1.307   1.451
 1370SOL    HW1 5009   3.400   1.275   1.387
 1370SOL    HW2 5010   3.556   1.320   1.403
 1371SOL     OW 5011   5.253   1.389   3.928
 1371SOL    HW1 5012   5.310   1.460   3.886
 1371SOL    HW2 5013   5.311   1.328   3.982
 1372SOL     OW 5014   1.709   2.788   0.700
 1372SOL    HW1 5015   1.656   2.734   0.765
 1372SOL    HW2 5016   1.779   2.731   0.657
 1373SOL     OW 5017   6.237   4.126   0.074
 1373SOL    HW1 5018   6.228   4.069   7.016
 1373SOL    HW2 5019   6.230   4.222   0.048
 1374SOL     OW 5020   3.677   2.002   0.552
 1374SOL    HW1 5021   3.674   2.085   0.497
 1374SOL    HW2 5022   3.584   1.967   0.565
 1375SOL     OW 5023   0.348   4.803   6.028
 1375SOL    HW1 5024   0.441   4.808   6.063
 1375SOL    HW2 5025   0.338   4.864   5.950
 1376SOL     OW 5026   4.946   3.531   3.965
 1376SOL    HW1 5027   5.041   3.537   3.997
 1376SOL    HW2 5028   4.915   3.436   3.971
 1377SOL     OW 5029   6.670   4.049   5.084
 1377SOL    HW1 5030   6.674   3.970   5.023
 1377SOL    HW2 5031   6.585   4.099   5.068
 1378SOL     OW 5032   6.230   2.133   4.871
 1378SOL    HW1 5033   6.222   2.099   4.778
 1378SOL    HW2 5034   6.302   2.083   4.919
 1379SOL     OW 5035   3.241   0.045   2.272
 1379SOL    HW1 5036   3.309   0.027   2.344
 1379SOL    HW2 5037   3.159   0.083   2.314
 1380SOL     OW 5038   0.188   0.331   2.046
 1380SOL    HW1 5039   0.249   0.359   2.121
 1380SOL    HW2 5040   0.198   0.394   1.970
 1381SOL     OW 5041   5.075   2.802   0.176
 1381SOL    HW1 5042   5.173   2.780   0.180
 1381SOL    HW2 5043   5.041   2.817   0.269
 1382SOL     OW 5044   5.426   4.423   6.885
 1382SOL    HW1 5045   5.374   4.343   6.913
 1382SOL    HW2 5046   5.449   4.478   6.966
 1383SOL     OW 5047   0.881   1.163   0.576
 1383SOL    HW1 5048   0.899   1.067   0.595
 1383SOL    HW2 5049   0.792   1.173   0.532
 1384SOL     OW 5050   4.018   1.248   2.968
 1384SOL    HW1 5051   4.017   1.281   3.062
 1384SOL    HW2 5052   4.084   1.173   2.959
 1385SOL     OW 5053   0.608   2.885   2.746
 1385SOL    HW1 5054   0.511   2.874   2.766
 1385SOL    HW2 5055   0.622   2.970   2.695
 1386SOL     OW 5056   2.335   1.899   4.531
 1386SOL    HW1 5057   2.366   1.988   4.564
 1386SOL    HW2 5058   2.247   1.909   4.485
 1387SOL     OW 5059   3.913   0.719   3.518
 1387SOL    HW1 5060   3.864   0.693   3.602
 1387SOL    HW2 5061   4.010   0.730   3.539
 1388SOL     OW 5062   0.042   6.559   4.158
 1388SOL    HW1 5063   6.981   6.608   4.134
 1388SOL    HW2 5064   0.107   6.567   4.082
 1389SOL     OW 5065   0.229   1.067   3.491
 1389SOL    HW1 5066   0.259   1.162   3.476
 1389SOL    HW2 5067   0.143   1.067   3.542
 1390SOL     OW 5068   4.394   1.801   6.520
 1390SOL    HW1 5069   4.394   1.702   6.533
 1390SOL    HW2 5070   4.300   1.836   6.527
 1391SOL     OW 5071   6.008   1.798   5.900
 1391SOL    HW1 5072   5.964   1.854   5.830
 1391SOL    HW2 5073   5.956   1.802   5.985
 1392SOL     OW 5074   4.967   5.888   5.740
 1392SOL    HW1 5075   4.969   5.838   5.654
 1392SOL    HW2 5076   4.951   5.985   5.722
 1393SOL     OW 5077   5.856   2.939   6.997
 1393SOL    HW1 5078   5.830   2.883   0.052
 1393SOL    HW2 5079   5.775   2.981   6.957
 1394SOL     OW 5080   3.816   6.463   3.946
 1394SOL    HW1 5081   3.909   6.494   3.923
 1394SOL    HW2 5082   3.796   6.488   4.040
 1395SOL     OW 5083   0.247   3.867   2.713
 1395SOL    HW1 5084   0.339   3.828   2.718
 1395SOL    HW2 5085   0.246   3.938   2.643
 1396SOL     OW 5086   2.023   6.909   4.415
 1396SOL    HW1 5087   2.087   6.908   4.492
 1396SOL    HW2 5088   2.012   6.816   4.380
 1397SOL     OW 5089   0.352   6.097   5.042
 1397SOL    HW1 5090   0.433   6.073   5.096
 1397SOL    HW2 5091   0.379   6.109   4.947
 1398SOL     OW 5092   1.864   1.053   1.342
 1398SOL    HW1 5093   1.824   0.980   1.398
 1398SOL    HW2 5094   1.921   1.013   1.271
 1399SOL     OW 5095   4.422   0.548   0.756
 1399SOL    HW1 5096   4.515   0.560   0.790
 1399SOL    HW2 5097   4.394   0.630   0.705
 1400SOL     OW 5098   6.462   0.811   4.414
 1400SOL    HW1 5099   6.537   0.753   4.445
 1400SOL    HW2 5100   6.406   0.759   4.348
 1401SOL     OW 5101   5.513   0.102   3.980
 1401SOL    HW1 5102   5.547   0.008   3.969
 1401SOL    HW2 5103   5.582   0.156   4.029
 1402SOL     OW 5104   5.861   4.326   7.020
 1402SOL    HW1 5105   5.944   4.364   0.038
 1402SOL    HW2 5106   5.840   4.238   0.039
 1403SOL     OW 5107   2.880   3.200   0.566
 1403SOL    HW1 5108   2.932   3.285   0.580
 1403SOL    HW2 5109   2.802   3.198   0.629
 1404SOL     OW 5110   4.610   0.307   1.081
 1404SOL    HW1 5111   4.582   0.258   0.998
 1404SOL    HW2 5112   4.645   0.397   1.056
 1405SOL     OW 5113   1.562   3.677   0.827
 1405SOL    HW1 5114   1.564   3.763   0.775
 1405SOL    HW2 5115   1.482   3.677   0.888
 1406SOL     OW 5116   2.336   4.096   1.722
 1406SOL    HW1 5117   2.348   4.090   1.821
 1406SOL    HW2 5118   2.372   4.183   1.689
 1407SOL     OW 5119   0.813   3.428   2.022
 1407SOL    HW1 5120   0.768   3.371   2.092
 1407SOL    HW2 5121   0.912   3.419   2.031
 1408SOL     OW 5122   6.241   6.676   6.812
 1408SOL    HW1 5123   6.155   6.626   6.828
 1408SOL    HW2 5124   6.317   6.624   6.851
 1409SOL     OW 5125   6.641   1.075   5.469
 1409SOL    HW1 5126   6.717   1.082   5.534
 1409SOL    HW2 5127   6.638   1.157   5.413
 1410SOL     OW 5128   2.276   3.052   6.441
 1410SOL    HW1 5129   2.359   3.102   6.415
 1410SOL    HW2 5130   2.196   3.094   6.396
 1411SOL     OW 5131   3.528   6.122   6.757
 1411SOL    HW1 5132   3.625   6.104   6.771
 1411SOL    HW2 5133   3.500   6.084   6.669
 1412SOL     OW 5134   0.426   3.473   0.839
 1412SOL    HW1 5135   0.383   3.559   0.865
 1412SOL    HW2 5136   0.446   3.419   0.921
 1413SOL     OW 5137   1.513   1.967   4.836
 1413SOL    HW1 5138   1.466   1.910   4.769
 1413SOL    HW2 5139   1.605   1.989   4.802
 1414SOL     OW 5140   1.043   3.041   1.902
 1414SOL    HW1 5141   1.112   3.107   1.933
 1414SOL    HW2 5142   1.089   2.965   1.857
 1415SOL     OW 5143   2.529   1.811   4.782
 1415SOL    HW1 5144   2.482   1.762   4.708
 1415SOL    HW2 5145   2.554   1.903   4.750
 1416SOL     OW 5146   4.152   0.481   5.187
 1416SOL    HW1 5147   4.126   0.576   5.174
 1416SOL    HW2 5148   4.151   0.459   5.284
 1417SOL     OW 5149   3.391   3.604   5.974
 1417SOL    HW1 5150   3.359   3.517   6.012
 1417SOL    HW2 5151   3.406   3.594   5.876
 1418SOL     OW 5152   3.711   4.120   0.401
 1418SOL    HW1 5153   3.772   4.137   0.323
 1418SOL    HW2 5154   3.646   4.194   0.409
 1419SOL     OW 5155   1.485   4.693   3.903
 1419SOL    HW1 5156   1.417   4.626   3.872
 1419SOL    HW2 5157   1.455   4.734   3.989
 1420SOL     OW 5158   4.240   5.013   2.890
 1420SOL    HW1 5159   4.218   4.917   2.904
 1420SOL    HW2 5160   4.339   5.025   2.881
 1421SOL     OW 5161   0.655   4.816   4.442
 1421SOL    HW1 5162   0.627   4.771   4.357
 1421SOL    HW2 5163   0.574   4.848   4.492
 1422SOL     OW 5164   2.562   4.307   5.784
 1422SOL    HW1 5165   2.657   4.326   5.808
 1422SOL    HW2 5166   2.547   4.330   5.688
 1423SOL     OW 5167   4.185   1.935   4.392
 1423SOL    HW1 5168   4.219   1.888   4.473
 1423SOL    HW2 5169   4.088   1.913   4.379
 1424SOL     OW 5170   6.801   3.931   6.420
 1424SOL    HW1 5171   6.836   4.018   6.454
 1424SOL    HW2 5172   6.728   3.948   6.354
 1425SOL     OW 5173   3.188   6.535   5.172
 1425SOL    HW1 5174   3.194   6.554   5.269
 1425SOL    HW2 5175   3.254   6.591   5.122
 1426SOL     OW 5176   2.391   1.752   6.703
 1426SOL    HW1 5177   2.313   1.713   6.654
 1426SOL    HW2 5178   2.415   1.693   6.780
 1427SOL     OW 5179   1.151   0.337   3.395
 1427SOL    HW1 5180   1.227   0.383   3.441
 1427SOL    HW2 5181   1.181   0.300   3.307
 1428SOL     OW 5182   7.019   2.557   1.783
 1428SOL    HW1 5183   0.087   2.597   1.782
 1428SOL    HW2 5184   7.019   2.477   1.843
 1429SOL     OW 5185   6.293   1.316   6.492
 1429SOL    HW1 5186   6.246   1.290   6.408
 1429SOL    HW2 5187   6.260   1.258   6.568
 1430SOL     OW 5188   2.613   4.754   4.435
 1430SOL    HW1 5189   2.655   4.823   4.375
 1430SOL    HW2 5190   2.545   4.799   4.494
 1431SOL     OW 5191   2.746   1.591   5.416
 1431SOL    HW1 5192   2.728   1.640   5.501
 1431SOL    HW2 5193   2.690   1.508   5.413
 1432SOL     OW 5194   2.118   1.179   1.142
 1432SOL    HW1 5195   2.028   1.205   1.109
 1432SOL    HW2 5196   2.113   1.090   1.187
 1433SOL     OW 5197   3.566   0.378   3.441
 1433SOL    HW1 5198   3.546   0.351   3.536
 1433SOL    HW2 5199   3.664   0.378   3.426
 1434SOL     OW 5200   0.551   2.164   6.735
 1434SOL    HW1 5201   0.647   2.190   6.728
 1434SOL    HW2 5202   0.514   2.198   6.822
 1435SOL     OW 5203   0.538   0.385   3.783
 1435SOL    HW1 5204   0.529   0.480   3.814
 1435SOL    HW2 5205   0.448   0.347   3.767
 1436SOL     OW 5206   5.814   3.764   0.908
 1436SOL    HW1 5207   5.746   3.769   0.981
 1436SOL    HW2 5208   5.788   3.691   0.844
 1437SOL     OW 5209   3.971   1.343   6.027
 1437SOL    HW1 5210   3.906   1.381   6.093
 1437SOL    HW2 5211   4.008   1.417   5.970
 1438SOL     OW 5212   2.984   0.979   1.555
 1438SOL    HW1 5213   2.966   0.932   1.468
 1438SOL    HW2 5214   3.000   1.076   1.537
 1439SOL     OW 5215   0.615   6.013   0.078
 1439SOL    HW1 5216   0.559   6.030   0.159
 1439SOL    HW2 5217   0.693   6.076   0.078
 1440SOL     OW 5218   3.343   3.847   3.806
 1440SOL    HW1 5219   3.374   3.936   3.771
 1440SOL    HW2 5220   3.271   3.811   3.747
 1441SOL     OW 5221   6.365   3.201   3.295
 1441SOL    HW1 5222   6.307   3.216   3.375
 1441SOL    HW2 5223   6.439   3.268   3.294
 1442SOL     OW 5224   5.172   4.774   1.072
 1442SOL    HW1 5225   5.201   4.869   1.088
 1442SOL    HW2 5226   5.229   4.734   1.000
 1443SOL     OW 5227   1.106   0.297   3.742
 1443SOL    HW1 5228   1.150   0.352   3.670
 1443SOL    HW2 5229   1.055   0.358   3.803
 1444SOL     OW 5230   3.891   5.979   3.108
 1444SOL    HW1 5231   3.937   5.966   3.020
 1444SOL    HW2 5232   3.952   6.026   3.171
 1445SOL     OW 5233   0.354   2.868   1.614
 1445SOL    HW1 5234   0.398   2.863   1.525
 1445SOL    HW2 5235   0.273   2.927   1.609
 1446SOL     OW 5236   4.713   2.739   0.022
 1446SOL    HW1 5237   4.764   2.825   0.028
 1446SOL    HW2 5238   4.758   2.670   0.079
 1447SOL     OW 5239   6.446   0.813   5.081
 1447SOL    HW1 5240   6.430   0.910   5.102
 1447SOL    HW2 5241   6.538   0.802   5.042
 1448SOL     OW 5242   6.073   1.648   0.687
 1448SOL    HW1 5243   5.988   1.663   0.739
 1448SOL    HW2 5244   6.066   1.694   0.598
 1449SOL     OW 5245   6.186   6.750   0.662
 1449SOL    HW1 5246   6.232   6.807   0.594
 1449SOL    HW2 5247   6.092   6.734   0.634
 1450SOL     OW 5248   6.799   2.694   2.728
 1450SOL    HW1 5249   6.854   2.621   2.689
 1450SOL    HW2 5250   6.718   2.655   2.772
 1451SOL     OW 5251   3.038   0.417   2.696
 1451SOL    HW1 5252   2.947   0.377   2.699
 1451SOL    HW2 5253   3.031   0.517   2.694
 1452SOL     OW 5254   4.881   0.868   4.671
 1452SOL    HW1 5255   4.897   0.905   4.762
 1452SOL    HW2 5256   4.802   0.913   4.629
 1453SOL     OW 5257   5.733   3.495   4.912
 1453SOL    HW1 5258   5.753   3.401   4.886
 1453SOL    HW2 5259   5.791   3.557   4.859
 1454SOL     OW 5260   5.295   2.407   2.164
 1454SOL    HW1 5261   5.331   2.402   2.257
 1454SOL    HW2 5262   5.346   2.344   2.105
 1455SOL     OW 5263   1.200   0.437   1.783
 1455SOL    HW1 5264   1.123   0.479   1.831
 1455SOL    HW2 5265   1.283   0.489   1.803
 1456SOL     OW 5266   6.811   6.429   5.147
 1456SOL    HW1 5267   6.799   6.421   5.048
 1456SOL    HW2 5268   6.816   6.526   5.172
 1457SOL     OW 5269   1.419   6.828   3.006
 1457SOL    HW1 5270   1.363   6.791   2.931
 1457SOL    HW2 5271   1.359   6.863   3.078
 1458SOL     OW 5272   5.409   6.773   4.899
 1458SOL    HW1 5273   5.380   6.849   4.840
 1458SOL    HW2 5274   5.508   6.761   4.892
 1459SOL     OW 5275   2.810   5.377   7.021
 1459SOL    HW1 5276   2.731   5.438   0.001
 1459SOL    HW2 5277   2.825   5.347   6.926
 1460SOL     OW 5278   0.091   5.962   6.297
 1460SOL    HW1 5279   0.075   5.918   6.385
 1460SOL    HW2 5280   0.058   6.057   6.301
 1461SOL     OW 5281   6.550   4.350   3.816
 1461SOL    HW1 5282   6.514   4.414   3.748
 1461SOL    HW2 5283   6.601   4.277   3.770
 1462SOL     OW 5284   6.842   1.805   0.129
 1462SOL    HW1 5285   6.783   1.782   0.207
 1462SOL    HW2 5286   6.888   1.892   0.146
 1463SOL     OW 5287   0.204   7.013   5.657
 1463SOL    HW1 5288   0.144   0.069   5.661
 1463SOL    HW2 5289   0.238   7.000   5.564
 1464SOL     OW 5290   0.407   6.595   0.488
 1464SOL    HW1 5291   0.458   6.639   0.414
 1464SOL    HW2 5292   0.440   6.502   0.500
 1465SOL     OW 5293   0.925   1.266   3.181
 1465SOL    HW1 5294   0.906   1.258   3.083
 1465SOL    HW2 5295   0.954   1.360   3.201
 1466SOL     OW 5296   6.905   6.287   2.528
 1466SOL    HW1 5297   6.965   6.230   2.584
 1466SOL    HW2 5298   6.953   6.315   2.446
 1467SOL     OW 5299   1.438   0.528   2.394
 1467SOL    HW1 5300   1.417   0.587   2.315
 1467SOL    HW2 5301   1.534   0.499   2.388
 1468SOL     OW 5302   5.440   5.915   3.049
 1468SOL    HW1 5303   5.515   5.981   3.036
 1468SOL    HW2 5304   5.356   5.964   3.070
 1469SOL     OW 5305   0.799   0.447   2.956
 1469SOL    HW1 5306   0.771   0.351   2.946
 1469SOL    HW2 5307   0.719   0.504   2.971
 1470SOL     OW 5308   0.994   1.079   2.196
 1470SOL    HW1 5309   1.039   1.148   2.138
 1470SOL    HW2 5310   0.899   1.106   2.212
 1471SOL     OW 5311   6.885   0.950   6.416
 1471SOL    HW1 5312   6.855   0.878   6.354
 1471SOL    HW2 5313   6.913   0.909   6.503
 1472SOL     OW 5314   4.674   6.103   4.731
 1472SOL    HW1 5315   4.734   6.116   4.653
 1472SOL    HW2 5316   4.601   6.038   4.707
 1473SOL     OW 5317   6.057   5.383   3.332
 1473SOL    HW1 5318   6.138   5.330   3.308
 1473SOL    HW2 5319   5.980   5.356   3.274
 1474SOL     OW 5320   6.276   6.015   3.676
 1474SOL    HW1 5321   6.228   6.012   3.589
 1474SOL    HW2 5322   6.217   6.056   3.746
 1475SOL     OW 5323   0.230   0.496   1.583
 1475SOL    HW1 5324   0.197   0.551   1.507
 1475SOL    HW2 5325   0.178   0.411   1.588
 1476SOL     OW 5326   1.497   1.150   1.168
 1476SOL    HW1 5327   1.588   1.139   1.129
 1476SOL    HW2 5328   1.448   1.063   1.163
 1477SOL     OW 5329   3.111   0.174   6.151
 1477SOL    HW1 5330   3.125   0.194   6.054
 1477SOL    HW2 5331   3.185   0.213   6.205
 1478SOL     OW 5332   5.738   4.788   0.768
 1478SOL    HW1 5333   5.833   4.764   0.747
 1478SOL    HW2 5334   5.736   4.849   0.846
 1479SOL     OW 5335   1.336   4.520   0.371
 1479SOL    HW1 5336   1.249   4.567   0.384
 1479SOL    HW2 5337   1.372   4.491   0.460
 1480SOL     OW 5338   2.643   0.652   6.985
 1480SOL    HW1 5339   2.603   0.565   6.954
 1480SOL    HW2 5340   2.619   0.724   6.921
 1481SOL     OW 5341   5.319   1.493   5.294
 1481SOL    HW1 5342   5.393   1.559   5.283
 1481SOL    HW2 5343   5.247   1.533   5.351
 1482SOL     OW 5344   5.810   1.625   0.833
 1482SOL    HW1 5345   5.719   1.588   0.813
 1482SOL    HW2 5346   5.800   1.706   0.891
 1483SOL     OW 5347   0.014   3.448   6.832
 1483SOL    HW1 5348   0.014   3.393   6.915
 1483SOL    HW2 5349   0.061   3.534   6.849
 1484SOL     OW 5350   6.401   4.165   3.596
 1484SOL    HW1 5351   6.488   4.189   3.553
 1484SOL    HW2 5352   6.404   4.189   3.693
 1485SOL     OW 5353   4.613   2.571   2.298
 1485SOL    HW1 5354   4.548   2.614   2.361
 1485SOL    HW2 5355   4.672   2.640   2.258
 1486SOL     OW 5356   4.689   2.322   3.424
 1486SOL    HW1 5357   4.709   2.310   3.521
 1486SOL    HW2 5358   4.750   2.264   3.370
 1487SOL     OW 5359   6.662   1.850   6.414
 1487SOL    HW1 5360   6.649   1.945   6.440
 1487SOL    HW2 5361   6.736   1.810   6.469
 1488SOL     OW 5362   5.674   2.193   3.142
 1488SOL    HW1 5363   5.756   2.215   3.194
 1488SOL    HW2 5364   5.593   2.200   3.200
 1489SOL     OW 5365   3.780   4.948   4.608
 1489SOL    HW1 5366   3.789   5.018   4.537
 1489SOL    HW2 5367   3.698   4.966   4.662
 1490SOL     OW 5368   1.333   2.259   0.575
 1490SOL    HW1 5369   1.343   2.202   0.493
 1490SOL    HW2 5370   1.238   2.258   0.606
 1491SOL     OW 5371   6.560   3.385   3.347
 1491SOL    HW1 5372   6.609   3.442   3.281
 1491SOL    HW2 5373   6.622   3.314   3.382
 1492SOL     OW 5374   5.134   2.089   1.954
 1492SOL    HW1 5375   5.102   2.075   2.048
 1492SOL    HW2 5376   5.155   2.000   1.912
 1493SOL     OW 5377   4.985   0.617   4.586
 1493SOL    HW1 5378   5.037   0.628   4.502
 1493SOL    HW2 5379   4.934   0.701   4.605
 1494SOL     OW 5380   4.172   2.765   5.434
 1494SOL    HW1 5381   4.096   2.702   5.417
 1494SOL    HW2 5382   4.151   2.853   5.391
 1495SOL     OW 5383   0.394   3.199   3.401
 1495SOL    HW1 5384   0.341   3.157   3.474
 1495SOL    HW2 5385   0.432   3.128   3.342
 1496SOL     OW 5386   0.641   0.548   1.491
 1496SOL    HW1 5387   0.726   0.540   1.440
 1496SOL    HW2 5388   0.592   0.631   1.462
 1497SOL     OW 5389   0.197   4.249   3.654
 1497SOL    HW1 5390   0.178   4.345   3.675
 1497SOL    HW2 5391   0.233   4.241   3.561
 1498SOL     OW 5392   2.085   4.914   6.517
 1498SOL    HW1 5393   2.173   4.929   6.562
 1498SOL    HW2 5394   2.060   4.818   6.523
 1499SOL     OW 5395   1.062   3.864   5.048
 1499SOL    HW1 5396   1.003   3.931   5.002
 1499SOL    HW2 5397   1.154   3.868   5.009
 1500SOL     OW 5398   5.830   0.327   0.898
 1500SOL    HW1 5399   5.763   0.337   0.971
 1500SOL    HW2 5400   5.830   0.232   0.865
 1501SOL     OW 5401   4.092   0.480   6.418
 1501SOL    HW1 5402   3.992   0.488   6.420
 1501SOL    HW2 5403   4.117   0.395   6.370
 1502SOL     OW 5404   6.303   6.885   0.253
 1502SOL    HW1 5405   6.288   6.787   0.253
 1502SOL    HW2 5406   6.268   6.925   0.338
 1503SOL     OW 5407   2.139   2.701   1.080
 1503SOL    HW1 5408   2.218   2.644   1.061
 1503SOL    HW2 5409   2.169   2.794   1.102
 1504SOL     OW 5410   2.909   0.335   5.061
 1504SOL    HW1 5411   2.846   0.350   5.138
 1504SOL    HW2 5412   2.861   0.287   4.988
 1505SOL     OW 5413   5.201   6.845   6.223
 1505SOL    HW1 5414   5.231   6.793   6.142
 1505SOL    HW2 5415   5.117   6.895   6.201
 1506SOL     OW 5416   1.225   4.805   3.486
 1506SOL    HW1 5417   1.254   4.715   3.453
 1506SOL    HW2 5418   1.125   4.812   3.482
 1507SOL     OW 5419   1.535   1.595   4.864
 1507SOL    HW1 5420   1.496   1.544   4.788
 1507SOL    HW2 5421   1.601   1.662   4.829
 1508SOL     OW 5422   4.658   6.800   0.886
 1508SOL    HW1 5423   4.619   6.718   0.928
 1508SOL    HW2 5424   4.613   6.881   0.923
 1509SOL     OW 5425   4.443   2.981   5.969
 1509SOL    HW1 5426   4.428   3.073   5.932
 1509SOL    HW2 5427   4.449   2.986   6.068
 1510SOL     OW 5428   5.555   2.140   4.045
 1510SOL    HW1 5429   5.544   2.239   4.059
 1510SOL    HW2 5430   5.469   2.094   4.067
 1511SOL     OW 5431   2.300   1.983   6.860
 1511SOL    HW1 5432   2.346   1.918   6.799
 1511SOL    HW2 5433   2.224   2.026   6.811
 1512SOL     OW 5434   6.477   6.594   1.857
 1512SOL    HW1 5435   6.440   6.662   1.920
 1512SOL    HW2 5436   6.427   6.598   1.771
 1513SOL     OW 5437   4.709   1.027   3.875
 1513SOL    HW1 5438   4.613   1.051   3.858
 1513SOL    HW2 5439   4.717   0.988   3.967
 1514SOL     OW 5440   5.284   1.586   4.902
 1514SOL    HW1 5441   5.345   1.647   4.852
 1514SOL    HW2 5442   5.309   1.491   4.882
 1515SOL     OW 5443   0.200   3.126   5.412
 1515SOL    HW1 5444   0.200   3.204   5.476
 1515SOL    HW2 5445   0.170   3.157   5.322
 1516SOL     OW 5446   0.683   0.874   0.831
 1516SOL    HW1 5447   0.666   0.902   0.736
 1516SOL    HW2 5448   0.629   0.931   0.893
 1517SOL     OW 5449   4.363   5.209   3.898
 1517SOL    HW1 5450   4.431   5.190   3.969
 1517SOL    HW2 5451   4.399   5.278   3.835
 1518SOL     OW 5452   6.805   3.677   6.928
 1518SOL    HW1 5453   6.829   3.746   6.997
 1518SOL    HW2 5454   6.803   3.719   6.838
 1519SOL     OW 5455   6.932   3.965   1.424
 1519SOL    HW1 5456   6.989   4.025   1.368
 1519SOL    HW2 5457   6.951   3.982   1.521
 1520SOL     OW 5458   2.086   3.334   2.418
 1520SOL    HW1 5459   2.110   3.304   2.326
 1520SOL    HW2 5460   2.122   3.269   2.485
 1521SOL     OW 5461   1.805   3.128   6.883
 1521SOL    HW1 5462   1.847   3.210   6.922
 1521SOL    HW2 5463   1.771   3.148   6.792
 1522SOL     OW 5464   0.012   1.744   5.713
 1522SOL    HW1 5465   0.036   1.838   5.737
 1522SOL    HW2 5466   7.021   1.691   5.797
 1523SOL     OW 5467   5.041   3.851   6.792
 1523SOL    HW1 5468   5.066   3.907   6.713
 1523SOL    HW2 5469   5.043   3.908   6.875
 1524SOL     OW 5470   0.886   2.033   1.736
 1524SOL    HW1 5471   0.981   2.003   1.743
 1524SOL    HW2 5472   0.883   2.131   1.716
 1525SOL     OW 5473   4.870   2.253   5.640
 1525SOL    HW1 5474   4.800   2.303   5.691
 1525SOL    HW2 5475   4.953   2.309   5.632
 1526SOL     OW 5476   0.276   0.726   1.078
 1526SOL    HW1 5477   0.272   0.800   1.145
 1526SOL    HW2 5478   0.262   0.763   0.987
 1527SOL     OW 5479   3.407   1.304   4.651
 1527SOL    HW1 5480   3.495   1.351   4.665
 1527SOL    HW2 5481   3.336   1.372   4.632
 1528SOL     OW 5482   5.135   6.265   2.752
 1528SOL    HW1 5483   5.194   6.185   2.766
 1528SOL    HW2 5484   5.149   6.331   2.825
 1529SOL     OW 5485   4.813   1.398   5.698
 1529SOL    HW1 5486   4.908   1.396   5.730
 1529SOL    HW2 5487   4.788   1.309   5.660
 1530SOL     OW 5488   3.223   0.168   1.424
 1530SOL    HW1 5489   3.146   0.124   1.377
 1530SOL    HW2 5490   3.305   0.113   1.413
 1531SOL     OW 5491   5.785   0.951   5.213
 1531SOL    HW1 5492   5.743   1.032   5.254
 1531SOL    HW2 5493   5.713   0.891   5.177
 1532SOL     OW 5494   2.525   2.214   4.821
 1532SOL    HW1 5495   2.603   2.152   4.831
 1532SOL    HW2 5496   2.556   2.309   4.826
 1533SOL     OW 5497   0.149   3.679   6.878
 1533SOL    HW1 5498   0.240   3.654   6.845
 1533SOL    HW2 5499   0.129   3.773   6.851
 1534SOL     OW 5500   1.790   5.018   0.519
 1534SOL    HW1 5501   1.766   5.111   0.493
 1534SOL    HW2 5502   1.730   4.954   0.470
 1535SOL     OW 5503   5.582   5.443   4.349
 1535SOL    HW1 5504   5.583   5.476   4.444
 1535SOL    HW2 5505   5.675   5.418   4.322
 1536SOL     OW 5506   3.268   5.330   4.054
 1536SOL    HW1 5507   3.265   5.424   4.088
 1536SOL    HW2 5508   3.208   5.272   4.109
 1537SOL     OW 5509   3.954   5.405   3.764
 1537SOL    HW1 5510   4.015   5.467   3.715
 1537SOL    HW2 5511   3.995   5.381   3.853
 1538SOL     OW 5512   3.635   4.771   6.335
 1538SOL    HW1 5513   3.604   4.729   6.421
 1538SOL    HW2 5514   3.590   4.727   6.258
 1539SOL     OW 5515   4.120   4.307   1.364
 1539SOL    HW1 5516   4.165   4.396   1.357
 1539SOL    HW2 5517   4.051   4.299   1.293
 1540SOL     OW 5518   0.811   6.937   5.104
 1540SOL    HW1 5519   0.886   6.905   5.047
 1540SOL    HW2 5520   0.844   7.008   5.166
 1541SOL     OW 5521   3.785   2.391   1.455
 1541SOL    HW1 5522   3.784   2.325   1.531
 1541SOL    HW2 5523   3.704   2.448   1.460
 1542SOL     OW 5524   6.570   6.124   1.981
 1542SOL    HW1 5525   6.590   6.220   1.960
 1542SOL    HW2 5526   6.629   6.065   1.925
 1543SOL     OW 5527   2.901   3.350   3.369
 1543SOL    HW1 5528   2.942   3.370   3.458
 1543SOL    HW2 5529   2.953   3.278   3.323
 1544SOL     OW 5530   3.000   3.815   2.218
 1544SOL    HW1 5531   2.965   3.866   2.297
 1544SOL    HW2 5532   3.041   3.730   2.249
 1545SOL     OW 5533   5.460   0.342   5.165
 1545SOL    HW1 5534   5.385   0.347   5.230
 1545SOL    HW2 5535   5.457   0.422   5.104
 1546SOL     OW 5536   5.395   0.302   6.242
 1546SOL    HW1 5537   5.301   0.332   6.256
 1546SOL    HW2 5538   5.396   0.205   6.221
 1547SOL     OW 5539   2.247   4.440   2.425
 1547SOL    HW1 5540   2.237   4.346   2.458
 1547SOL    HW2 5541   2.324   4.483   2.472
 1548SOL     OW 5542   4.115   4.297   5.762
 1548SOL    HW1 5543   4.029   4.348   5.763
 1548SOL    HW2 5544   4.113   4.230   5.687
 1549SOL     OW 5545   6.427   1.401   2.209
 1549SOL    HW1 5546   6.424   1.495   2.175
 1549SOL    HW2 5547   6.491   1.348   2.154
 1550SOL     OW 5548   2.994   6.660   5.901
 1550SOL    HW1 5549   3.092   6.678   5.910
 1550SOL    HW2 5550   2.956   6.639   5.991
 1551SOL     OW 5551   1.647   3.302   1.422
 1551SOL    HW1 5552   1.671   3.392   1.459
 1551SOL    HW2 5553   1.725   3.241   1.427
 1552SOL     OW 5554   1.398   0.106   1.228
 1552SOL    HW1 5555   1.353   0.080   1.142
 1552SOL    HW2 5556   1.488   0.143   1.209
 1553SOL     OW 5557   6.214   1.916   6.139
 1553SOL    HW1 5558   6.231   1.897   6.042
 1553SOL    HW2 5559   6.121   1.951   6.151
 1554SOL     OW 5560   4.310   2.079   3.385
 1554SOL    HW1 5561   4.355   2.121   3.306
 1554SOL    HW2 5562   4.240   2.015   3.354
 1555SOL     OW 5563   5.032   2.529   5.542
 1555SOL    HW1 5564   4.953   2.554   5.485
 1555SOL    HW2 5565   5.100   2.483   5.485
 1556SOL     OW 5566   3.587   0.579   0.724
 1556SOL    HW1 5567   3.544   0.489   0.712
 1556SOL    HW2 5568   3.534   0.633   0.789
 1557SOL     OW 5569   2.413   2.735   1.178
 1557SOL    HW1 5570   2.471   2.767   1.103
 1557SOL    HW2 5571   2.439   2.642   1.203
 1558SOL     OW 5572   5.986   2.237   4.965
 1558SOL    HW1 5573   6.068   2.189   4.933
 1558SOL    HW2 5574   5.991   2.333   4.938
 1559SOL     OW 5575   0.338   3.771   1.550
 1559SOL    HW1 5576   0.262   3.719   1.588
 1559SOL    HW2 5577   0.417   3.710   1.536
 1560SOL     OW 5578   3.187   1.575   6.547
 1560SOL    HW1 5579   3.197   1.629   6.631
 1560SOL    HW2 5580   3.093   1.581   6.514
 1561SOL     OW 5581   5.291   6.041   2.794
 1561SOL    HW1 5582   5.233   5.960   2.786
 1561SOL    HW2 5583   5.364   6.036   2.727
 1562SOL     OW 5584   3.136   6.488   1.975
 1562SOL    HW1 5585   3.203   6.429   2.021
 1562SOL    HW2 5586   3.178   6.532   1.897
 1563SOL     OW 5587   2.899   2.137   5.028
 1563SOL    HW1 5588   2.829   2.209   5.024
 1563SOL    HW2 5589   2.989   2.177   5.009
 1564SOL     OW 5590   1.152   1.298   2.128
 1564SOL    HW1 5591   1.132   1.377   2.185
 1564SOL    HW2 5592   1.090   1.296   2.050
 1565SOL     OW 5593   4.318   5.599   5.089
 1565SOL    HW1 5594   4.227   5.599   5.047
 1565SOL    HW2 5595   4.334   5.688   5.132
 1566SOL     OW 5596   6.163   4.889   3.910
 1566SOL    HW1 5597   6.216   4.962   3.868
 1566SOL    HW2 5598   6.197   4.872   4.002
 1567SOL     OW 5599   5.795   5.163   6.477
 1567SOL    HW1 5600   5.741   5.243   6.501
 1567SOL    HW2 5601   5.811   5.108   6.558
 1568SOL     OW 5602   2.703   5.962   3.503
 1568SOL    HW1 5603   2.733   5.867   3.502
 1568SOL    HW2 5604   2.604   5.966   3.517
 1569SOL     OW 5605   3.822   0.419   3.335
 1569SOL    HW1 5606   3.853   0.512   3.356
 1569SOL    HW2 5607   3.894   0.354   3.361
 1570SOL     OW 5608   2.717   6.639   6.483
 1570SOL    HW1 5609   2.647   6.703   6.513
 1570SOL    HW2 5610   2.804   6.661   6.528
 1571SOL     OW 5611   0.809   3.186   3.326
 1571SOL    HW1 5612   0.737   3.248   3.356
 1571SOL    HW2 5613   0.772   3.124   3.256
 1572SOL     OW 5614   1.583   5.660   1.870
 1572SOL    HW1 5615   1.534   5.612   1.797
 1572SOL    HW2 5616   1.681   5.661   1.849
 1573SOL     OW 5617   5.529   4.854   2.130
 1573SOL    HW1 5618   5.432   4.832   2.134
 1573SOL    HW2 5619   5.541   4.946   2.093
 1574SOL     OW 5620   6.211   2.982   2.110
 1574SOL    HW1 5621   6.174   3.070   2.138
 1574SOL    HW2 5622   6.164   2.909   2.160
 1575SOL     OW 5623   2.278   0.762   1.947
 1575SOL    HW1 5624   2.265   0.666   1.922
 1575SOL    HW2 5625   2.219   0.819   1.890
 1576SOL     OW 5626   1.200   6.367   2.495
 1576SOL    HW1 5627   1.148   6.450   2.477
 1576SOL    HW2 5628   1.164   6.323   2.578
 1577SOL     OW 5629   2.644   0.644   6.419
 1577SOL    HW1 5630   2.569   0.698   6.457
 1577SOL    HW2 5631   2.662   0.674   6.325
 1578SOL     OW 5632   4.627   1.111   6.526
 1578SOL    HW1 5633   4.672   1.153   6.447
 1578SOL    HW2 5634   4.538   1.077   6.499
 1579SOL     OW 5635   0.264   2.631   1.758
 1579SOL    HW1 5636   0.341   2.570   1.739
 1579SOL    HW2 5637   0.281   2.720   1.714
 1580SOL     OW 5638   3.009   3.948   3.044
 1580SOL    HW1 5639   2.947   3.945   2.965
 1580SOL    HW2 5640   3.091   3.895   3.023
 1581SOL     OW 5641   6.748   4.617   5.425
 1581SOL    HW1 5642   6.728   4.583   5.517
 1581SOL    HW2 5643   6.827   4.678   5.429
 1582SOL     OW 5644   3.813   5.804   5.214
 1582SOL    HW1 5645   3.732   5.856   5.187
 1582SOL    HW2 5646   3.807   5.711   5.176
 1583SOL     OW 5647   0.613   5.712   4.522
 1583SOL    HW1 5648   0.664   5.684   4.440
 1583SOL    HW2 5649   0.655   5.792   4.563
 1584SOL     OW 5650   2.076   4.573   6.839
 1584SOL    HW1 5651   2.170   4.580   6.872
 1584SOL    HW2 5652   2.017   4.632   6.893
 1585SOL     OW 5653   4.346   1.277   3.096
 1585SOL    HW1 5654   4.370   1.253   3.190
 1585SOL    HW2 5655   4.319   1.373   3.093
 1586SOL     OW 5656   2.796   4.793   2.762
 1586SOL    HW1 5657   2.895   4.784   2.774
 1586SOL    HW2 5658   2.770   4.768   2.669
 1587SOL     OW 5659   1.623   5.219   5.346
 1587SOL    HW1 5660   1.608   5.155   5.271
 1587SOL    HW2 5661   1.607   5.313   5.313
 1588SOL     OW 5662   4.543   0.397   2.153
 1588SOL    HW1 5663   4.605   0.340   2.099
 1588SOL    HW2 5664   4.500   0.465   2.094
 1589SOL     OW 5665   6.685   3.326   2.944
 1589SOL    HW1 5666   6.738   3.285   2.870
 1589SOL    HW2 5667   6.588   3.322   2.922
 1590SOL     OW 5668   5.545   1.105   3.679
 1590SOL    HW1 5669   5.542   1.017   3.727
 1590SOL    HW2 5670   5.455   1.124   3.639
 1591SOL     OW 5671   6.691   5.571   1.545
 1591SOL    HW1 5672   6.635   5.639   1.593
 1591SOL    HW2 5673   6.787   5.599   1.547
 1592SOL     OW 5674   1.724   4.124   6.937
 1592SOL    HW1 5675   1.661   4.201   6.940
 1592SOL    HW2 5676   1.817   4.157   6.925
 1593SOL     OW 5677   0.861   0.129   6.461
 1593SOL    HW1 5678   0.783   0.134   6.398
 1593SOL    HW2 5679   0.836   0.073   6.540
 1594SOL     OW 5680   6.869   6.679   1.518
 1594SOL    HW1 5681   6.959   6.661   1.559
 1594SOL    HW2 5682   6.875   6.759   1.458
 1595SOL     OW 5683   1.037   4.252   0.607
 1595SOL    HW1 5684   0.988   4.259   0.519
 1595SOL    HW2 5685   1.135   4.241   0.590
 1596SOL     OW 5686   6.211   2.801   2.974
 1596SOL    HW1 5687   6.128   2.808   3.030
 1596SOL    HW2 5688   6.292   2.809   3.032
 1597SOL     OW 5689   2.909   5.942   1.378
 1597SOL    HW1 5690   2.859   5.899   1.453
 1597SOL    HW2 5691   3.003   5.908   1.377
 1598SOL     OW 5692   1.418   5.478   6.121
 1598SOL    HW1 5693   1.468   5.392   6.135
 1598SOL    HW2 5694   1.321   5.463   6.142
 1599SOL     OW 5695   4.547   4.821   5.376
 1599SOL    HW1 5696   4.480   4.792   5.444
 1599SOL    HW2 5697   4.522   4.785   5.287
 1600SOL     OW 5698   2.912   0.852   2.025
 1600SOL    HW1 5699   2.906   0.908   1.942
 1600SOL    HW2 5700   2.822   0.847   2.068
 1601SOL     OW 5701   0.352   6.934   4.080
 1601SOL    HW1 5702   0.438   6.903   4.040
 1601SOL    HW2 5703   0.326   6.874   4.156
 1602SOL     OW 5704   4.886   5.536   4.151
 1602SOL    HW1 5705   4.888   5.586   4.239
 1602SOL    HW2 5706   4.968   5.480   4.144
 1603SOL     OW 5707   2.844   5.248   4.273
 1603SOL    HW1 5708   2.843   5.205   4.363
 1603SOL    HW2 5709   2.770   5.210   4.217
 1604SOL     OW 5710   3.846   5.065   1.502
 1604SOL    HW1 5711   3.827   4.994   1.434
 1604SOL    HW2 5712   3.763   5.086   1.552
 1605SOL     OW 5713   6.220   5.504   1.035
 1605SOL    HW1 5714   6.168   5.562   1.097
 1605SOL    HW2 5715   6.241   5.417   1.081
 1606SOL     OW 5716   4.035   5.587   5.562
 1606SOL    HW1 5717   4.068   5.657   5.624
 1606SOL    HW2 5718   4.095   5.583   5.482
 1607SOL     OW 5719   4.195   0.395   1.274
 1607SOL    HW1 5720   4.182   0.299   1.249
 1607SOL    HW2 5721   4.212   0.402   1.372
 1608SOL     OW 5722   0.046   0.993   2.888
 1608SOL    HW1 5723   0.028   1.067   2.953
 1608SOL    HW2 5724   0.082   1.030   2.803
 1609SOL     OW 5725   3.313   0.156   0.901
 1609SOL    HW1 5726   3.362   0.069   0.893
 1609SOL    HW2 5727   3.361   0.217   0.964
 1610SOL     OW 5728   5.123   6.344   0.976
 1610SOL    HW1 5729   5.195   6.280   1.005
 1610SOL    HW2 5730   5.036   6.295   0.970
 1611SOL     OW 5731   1.580   3.390   0.805
 1611SOL    HW1 5732   1.517   3.346   0.868
 1611SOL    HW2 5733   1.568   3.489   0.809
 1612SOL     OW 5734   3.362   6.528   1.191
 1612SOL    HW1 5735   3.303   6.597   1.233
 1612SOL    HW2 5736   3.369   6.449   1.252
 1613SOL     OW 5737   0.474   5.645   2.192
 1613SOL    HW1 5738   0.559   5.608   2.231
 1613SOL    HW2 5739   0.430   5.705   2.259
 1614SOL     OW 5740   5.704   2.129   6.215
 1614SOL    HW1 5741   5.708   2.229   6.217
 1614SOL    HW2 5742   5.627   2.099   6.159
 1615SOL     OW 5743   6.685   5.261   6.292
 1615SOL    HW1 5744   6.728   5.345   6.326
 1615SOL    HW2 5745   6.754   5.205   6.246
 1616SOL     OW 5746   4.066   0.463   3.908
 1616SOL    HW1 5747   3.992   0.429   3.850
 1616SOL    HW2 5748   4.037   0.457   4.004
 1617SOL     OW 5749   5.191   6.452   2.967
 1617SOL    HW1 5750   5.126   6.519   2.931
 1617SOL    HW2 5751   5.144   6.390   3.030
 1618SOL     OW 5752   0.868   5.683   2.244
 1618SOL    HW1 5753   0.948   5.650   2.293
 1618SOL    HW2 5754   0.840   5.772   2.280
 1619SOL     OW 5755   0.524   5.488   0.013
 1619SOL    HW1 5756   0.483   5.503   0.103
 1619SOL    HW2 5757   0.615   5.450   0.024
 1620SOL     OW 5758   2.882   4.744   1.505
 1620SOL    HW1 5759   2.793   4.705   1.528
 1620SOL    HW2 5760   2.950   4.710   1.570
 1621SOL     OW 5761   5.714   0.373   1.141
 1621SOL    HW1 5762   5.682   0.467   1.148
 1621SOL    HW2 5763   5.783   0.356   1.212
 1622SOL     OW 5764   0.612   3.918   5.671
 1622SOL    HW1 5765   0.607   3.929   5.571
 1622SOL    HW2 5766   0.540   3.973   5.714
 1623SOL     OW 5767   0.087   2.111   4.735
 1623SOL    HW1 5768   0.117   2.205   4.724
 1623SOL    HW2 5769   0.049   2.077   4.649
 1624SOL     OW 5770   4.364   1.910   7.013
 1624SOL    HW1 5771   4.278   1.914   6.962
 1624SOL    HW2 5772   4.427   1.848   6.966
 1625SOL     OW 5773   1.428   5.128   6.552
 1625SOL    HW1 5774   1.344   5.085   6.520
 1625SOL    HW2 5775   1.423   5.226   6.537
 1626SOL     OW 5776   3.210   1.598   1.770
 1626SOL    HW1 5777   3.305   1.620   1.746
 1626SOL    HW2 5778   3.150   1.668   1.731
 1627SOL     OW 5779   5.779   2.478   3.638
 1627SOL    HW1 5780   5.840   2.530   3.577
 1627SOL    HW2 5781   5.738   2.403   3.588
 1628SOL     OW 5782   4.463   5.498   6.737
 1628SOL    HW1 5783   4.456   5.470   6.833
 1628SOL    HW2 5784   4.559   5.491   6.708
 1629SOL     OW 5785   2.513   1.386   3.447
 1629SOL    HW1 5786   2.453   1.371   3.526
 1629SOL    HW2 5787   2.605   1.355   3.469
 1630SOL     OW 5788   0.282   4.350   5.458
 1630SOL    HW1 5789   0.224   4.429   5.440
 1630SOL    HW2 5790   0.224   4.274   5.491
 1631SOL     OW 5791   0.007   2.990   0.604
 1631SOL    HW1 5792   6.997   2.931   0.530
 1631SOL    HW2 5793   0.105   3.007   0.592
 1632SOL     OW 5794   4.687   4.237   2.721
 1632SOL    HW1 5795   4.633   4.278   2.648
 1632SOL    HW2 5796   4.671   4.285   2.807
 1633SOL     OW 5797   5.147   4.510   5.019
 1633SOL    HW1 5798   5.081   4.584   5.009
 1633SOL    HW2 5799   5.114   4.428   4.973
 1634SOL     OW 5800   4.616   1.239   4.244
 1634SOL    HW1 5801   4.580   1.286   4.163
 1634SOL    HW2 5802   4.709   1.209   4.226
 1635SOL     OW 5803   1.436   5.391   6.468
 1635SOL    HW1 5804   1.485   5.445   6.400
 1635SOL    HW2 5805   1.387   5.452   6.531
 1636SOL     OW 5806   3.497   5.607   1.205
 1636SOL    HW1 5807   3.484   5.600   1.106
 1636SOL    HW2 5808   3.521   5.517   1.242
 1637SOL     OW 5809   6.629   0.374   3.520
 1637SOL    HW1 5810   6.554   0.438   3.540
 1637SOL    HW2 5811   6.590   0.284   3.500
 1638SOL     OW 5812   0.317   3.048   1.939
 1638SOL    HW1 5813   0.247   2.988   1.900
 1638SOL    HW2 5814   0.346   3.114   1.870
 1639SOL     OW 5815   6.146   4.586   2.005
 1639SOL    HW1 5816   6.097   4.583   2.092
 1639SOL    HW2 5817   6.127   4.672   1.958
 1640SOL     OW 5818   6.795   0.124   0.055
 1640SOL    HW1 5819   6.828   0.200   0.111
 1640SOL    HW2 5820   6.718   0.155   7.022
 1641SOL     OW 5821   6.700   2.853   4.067
 1641SOL    HW1 5822   6.604   2.831   4.053
 1641SOL    HW2 5823   6.755   2.807   3.997
 1642SOL     OW 5824   6.774   2.893   6.343
 1642SOL    HW1 5825   6.748   2.822   6.277
 1642SOL    HW2 5826   6.735   2.870   6.433
 1643SOL     OW 5827   2.686   4.701   3.019
 1643SOL    HW1 5828   2.651   4.776   3.075
 1643SOL    HW2 5829   2.746   4.737   2.947
 1644SOL     OW 5830   5.580   3.014   6.959
 1644SOL    HW1 5831   5.493   2.977   6.926
 1644SOL    HW2 5832   5.579   3.114   6.954
 1645SOL     OW 5833   3.125   6.539   6.396
 1645SOL    HW1 5834   3.196   6.473   6.421
 1645SOL    HW2 5835   3.043   6.491   6.367
 1646SOL     OW 5836   1.972   6.224   0.324
 1646SOL    HW1 5837   1.897   6.207   0.388
 1646SOL    HW2 5838   1.970   6.156   0.251
 1647SOL     OW 5839   5.395   2.567   4.447
 1647SOL    HW1 5840   5.459   2.501   4.407
 1647SOL    HW2 5841   5.324   2.519   4.498
 1648SOL     OW 5842   5.471   6.360   0.337
 1648SOL    HW1 5843   5.459   6.418   0.257
 1648SOL    HW2 5844   5.420   6.398   0.414
 1649SOL     OW 5845   3.762   1.470   4.434
 1649SOL    HW1 5846   3.855   1.491   4.462
 1649SOL    HW2 5847   3.705   1.552   4.442
 1650SOL     OW 5848   1.316   5.690   5.489
 1650SOL    HW1 5849   1.409   5.714   5.460
 1650SOL    HW2 5850   1.301   5.592   5.473
 1651SOL     OW 5851   0.449   2.040   2.944
 1651SOL    HW1 5852   0.356   2.022   2.975
 1651SOL    HW2 5853   0.456   2.023   2.846
 1652SOL     OW 5854   1.307   3.677   2.196
 1652SOL    HW1 5855   1.369   3.604   2.224
 1652SOL    HW2 5856   1.343   3.765   2.228
 1653SOL     OW 5857   6.951   5.599   1.547
 1653SOL    HW1 5858   7.019   5.580   1.477
 1653SOL    HW2 5859   6.983   5.563   1.635
 1654SOL     OW 5860   0.176   3.370   1.249
 1654SOL    HW1 5861   0.124   3.405   1.171
 1654SOL    HW2 5862   0.253   3.431   1.268
 1655SOL     OW 5863   6.446   0.966   4.175
 1655SOL    HW1 5864   6.529   0.958   4.119
 1655SOL    HW2 5865   6.462   0.924   4.265
 1656SOL     OW 5866   2.298   5.416   2.906
 1656SOL    HW1 5867   2.344   5.464   2.981
 1656SOL    HW2 5868   2.307   5.317   2.920
 1657SOL     OW 5869   6.541   0.192   4.574
 1657SOL    HW1 5870   6.461   0.252   4.585
 1657SOL    HW2 5871   6.621   0.247   4.554
 1658SOL     OW 5872   6.733   0.392   0.799
 1658SOL    HW1 5873   6.699   0.364   0.709
 1658SOL    HW2 5874   6.831   0.372   0.805
 1659SOL     OW 5875   3.386   0.126   6.916
 1659SOL    HW1 5876   3.412   0.223   6.911
 1659SOL    HW2 5877   3.295   0.119   6.957
 1660SOL     OW 5878   1.688   6.799   2.750
 1660SOL    HW1 5879   1.695   6.839   2.842
 1660SOL    HW2 5880   1.741   6.714   2.748
 1661SOL     OW 5881   2.852   5.826   1.923
 1661SOL    HW1 5882   2.763   5.797   1.887
 1661SOL    HW2 5883   2.838   5.900   1.988
 1662SOL     OW 5884   6.540   0.145   5.027
 1662SOL    HW1 5885   6.521   0.236   4.992
 1662SOL    HW2 5886   6.455   0.092   5.031
 1663SOL     OW 5887   5.216   5.475   2.672
 1663SOL    HW1 5888   5.285   5.421   2.721
 1663SOL    HW2 5889   5.133   5.480   2.727
 1664SOL     OW 5890   2.032   6.431   5.491
 1664SOL    HW1 5891   2.078   6.417   5.579
 1664SOL    HW2 5892   2.089   6.393   5.418
 1665SOL     OW 5893   6.817   3.820   1.800
 1665SOL    HW1 5894   6.744   3.778   1.854
 1665SOL    HW2 5895   6.778   3.864   1.719
 1666SOL     OW 5896   5.711   0.267   0.425
 1666SOL    HW1 5897   5.697   0.358   0.463
 1666SOL    HW2 5898   5.653   0.202   0.474
 1667SOL     OW 5899   6.543   6.157   1.657
 1667SOL    HW1 5900   6.576   6.068   1.687
 1667SOL    HW2 5901   6.565   6.226   1.727
 1668SOL     OW 5902   5.036   4.551   3.450
 1668SOL    HW1 5903   5.126   4.511   3.470
 1668SOL    HW2 5904   4.983   4.486   3.395
 1669SOL     OW 5905   6.886   4.501   5.672
 1669SOL    HW1 5906   6.971   4.470   5.630
 1669SOL    HW2 5907   6.826   4.422   5.687
 1670SOL     OW 5908   0.534   4.571   5.020
 1670SOL    HW1 5909   0.451   4.612   4.983
 1670SOL    HW2 5910   0.511   4.489   5.072
 1671SOL     OW 5911   5.828   1.035   3.031
 1671SOL    HW1 5912   5.771   0.955   3.049
 1671SOL    HW2 5913   5.811   1.068   2.938
 1672SOL     OW 5914   2.011   4.246   6.495
 1672SOL    HW1 5915   2.096   4.195   6.511
 1672SOL    HW2 5916   1.949   4.192   6.439
 1673SOL     OW 5917   1.566   1.504   5.342
 1673SOL    HW1 5918   1.541   1.443   5.416
 1673SOL    HW2 5919   1.665   1.499   5.326
 1674SOL     OW 5920   0.099   2.731   2.301
 1674SOL    HW1 5921   0.084   2.685   2.214
 1674SOL    HW2 5922   0.110   2.829   2.286
 1675SOL     OW 5923   5.220   0.259   6.996
 1675SOL    HW1 5924   5.141   0.292   6.944
 1675SOL    HW2 5925   5.303   0.270   6.941
 1676SOL     OW 5926   2.451   2.429   2.160
 1676SOL    HW1 5927   2.525   2.384   2.111
 1676SOL    HW2 5928   2.379   2.362   2.181
 1677SOL     OW 5929   4.048   3.770   3.598
 1677SOL    HW1 5930   3.978   3.750   3.530
 1677SOL    HW2 5931   4.114   3.696   3.600
 1678SOL     OW 5932   0.059   5.805   2.069
 1678SOL    HW1 5933   0.011   5.846   1.991
 1678SOL    HW2 5934   7.017   5.785   2.142
 1679SOL     OW 5935   1.779   1.500   4.972
 1679SOL    HW1 5936   1.843   1.571   5.002
 1679SOL    HW2 5937   1.699   1.544   4.931
 1680SOL     OW 5938   6.256   3.827   5.425
 1680SOL    HW1 5939   6.189   3.891   5.463
 1680SOL    HW2 5940   6.210   3.742   5.399
 1681SOL     OW 5941   1.655   6.256   5.757
 1681SOL    HW1 5942   1.719   6.330   5.735
 1681SOL    HW2 5943   1.630   6.208   5.673
 1682SOL     OW 5944   2.259   0.890   5.717
 1682SOL    HW1 5945   2.315   0.966   5.752
 1682SOL    HW2 5946   2.178   0.927   5.672
 1683SOL     OW 5947   6.246   5.876   2.779
 1683SOL    HW1 5948   6.273   5.970   2.762
 1683SOL    HW2 5949   6.234   5.862   2.877
 1684SOL     OW 5950   0.185   5.483   2.327
 1684SOL    HW1 5951   0.242   5.550   2.280
 1684SOL    HW2 5952   0.240   5.434   2.394
 1685SOL     OW 5953   2.121   1.875   5.788
 1685SOL    HW1 5954   2.194   1.941   5.771
 1685SOL    HW2 5955   2.155   1.782   5.771
 1686SOL     OW 5956   3.589   5.916   4.168
 1686SOL    HW1 5957   3.553   5.828   4.138
 1686SOL    HW2 5958   3.620   5.968   4.089
 1687SOL     OW 5959   0.038   3.673   1.514
 1687SOL    HW1 5960   0.011   3.578   1.526
 1687SOL    HW2 5961   0.037   3.719   1.603
 1688SOL     OW 5962   1.472   1.360   3.985
 1688SOL    HW1 5963   1.381   1.325   4.008
 1688SOL    HW2 5964   1.463   1.432   3.917
 1689SOL     OW 5965   6.021   0.664   2.518
 1689SOL    HW1 5966   5.998   0.664   2.615
 1689SOL    HW2 5967   6.021   0.758   2.484
 1690SOL     OW 5968   0.568   3.461   4.700
 1690SOL    HW1 5969   0.582   3.532   4.630
 1690SOL    HW2 5970   0.650   3.453   4.756
 1691SOL     OW 5971   5.160   2.871   3.996
 1691SOL    HW1 5972   5.136   2.918   3.911
 1691SOL    HW2 5973   5.149   2.934   4.073
 1692SOL     OW 5974   4.864   6.018   1.891
 1692SOL    HW1 5975   4.821   6.046   1.976
 1692SOL    HW2 5976   4.937   6.082   1.867
 1693SOL     OW 5977   6.801   2.047   4.309
 1693SOL    HW1 5978   6.863   2.037   4.386
 1693SOL    HW2 5979   6.760   1.959   4.286
 1694SOL     OW 5980   6.185   1.122   4.179
 1694SOL    HW1 5981   6.158   1.153   4.270
 1694SOL    HW2 5982   6.268   1.067   4.185
 1695SOL     OW 5983   3.705   0.484   6.691
 1695SOL    HW1 5984   3.777   0.550   6.713
 1695SOL    HW2 5985   3.623   0.533   6.662
 1696SOL     OW 5986   3.668   6.373   0.813
 1696SOL    HW1 5987   3.626   6.414   0.894
 1696SOL    HW2 5988   3.597   6.346   0.748
 1697SOL     OW 5989   6.039   2.483   1.134
 1697SOL    HW1 5990   5.953   2.459   1.090
 1697SOL    HW2 5991   6.064   2.577   1.109
 1698SOL     OW 5992   3.902   1.123   1.409
 1698SOL    HW1 5993   3.865   1.030   1.405
 1698SOL    HW2 5994   3.942   1.140   1.499
 1699SOL     OW 5995   2.372   2.006   5.787
 1699SOL    HW1 5996   2.393   1.961   5.873
 1699SOL    HW2 5997   2.407   2.100   5.788
 1700SOL     OW 5998   6.107   3.864   2.974
 1700SOL    HW1 5999   6.048   3.884   3.052
 1700SOL    HW2 6000   6.168   3.942   2.957
 1701SOL     OW 6001   5.890   5.592   5.310
 1701SOL    HW1 6002   5.798   5.627   5.327
 1701SOL    HW2 6003   5.957   5.661   5.335
 1702SOL     OW 6004   0.686   1.247   0.870
 1702SOL    HW1 6005   0.650   1.260   0.777
 1702SOL    HW2 6006   0.786   1.248   0.868
 1703SOL     OW 6007   3.969   1.724   6.430
 1703SOL    HW1 6008   3.882   1.757   6.466
 1703SOL    HW2 6009   4.035   1.799   6.429
 1704SOL     OW 6010   1.653   2.312   0.116
 1704SOL    HW1 6011   1.680   2.392   0.062
 1704SOL    HW2 6012   1.558   2.322   0.145
 1705SOL     OW 6013   3.541   2.187   1.587
 1705SOL    HW1 6014   3.486   2.129   1.648
 1705SOL    HW2 6015   3.628   2.208   1.630
 1706SOL     OW 6016   4.083   2.013   1.622
 1706SOL    HW1 6017   4.029   1.972   1.696
 1706SOL    HW2 6018   4.060   2.110   1.614
 1707SOL     OW 6019   4.655   2.701   2.652
 1707SOL    HW1 6020   4.571   2.647   2.647
 1707SOL    HW2 6021   4.711   2.684   2.571
 1708SOL     OW 6022   4.088   5.179   1.680
 1708SOL    HW1 6023   4.115   5.089   1.713
 1708SOL    HW2 6024   4.027   5.168   1.602
 1709SOL     OW 6025   3.808   6.918   1.184
 1709SOL    HW1 6026   3.734   6.985   1.176
 1709SOL    HW2 6027   3.769   6.826   1.191
 1710SOL     OW 6028   3.806   4.933   3.745
 1710SOL    HW1 6029   3.880   5.000   3.739
 1710SOL    HW2 6030   3.747   4.956   3.823
 1711SOL     OW 6031   2.225   4.915   5.182
 1711SOL    HW1 6032   2.212   4.823   5.143
 1711SOL    HW2 6033   2.215   4.910   5.282
 1712SOL     OW 6034   6.963   1.729   4.834
 1712SOL    HW1 6035   0.016   1.772   4.786
 1712SOL    HW2 6036   6.883   1.725   4.773
 1713SOL     OW 6037   4.095   1.435   2.780
 1713SOL    HW1 6038   4.077   1.377   2.859
 1713SOL    HW2 6039   4.066   1.387   2.696
 1714SOL     OW 6040   4.210   1.349   6.659
 1714SOL    HW1 6041   4.211   1.249   6.662
 1714SOL    HW2 6042   4.175   1.385   6.745
 1715SOL     OW 6043   2.467   5.547   3.067
 1715SOL    HW1 6044   2.536   5.514   3.002
 1715SOL    HW2 6045   2.500   5.631   3.110
 1716SOL     OW 6046   4.241   0.271   3.731
 1716SOL    HW1 6047   4.208   0.346   3.788
 1716SOL    HW2 6048   4.305   0.305   3.663
 1717SOL     OW 6049   3.791   5.555   5.111
 1717SOL    HW1 6050   3.760   5.530   5.019
 1717SOL    HW2 6051   3.778   5.477   5.172
 1718SOL     OW 6052   2.706   1.588   2.530
 1718SOL    HW1 6053   2.750   1.602   2.618
 1718SOL    HW2 6054   2.775   1.569   2.460
 1719SOL     OW 6055   2.203   3.609   1.068
 1719SOL    HW1 6056   2.174   3.704   1.052
 1719SOL    HW2 6057   2.232   3.568   0.982
 1720SOL     OW 6058   6.981   2.604   5.541
 1720SOL    HW1 6059   7.020   2.631   5.629
 1720SOL    HW2 6060   6.895   2.653   5.526
 1721SOL     OW 6061   1.680   0.142   1.280
 1721SOL    HW1 6062   1.776   0.128   1.303
 1721SOL    HW2 6063   1.623   0.082   1.338
 1722SOL     OW 6064   4.117   1.313   3.479
 1722SOL    HW1 6065   4.181   1.258   3.426
 1722SOL    HW2 6066   4.041   1.341   3.421
 1723SOL     OW 6067   4.340   2.397   0.080
 1723SOL    HW1 6068   4.307   2.315   0.126
 1723SOL    HW2 6069   4.430   2.378   0.040
 1724SOL     OW 6070   6.543   2.508   1.967
 1724SOL    HW1 6071   6.543   2.412   1.992
 1724SOL    HW2 6072   6.461   2.553   2.004
 1725SOL     OW 6073   1.978   5.215   6.747
 1725SOL    HW1 6074   1.955   5.230   6.651
 1725SOL    HW2 6075   2.066   5.258   6.767
 1726SOL     OW 6076   5.278   3.849   4.473
 1726SOL    HW1 6077   5.220   3.816   4.548
 1726SOL    HW2 6078   5.312   3.771   4.420
 1727SOL     OW 6079   3.997   3.621   3.174
 1727SOL    HW1 6080   3.999   3.712   3.133
 1727SOL    HW2 6081   4.076   3.569   3.140
 1728SOL     OW 6082   5.270   4.631   5.685
 1728SOL    HW1 6083   5.275   4.533   5.705
 1728SOL    HW2 6084   5.231   4.645   5.594
 1729SOL     OW 6085   1.266   4.131   3.080
 1729SOL    HW1 6086   1.271   4.038   3.116
 1729SOL    HW2 6087   1.346   4.149   3.023
 1730SOL     OW 6088   3.154   6.987   5.293
 1730SOL    HW1 6089   3.086   6.964   5.224
 1730SOL    HW2 6090   3.224   0.023   5.253
 1731SOL     OW 6091   6.390   4.849   3.469
 1731SOL    HW1 6092   6.449   4.879   3.394
 1731SOL    HW2 6093   6.391   4.917   3.542
 1732SOL     OW 6094   1.707   4.727   6.505
 1732SOL    HW1 6095   1.794   4.682   6.525
 1732SOL    HW2 6096   1.696   4.806   6.566
 1733SOL     OW 6097   2.516   3.855   1.683
 1733SOL    HW1 6098   2.452   3.929   1.705
 1733SOL    HW2 6099   2.610   3.888   1.695
 1734SOL     OW 6100   5.544   2.739   1.690
 1734SOL    HW1 6101   5.499   2.656   1.659
 1734SOL    HW2 6102   5.535   2.810   1.620
 1735SOL     OW 6103   4.407   5.558   5.793
 1735SOL    HW1 6104   4.407   5.645   5.744
 1735SOL    HW2 6105   4.432   5.485   5.729
 1736SOL     OW 6106   3.661   3.668   0.586
 1736SOL    HW1 6107   3.610   3.619   0.515
 1736SOL    HW2 6108   3.648   3.623   0.674
 1737SOL     OW 6109   5.090   0.071   4.861
 1737SOL    HW1 6110   5.069   0.016   4.942
 1737SOL    HW2 6111   5.151   0.146   4.887
 1738SOL     OW 6112   1.589   3.500   4.001
 1738SOL    HW1 6113   1.516   3.551   4.046
 1738SOL    HW2 6114   1.674   3.510   4.052
 1739SOL     OW 6115   6.153   0.558   4.202
 1739SOL    HW1 6116   6.161   0.469   4.247
 1739SOL    HW2 6117   6.244   0.601   4.197
 1740SOL     OW 6118   6.354   1.412   5.356
 1740SOL    HW1 6119   6.435   1.458   5.321
 1740SOL    HW2 6120   6.278   1.424   5.292
 1741SOL     OW 6121   2.788   1.178   4.088
 1741SOL    HW1 6122   2.854   1.140   4.152
 1741SOL    HW2 6123   2.835   1.208   4.005
 1742SOL     OW 6124   5.572   0.940   5.895
 1742SOL    HW1 6125   5.587   0.902   5.987
 1742SOL    HW2 6126   5.612   1.031   5.890
 1743SOL     OW 6127   1.114   1.078   2.453
 1743SOL    HW1 6128   1.103   1.075   2.354
 1743SOL    HW2 6129   1.189   1.140   2.476
 1744SOL     OW 6130   5.506   2.300   2.936
 1744SOL    HW1 6131   5.561   2.292   3.019
 1744SOL    HW2 6132   5.422   2.351   2.956
 1745SOL     OW 6133   6.085   6.556   1.882
 1745SOL    HW1 6134   6.138   6.474   1.860
 1745SOL    HW2 6135   6.087   6.620   1.805
 1746SOL     OW 6136   2.088   3.692   4.055
 1746SOL    HW1 6137   2.110   3.767   3.993
 1746SOL    HW2 6138   2.111   3.719   4.149
 1747SOL     OW 6139   3.687   1.801   2.138
 1747SOL    HW1 6140   3.740   1.722   2.169
 1747SOL    HW2 6141   3.613   1.819   2.202
 1748SOL     OW 6142   6.324   1.459   4.172
 1748SOL    HW1 6143   6.269   1.444   4.090
 1748SOL    HW2 6144   6.291   1.400   4.246
 1749SOL     OW 6145   2.765   6.792   0.014
 1749SOL    HW1 6146   2.759   6.730   6.959
 1749SOL    HW2 6147   2.837   6.760   0.076
 1750SOL     OW 6148   4.604   0.526   4.171
 1750SOL    HW1 6149   4.512   0.531   4.131
 1750SOL    HW2 6150   4.596   0.515   4.270
 1751SOL     OW 6151   5.604   2.217   4.808
 1751SOL    HW1 6152   5.608   2.298   4.750
 1751SOL    HW2 6153   5.630   2.241   4.902
 1752SOL     OW 6154   5.851   0.424   1.432
 1752SOL    HW1 6155   5.755   0.446   1.446
 1752SOL    HW2 6156   5.869   0.331   1.463
 1753SOL     OW 6157   6.587   1.312   1.975
 1753SOL    HW1 6158   6.539   1.283   1.892
 1753SOL    HW2 6159   6.684   1.291   1.967
 1754SOL     OW 6160   1.852   5.818   6.394
 1754SOL    HW1 6161   1.826   5.752   6.464
 1754SOL    HW2 6162   1.909   5.773   6.325
 1755SOL     OW 6163   0.182   6.245   6.216
 1755SOL    HW1 6164   0.203   6.224   6.121
 1755SOL    HW2 6165   0.263   6.231   6.273
 1756SOL     OW 6166   3.869   6.327   6.265
 1756SOL    HW1 6167   3.907   6.280   6.345
 1756SOL    HW2 6168   3.943   6.347   6.201
 1757SOL     OW 6169   3.329   4.905   4.865
 1757SOL    HW1 6170   3.272   4.937   4.790
 1757SOL    HW2 6171   3.276   4.845   4.925
 1758SOL     OW 6172   1.644   0.114   4.586
 1758SOL    HW1 6173   1.583   0.189   4.610
 1758SOL    HW2 6174   1.592   0.043   4.537
 1759SOL     OW 6175   1.271   6.491   5.401
 1759SOL    HW1 6176   1.279   6.404   5.449
 1759SOL    HW2 6177   1.245   6.563   5.466
 1760SOL     OW 6178   5.885   0.588   4.201
 1760SOL    HW1 6179   5.897   0.638   4.287
 1760SOL    HW2 6180   5.973   0.548   4.173
 1761SOL     OW 6181   6.710   0.528   1.229
 1761SOL    HW1 6182   6.739   0.554   1.137
 1761SOL    HW2 6183   6.612   0.507   1.228
 1762SOL     OW 6184   6.868   1.663   5.096
 1762SOL    HW1 6185   6.771   1.684   5.094
 1762SOL    HW2 6186   6.908   1.680   5.006
 1763SOL     OW 6187   1.003   4.457   4.946
 1763SOL    HW1 6188   1.075   4.388   4.933
 1763SOL    HW2 6189   0.935   4.422   5.010
 1764SOL     OW 6190   0.437   3.381   2.144
 1764SOL    HW1 6191   0.466   3.337   2.058
 1764SOL    HW2 6192   0.509   3.373   2.212
 1765SOL     OW 6193   3.952   2.529   1.672
 1765SOL    HW1 6194   3.988   2.620   1.651
 1765SOL    HW2 6195   3.856   2.536   1.699
 1766SOL     OW 6196   5.622   4.611   3.792
 1766SOL    HW1 6197   5.718   4.590   3.773
 1766SOL    HW2 6198   5.606   4.709   3.781
 1767SOL     OW 6199   0.851   4.611   2.583
 1767SOL    HW1 6200   0.876   4.601   2.486
 1767SOL    HW2 6201   0.752   4.626   2.590
 1768SOL     OW 6202   4.801   0.483   0.428
 1768SOL    HW1 6203   4.875   0.415   0.429
 1768SOL    HW2 6204   4.805   0.535   0.343
 1769SOL     OW 6205   5.945   0.809   0.633
 1769SOL    HW1 6206   5.903   0.887   0.587
 1769SOL    HW2 6207   5.952   0.733   0.569
 1770SOL     OW 6208   0.343   3.887   5.141
 1770SOL    HW1 6209   0.386   3.950   5.077
 1770SOL    HW2 6210   0.390   3.892   5.229
 1771SOL     OW 6211   1.906   4.719   6.971
 1771SOL    HW1 6212   1.892   4.801   6.915
 1771SOL    HW2 6213   1.926   4.746   0.042
 1772SOL     OW 6214   4.039   5.366   4.497
 1772SOL    HW1 6215   4.071   5.460   4.497
 1772SOL    HW2 6216   4.074   5.319   4.415
 1773SOL     OW 6217   0.835   1.598   5.344
 1773SOL    HW1 6218   0.852   1.588   5.246
 1773SOL    HW2 6219   0.738   1.585   5.363
 1774SOL     OW 6220   5.285   6.549   2.141
 1774SOL    HW1 6221   5.335   6.606   2.075
 1774SOL    HW2 6222   5.350   6.510   2.207
 1775SOL     OW 6223   1.730   5.614   6.598
 1775SOL    HW1 6224   1.794   5.599   6.673
 1775SOL    HW2 6225   1.706   5.526   6.556
 1776SOL     OW 6226   5.069   0.719   5.675
 1776SOL    HW1 6227   5.025   0.795   5.628
 1776SOL    HW2 6228   5.164   0.711   5.645
 1777SOL     OW 6229   4.057   6.929   6.487
 1777SOL    HW1 6230   4.032   0.003   6.484
 1777SOL    HW2 6231   4.080   6.904   6.582
 1778SOL     OW 6232   4.916   1.139   4.393
 1778SOL    HW1 6233   4.936   1.190   4.477
 1778SOL    HW2 6234   4.913   1.202   4.316
 1779SOL     OW 6235   5.199   6.751   5.634
 1779SOL    HW1 6236   5.198   6.655   5.662
 1779SOL    HW2 6237   5.238   6.806   5.707
 1780SOL     OW 6238   1.677   4.330   4.924
 1780SOL    HW1 6239   1.601   4.358   4.866
 1780SOL    HW2 6240   1.739   4.272   4.872
 1781SOL     OW 6241   5.004   6.890   4.667
 1781SOL    HW1 6242   5.076   6.826   4.695
 1781SOL    HW2 6243   5.010   6.973   4.723
 1782SOL     OW 6244   1.878   1.601   2.923
 1782SOL    HW1 6245   1.848   1.511   2.892
 1782SOL    HW2 6246   1.896   1.659   2.844
 1783SOL     OW 6247   2.124   3.593   6.059
 1783SOL    HW1 6248   2.118   3.568   6.155
 1783SOL    HW2 6249   2.059   3.539   6.006
 1784SOL     OW 6250   2.572   1.106   2.094
 1784SOL    HW1 6251   2.556   1.131   1.999
 1784SOL    HW2 6252   2.495   1.051   2.127
 1785SOL     OW 6253   6.813   6.243   4.432
 1785SOL    HW1 6254   6.913   6.240   4.425
 1785SOL    HW2 6255   6.778   6.315   4.371
 1786SOL     OW 6256   1.946   5.269   0.709
 1786SOL    HW1 6257   1.902   5.336   0.649
 1786SOL    HW2 6258   1.995   5.202   0.655
 1787SOL     OW 6259   2.049   2.506   5.600
 1787SOL    HW1 6260   1.957   2.473   5.576
 1787SOL    HW2 6261   2.091   2.548   5.520
 1788SOL     OW 6262   4.661   3.623   0.449
 1788SOL    HW1 6263   4.572   3.589   0.419
 1788SOL    HW2 6264   4.723   3.628   0.371
 1789SOL     OW 6265   6.361   3.280   2.147
 1789SOL    HW1 6266   6.294   3.220   2.102
 1789SOL    HW2 6267   6.313   3.343   2.208
 1790SOL     OW 6268   3.529   1.136   4.389
 1790SOL    HW1 6269   3.578   1.205   4.336
 1790SOL    HW2 6270   3.515   1.169   4.482
 1791SOL     OW 6271   6.217   1.032   3.323
 1791SOL    HW1 6272   6.294   0.973   3.348
 1791SOL    HW2 6273   6.252   1.111   3.272
 1792SOL     OW 6274   6.405   1.692   4.518
 1792SOL    HW1 6275   6.408   1.714   4.420
 1792SOL    HW2 6276   6.440   1.769   4.571
 1793SOL     OW 6277   6.258   1.499   4.910
 1793SOL    HW1 6278   6.237   1.467   4.818
 1793SOL    HW2 6279   6.249   1.422   4.974
 1794SOL     OW 6280   6.357   0.260   6.396
 1794SOL    HW1 6281   6.260   0.238   6.412
 1794SOL    HW2 6282   6.406   0.176   6.375
 1795SOL     OW 6283   5.703   4.953   0.980
 1795SOL    HW1 6284   5.788   5.002   0.961
 1795SOL    HW2 6285   5.686   4.954   1.079
 1796SOL     OW 6286   2.043   0.984   5.419
 1796SOL    HW1 6287   1.948   1.009   5.402
 1796SOL    HW2 6288   2.067   1.007   5.513
 1797SOL     OW 6289   1.337   6.959   5.057
 1797SOL    HW1 6290   1.413   6.953   5.121
 1797SOL    HW2 6291   1.254   6.985   5.107
 1798SOL     OW 6292   3.465   2.879   4.423
 1798SOL    HW1 6293   3.514   2.851   4.341
 1798SOL    HW2 6294   3.423   2.968   4.408
 1799SOL     OW 6295   4.140   1.873   6.861
 1799SOL    HW1 6296   4.074   1.798   6.860
 1799SOL    HW2 6297   4.098   1.956   6.896
 1800SOL     OW 6298   5.459   4.411   3.723
 1800SOL    HW1 6299   5.517   4.476   3.772
 1800SOL    HW2 6300   5.510   4.373   3.646
 1801SOL     OW 6301   0.807   1.892   1.482
 1801SOL    HW1 6302   0.724   1.931   1.443
 1801SOL    HW2 6303   0.804   1.899   1.582
 1802SOL     OW 6304   6.323   5.658   3.696
 1802SOL    HW1 6305   6.311   5.580   3.635
 1802SOL    HW2 6306   6.257   5.729   3.673
 1803SOL     OW 6307   0.042   6.378   2.321
 1803SOL    HW1 6308   0.135   6.360   2.290
 1803SOL    HW2 6309   0.027   6.476   2.329
 1804SOL     OW 6310   3.402   3.580   5.428
 1804SOL    HW1 6311   3.435   3.651   5.366
 1804SOL    HW2 6312   3.306   3.562   5.409
 1805SOL     OW 6313   1.309   5.848   5.771
 1805SOL    HW1 6314   1.374   5.790   5.819
 1805SOL    HW2 6315   1.293   5.812   5.679
 1806SOL     OW 6316   6.605   2.185   2.359
 1806SOL    HW1 6317   6.593   2.242   2.441
 1806SOL    HW2 6318   6.653   2.101   2.384
 1807SOL     OW 6319   6.367   3.657   0.339
 1807SOL    HW1 6320   6.327   3.607   0.262
 1807SOL    HW2 6321   6.349   3.754   0.329
 1808SOL     OW 6322   5.551   3.088   5.125
 1808SOL    HW1 6323   5.453   3.090   5.146
 1808SOL    HW2 6324   5.589   3.180   5.139
 1809SOL     OW 6325   2.882   1.710   5.217
 1809SOL    HW1 6326   2.825   1.670   5.289
 1809SOL    HW2 6327   2.947   1.774   5.258
 1810SOL     OW 6328   0.444   0.773   4.502
 1810SOL    HW1 6329   0.392   0.801   4.583
 1810SOL    HW2 6330   0.382   0.740   4.432
 1811SOL     OW 6331   4.673   4.629   1.416
 1811SOL    HW1 6332   4.717   4.543   1.442
 1811SOL    HW2 6333   4.615   4.661   1.491
 1812SOL     OW 6334   4.636   0.004   5.992
 1812SOL    HW1 6335   4.580   0.074   5.947
 1812SOL    HW2 6336   4.616   6.938   5.952
 1813SOL     OW 6337   4.522   4.460   2.232
 1813SOL    HW1 6338   4.512   4.393   2.158
 1813SOL    HW2 6339   4.512   4.552   2.196
 1814SOL     OW 6340   6.594   6.861   0.418
 1814SOL    HW1 6341   6.629   6.941   0.466
 1814SOL    HW2 6342   6.650   6.781   0.441
 1815SOL     OW 6343   5.698   5.909   2.562
 1815SOL    HW1 6344   5.698   5.844   2.486
 1815SOL    HW2 6345   5.640   5.874   2.636
 1816SOL     OW 6346   4.173   6.248   5.522
 1816SOL    HW1 6347   4.170   6.322   5.455
 1816SOL    HW2 6348   4.263   6.204   5.517
 1817SOL     OW 6349   2.837   1.848   2.597
 1817SOL    HW1 6350   2.766   1.858   2.667
 1817SOL    HW2 6351   2.927   1.857   2.641
 1818SOL     OW 6352   1.784   6.505   0.347
 1818SOL    HW1 6353   1.864   6.553   0.383
 1818SOL    HW2 6354   1.750   6.441   0.415
 1819SOL     OW 6355   1.518   5.108   2.066
 1819SOL    HW1 6356   1.484   5.042   2.000
 1819SOL    HW2 6357   1.525   5.066   2.156
 1820SOL     OW 6358   4.172   0.329   2.673
 1820SOL    HW1 6359   4.229   0.330   2.591
 1820SOL    HW2 6360   4.214   0.386   2.744
 1821SOL     OW 6361   3.486   1.114   2.002
 1821SOL    HW1 6362   3.423   1.061   2.058
 1821SOL    HW2 6363   3.451   1.207   1.991
 1822SOL     OW 6364   0.727   3.291   1.776
 1822SOL    HW1 6365   0.756   3.365   1.716
 1822SOL    HW2 6366   0.740   3.317   1.871
 1823SOL     OW 6367   3.591   6.352   2.681
 1823SOL    HW1 6368   3.612   6.263   2.720
 1823SOL    HW2 6369   3.610   6.351   2.583
 1824SOL     OW 6370   3.690   3.951   0.709
 1824SOL    HW1 6371   3.754   3.967   0.784
 1824SOL    HW2 6372   3.700   3.858   0.675
 1825SOL     OW 6373   0.347   2.842   4.863
 1825SOL    HW1 6374   0.349   2.836   4.963
 1825SOL    HW2 6375   0.305   2.928   4.835
 1826SOL     OW 6376   3.791   1.649   0.863
 1826SOL    HW1 6377   3.777   1.644   0.962
 1826SOL    HW2 6378   3.830   1.738   0.838
 1827SOL     OW 6379   5.007   5.258   1.051
 1827SOL    HW1 6380   4.921   5.210   1.070
 1827SOL    HW2 6381   5.083   5.205   1.088
 1828SOL     OW 6382   1.391   3.508   6.326
 1828SOL    HW1 6383   1.400   3.437   6.257
 1828SOL    HW2 6384   1.460   3.578   6.311
 1829SOL     OW 6385   3.709   0.823   3.362
 1829SOL    HW1 6386   3.627   0.776   3.394
 1829SOL    HW2 6387   3.787   0.796   3.418
 1830SOL     OW 6388   6.089   6.549   4.895
 1830SOL    HW1 6389   6.038   6.531   4.979
 1830SOL    HW2 6390   6.082   6.471   4.834
 1831SOL     OW 6391   5.182   6.050   3.162
 1831SOL    HW1 6392   5.100   6.042   3.105
 1831SOL    HW2 6393   5.197   6.146   3.186
 1832SOL     OW 6394   3.005   3.928   0.505
 1832SOL    HW1 6395   3.076   3.978   0.454
 1832SOL    HW2 6396   2.915   3.952   0.469
 1833SOL     OW 6397   4.776   7.011   1.171
 1833SOL    HW1 6398   4.774   0.002   1.072
 1833SOL    HW2 6399   4.769   0.076   1.217
 1834SOL     OW 6400   3.257   2.779   1.071
 1834SOL    HW1 6401   3.159   2.787   1.057
 1834SOL    HW2 6402   3.305   2.802   0.987
 1835SOL     OW 6403   1.223   5.465   0.879
 1835SOL    HW1 6404   1.254   5.557   0.857
 1835SOL    HW2 6405   1.293   5.398   0.853
 1836SOL     OW 6406   4.949   1.171   2.271
 1836SOL    HW1 6407   4.970   1.248   2.211
 1836SOL    HW2 6408   4.850   1.161   2.279
 1837SOL     OW 6409   1.771   1.038   5.376
 1837SOL    HW1 6410   1.695   0.977   5.398
 1837SOL    HW2 6411   1.742   1.103   5.306
 1838SOL     OW 6412   6.177   1.160   6.666
 1838SOL    HW1 6413   6.130   1.151   6.754
 1838SOL    HW2 6414   6.215   1.072   6.639
 1839SOL     OW 6415   6.220   1.671   6.267
 1839SOL    HW1 6416   6.289   1.662   6.339
 1839SOL    HW2 6417   6.219   1.766   6.234
 1840SOL     OW 6418   3.801   6.967   3.244
 1840SOL    HW1 6419   3.759   0.027   3.209
 1840SOL    HW2 6420   3.869   6.990   3.313
 1841SOL     OW 6421   2.514   0.481   2.271
 1841SOL    HW1 6422   2.512   0.400   2.329
 1841SOL    HW2 6423   2.421   0.504   2.243
 1842SOL     OW 6424   1.816   4.932   0.855
 1842SOL    HW1 6425   1.840   4.865   0.785
 1842SOL    HW2 6426   1.769   4.887   0.930
 1843SOL     OW 6427   4.102   1.298   4.525
 1843SOL    HW1 6428   4.071   1.364   4.593
 1843SOL    HW2 6429   4.152   1.345   4.453
 1844SOL     OW 6430   4.603   2.323   5.516
 1844SOL    HW1 6431   4.529   2.318   5.584
 1844SOL    HW2 6432   4.690   2.304   5.561
 1845SOL     OW 6433   2.894   0.664   3.693
 1845SOL    HW1 6434   2.867   0.651   3.788
 1845SOL    HW2 6435   2.835   0.610   3.633
 1846SOL     OW 6436   4.612   0.763   3.143
 1846SOL    HW1 6437   4.653   0.693   3.202
 1846SOL    HW2 6438   4.679   0.794   3.076
 1847SOL     OW 6439   1.371   0.670   4.975
 1847SOL    HW1 6440   1.435   0.629   4.909
 1847SOL    HW2 6441   1.285   0.690   4.929
 1848SOL     OW 6442   2.707   5.923   4.043
 1848SOL    HW1 6443   2.622   5.948   3.996
 1848SOL    HW2 6444   2.778   5.903   3.975
 1849SOL     OW 6445   4.883   3.155   2.184
 1849SOL    HW1 6446   4.805   3.136   2.124
 1849SOL    HW2 6447   4.964   3.106   2.151
 1850SOL     OW 6448   5.059   1.863   2.463
 1850SOL    HW1 6449   5.147   1.894   2.425
 1850SOL    HW2 6450   5.076   1.793   2.533
 1851SOL     OW 6451   0.363   3.192   6.341
 1851SOL    HW1 6452   0.434   3.163   6.277
 1851SOL    HW2 6453   0.280   3.215   6.291
 1852SOL     OW 6454   0.300   4.813   1.564
 1852SOL    HW1 6455   0.230   4.793   1.496
 1852SOL    HW2 6456   0.367   4.739   1.566
 1853SOL     OW 6457   6.917   2.530   4.166
 1853SOL    HW1 6458   6.930   2.437   4.201
 1853SOL    HW2 6459   7.004   2.579   4.167
 1854SOL     OW 6460   1.055   5.794   3.393
 1854SOL    HW1 6461   1.136   5.769   3.341
 1854SOL    HW2 6462   1.022   5.715   3.445
 1855SOL     OW 6463   5.530   3.231   4.409
 1855SOL    HW1 6464   5.601   3.277   4.355
 1855SOL    HW2 6465   5.567   3.146   4.446
 1856SOL     OW 6466   4.061   3.151   6.703
 1856SOL    HW1 6467   4.032   3.238   6.743
 1856SOL    HW2 6468   3.998   3.126   6.629
 1857SOL     OW 6469   5.848   1.052   0.520
 1857SOL    HW1 6470   5.778   1.033   0.452
 1857SOL    HW2 6471   5.903   1.130   0.491
 1858SOL     OW 6472   4.925   2.291   3.931
 1858SOL    HW1 6473   4.831   2.291   3.966
 1858SOL    HW2 6474   4.975   2.369   3.970
 1859SOL     OW 6475   5.411   1.877   4.528
 1859SOL    HW1 6476   5.445   1.844   4.616
 1859SOL    HW2 6477   5.434   1.812   4.456
 1860SOL     OW 6478   0.813   2.053   5.016
 1860SOL    HW1 6479   0.823   2.002   4.931
 1860SOL    HW2 6480   0.752   2.131   5.001
 1861SOL     OW 6481   5.797   0.114   3.045
 1861SOL    HW1 6482   5.815   0.042   2.978
 1861SOL    HW2 6483   5.880   0.166   3.062
 1862SOL     OW 6484   1.797   0.005   6.970
 1862SOL    HW1 6485   1.702   0.030   6.985
 1862SOL    HW2 6486   1.843   7.014   0.034
 1863SOL     OW 6487   0.224   2.892   1.283
 1863SOL    HW1 6488   0.257   2.805   1.319
 1863SOL    HW2 6489   0.300   2.957   1.277
 1864SOL     OW 6490   2.990   5.478   4.299
 1864SOL    HW1 6491   3.054   5.433   4.362
 1864SOL    HW2 6492   2.906   5.423   4.293
 1865SOL     OW 6493   3.968   1.432   1.285
 1865SOL    HW1 6494   4.059   1.393   1.297
 1865SOL    HW2 6495   3.960   1.472   1.194
 1866SOL     OW 6496   6.159   4.002   4.357
 1866SOL    HW1 6497   6.175   3.917   4.406
 1866SOL    HW2 6498   6.068   4.038   4.381
 1867SOL     OW 6499   2.652   2.779   1.471
 1867SOL    HW1 6500   2.585   2.852   1.486
 1867SOL    HW2 6501   2.703   2.762   1.556
 1868SOL     OW 6502   4.761   4.075   5.077
 1868SOL    HW1 6503   4.745   3.979   5.098
 1868SOL    HW2 6504   4.853   4.101   5.107
 1869SOL     OW 6505   5.064   2.503   4.006
 1869SOL    HW1 6506   5.066   2.539   4.100
 1869SOL    HW2 6507   5.067   2.579   3.942
 1870SOL     OW 6508   0.942   3.021   4.067
 1870SOL    HW1 6509   1.006   2.974   4.006
 1870SOL    HW2 6510   0.852   2.977   4.062
 1871SOL     OW 6511   6.896   6.468   0.376
 1871SOL    HW1 6512   6.959   6.398   0.411
 1871SOL    HW2 6513   6.814   6.425   0.340
 1872SOL     OW 6514   3.043   2.576   0.763
 1872SOL    HW1 6515   3.044   2.665   0.719
 1872SOL    HW2 6516   3.040   2.504   0.694
 1873SOL     OW 6517   6.039   1.025   6.875
 1873SOL    HW1 6518   5.994   0.950   6.827
 1873SOL    HW2 6519   6.091   0.989   6.953
 1874SOL     OW 6520   0.772   0.661   6.622
 1874SOL    HW1 6521   0.736   0.641   6.714
 1874SOL    HW2 6522   0.795   0.758   6.616
 1875SOL     OW 6523   6.687   6.053   0.375
 1875SOL    HW1 6524   6.717   5.990   0.446
 1875SOL    HW2 6525   6.731   6.029   0.288
 1876SOL     OW 6526   5.834   6.489   5.877
 1876SOL    HW1 6527   5.879   6.467   5.790
 1876SOL    HW2 6528   5.902   6.492   5.950
 1877SOL     OW 6529   6.910   1.187   2.476
 1877SOL    HW1 6530   6.854   1.180   2.559
 1877SOL    HW2 6531   6.962   1.272   2.478
 1878SOL     OW 6532   0.143   4.040   3.432
 1878SOL    HW1 6533   0.202   4.012   3.508
 1878SOL    HW2 6534   0.108   3.959   3.386
 1879SOL     OW 6535   2.709   5.311   4.951
 1879SOL    HW1 6536   2.793   5.288   4.901
 1879SOL    HW2 6537   2.683   5.406   4.932
 1880SOL     OW 6538   0.053   2.074   3.404
 1880SOL    HW1 6539   0.122   2.037   3.466
 1880SOL    HW2 6540   0.092   2.084   3.313
 1881SOL     OW 6541   0.839   2.165   3.181
 1881SOL    HW1 6542   0.857   2.149   3.278
 1881SOL    HW2 6543   0.760   2.109   3.153
 1882SOL     OW 6544   1.300   5.751   0.296
 1882SOL    HW1 6545   1.220   5.806   0.317
 1882SOL    HW2 6546   1.330   5.702   0.378
 1883SOL     OW 6547   1.378   3.444   2.910
 1883SOL    HW1 6548   1.410   3.539   2.904
 1883SOL    HW2 6549   1.387   3.411   3.003
 1884SOL     OW 6550   4.245   0.857   0.911
 1884SOL    HW1 6551   4.277   0.932   0.969
 1884SOL    HW2 6552   4.272   0.875   0.817
 1885SOL     OW 6553   6.675   2.144   1.012
 1885SOL    HW1 6554   6.700   2.100   0.926
 1885SOL    HW2 6555   6.695   2.242   1.006
 1886SOL     OW 6556   1.721   1.769   0.213
 1886SOL    HW1 6557   1.716   1.686   0.270
 1886SOL    HW2 6558   1.762   1.843   0.265
 1887SOL     OW 6559   0.407   4.385   5.717
 1887SOL    HW1 6560   0.353   4.371   5.634
 1887SOL    HW2 6561   0.465   4.305   5.733
 1888SOL     OW 6562   1.920   1.601   5.656
 1888SOL    HW1 6563   2.001   1.652   5.684
 1888SOL    HW2 6564   1.943   1.539   5.581
 1889SOL     OW 6565   4.570   3.481   0.082
 1889SOL    HW1 6566   4.659   3.526   0.075
 1889SOL    HW2 6567   4.543   3.477   0.179
 1890SOL     OW 6568   1.585   5.717   6.200
 1890SOL    HW1 6569   1.517   5.658   6.156
 1890SOL    HW2 6570   1.551   5.744   6.291
 1891SOL     OW 6571   5.766   3.415   5.486
 1891SOL    HW1 6572   5.860   3.381   5.474
 1891SOL    HW2 6573   5.702   3.340   5.468
 1892SOL     OW 6574   3.995   6.648   1.776
 1892SOL    HW1 6575   3.948   6.610   1.697
 1892SOL    HW2 6576   3.961   6.740   1.794
 1893SOL     OW 6577   3.441   2.125   4.694
 1893SOL    HW1 6578   3.503   2.117   4.772
 1893SOL    HW2 6579   3.347   2.114   4.725
 1894SOL     OW 6580   4.165   3.780   1.548
 1894SOL    HW1 6581   4.088   3.813   1.603
 1894SOL    HW2 6582   4.233   3.854   1.538
 1895SOL     OW 6583   6.152   0.699   2.194
 1895SOL    HW1 6584   6.230   0.644   2.164
 1895SOL    HW2 6585   6.090   0.715   2.116
 1896SOL     OW 6586   6.659   1.002   4.017
 1896SOL    HW1 6587   6.753   1.029   4.036
 1896SOL    HW2 6588   6.637   1.023   3.922
 1897SOL     OW 6589   6.871   5.544   3.180
 1897SOL    HW1 6590   6.922   5.625   3.210
 1897SOL    HW2 6591   6.917   5.504   3.101
 1898SOL     OW 6592   4.155   6.079   1.505
 1898SOL    HW1 6593   4.095   6.154   1.533
 1898SOL    HW2 6594   4.247   6.094   1.542
 1899SOL     OW 6595   0.124   3.591   2.677
 1899SOL    HW1 6596   0.157   3.685   2.691
 1899SOL    HW2 6597   0.111   3.547   2.766
 1900SOL     OW 6598   1.118   0.049   6.417
 1900SOL    HW1 6599   1.021   0.057   6.442
 1900SOL    HW2 6600   1.160   0.140   6.421
 1901SOL     OW 6601   2.317   1.499   0.409
 1901SOL    HW1 6602   2.299   1.555   0.329
 1901SOL    HW2 6603   2.401   1.447   0.396
 1902SOL     OW 6604   1.301   2.385   4.763
 1902SOL    HW1 6605   1.276   2.288   4.770
 1902SOL    HW2 6606   1.274   2.421   4.674
 1903SOL     OW 6607   6.673   3.984   3.183
 1903SOL    HW1 6608   6.688   3.948   3.091
 1903SOL    HW2 6609   6.659   3.909   3.247
 1904SOL     OW 6610   0.059   6.991   4.497
 1904SOL    HW1 6611   0.024   6.948   4.580
 1904SOL    HW2 6612   0.159   6.988   4.497
 1905SOL     OW 6613   6.823   2.542   3.713
 1905SOL    HW1 6614   6.764   2.622   3.721
 1905SOL    HW2 6615   6.918   2.568   3.732
 1906SOL     OW 6616   2.759   0.319   5.732
 1906SOL    HW1 6617   2.671   0.310   5.687
 1906SOL    HW2 6618   2.818   0.379   5.679
 1907SOL     OW 6619   2.746   0.042   3.681
 1907SOL    HW1 6620   2.802   6.989   3.716
 1907SOL    HW2 6621   2.792   0.128   3.701
 1908SOL     OW 6622   4.524   1.249   5.918
 1908SOL    HW1 6623   4.492   1.175   5.978
 1908SOL    HW2 6624   4.582   1.311   5.970
 1909SOL     OW 6625   2.303   4.620   4.458
 1909SOL    HW1 6626   2.340   4.584   4.543
 1909SOL    HW2 6627   2.378   4.637   4.394
 1910SOL     OW 6628   5.189   2.763   6.623
 1910SOL    HW1 6629   5.184   2.673   6.580
 1910SOL    HW2 6630   5.101   2.810   6.613
 1911SOL     OW 6631   6.631   1.898   5.544
 1911SOL    HW1 6632   6.675   1.825   5.597
 1911SOL    HW2 6633   6.577   1.956   5.606
 1912SOL     OW 6634   3.847   6.493   2.442
 1912SOL    HW1 6635   3.845   6.523   2.537
 1912SOL    HW2 6636   3.766   6.438   2.423
 1913SOL     OW 6637   1.823   6.570   5.092
 1913SOL    HW1 6638   1.892   6.574   5.165
 1913SOL    HW2 6639   1.860   6.520   5.014
 1914SOL     OW 6640   2.134   2.586   6.527
 1914SOL    HW1 6641   2.048   2.632   6.546
 1914SOL    HW2 6642   2.121   2.518   6.454
 1915SOL     OW 6643   4.083   1.302   5.693
 1915SOL    HW1 6644   4.178   1.276   5.675
 1915SOL    HW2 6645   4.065   1.296   5.791
 1916SOL     OW 6646   4.420   5.649   0.893
 1916SOL    HW1 6647   4.422   5.737   0.845
 1916SOL    HW2 6648   4.368   5.583   0.839
 1917SOL     OW 6649   3.805   3.408   4.389
 1917SOL    HW1 6650   3.744   3.329   4.393
 1917SOL    HW2 6651   3.850   3.420   4.477
 1918SOL     OW 6652   6.420   6.835   5.988
 1918SOL    HW1 6653   6.362   6.778   6.045
 1918SOL    HW2 6654   6.506   6.853   6.035
 1919SOL     OW 6655   1.579   6.273   1.904
 1919SOL    HW1 6656   1.529   6.341   1.850
 1919SOL    HW2 6657   1.639   6.320   1.969
 1920SOL     OW 6658   0.388   4.185   3.415
 1920SOL    HW1 6659   0.306   4.140   3.381
 1920SOL    HW2 6660   0.468   4.152   3.364
 1921SOL     OW 6661   0.333   5.232   0.165
 1921SOL    HW1 6662   0.339   5.324   0.204
 1921SOL    HW2 6663   0.384   5.228   0.080
 1922SOL     OW 6664   4.278   3.260   1.247
 1922SOL    HW1 6665   4.353   3.240   1.184
 1922SOL    HW2 6666   4.315   3.271   1.340
 1923SOL     OW 6667   3.304   1.216   0.156
 1923SOL    HW1 6668   3.226   1.279   0.154
 1923SOL    HW2 6669   3.296   1.151   0.080
 1924SOL     OW 6670   6.203   4.427   1.792
 1924SOL    HW1 6671   6.197   4.484   1.873
 1924SOL    HW2 6672   6.184   4.331   1.816
 1925SOL     OW 6673   2.978   3.644   1.820
 1925SOL    HW1 6674   2.884   3.615   1.835
 1925SOL    HW2 6675   2.995   3.730   1.870
 1926SOL     OW 6676   1.447   0.305   4.688
 1926SOL    HW1 6677   1.424   0.239   4.759
 1926SOL    HW2 6678   1.368   0.319   4.629
 1927SOL     OW 6679   3.251   4.308   6.233
 1927SOL    HW1 6680   3.302   4.256   6.301
 1927SOL    HW2 6681   3.310   4.329   6.155
 1928SOL     OW 6682   6.480   3.371   5.976
 1928SOL    HW1 6683   6.530   3.329   6.052
 1928SOL    HW2 6684   6.502   3.469   5.973
 1929SOL     OW 6685   1.018   5.267   1.658
 1929SOL    HW1 6686   1.104   5.255   1.708
 1929SOL    HW2 6687   0.986   5.361   1.670
 1930SOL     OW 6688   5.611   4.393   0.303
 1930SOL    HW1 6689   5.670   4.313   0.302
 1930SOL    HW2 6690   5.666   4.476   0.314
 1931SOL     OW 6691   0.035   3.418   2.891
 1931SOL    HW1 6692   0.016   3.356   2.967
 1931SOL    HW2 6693   0.038   3.367   2.805
 1932SOL     OW 6694   5.144   3.686   2.748
 1932SOL    HW1 6695   5.095   3.735   2.820
 1932SOL    HW2 6696   5.128   3.587   2.758
 1933SOL     OW 6697   2.746   5.143   0.829
 1933SOL    HW1 6698   2.736   5.055   0.874
 1933SOL    HW2 6699   2.785   5.209   0.893
 1934SOL     OW 6700   1.231   7.010   5.473
 1934SOL    HW1 6701   1.273   0.063   5.521
 1934SOL    HW2 6702   1.301   6.941   5.452
 1935SOL     OW 6703   3.123   0.009   4.929
 1935SOL    HW1 6704   3.197   0.061   4.971
 1935SOL    HW2 6705   3.161   6.959   4.872
 1936SOL     OW 6706   6.001   5.201   4.721
 1936SOL    HW1 6707   6.073   5.140   4.685
 1936SOL    HW2 6708   6.043   5.272   4.777
 1937SOL     OW 6709   4.165   0.202   2.183
 1937SOL    HW1 6710   4.118   0.122   2.145
 1937SOL    HW2 6711   4.164   0.198   2.282
 1938SOL     OW 6712   4.094   1.958   3.241
 1938SOL    HW1 6713   4.051   2.047   3.232
 1938SOL    HW2 6714   4.130   1.928   3.153
 1939SOL     OW 6715   1.131   0.009   4.012
 1939SOL    HW1 6716   1.076   0.092   3.997
 1939SOL    HW2 6717   1.079   6.953   3.983
 1940SOL     OW 6718   5.387   5.343   6.754
 1940SOL    HW1 6719   5.432   5.254   6.767
 1940SOL    HW2 6720   5.388   5.394   6.840
 1941SOL     OW 6721   6.542   4.252   2.734
 1941SOL    HW1 6722   6.461   4.217   2.686
 1941SOL    HW2 6723   6.620   4.193   2.712
 1942SOL     OW 6724   6.436   6.730   2.785
 1942SOL    HW1 6725   6.362   6.674   2.747
 1942SOL    HW2 6726   6.458   6.804   2.722
 1943SOL     OW 6727   3.342   5.799   1.959
 1943SOL    HW1 6728   3.422   5.757   2.002
 1943SOL    HW2 6729   3.355   5.802   1.860
 1944SOL     OW 6730   5.164   2.223   6.115
 1944SOL    HW1 6731   5.208   2.239   6.203
 1944SOL    HW2 6732   5.136   2.127   6.109
 1945SOL     OW 6733   4.476   5.692   3.432
 1945SOL    HW1 6734   4.504   5.624   3.364
 1945SOL    HW2 6735   4.541   5.768   3.433
 1946SOL     OW 6736   0.405   0.960   0.446
 1946SOL    HW1 6737   0.332   1.028   0.455
 1946SOL    HW2 6738   0.375   0.886   0.385
 1947SOL     OW 6739   5.364   6.777   4.217
 1947SOL    HW1 6740   5.342   6.726   4.134
 1947SOL    HW2 6741   5.368   6.713   4.294
 1948SOL     OW 6742   6.600   5.483   3.380
 1948SOL    HW1 6743   6.601   5.463   3.478
 1948SOL    HW2 6744   6.520   5.540   3.359
 1949SOL     OW 6745   3.931   4.531   5.725
 1949SOL    HW1 6746   3.960   4.614   5.677
 1949SOL    HW2 6747   3.862   4.555   5.793
 1950SOL     OW 6748   4.002   3.969   1.045
 1950SOL    HW1 6749   4.028   3.977   1.141
 1950SOL    HW2 6750   4.083   3.960   0.988
 1951SOL     OW 6751   6.755   2.743   0.421
 1951SOL    HW1 6752   6.727   2.732   0.516
 1951SOL    HW2 6753   6.744   2.839   0.393
 1952SOL     OW 6754   3.682   2.333   6.939
 1952SOL    HW1 6755   3.594   2.304   6.902
 1952SOL    HW2 6756   3.683   2.432   6.949
 1953SOL     OW 6757   6.123   2.191   6.344
 1953SOL    HW1 6758   6.126   2.245   6.260
 1953SOL    HW2 6759   6.028   2.171   6.368
 1954SOL     OW 6760   5.520   1.319   4.514
 1954SOL    HW1 6761   5.424   1.347   4.522
 1954SOL    HW2 6762   5.556   1.351   4.427
 1955SOL     OW 6763   1.491   0.150   2.571
 1955SOL    HW1 6764   1.426   0.090   2.618
 1955SOL    HW2 6765   1.531   0.101   2.493
 1956SOL     OW 6766   5.976   6.433   2.669
 1956SOL    HW1 6767   5.984   6.350   2.723
 1956SOL    HW2 6768   5.898   6.425   2.606
 1957SOL     OW 6769   6.459   5.107   5.049
 1957SOL    HW1 6770   6.495   5.084   4.958
 1957SOL    HW2 6771   6.476   5.032   5.112
 1958SOL     OW 6772   6.025   2.600   4.016
 1958SOL    HW1 6773   6.037   2.637   3.924
 1958SOL    HW2 6774   6.078   2.516   4.026
 1959SOL     OW 6775   0.562   2.235   5.923
 1959SOL    HW1 6776   0.529   2.235   6.017
 1959SOL    HW2 6777   0.659   2.259   5.921
 1960SOL     OW 6778   6.425   4.982   1.106
 1960SOL    HW1 6779   6.450   4.975   1.203
 1960SOL    HW2 6780   6.507   4.973   1.050
 1961SOL     OW 6781   5.568   4.531   4.111
 1961SOL    HW1 6782   5.553   4.537   4.209
 1961SOL    HW2 6783   5.647   4.587   4.086
 1962SOL     OW 6784   1.888   5.914   3.080
 1962SOL    HW1 6785   1.796   5.916   3.041
 1962SOL    HW2 6786   1.938   5.996   3.053
 1963SOL     OW 6787   0.470   0.789   1.702
 1963SOL    HW1 6788   0.400   0.718   1.703
 1963SOL    HW2 6789   0.525   0.781   1.619
 1964SOL     OW 6790   4.369   2.805   1.405
 1964SOL    HW1 6791   4.438   2.740   1.374
 1964SOL    HW2 6792   4.278   2.768   1.389
 1965SOL     OW 6793   0.942   3.203   2.691
 1965SOL    HW1 6794   1.013   3.144   2.729
 1965SOL    HW2 6795   0.957   3.297   2.722
 1966SOL     OW 6796   0.083   5.164   5.055
 1966SOL    HW1 6797   0.130   5.208   4.978
 1966SOL    HW2 6798   0.007   5.110   5.021
 1967SOL     OW 6799   4.525   1.996   5.728
 1967SOL    HW1 6800   4.518   2.069   5.660
 1967SOL    HW2 6801   4.541   2.036   5.818
 1968SOL     OW 6802   2.917   6.170   0.241
 1968SOL    HW1 6803   3.015   6.164   0.260
 1968SOL    HW2 6804   2.876   6.079   0.249
 1969SOL     OW 6805   0.728   1.472   1.521
 1969SOL    HW1 6806   0.763   1.380   1.541
 1969SOL    HW2 6807   0.727   1.526   1.605
 1970SOL     OW 6808   2.357   1.246   5.997
 1970SOL    HW1 6809   2.433   1.310   6.015
 1970SOL    HW2 6810   2.391   1.169   5.943
 1971SOL     OW 6811   6.656   6.607   6.120
 1971SOL    HW1 6812   6.636   6.601   6.218
 1971SOL    HW2 6813   6.602   6.539   6.071
 1972SOL     OW 6814   6.936   2.275   3.128
 1972SOL    HW1 6815   0.006   2.247   3.154
 1972SOL    HW2 6816   6.940   2.328   3.043
 1973SOL     OW 6817   2.659   3.714   1.459
 1973SOL    HW1 6818   2.627   3.721   1.365
 1973SOL    HW2 6819   2.584   3.732   1.522
 1974SOL     OW 6820   6.289   6.333   4.049
 1974SOL    HW1 6821   6.327   6.294   3.966
 1974SOL    HW2 6822   6.216   6.398   4.026
 1975SOL     OW 6823   2.485   1.291   3.141
 1975SOL    HW1 6824   2.482   1.284   3.241
 1975SOL    HW2 6825   2.409   1.347   3.109
 1976SOL     OW 6826   0.862   5.731   0.122
 1976SOL    HW1 6827   0.928   5.657   0.109
 1976SOL    HW2 6828   0.905   5.818   0.097
 1977SOL     OW 6829   1.527   2.218   3.491
 1977SOL    HW1 6830   1.576   2.157   3.428
 1977SOL    HW2 6831   1.429   2.203   3.482
 1978SOL     OW 6832   1.332   0.155   4.100
 1978SOL    HW1 6833   1.264   0.093   4.062
 1978SOL    HW2 6834   1.392   0.104   4.162
 1979SOL     OW 6835   6.404   3.989   4.880
 1979SOL    HW1 6836   6.359   3.937   4.809
 1979SOL    HW2 6837   6.446   3.927   4.946
 1980SOL     OW 6838   3.185   0.738   6.896
 1980SOL    HW1 6839   3.182   0.641   6.871
 1980SOL    HW2 6840   3.091   0.771   6.910
 1981SOL     OW 6841   5.672   2.541   2.343
 1981SOL    HW1 6842   5.674   2.476   2.267
 1981SOL    HW2 6843   5.737   2.512   2.413
 1982SOL     OW 6844   5.995   4.260   5.860
 1982SOL    HW1 6845   6.016   4.216   5.947
 1982SOL    HW2 6846   5.937   4.339   5.875
 1983SOL     OW 6847   0.943   2.237   2.497
 1983SOL    HW1 6848   0.931   2.319   2.553
 1983SOL    HW2 6849   1.020   2.250   2.435
 1984SOL     OW 6850   5.583   0.554   5.368
 1984SOL    HW1 6851   5.497   0.505   5.355
 1984SOL    HW2 6852   5.659   0.491   5.361
 1985SOL     OW 6853   1.469   0.536   2.124
 1985SOL    HW1 6854   1.556   0.580   2.143
 1985SOL    HW2 6855   1.472   0.495   2.033
 1986SOL     OW 6856   1.318   0.726   0.333
 1986SOL    HW1 6857   1.343   0.813   0.291
 1986SOL    HW2 6858   1.374   0.711   0.414
 1987SOL     OW 6859   1.626   3.224   1.995
 1987SOL    HW1 6860   1.701   3.177   2.042
 1987SOL    HW2 6861   1.659   3.258   1.907
 1988SOL     OW 6862   4.508   4.653   0.734
 1988SOL    HW1 6863   4.514   4.565   0.686
 1988SOL    HW2 6864   4.433   4.650   0.800
 1989SOL     OW 6865   2.715   6.871   5.261
 1989SOL    HW1 6866   2.809   6.885   5.230
 1989SOL    HW2 6867   2.669   6.805   5.201
 1990SOL     OW 6868   3.526   0.058   1.112
 1990SOL    HW1 6869   3.543   0.153   1.135
 1990SOL    HW2 6870   3.470   0.016   1.184
 1991SOL     OW 6871   3.950   5.270   6.256
 1991SOL    HW1 6872   4.046   5.273   6.227
 1991SOL    HW2 6873   3.908   5.185   6.222
 1992SOL     OW 6874   1.682   6.730   6.956
 1992SOL    HW1 6875   1.692   6.746   6.858
 1992SOL    HW2 6876   1.771   6.708   6.997
 1993SOL     OW 6877   4.248   3.503   5.235
 1993SOL    HW1 6878   4.339   3.476   5.267
 1993SOL    HW2 6879   4.229   3.597   5.264
 1994SOL     OW 6880   1.510   2.439   1.542
 1994SOL    HW1 6881   1.576   2.501   1.499
 1994SOL    HW2 6882   1.470   2.483   1.623
 1995SOL     OW 6883   6.217   2.716   1.478
 1995SOL    HW1 6884   6.308   2.753   1.461
 1995SOL    HW2 6885   6.208   2.693   1.575
 1996SOL     OW 6886   2.972   3.689   0.667
 1996SOL    HW1 6887   3.069   3.686   0.689
 1996SOL    HW2 6888   2.951   3.774   0.618
 1997SOL     OW 6889   5.175   0.328   5.774
 1997SOL    HW1 6890   5.091   0.345   5.723
 1997SOL    HW2 6891   5.253   0.334   5.713
 1998SOL     OW 6892   3.147   3.832   5.417
 1998SOL    HW1 6893   3.088   3.759   5.451
 1998SOL    HW2 6894   3.207   3.796   5.346
 1999SOL     OW 6895   2.749   6.818   2.138
 1999SOL    HW1 6896   2.724   6.899   2.190
 1999SOL    HW2 6897   2.843   6.791   2.161
 2000SOL     OW 6898   3.880   1.928   5.729
 2000SOL    HW1 6899   3.790   1.884   5.730
 2000SOL    HW2 6900   3.925   1.911   5.641
 2001SOL     OW 6901   3.371   2.138   1.903
 2001SOL    HW1 6902   3.454   2.192   1.896
 2001SOL    HW2 6903   3.295   2.189   1.863
 2002SOL     OW 6904   0.846   5.638   6.183
 2002SOL    HW1 6905   0.870   5.654   6.088
 2002SOL    HW2 6906   0.780   5.563   6.189
 2003SOL     OW 6907   5.184   6.995   3.267
 2003SOL    HW1 6908   5.259   7.011   3.332
 2003SOL    HW2 6909   5.162   6.897   3.266
 2004SOL     OW 6910   5.157   0.949   5.100
 2004SOL    HW1 6911   5.080   0.996   5.143
 2004SOL    HW2 6912   5.187   0.875   5.160
 2005SOL     OW 6913   1.230   5.338   0.127
 2005SOL    HW1 6914   1.286   5.414   0.095
 2005SOL    HW2 6915   1.243   5.259   0.067
 2006SOL     OW 6916   5.233   4.154   4.059
 2006SOL    HW1 6917   5.218   4.157   4.158
 2006SOL    HW2 6918   5.212   4.063   4.024
 2007SOL     OW 6919   4.843   5.806   0.786
 2007SOL    HW1 6920   4.793   5.889   0.813
 2007SOL    HW2 6921   4.801   5.768   0.703
 2008SOL     OW 6922   0.924   5.520   3.202
 2008SOL    HW1 6923   0.878   5.539   3.289
 2008SOL    HW2 6924   0.948   5.607   3.159
 2009SOL     OW 6925   0.029   0.131   1.421
 2009SOL    HW1 6926   7.015   0.174   1.503
 2009SOL    HW2 6927   0.002   0.183   1.340
 2010SOL     OW 6928   1.284   1.309   0.698
 2010SOL    HW1 6929   1.302   1.219   0.738
 2010SOL    HW2 6930   1.192   1.339   0.723
 2011SOL     OW 6931   6.557   1.835   4.702
 2011SOL    HW1 6932   6.514   1.801   4.786
 2011SOL    HW2 6933   6.554   1.935   4.702
 2012SOL     OW 6934   1.188   3.092   1.422
 2012SOL    HW1 6935   1.209   2.997   1.444
 2012SOL    HW2 6936   1.133   3.133   1.495
 2013SOL     OW 6937   5.435   0.611   3.304
 2013SOL    HW1 6938   5.520   0.622   3.251
 2013SOL    HW2 6939   5.364   0.670   3.265
 2014SOL     OW 6940   1.316   5.006   2.949
 2014SOL    HW1 6941   1.249   4.958   3.007
 2014SOL    HW2 6942   1.355   4.941   2.884
 2015SOL     OW 6943   2.593   1.412   6.694
 2015SOL    HW1 6944   2.575   1.388   6.599
 2015SOL    HW2 6945   2.686   1.383   6.719
 2016SOL     OW 6946   0.728   5.616   5.535
 2016SOL    HW1 6947   0.709   5.559   5.455
 2016SOL    HW2 6948   0.817   5.591   5.573
 2017SOL     OW 6949   3.263   6.216   4.484
 2017SOL    HW1 6950   3.291   6.190   4.576
 2017SOL    HW2 6951   3.180   6.167   4.458
 2018SOL     OW 6952   6.090   5.827   6.129
 2018SOL    HW1 6953   6.150   5.837   6.050
 2018SOL    HW2 6954   6.118   5.747   6.182
 2019SOL     OW 6955   4.772   2.785   2.204
 2019SOL    HW1 6956   4.760   2.860   2.140
 2019SOL    HW2 6957   4.838   2.719   2.168
 2020SOL     OW 6958   1.210   4.778   4.885
 2020SOL    HW1 6959   1.120   4.737   4.877
 2020SOL    HW2 6960   1.253   4.783   4.794
 2021SOL     OW 6961   2.292   6.622   3.322
 2021SOL    HW1 6962   2.324   6.686   3.392
 2021SOL    HW2 6963   2.330   6.649   3.233
 2022SOL     OW 6964   2.121   3.631   2.529
 2022SOL    HW1 6965   2.112   3.681   2.443
 2022SOL    HW2 6966   2.142   3.535   2.509
 2023SOL     OW 6967   0.085   1.676   0.269
 2023SOL    HW1 6968   0.130   1.587   0.267
 2023SOL    HW2 6969   7.009   1.663   0.276
 2024SOL     OW 6970   0.362   0.536   2.527
 2024SOL    HW1 6971   0.427   0.604   2.562
 2024SOL    HW2 6972   0.361   0.540   2.427
 2025SOL     OW 6973   1.509   2.747   2.127
 2025SOL    HW1 6974   1.504   2.825   2.064
 2025SOL    HW2 6975   1.592   2.695   2.110
 2026SOL     OW 6976   1.806   2.440   5.979
 2026SOL    HW1 6977   1.843   2.397   6.061
 2026SOL    HW2 6978   1.804   2.374   5.904
 2027SOL     OW 6979   1.744   1.628   1.356
 2027SOL    HW1 6980   1.719   1.535   1.382
 2027SOL    HW2 6981   1.662   1.678   1.328
 2028SOL     OW 6982   3.459   1.447   6.568
 2028SOL    HW1 6983   3.373   1.497   6.580
 2028SOL    HW2 6984   3.464   1.413   6.474
 2029SOL     OW 6985   0.075   0.579   0.516
 2029SOL    HW1 6986   0.098   0.484   0.534
 2029SOL    HW2 6987   7.011   0.602   0.560
 2030SOL     OW 6988   2.379   1.054   3.556
 2030SOL    HW1 6989   2.462   0.999   3.561
 2030SOL    HW2 6990   2.299   0.996   3.574
 2031SOL     OW 6991   4.932   6.211   2.259
 2031SOL    HW1 6992   4.857   6.257   2.307
 2031SOL    HW2 6993   5.019   6.234   2.304
 2032SOL     OW 6994   4.263   6.546   1.716
 2032SOL    HW1 6995   4.173   6.554   1.759
 2032SOL    HW2 6996   4.314   6.632   1.729
 2033SOL     OW 6997   3.461   5.124   6.643
 2033SOL    HW1 6998   3.430   5.081   6.728
 2033SOL    HW2 6999   3.500   5.214   6.663
 2034SOL     OW 7000   2.939   0.076   4.481
 2034SOL    HW1 7001   2.866   0.072   4.549
 2034SOL    HW2 7002   2.970   7.007   4.459
 2035SOL     OW 7003   0.580   0.788   2.176
 2035SOL    HW1 7004   0.492   0.765   2.134
 2035SOL    HW2 7005   0.566   0.856   2.248
 2036SOL     OW 7006   0.441   6.106   3.382
 2036SOL    HW1 7007   0.455   6.203   3.365
 2036SOL    HW2 7008   0.346   6.090   3.411
 2037SOL     OW 7009   0.038   2.295   6.050
 2037SOL    HW1 7010   7.023   2.219   5.998
 2037SOL    HW2 7011   0.087   2.259   6.130
 2038SOL     OW 7012   1.188   1.266   6.542
 2038SOL    HW1 7013   1.134   1.309   6.614
 2038SOL    HW2 7014   1.283   1.258   6.571
 2039SOL     OW 7015   0.205   4.942   2.419
 2039SOL    HW1 7016   0.235   4.889   2.339
 2039SOL    HW2 7017   0.147   5.018   2.388
 2040SOL     OW 7018   3.064   3.051   5.101
 2040SOL    HW1 7019   3.154   3.079   5.136
 2040SOL    HW2 7020   3.023   2.985   5.164
 2041SOL     OW 7021   6.307   5.877   6.382
 2041SOL    HW1 7022   6.351   5.808   6.324
 2041SOL    HW2 7023   6.373   5.949   6.403
 2042SOL     OW 7024   6.045   5.676   6.854
 2042SOL    HW1 7025   6.055   5.770   6.824
 2042SOL    HW2 7026   6.013   5.620   6.777
 2043SOL     OW 7027   6.602   4.211   2.282
 2043SOL    HW1 7028   6.663   4.181   2.209
 2043SOL    HW2 7029   6.587   4.136   2.346
 2044SOL     OW 7030   5.028   0.084   1.971
 2044SOL    HW1 7031   5.081   0.154   2.017
 2044SOL    HW2 7032   4.957   0.127   1.914
 2045SOL     OW 7033   2.068   4.393   5.210
 2045SOL    HW1 7034   1.972   4.407   5.235
 2045SOL    HW2 7035   2.077   4.306   5.161
 2046SOL     OW 7036   6.613   0.526   4.369
 2046SOL    HW1 7037   6.697   0.515   4.315
 2046SOL    HW2 7038   6.636   0.522   4.466
 2047SOL     OW 7039   4.256   2.146   0.151
 2047SOL    HW1 7040   4.219   2.119   0.240
 2047SOL    HW2 7041   4.291   2.066   0.103
 2048SOL     OW 7042   2.481   5.586   0.204
 2048SOL    HW1 7043   2.536   5.620   0.127
 2048SOL    HW2 7044   2.385   5.581   0.177
 2049SOL     OW 7045   4.225   1.750   6.264
 2049SOL    HW1 7046   4.232   1.651   6.271
 2049SOL    HW2 7047   4.315   1.791   6.281
 2050SOL     OW 7048   6.276   2.076   3.719
 2050SOL    HW1 7049   6.185   2.069   3.761
 2050SOL    HW2 7050   6.272   2.042   3.625
 2051SOL     OW 7051   6.945   4.755   0.517
 2051SOL    HW1 7052   7.007   4.680   0.539
 2051SOL    HW2 7053   6.904   4.790   0.601
 2052SOL     OW 7054   0.392   4.231   0.410
 2052SOL    HW1 7055   0.491   4.218   0.407
 2052SOL    HW2 7056   0.356   4.190   0.494
 2053SOL     OW 7057   6.028   0.893   0.252
 2053SOL    HW1 7058   6.103   0.867   0.191
 2053SOL    HW2 7059   6.059   0.966   0.313
 2054SOL     OW 7060   4.682   2.847   1.710
 2054SOL    HW1 7061   4.777   2.858   1.739
 2054SOL    HW2 7062   4.621   2.889   1.777
 2055SOL     OW 7063   5.967   2.884   3.089
 2055SOL    HW1 7064   5.918   2.864   3.005
 2055SOL    HW2 7065   5.994   2.980   3.091
 2056SOL     OW 7066   2.557   1.029   3.091
 2056SOL    HW1 7067   2.542   1.127   3.109
 2056SOL    HW2 7068   2.559   1.014   2.992
 2057SOL     OW 7069   5.505   2.187   3.754
 2057SOL    HW1 7070   5.555   2.202   3.669
 2057SOL    HW2 7071   5.565   2.202   3.832
 2058SOL     OW 7072   1.167   1.502   3.153
 2058SOL    HW1 7073   1.239   1.571   3.147
 2058SOL    HW2 7074   1.200   1.416   3.114
 2059SOL     OW 7075   2.955   6.301   6.222
 2059SOL    HW1 7076   2.861   6.328   6.202
 2059SOL    HW2 7077   3.017   6.343   6.155
 2060SOL     OW 7078   6.639   4.012   0.740
 2060SOL    HW1 7079   6.610   3.932   0.792
 2060SOL    HW2 7080   6.682   3.983   0.655
 2061SOL     OW 7081   0.856   1.673   2.930
 2061SOL    HW1 7082   0.816   1.671   3.022
 2061SOL    HW2 7083   0.805   1.611   2.870
 2062SOL     OW 7084   5.879   0.002   3.350
 2062SOL    HW1 7085   5.808   6.979   3.297
 2062SOL    HW2 7086   5.854   0.099   3.362
 2063SOL     OW 7087   1.449   0.794   6.300
 2063SOL    HW1 7088   1.454   0.882   6.347
 2063SOL    HW2 7089   1.485   0.803   6.207
 2064SOL     OW 7090   0.662   1.476   5.821
 2064SOL    HW1 7091   0.677   1.535   5.742
 2064SOL    HW2 7092   0.701   1.386   5.804
 2065SOL     OW 7093   6.568   3.597   2.694
 2065SOL    HW1 7094   6.661   3.567   2.716
 2065SOL    HW2 7095   6.503   3.526   2.720
 2066SOL     OW 7096   0.619   6.156   3.882
 2066SOL    HW1 7097   0.642   6.236   3.939
 2066SOL    HW2 7098   0.521   6.156   3.863
 2067SOL     OW 7099   6.423   6.075   0.522
 2067SOL    HW1 7100   6.502   6.056   0.464
 2067SOL    HW2 7101   6.424   6.012   0.601
 2068SOL     OW 7102   1.017   1.292   5.758
 2068SOL    HW1 7103   0.940   1.231   5.777
 2068SOL    HW2 7104   0.986   1.367   5.700
 2069SOL     OW 7105   0.866   2.815   3.452
 2069SOL    HW1 7106   0.919   2.860   3.523
 2069SOL    HW2 7107   0.907   2.726   3.431
 2070SOL     OW 7108   1.951   0.779   2.695
 2070SOL    HW1 7109   2.044   0.751   2.670
 2070SOL    HW2 7110   1.897   0.792   2.611
 2071SOL     OW 7111   6.749   5.759   5.372
 2071SOL    HW1 7112   6.662   5.749   5.419
 2071SOL    HW2 7113   6.765   5.856   5.351
 2072SOL     OW 7114   4.375   6.806   1.753
 2072SOL    HW1 7115   4.443   6.736   1.731
 2072SOL    HW2 7116   4.415   6.872   1.817
 2073SOL     OW 7117   3.563   0.224   4.145
 2073SOL    HW1 7118   3.482   0.227   4.086
 2073SOL    HW2 7119   3.551   0.291   4.219
 2074SOL     OW 7120   0.647   3.334   0.717
 2074SOL    HW1 7121   0.706   3.411   0.741
 2074SOL    HW2 7122   0.554   3.350   0.749
 2075SOL     OW 7123   5.227   2.869   1.775
 2075SOL    HW1 7124   5.162   2.873   1.699
 2075SOL    HW2 7125   5.208   2.789   1.831
 2076SOL     OW 7126   4.991   6.989   6.719
 2076SOL    HW1 7127   4.993   6.938   6.805
 2076SOL    HW2 7128   5.060   6.951   6.657
 2077SOL     OW 7129   4.687   2.368   2.469
 2077SOL    HW1 7130   4.649   2.277   2.456
 2077SOL    HW2 7131   4.682   2.420   2.384
 2078SOL     OW 7132   1.407   6.497   6.589
 2078SOL    HW1 7133   1.469   6.520   6.514
 2078SOL    HW2 7134   1.459   6.488   6.674
 2079SOL     OW 7135   5.705   1.217   3.455
 2079SOL    HW1 7136   5.780   1.281   3.469
 2079SOL    HW2 7137   5.648   1.214   3.537
 2080SOL     OW 7138   1.371   0.890   4.624
 2080SOL    HW1 7139   1.454   0.837   4.603
 2080SOL    HW2 7140   1.339   0.935   4.541
 2081SOL     OW 7141   2.034   5.712   4.977
 2081SOL    HW1 7142   1.986   5.665   5.052
 2081SOL    HW2 7143   2.132   5.708   4.994
 2082SOL     OW 7144   6.970   0.543   2.761
 2082SOL    HW1 7145   6.949   0.622   2.703
 2082SOL    HW2 7146   0.018   0.568   2.827
 2083SOL     OW 7147   4.774   4.755   6.727
 2083SOL    HW1 7148   4.699   4.726   6.668
 2083SOL    HW2 7149   4.809   4.843   6.695
 2084SOL     OW 7150   6.800   3.761   3.540
 2084SOL    HW1 7151   6.843   3.846   3.510
 2084SOL    HW2 7152   6.729   3.781   3.608
 2085SOL     OW 7153   4.941   1.213   6.470
 2085SOL    HW1 7154   4.979   1.296   6.511
 2085SOL    HW2 7155   5.002   1.136   6.490
 2086SOL     OW 7156   3.250   6.729   5.399
 2086SOL    HW1 7157   3.241   6.826   5.420
 2086SOL    HW2 7158   3.295   6.682   5.474
 2087SOL     OW 7159   5.389   6.962   1.985
 2087SOL    HW1 7160   5.398   6.986   2.082
 2087SOL    HW2 7161   5.293   6.953   1.962
 2088SOL     OW 7162   2.693   6.325   0.501
 2088SOL    HW1 7163   2.636   6.304   0.422
 2088SOL    HW2 7164   2.674   6.261   0.575
 2089SOL     OW 7165   5.116   2.181   6.539
 2089SOL    HW1 7166   5.020   2.169   6.513
 2089SOL    HW2 7167   5.175   2.155   6.462
 2090SOL     OW 7168   3.763   3.847   5.207
 2090SOL    HW1 7169   3.752   3.937   5.249
 2090SOL    HW2 7170   3.676   3.797   5.212
 2091SOL     OW 7171   6.641   5.413   6.902
 2091SOL    HW1 7172   6.663   5.393   6.998
 2091SOL    HW2 7173   6.606   5.330   6.858
 2092SOL     OW 7174   3.935   4.916   6.761
 2092SOL    HW1 7175   3.957   4.842   6.697
 2092SOL    HW2 7176   3.858   4.968   6.726
 2093SOL     OW 7177   2.515   2.492   1.675
 2093SOL    HW1 7178   2.613   2.484   1.691
 2093SOL    HW2 7179   2.478   2.402   1.652
 2094SOL     OW 7180   5.756   1.883   0.991
 2094SOL    HW1 7181   5.807   1.864   1.074
 2094SOL    HW2 7182   5.815   1.931   0.925
 2095SOL     OW 7183   5.288   0.240   4.971
 2095SOL    HW1 7184   5.352   0.184   5.024
 2095SOL    HW2 7185   5.334   0.323   4.941
 2096SOL     OW 7186   4.472   4.665   2.658
 2096SOL    HW1 7187   4.498   4.756   2.624
 2096SOL    HW2 7188   4.464   4.668   2.758
 2097SOL     OW 7189   1.626   3.021   0.018
 2097SOL    HW1 7190   1.557   2.972   6.989
 2097SOL    HW2 7191   1.687   3.071   6.980
 2098SOL     OW 7192   4.017   5.126   3.406
 2098SOL    HW1 7193   4.005   5.089   3.498
 2098SOL    HW2 7194   3.928   5.150   3.368
 2099SOL     OW 7195   2.732   3.142   5.320
 2099SOL    HW1 7196   2.788   3.074   5.368
 2099SOL    HW2 7197   2.651   3.098   5.282
 2100SOL     OW 7198   3.981   3.186   5.686
 2100SOL    HW1 7199   3.928   3.120   5.633
 2100SOL    HW2 7200   3.926   3.266   5.706
 2101SOL     OW 7201   1.637   6.173   2.995
 2101SOL    HW1 7202   1.717   6.198   3.051
 2101SOL    HW2 7203   1.603   6.084   3.023
 2102SOL     OW 7204   6.190   4.972   2.148
 2102SOL    HW1 7205   6.226   4.979   2.055
 2102SOL    HW2 7206   6.105   4.919   2.147
 2103SOL     OW 7207   3.166   3.705   6.126
 2103SOL    HW1 7208   3.131   3.640   6.193
 2103SOL    HW2 7209   3.249   3.670   6.085
 2104SOL     OW 7210   1.026   3.317   0.221
 2104SOL    HW1 7211   0.968   3.365   0.287
 2104SOL    HW2 7212   0.984   3.323   0.130
 2105SOL     OW 7213   5.023   5.653   4.364
 2105SOL    HW1 7214   5.083   5.592   4.414
 2105SOL    HW2 7215   5.077   5.727   4.324
 2106SOL     OW 7216   4.962   4.191   0.703
 2106SOL    HW1 7217   4.971   4.097   0.670
 2106SOL    HW2 7218   5.037   4.211   0.766
 2107SOL     OW 7219   5.039   2.982   5.411
 2107SOL    HW1 7220   5.062   2.916   5.339
 2107SOL    HW2 7221   4.959   3.035   5.383
 2108SOL     OW 7222   0.067   6.427   5.373
 2108SOL    HW1 7223   0.032   6.365   5.303
 2108SOL    HW2 7224   0.001   6.501   5.388
 2109SOL     OW 7225   4.786   6.258   2.938
 2109SOL    HW1 7226   4.707   6.206   2.906
 2109SOL    HW2 7227   4.798   6.243   3.036
 2110SOL     OW 7228   2.754   2.605   6.147
 2110SOL    HW1 7229   2.778   2.572   6.056
 2110SOL    HW2 7230   2.815   2.680   6.173
 2111SOL     OW 7231   1.554   1.995   0.108
 2111SOL    HW1 7232   1.612   2.055   0.053
 2111SOL    HW2 7233   1.596   1.905   0.116
 2112SOL     OW 7234   5.120   2.598   0.532
 2112SOL    HW1 7235   5.069   2.561   0.610
 2112SOL    HW2 7236   5.132   2.527   0.463
 2113SOL     OW 7237   0.786   0.344   5.532
 2113SOL    HW1 7238   0.730   0.262   5.548
 2113SOL    HW2 7239   0.743   0.401   5.463
 2114SOL     OW 7240   1.802   3.025   0.987
 2114SOL    HW1 7241   1.861   3.061   0.914
 2114SOL    HW2 7242   1.780   3.098   1.051
 2115SOL     OW 7243   2.152   3.533   2.802
 2115SOL    HW1 7244   2.098   3.603   2.850
 2115SOL    HW2 7245   2.160   3.557   2.705
 2116SOL     OW 7246   0.256   4.848   3.296
 2116SOL    HW1 7247   0.249   4.775   3.364
 2116SOL    HW2 7248   0.221   4.815   3.209
 2117SOL     OW 7249   6.860   4.307   1.529
 2117SOL    HW1 7250   6.825   4.283   1.438
 2117SOL    HW2 7251   6.872   4.223   1.583
 2118SOL     OW 7252   6.604   3.432   1.676
 2118SOL    HW1 7253   6.584   3.345   1.631
 2118SOL    HW2 7254   6.577   3.426   1.772
 2119SOL     OW 7255   2.522   5.900   1.200
 2119SOL    HW1 7256   2.450   5.969   1.193
 2119SOL    HW2 7257   2.481   5.809   1.202
 2120SOL     OW 7258   0.589   4.840   3.959
 2120SOL    HW1 7259   0.678   4.826   4.003
 2120SOL    HW2 7260   0.532   4.759   3.974
 2121SOL     OW 7261   1.175   4.122   5.410
 2121SOL    HW1 7262   1.116   4.053   5.369
 2121SOL    HW2 7263   1.270   4.092   5.406
 2122SOL     OW 7264   5.402   4.090   6.235
 2122SOL    HW1 7265   5.472   4.120   6.300
 2122SOL    HW2 7266   5.404   4.149   6.154
 2123SOL     OW 7267   6.673   5.677   2.032
 2123SOL    HW1 7268   6.613   5.756   2.045
 2123SOL    HW2 7269   6.687   5.663   1.934
 2124SOL     OW 7270   2.743   1.744   1.645
 2124SOL    HW1 7271   2.670   1.809   1.625
 2124SOL    HW2 7272   2.815   1.790   1.698
 2125SOL     OW 7273   1.925   0.541   1.337
 2125SOL    HW1 7274   1.993   0.610   1.361
 2125SOL    HW2 7275   1.972   0.459   1.304
 2126SOL     OW 7276   4.014   0.744   0.025
 2126SOL    HW1 7277   3.924   0.784   0.009
 2126SOL    HW2 7278   4.021   0.658   6.997
 2127SOL     OW 7279   6.521   3.160   4.449
 2127SOL    HW1 7280   6.569   3.081   4.411
 2127SOL    HW2 7281   6.526   3.157   4.548
 2128SOL     OW 7282   6.342   3.445   3.773
 2128SOL    HW1 7283   6.371   3.497   3.693
 2128SOL    HW2 7284   6.421   3.428   3.832
 2129SOL     OW 7285   4.277   3.310   5.619
 2129SOL    HW1 7286   4.181   3.315   5.649
 2129SOL    HW2 7287   4.332   3.374   5.672
 2130SOL     OW 7288   3.347   0.961   2.160
 2130SOL    HW1 7289   3.427   0.905   2.183
 2130SOL    HW2 7290   3.263   0.910   2.180
 2131SOL     OW 7291   6.519   0.108   0.236
 2131SOL    HW1 7292   6.471   0.070   0.157
 2131SOL    HW2 7293   6.463   0.097   0.318
 2132SOL     OW 7294   3.886   2.027   1.303
 2132SOL    HW1 7295   3.927   2.076   1.381
 2132SOL    HW2 7296   3.840   1.945   1.336
 2133SOL     OW 7297   2.664   3.254   6.385
 2133SOL    HW1 7298   2.732   3.268   6.457
 2133SOL    HW2 7299   2.574   3.280   6.419
 2134SOL     OW 7300   0.335   2.810   0.044
 2134SOL    HW1 7301   0.276   2.857   0.109
 2134SOL    HW2 7302   0.284   2.792   6.983
 2135SOL     OW 7303   0.371   3.921   4.240
 2135SOL    HW1 7304   0.392   3.830   4.203
 2135SOL    HW2 7305   0.281   3.950   4.207
 2136SOL     OW 7306   1.685   4.100   2.649
 2136SOL    HW1 7307   1.663   4.160   2.572
 2136SOL    HW2 7308   1.602   4.081   2.702
 2137SOL     OW 7309   2.764   5.529   5.481
 2137SOL    HW1 7310   2.821   5.541   5.563
 2137SOL    HW2 7311   2.818   5.551   5.400
 2138SOL     OW 7312   6.505   6.611   3.033
 2138SOL    HW1 7313   6.555   6.649   3.111
 2138SOL    HW2 7314   6.531   6.661   2.950
 2139SOL     OW 7315   4.375   0.730   3.692
 2139SOL    HW1 7316   4.292   0.748   3.744
 2139SOL    HW2 7317   4.419   0.648   3.726
 2140SOL     OW 7318   3.269   0.296   4.102
 2140SOL    HW1 7319   3.319   0.367   4.053
 2140SOL    HW2 7320   3.221   0.238   4.036
 2141SOL     OW 7321   6.400   3.161   2.414
 2141SOL    HW1 7322   6.378   3.122   2.324
 2141SOL    HW2 7323   6.498   3.182   2.418
 2142SOL     OW 7324   1.502   1.235   3.485
 2142SOL    HW1 7325   1.482   1.186   3.570
 2142SOL    HW2 7326   1.479   1.332   3.496
 2143SOL     OW 7327   3.123   5.036   1.219
 2143SOL    HW1 7328   3.213   5.035   1.263
 2143SOL    HW2 7329   3.123   4.973   1.142
 2144SOL     OW 7330   0.548   5.424   4.235
 2144SOL    HW1 7331   0.642   5.458   4.230
 2144SOL    HW2 7332   0.532   5.384   4.326
 2145SOL     OW 7333   4.046   6.270   4.242
 2145SOL    HW1 7334   4.077   6.222   4.325
 2145SOL    HW2 7335   3.981   6.341   4.267
 2146SOL     OW 7336   2.470   3.312   0.729
 2146SOL    HW1 7337   2.439   3.299   0.634
 2146SOL    HW2 7338   2.569   3.324   0.729
 2147SOL     OW 7339   5.954   1.526   6.284
 2147SOL    HW1 7340   6.048   1.538   6.249
 2147SOL    HW2 7341   5.936   1.592   6.356
 2148SOL     OW 7342   6.293   3.431   6.288
 2148SOL    HW1 7343   6.389   3.449   6.268
 2148SOL    HW2 7344   6.240   3.515   6.279
 2149SOL     OW 7345   2.482   1.762   0.961
 2149SOL    HW1 7346   2.502   1.727   0.870
 2149SOL    HW2 7347   2.387   1.743   0.985
 2150SOL     OW 7348   2.411   2.661   2.241
 2150SOL    HW1 7349   2.432   2.576   2.192
 2150SOL    HW2 7350   2.442   2.654   2.336
 2151SOL     OW 7351   1.944   6.990   6.203
 2151SOL    HW1 7352   1.967   0.063   6.189
 2151SOL    HW2 7353   1.847   6.982   6.223
 2152SOL     OW 7354   3.956   4.792   2.133
 2152SOL    HW1 7355   3.869   4.840   2.136
 2152SOL    HW2 7356   3.972   4.757   2.040
 2153SOL     OW 7357   4.225   1.585   2.508
 2153SOL    HW1 7358   4.181   1.556   2.593
 2153SOL    HW2 7359   4.178   1.665   2.471
 2154SOL     OW 7360   4.794   0.403   4.609
 2154SOL    HW1 7361   4.842   0.324   4.572
 2154SOL    HW2 7362   4.857   0.480   4.619
 2155SOL     OW 7363   4.251   6.991   0.920
 2155SOL    HW1 7364   4.285   6.946   0.837
 2155SOL    HW2 7365   4.167   0.018   0.898
 2156SOL     OW 7366   0.236   1.404   5.092
 2156SOL    HW1 7367   0.318   1.363   5.132
 2156SOL    HW2 7368   0.249   1.502   5.081
 2157SOL     OW 7369   6.010   6.591   3.075
 2157SOL    HW1 7370   5.914   6.621   3.084
 2157SOL    HW2 7371   6.016   6.493   3.092
 2158SOL     OW 7372   3.939   6.034   0.817
 2158SOL    HW1 7373   3.928   6.132   0.803
 2158SOL    HW2 7374   3.926   6.013   0.914
 2159SOL     OW 7375   1.476   1.056   4.836
 2159SOL    HW1 7376   1.432   0.984   4.782
 2159SOL    HW2 7377   1.515   1.125   4.775
 2160SOL     OW 7378   4.798   4.294   0.113
 2160SOL    HW1 7379   4.725   4.309   0.047
 2160SOL    HW2 7380   4.771   4.224   0.178
 2161SOL     OW 7381   5.814   4.513   2.058
 2161SOL    HW1 7382   5.862   4.432   2.024
 2161SOL    HW2 7383   5.878   4.571   2.109
 2162SOL     OW 7384   3.326   0.228   2.078
 2162SOL    HW1 7385   3.366   0.315   2.106
 2162SOL    HW2 7386   3.290   0.180   2.158
 2163SOL     OW 7387   1.546   4.437   0.574
 2163SOL    HW1 7388   1.637   4.472   0.552
 2163SOL    HW2 7389   1.545   4.338   0.564
 2164SOL     OW 7390   2.001   1.840   6.587
 2164SOL    HW1 7391   2.072   1.771   6.600
 2164SOL    HW2 7392   2.005   1.876   6.494
 2165SOL     OW 7393   6.947   2.251   3.569
 2165SOL    HW1 7394   6.968   2.172   3.512
 2165SOL    HW2 7395   6.929   2.221   3.663
 2166SOL     OW 7396   1.371   3.038   4.337
 2166SOL    HW1 7397   1.384   3.036   4.436
 2166SOL    HW2 7398   1.273   3.028   4.316
 2167SOL     OW 7399   1.766   2.179   3.807
 2167SOL    HW1 7400   1.824   2.257   3.829
 2167SOL    HW2 7401   1.680   2.187   3.858
 2168SOL     OW 7402   1.006   1.904   3.181
 2168SOL    HW1 7403   1.044   1.960   3.108
 2168SOL    HW2 7404   0.906   1.904   3.175
 2169SOL     OW 7405   5.489   2.162   0.149
 2169SOL    HW1 7406   5.555   2.196   0.215
 2169SOL    HW2 7407   5.520   2.074   0.113
 2170SOL     OW 7408   6.582   4.264   4.830
 2170SOL    HW1 7409   6.671   4.219   4.818
 2170SOL    HW2 7410   6.509   4.196   4.830
 2171SOL     OW 7411   0.319   5.768   1.593
 2171SOL    HW1 7412   0.380   5.812   1.658
 2171SOL    HW2 7413   0.270   5.838   1.541
 2172SOL     OW 7414   2.224   2.138   6.529
 2172SOL    HW1 7415   2.199   2.043   6.514
 2172SOL    HW2 7416   2.319   2.152   6.504
 2173SOL     OW 7417   4.331   0.363   5.656
 2173SOL    HW1 7418   4.305   0.432   5.588
 2173SOL    HW2 7419   4.264   0.289   5.654
 2174SOL     OW 7420   6.641   5.479   4.955
 2174SOL    HW1 7421   6.721   5.518   4.999
 2174SOL    HW2 7422   6.584   5.432   5.023
 2175SOL     OW 7423   1.604   2.967   4.170
 2175SOL    HW1 7424   1.515   2.978   4.214
 2175SOL    HW2 7425   1.637   3.055   4.137
 2176SOL     OW 7426   5.738   2.188   0.877
 2176SOL    HW1 7427   5.649   2.146   0.894
 2176SOL    HW2 7428   5.806   2.118   0.859
 2177SOL     OW 7429   0.044   1.426   2.541
 2177SOL    HW1 7430   0.010   1.422   2.635
 2177SOL    HW2 7431   0.091   1.513   2.526
 2178SOL     OW 7432   1.372   1.701   2.294
 2178SOL    HW1 7433   1.274   1.706   2.315
 2178SOL    HW2 7434   1.386   1.645   2.212
 2179SOL     OW 7435   1.993   4.989   5.821
 2179SOL    HW1 7436   1.936   4.964   5.899
 2179SOL    HW2 7437   2.015   5.086   5.825
 2180SOL     OW 7438   1.607   2.549   2.349
 2180SOL    HW1 7439   1.691   2.568   2.399
 2180SOL    HW2 7440   1.623   2.564   2.251
 2181SOL     OW 7441   4.523   4.821   4.269
 2181SOL    HW1 7442   4.604   4.763   4.266
 2181SOL    HW2 7443   4.447   4.770   4.310
 2182SOL     OW 7444   1.899   4.173   3.651
 2182SOL    HW1 7445   1.853   4.093   3.690
 2182SOL    HW2 7446   1.931   4.233   3.725
 2183SOL     OW 7447   2.461   4.222   0.001
 2183SOL    HW1 7448   2.415   4.300   0.044
 2183SOL    HW2 7449   2.531   4.256   6.961
 2184SOL     OW 7450   4.277   0.735   6.138
 2184SOL    HW1 7451   4.373   0.731   6.109
 2184SOL    HW2 7452   4.260   0.823   6.183
 2185SOL     OW 7453   0.799   0.735   0.544
 2185SOL    HW1 7454   0.844   0.706   0.460
 2185SOL    HW2 7455   0.737   0.663   0.576
 2186SOL     OW 7456   6.399   5.596   0.115
 2186SOL    HW1 7457   6.396   5.549   0.027
 2186SOL    HW2 7458   6.360   5.687   0.106
 2187SOL     OW 7459   7.013   5.891   2.455
 2187SOL    HW1 7460   6.966   5.875   2.367
 2187SOL    HW2 7461   0.043   5.975   2.449
 2188SOL     OW 7462   0.418   5.709   5.065
 2188SOL    HW1 7463   0.497   5.647   5.072
 2188SOL    HW2 7464   0.360   5.698   5.146
 2189SOL     OW 7465   2.309   0.036   1.772
 2189SOL    HW1 7466   2.366   0.093   1.830
 2189SOL    HW2 7467   2.225   0.011   1.821
 2190SOL     OW 7468   6.588   3.735   1.920
 2190SOL    HW1 7469   6.593   3.638   1.944
 2190SOL    HW2 7470   6.538   3.745   1.834
 2191SOL     OW 7471   2.558   2.137   6.046
 2191SOL    HW1 7472   2.590   2.168   6.136
 2191SOL    HW2 7473   2.515   2.214   5.998
 2192SOL     OW 7474   5.052   1.128   2.526
 2192SOL    HW1 7475   5.061   1.214   2.577
 2192SOL    HW2 7476   5.011   1.148   2.436
 2193SOL     OW 7477   5.977   7.017   6.765
 2193SOL    HW1 7478   5.990   0.040   6.853
 2193SOL    HW2 7479   6.061   6.971   6.738
 2194SOL     OW 7480   1.954   4.351   6.123
 2194SOL    HW1 7481   1.952   4.346   6.023
 2194SOL    HW2 7482   2.045   4.379   6.153
 2195SOL     OW 7483   6.880   6.709   5.232
 2195SOL    HW1 7484   6.810   6.778   5.217
 2195SOL    HW2 7485   6.960   6.729   5.175
 2196SOL     OW 7486   3.816   0.331   4.715
 2196SOL    HW1 7487   3.801   0.426   4.742
 2196SOL    HW2 7488   3.770   0.270   4.779
 2197SOL     OW 7489   2.733   3.562   6.594
 2197SOL    HW1 7490   2.793   3.639   6.618
 2197SOL    HW2 7491   2.685   3.582   6.509
 2198SOL     OW 7492   5.365   0.186   1.263
 2198SOL    HW1 7493   5.361   0.285   1.280
 2198SOL    HW2 7494   5.400   0.140   1.344
 2199SOL     OW 7495   5.086   6.174   3.697
 2199SOL    HW1 7496   5.121   6.247   3.755
 2199SOL    HW2 7497   4.990   6.157   3.719
 2200SOL     OW 7498   2.112   1.988   4.020
 2200SOL    HW1 7499   2.133   2.085   4.006
 2200SOL    HW2 7500   2.026   1.966   3.975
 2201SOL     OW 7501   6.239   2.948   3.442
 2201SOL    HW1 7502   6.262   2.897   3.524
 2201SOL    HW2 7503   6.187   3.030   3.467
 2202SOL     OW 7504   3.660   5.665   2.450
 2202SOL    HW1 7505   3.583   5.683   2.388
 2202SOL    HW2 7506   3.744   5.702   2.410
 2203SOL     OW 7507   2.177   3.249   1.209
 2203SOL    HW1 7508   2.093   3.303   1.210
 2203SOL    HW2 7509   2.256   3.310   1.223
 2204SOL     OW 7510   4.843   1.901   1.124
 2204SOL    HW1 7511   4.927   1.846   1.116
 2204SOL    HW2 7512   4.788   1.865   1.200
 2205SOL     OW 7513   0.919   6.492   6.465
 2205SOL    HW1 7514   0.980   6.504   6.387
 2205SOL    HW2 7515   0.971   6.502   6.550
 2206SOL     OW 7516   3.559   5.155   5.770
 2206SOL    HW1 7517   3.567   5.056   5.782
 2206SOL    HW2 7518   3.501   5.192   5.841
 2207SOL     OW 7519   2.651   5.328   6.565
 2207SOL    HW1 7520   2.602   5.398   6.514
 2207SOL    HW2 7521   2.739   5.310   6.522
 2208SOL     OW 7522   1.509   5.140   3.064
 2208SOL    HW1 7523   1.529   5.089   3.148
 2208SOL    HW2 7524   1.435   5.094   3.015
 2209SOL     OW 7525   1.575   0.170   5.688
 2209SOL    HW1 7526   1.648   0.198   5.750
 2209SOL    HW2 7527   1.569   0.070   5.687
 2210SOL     OW 7528   0.404   4.228   4.216
 2210SOL    HW1 7529   0.408   4.218   4.117
 2210SOL    HW2 7530   0.406   4.137   4.259
 2211SOL     OW 7531   6.549   0.544   0.513
 2211SOL    HW1 7532   6.639   0.582   0.536
 2211SOL    HW2 7533   6.511   0.594   0.435
 2212SOL     OW 7534   2.631   6.072   0.699
 2212SOL    HW1 7535   2.668   5.980   0.711
 2212SOL    HW2 7536   2.534   6.066   0.675
 2213SOL     OW 7537   3.389   1.302   5.101
 2213SOL    HW1 7538   3.417   1.219   5.150
 2213SOL    HW2 7539   3.289   1.304   5.094
 2214SOL     OW 7540   3.126   3.966   4.772
 2214SOL    HW1 7541   3.053   3.938   4.709
 2214SOL    HW2 7542   3.176   4.043   4.732
 2215SOL     OW 7543   5.629   1.555   0.044
 2215SOL    HW1 7544   5.715   1.599   0.071
 2215SOL    HW2 7545   5.635   1.527   6.972
 2216SOL     OW 7546   1.382   0.763   0.028
 2216SOL    HW1 7547   1.317   0.836   0.048
 2216SOL    HW2 7548   1.402   0.712   0.112
 2217SOL     OW 7549   3.829   6.911   2.472
 2217SOL    HW1 7550   3.843   6.913   2.571
 2217SOL    HW2 7551   3.902   6.857   2.429
 2218SOL     OW 7552   6.655   5.034   6.797
 2218SOL    HW1 7553   6.715   5.081   6.732
 2218SOL    HW2 7554   6.602   5.101   6.848
 2219SOL     OW 7555   5.572   1.369   0.655
 2219SOL    HW1 7556   5.611   1.427   0.584
 2219SOL    HW2 7557   5.645   1.316   0.699
 2220SOL     OW 7558   2.195   6.210   5.405
 2220SOL    HW1 7559   2.255   6.154   5.462
 2220SOL    HW2 7560   2.215   6.192   5.309
 2221SOL     OW 7561   5.858   1.581   5.716
 2221SOL    HW1 7562   5.877   1.678   5.730
 2221SOL    HW2 7563   5.940   1.534   5.685
 2222SOL     OW 7564   5.405   0.671   0.650
 2222SOL    HW1 7565   5.338   0.604   0.682
 2222SOL    HW2 7566   5.455   0.709   0.728
 2223SOL     OW 7567   5.418   1.395   5.781
 2223SOL    HW1 7568   5.426   1.384   5.682
 2223SOL    HW2 7569   5.509   1.411   5.821
 2224SOL     OW 7570   6.717   3.493   0.564
 2224SOL    HW1 7571   6.691   3.550   0.486
 2224SOL    HW2 7572   6.680   3.532   0.648
 2225SOL     OW 7573   6.084   6.839   4.215
 2225SOL    HW1 7574   6.076   6.748   4.256
 2225SOL    HW2 7575   6.026   6.903   4.265
 2226SOL     OW 7576   3.775   5.899   0.622
 2226SOL    HW1 7577   3.842   5.935   0.688
 2226SOL    HW2 7578   3.685   5.894   0.665
 2227SOL     OW 7579   5.580   2.801   0.107
 2227SOL    HW1 7580   5.590   2.848   0.019
 2227SOL    HW2 7581   5.630   2.851   0.178
 2228SOL     OW 7582   4.432   5.478   1.329
 2228SOL    HW1 7583   4.342   5.521   1.337
 2228SOL    HW2 7584   4.476   5.507   1.244
 2229SOL     OW 7585   4.394   2.636   5.335
 2229SOL    HW1 7586   4.454   2.681   5.269
 2229SOL    HW2 7587   4.326   2.702   5.368
 2230SOL     OW 7588   6.289   6.207   0.270
 2230SOL    HW1 7589   6.325   6.178   0.358
 2230SOL    HW2 7590   6.273   6.306   0.271
 2231SOL     OW 7591   0.406   1.138   1.570
 2231SOL    HW1 7592   0.418   1.233   1.541
 2231SOL    HW2 7593   0.395   1.080   1.489
 2232SOL     OW 7594   0.783   1.727   4.515
 2232SOL    HW1 7595   0.684   1.728   4.499
 2232SOL    HW2 7596   0.830   1.755   4.432
 2233SOL     OW 7597   2.214   3.134   0.586
 2233SOL    HW1 7598   2.219   3.064   0.657
 2233SOL    HW2 7599   2.119   3.144   0.555
 2234SOL     OW 7600   4.392   1.672   1.219
 2234SOL    HW1 7601   4.337   1.624   1.151
 2234SOL    HW2 7602   4.358   1.650   1.310
 2235SOL     OW 7603   3.071   0.492   1.743
 2235SOL    HW1 7604   3.018   0.527   1.666
 2235SOL    HW2 7605   3.089   0.566   1.808
 2236SOL     OW 7606   2.208   3.751   6.449
 2236SOL    HW1 7607   2.183   3.665   6.404
 2236SOL    HW2 7608   2.277   3.733   6.518
 2237SOL     OW 7609   6.195   4.217   3.951
 2237SOL    HW1 7610   6.228   4.306   3.919
 2237SOL    HW2 7611   6.264   4.177   4.012
 2238SOL     OW 7612   4.362   5.284   1.693
 2238SOL    HW1 7613   4.401   5.193   1.692
 2238SOL    HW2 7614   4.264   5.279   1.673
 2239SOL     OW 7615   3.782   4.958   4.175
 2239SOL    HW1 7616   3.731   4.909   4.245
 2239SOL    HW2 7617   3.723   4.975   4.096
 2240SOL     OW 7618   3.653   5.747   3.570
 2240SOL    HW1 7619   3.732   5.791   3.613
 2240SOL    HW2 7620   3.654   5.766   3.472
 2241SOL     OW 7621   0.538   5.647   3.274
 2241SOL    HW1 7622   0.550   5.566   3.330
 2241SOL    HW2 7623   0.563   5.626   3.179
 2242SOL     OW 7624   5.583   3.263   2.844
 2242SOL    HW1 7625   5.545   3.352   2.872
 2242SOL    HW2 7626   5.581   3.257   2.744
 2243SOL     OW 7627   1.927   6.852   5.759
 2243SOL    HW1 7628   1.899   6.787   5.689
 2243SOL    HW2 7629   2.015   6.825   5.798
 2244SOL     OW 7630   2.573   6.653   1.418
 2244SOL    HW1 7631   2.672   6.647   1.435
 2244SOL    HW2 7632   2.524   6.638   1.504
 2245SOL     OW 7633   0.609   2.040   1.395
 2245SOL    HW1 7634   0.515   2.010   1.380
 2245SOL    HW2 7635   0.655   2.051   1.307
 2246SOL     OW 7636   1.669   0.837   4.622
 2246SOL    HW1 7637   1.752   0.866   4.668
 2246SOL    HW2 7638   1.688   0.822   4.524
 2247SOL     OW 7639   3.379   2.885   3.489
 2247SOL    HW1 7640   3.473   2.903   3.462
 2247SOL    HW2 7641   3.373   2.883   3.589
 2248SOL     OW 7642   6.433   3.977   5.244
 2248SOL    HW1 7643   6.485   3.917   5.184
 2248SOL    HW2 7644   6.364   3.924   5.294
 2249SOL     OW 7645   5.750   6.434   3.836
 2249SOL    HW1 7646   5.794   6.345   3.850
 2249SOL    HW2 7647   5.743   6.482   3.923
 2250SOL     OW 7648   3.523   3.732   5.243
 2250SOL    HW1 7649   3.498   3.796   5.171
 2250SOL    HW2 7650   3.517   3.639   5.207
 2251SOL     OW 7651   5.205   0.258   6.677
 2251SOL    HW1 7652   5.256   0.344   6.669
 2251SOL    HW2 7653   5.109   0.278   6.694
 2252SOL     OW 7654   4.268   2.266   2.600
 2252SOL    HW1 7655   4.203   2.193   2.624
 2252SOL    HW2 7656   4.267   2.280   2.501
 2253SOL     OW 7657   6.932   4.098   6.978
 2253SOL    HW1 7658   6.852   4.038   6.986
 2253SOL    HW2 7659   6.913   4.170   6.911
 2254SOL     OW 7660   3.352   2.867   4.718
 2254SOL    HW1 7661   3.390   2.781   4.753
 2254SOL    HW2 7662   3.400   2.893   4.634
 2255SOL     OW 7663   4.092   3.260   5.965
 2255SOL    HW1 7664   4.040   3.332   6.010
 2255SOL    HW2 7665   4.042   3.227   5.885
 2256SOL     OW 7666   4.737   6.314   2.444
 2256SOL    HW1 7667   4.647   6.357   2.450
 2256SOL    HW2 7668   4.783   6.320   2.532
 2257SOL     OW 7669   0.186   2.247   4.275
 2257SOL    HW1 7670   0.097   2.258   4.232
 2257SOL    HW2 7671   0.212   2.332   4.320
 2258SOL     OW 7672   1.495   5.201   4.150
 2258SOL    HW1 7673   1.576   5.256   4.170
 2258SOL    HW2 7674   1.468   5.216   4.054
 2259SOL     OW 7675   5.055   3.473   5.921
 2259SOL    HW1 7676   5.129   3.528   5.960
 2259SOL    HW2 7677   4.989   3.451   5.992
 2260SOL     OW 7678   0.491   4.565   1.436
 2260SOL    HW1 7679   0.424   4.492   1.450
 2260SOL    HW2 7680   0.580   4.524   1.416
 2261SOL     OW 7681   5.592   5.095   0.230
 2261SOL    HW1 7682   5.628   5.053   0.314
 2261SOL    HW2 7683   5.567   5.190   0.248
 2262SOL     OW 7684   5.994   0.875   3.387
 2262SOL    HW1 7685   6.075   0.934   3.386
 2262SOL    HW2 7686   5.911   0.931   3.385
 2263SOL     OW 7687   3.209   5.958   6.733
 2263SOL    HW1 7688   3.287   5.978   6.673
 2263SOL    HW2 7689   3.136   6.023   6.715
 2264SOL     OW 7690   2.882   5.272   0.248
 2264SOL    HW1 7691   2.981   5.290   0.257
 2264SOL    HW2 7692   2.851   5.301   0.158
 2265SOL     OW 7693   1.413   0.504   4.146
 2265SOL    HW1 7694   1.476   0.517   4.223
 2265SOL    HW2 7695   1.452   0.546   4.064
 2266SOL     OW 7696   5.076   2.106   0.278
 2266SOL    HW1 7697   5.093   2.111   0.179
 2266SOL    HW2 7698   4.998   2.045   0.295
 2267SOL     OW 7699   4.772   2.279   4.703
 2267SOL    HW1 7700   4.838   2.329   4.649
 2267SOL    HW2 7701   4.819   2.212   4.762
 2268SOL     OW 7702   6.523   4.191   0.145
 2268SOL    HW1 7703   6.564   4.198   0.055
 2268SOL    HW2 7704   6.424   4.177   0.136
 2269SOL     OW 7705   6.922   4.803   5.429
 2269SOL    HW1 7706   6.999   4.781   5.369
 2269SOL    HW2 7707   6.917   4.902   5.440
 2270SOL     OW 7708   2.858   2.849   5.739
 2270SOL    HW1 7709   2.921   2.779   5.773
 2270SOL    HW2 7710   2.896   2.940   5.756
 2271SOL     OW 7711   5.198   4.227   0.453
 2271SOL    HW1 7712   5.245   4.158   0.508
 2271SOL    HW2 7713   5.234   4.317   0.476
 2272SOL     OW 7714   6.308   2.374   6.406
 2272SOL    HW1 7715   6.246   2.446   6.439
 2272SOL    HW2 7716   6.257   2.289   6.395
 2273SOL     OW 7717   1.750   1.916   2.179
 2273SOL    HW1 7718   1.813   1.877   2.112
 2273SOL    HW2 7719   1.762   1.870   2.267
 2274SOL     OW 7720   0.800   2.032   6.128
 2274SOL    HW1 7721   0.782   2.121   6.086
 2274SOL    HW2 7722   0.834   2.046   6.221
 2275SOL     OW 7723   6.426   6.677   4.324
 2275SOL    HW1 7724   6.393   6.584   4.340
 2275SOL    HW2 7725   6.522   6.674   4.299
 2276SOL     OW 7726   2.128   6.030   1.179
 2276SOL    HW1 7727   2.190   6.094   1.225
 2276SOL    HW2 7728   2.139   5.938   1.219
 2277SOL     OW 7729   4.141   3.554   4.448
 2277SOL    HW1 7730   4.144   3.539   4.546
 2277SOL    HW2 7731   4.128   3.466   4.401
 2278SOL     OW 7732   6.161   4.781   4.611
 2278SOL    HW1 7733   6.191   4.814   4.701
 2278SOL    HW2 7734   6.206   4.835   4.539
 2279SOL     OW 7735   5.924   6.779   5.529
 2279SOL    HW1 7736   5.967   6.761   5.441
 2279SOL    HW2 7737   5.857   6.852   5.519
 2280SOL     OW 7738   0.033   6.549   4.464
 2280SOL    HW1 7739   0.018   6.533   4.366
 2280SOL    HW2 7740   6.977   6.597   4.502
 2281SOL     OW 7741   3.419   1.366   1.944
 2281SOL    HW1 7742   3.409   1.410   2.032
 2281SOL    HW2 7743   3.451   1.432   1.876
 2282SOL     OW 7744   5.877   0.130   5.526
 2282SOL    HW1 7745   5.872   0.084   5.614
 2282SOL    HW2 7746   5.836   0.072   5.455
 2283SOL     OW 7747   0.890   5.206   1.190
 2283SOL    HW1 7748   0.825   5.225   1.264
 2283SOL    HW2 7749   0.981   5.192   1.229
 2284SOL     OW 7750   1.277   2.710   0.019
 2284SOL    HW1 7751   1.283   2.714   0.118
 2284SOL    HW2 7752   1.332   2.783   7.002
 2285SOL     OW 7753   1.952   2.589   1.245
 2285SOL    HW1 7754   1.938   2.490   1.243
 2285SOL    HW2 7755   2.019   2.615   1.175
 2286SOL     OW 7756   5.765   0.368   3.763
 2286SOL    HW1 7757   5.847   0.415   3.733
 2286SOL    HW2 7758   5.727   0.414   3.844
 2287SOL     OW 7759   2.061   0.240   3.353
 2287SOL    HW1 7760   1.961   0.235   3.352
 2287SOL    HW2 7761   2.099   0.156   3.313
 2288SOL     OW 7762   5.958   4.875   4.313
 2288SOL    HW1 7763   5.921   4.953   4.364
 2288SOL    HW2 7764   5.971   4.798   4.376
 2289SOL     OW 7765   1.011   4.796   1.285
 2289SOL    HW1 7766   0.971   4.839   1.366
 2289SOL    HW2 7767   0.945   4.800   1.209
 2290SOL     OW 7768   0.731   3.906   0.510
 2290SOL    HW1 7769   0.701   3.890   0.605
 2290SOL    HW2 7770   0.801   3.839   0.486
 2291SOL     OW 7771   2.190   2.681   5.785
 2291SOL    HW1 7772   2.140   2.611   5.735
 2291SOL    HW2 7773   2.264   2.637   5.838
 2292SOL     OW 7774   0.280   2.610   4.689
 2292SOL    HW1 7775   0.306   2.679   4.757
 2292SOL    HW2 7776   0.192   2.634   4.649
 2293SOL     OW 7777   4.651   6.236   1.950
 2293SOL    HW1 7778   4.734   6.289   1.968
 2293SOL    HW2 7779   4.587   6.292   1.897
 2294SOL     OW 7780   3.132   0.126   0.009
 2294SOL    HW1 7781   3.078   0.207   0.030
 2294SOL    HW2 7782   3.140   0.069   0.091
 2295SOL     OW 7783   0.618   1.995   3.184
 2295SOL    HW1 7784   0.559   2.031   3.112
 2295SOL    HW2 7785   0.563   1.966   3.262
 2296SOL     OW 7786   4.756   5.400   0.853
 2296SOL    HW1 7787   4.825   5.454   0.804
 2296SOL    HW2 7788   4.779   5.303   0.848
 2297SOL     OW 7789   3.783   4.142   5.136
 2297SOL    HW1 7790   3.775   4.177   5.230
 2297SOL    HW2 7791   3.872   4.099   5.125
 2298SOL     OW 7792   3.842   2.943   1.560
 2298SOL    HW1 7793   3.909   2.870   1.548
 2298SOL    HW2 7794   3.809   2.973   1.470
 2299SOL     OW 7795   4.808   6.276   5.294
 2299SOL    HW1 7796   4.905   6.254   5.309
 2299SOL    HW2 7797   4.800   6.333   5.212
 2300SOL     OW 7798   2.207   5.458   2.076
 2300SOL    HW1 7799   2.235   5.488   1.985
 2300SOL    HW2 7800   2.180   5.538   2.130
 2301SOL     OW 7801   3.316   2.970   3.022
 2301SOL    HW1 7802   3.254   2.946   2.948
 2301SOL    HW2 7803   3.409   2.981   2.986
 2302SOL     OW 7804   3.803   0.253   0.981
 2302SOL    HW1 7805   3.815   0.350   0.957
 2302SOL    HW2 7806   3.776   0.246   1.077
 2303SOL     OW 7807   1.957   3.099   5.895
 2303SOL    HW1 7808   1.983   3.008   5.925
 2303SOL    HW2 7809   2.028   3.136   5.834
 2304SOL     OW 7810   4.701   6.861   3.821
 2304SOL    HW1 7811   4.606   6.833   3.832
 2304SOL    HW2 7812   4.712   6.955   3.852
 2305SOL     OW 7813   2.387   6.748   3.117
 2305SOL    HW1 7814   2.479   6.778   3.090
 2305SOL    HW2 7815   2.353   6.681   3.051
 2306SOL     OW 7816   3.116   5.137   2.404
 2306SOL    HW1 7817   3.025   5.166   2.374
 2306SOL    HW2 7818   3.132   5.042   2.374
 2307SOL     OW 7819   6.743   4.257   2.513
 2307SOL    HW1 7820   6.654   4.246   2.470
 2307SOL    HW2 7821   6.811   4.284   2.444
 2308SOL     OW 7822   1.254   6.029   0.561
 2308SOL    HW1 7823   1.183   5.976   0.608
 2308SOL    HW2 7824   1.331   6.044   0.623
 2309SOL     OW 7825   1.538   0.199   6.571
 2309SOL    HW1 7826   1.581   0.289   6.566
 2309SOL    HW2 7827   1.491   0.189   6.659
 2310SOL     OW 7828   4.937   6.211   1.254
 2310SOL    HW1 7829   4.919   6.292   1.200
 2310SOL    HW2 7830   4.851   6.174   1.289
 2311SOL     OW 7831   2.162   6.118   1.906
 2311SOL    HW1 7832   2.183   6.021   1.897
 2311SOL    HW2 7833   2.077   6.128   1.959
 2312SOL     OW 7834   3.793   6.513   4.201
 2312SOL    HW1 7835   3.801   6.479   4.295
 2312SOL    HW2 7836   3.704   6.556   4.188
 2313SOL     OW 7837   5.103   5.410   1.733
 2313SOL    HW1 7838   5.085   5.505   1.707
 2313SOL    HW2 7839   5.028   5.352   1.702
 2314SOL     OW 7840   5.803   6.931   5.076
 2314SOL    HW1 7841   5.824   6.867   5.002
 2314SOL    HW2 7842   5.810   0.001   5.041
 2315SOL     OW 7843   4.450   3.315   5.394
 2315SOL    HW1 7844   4.504   3.233   5.379
 2315SOL    HW2 7845   4.385   3.299   5.468
 2316SOL     OW 7846   3.160   0.805   4.188
 2316SOL    HW1 7847   3.165   0.706   4.180
 2316SOL    HW2 7848   3.177   0.848   4.099
 2317SOL     OW 7849   0.074   6.436   3.538
 2317SOL    HW1 7850   0.162   6.450   3.493
 2317SOL    HW2 7851   0.056   6.338   3.546
 2318SOL     OW 7852   2.284   2.934   4.474
 2318SOL    HW1 7853   2.356   2.923   4.541
 2318SOL    HW2 7854   2.196   2.908   4.514
 2319SOL     OW 7855   2.283   5.244   4.297
 2319SOL    HW1 7856   2.202   5.243   4.355
 2319SOL    HW2 7857   2.326   5.154   4.299
 2320SOL     OW 7858   0.395   3.232   4.958
 2320SOL    HW1 7859   0.358   3.322   4.934
 2320SOL    HW2 7860   0.337   3.189   5.027
 2321SOL     OW 7861   2.244   6.554   0.000
 2321SOL    HW1 7862   2.262   6.650   0.021
 2321SOL    HW2 7863   2.157   6.527   0.041
 2322SOL     OW 7864   1.539   2.797   3.943
 2322SOL    HW1 7865   1.570   2.820   4.036
 2322SOL    HW2 7866   1.474   2.866   3.912
 2323SOL     OW 7867   3.356   5.237   1.789
 2323SOL    HW1 7868   3.353   5.289   1.874
 2323SOL    HW2 7869   3.417   5.158   1.800
 2324SOL     OW 7870   6.632   6.243   0.873
 2324SOL    HW1 7871   6.549   6.288   0.905
 2324SOL    HW2 7872   6.637   6.151   0.912
 2325SOL     OW 7873   1.027   4.502   1.348
 2325SOL    HW1 7874   1.035   4.504   1.448
 2325SOL    HW2 7875   1.033   4.596   1.313
 2326SOL     OW 7876   3.878   5.504   6.116
 2326SOL    HW1 7877   3.906   5.438   6.185
 2326SOL    HW2 7878   3.786   5.536   6.137
 2327SOL     OW 7879   6.566   2.201   4.069
 2327SOL    HW1 7880   6.585   2.239   4.160
 2327SOL    HW2 7881   6.619   2.251   4.001
 2328SOL     OW 7882   2.099   1.954   2.945
 2328SOL    HW1 7883   2.061   1.974   3.036
 2328SOL    HW2 7884   2.024   1.944   2.880
 2329SOL     OW 7885   1.078   4.703   4.542
 2329SOL    HW1 7886   1.028   4.739   4.464
 2329SOL    HW2 7887   1.173   4.736   4.538
 2330SOL     OW 7888   0.993   3.716   1.307
 2330SOL    HW1 7889   1.052   3.791   1.339
 2330SOL    HW2 7890   1.050   3.646   1.263
 2331SOL     OW 7891   3.995   5.908   6.749
 2331SOL    HW1 7892   3.962   5.829   6.696
 2331SOL    HW2 7893   4.089   5.891   6.779
 2332SOL     OW 7894   5.166   1.614   5.468
 2332SOL    HW1 7895   5.246   1.624   5.527
 2332SOL    HW2 7896   5.098   1.684   5.492
 2333SOL     OW 7897   6.924   4.712   2.696
 2333SOL    HW1 7898   6.908   4.689   2.793
 2333SOL    HW2 7899   7.020   4.696   2.674
 2334SOL     OW 7900   2.015   0.550   0.498
 2334SOL    HW1 7901   2.039   0.559   0.401
 2334SOL    HW2 7902   2.077   0.604   0.553
 2335SOL     OW 7903   6.869   0.820   2.787
 2335SOL    HW1 7904   6.817   0.786   2.865
 2335SOL    HW2 7905   6.943   0.879   2.820
 2336SOL     OW 7906   4.622   2.760   4.842
 2336SOL    HW1 7907   4.689   2.686   4.842
 2336SOL    HW2 7908   4.536   2.728   4.881
 2337SOL     OW 7909   4.406   1.189   1.932
 2337SOL    HW1 7910   4.457   1.213   1.849
 2337SOL    HW2 7911   4.430   1.096   1.960
 2338SOL     OW 7912   0.980   2.265   5.405
 2338SOL    HW1 7913   1.000   2.193   5.338
 2338SOL    HW2 7914   0.935   2.224   5.485
 2339SOL     OW 7915   3.427   3.912   4.548
 2339SOL    HW1 7916   3.334   3.928   4.515
 2339SOL    HW2 7917   3.437   3.951   4.640
 2340SOL     OW 7918   6.169   4.515   0.844
 2340SOL    HW1 7919   6.073   4.505   0.871
 2340SOL    HW2 7920   6.185   4.468   0.757
 2341SOL     OW 7921   4.207   4.558   1.349
 2341SOL    HW1 7922   4.150   4.634   1.316
 2341SOL    HW2 7923   4.301   4.572   1.320
 2342SOL     OW 7924   0.134   6.866   5.381
 2342SOL    HW1 7925   0.095   6.833   5.294
 2342SOL    HW2 7926   0.064   6.861   5.452
 2343SOL     OW 7927   2.719   5.454   2.635
 2343SOL    HW1 7928   2.802   5.409   2.603
 2343SOL    HW2 7929   2.644   5.434   2.572
 2344SOL     OW 7930   1.904   6.598   0.116
 2344SOL    HW1 7931   1.933   6.519   0.061
 2344SOL    HW2 7932   1.851   6.565   0.195
 2345SOL     OW 7933   3.464   5.527   4.445
 2345SOL    HW1 7934   3.430   5.616   4.414
 2345SOL    HW2 7935   3.549   5.505   4.397
 2346SOL     OW 7936   4.517   3.030   5.338
 2346SOL    HW1 7937   4.507   2.942   5.291
 2346SOL    HW2 7938   4.578   3.019   5.416
 2347SOL     OW 7939   2.555   3.006   1.649
 2347SOL    HW1 7940   2.653   3.004   1.665
 2347SOL    HW2 7941   2.511   2.930   1.697
 2348SOL     OW 7942   2.603   6.789   3.858
 2348SOL    HW1 7943   2.700   6.768   3.847
 2348SOL    HW2 7944   2.586   6.884   3.831
 2349SOL     OW 7945   0.682   3.910   6.360
 2349SOL    HW1 7946   0.594   3.865   6.375
 2349SOL    HW2 7947   0.666   4.003   6.327
 2350SOL     OW 7948   4.736   6.681   6.606
 2350SOL    HW1 7949   4.814   6.675   6.668
 2350SOL    HW2 7950   4.659   6.723   6.654
 2351SOL     OW 7951   2.772   5.289   3.639
 2351SOL    HW1 7952   2.835   5.250   3.571
 2351SOL    HW2 7953   2.727   5.215   3.689
 2352SOL     OW 7954   0.529   5.302   1.942
 2352SOL    HW1 7955   0.514   5.399   1.922
 2352SOL    HW2 7956   0.519   5.249   1.857
 2353SOL     OW 7957   2.960   4.627   5.663
 2353SOL    HW1 7958   2.915   4.706   5.705
 2353SOL    HW2 7959   2.906   4.545   5.679
 2354SOL     OW 7960   3.007   1.698   5.978
 2354SOL    HW1 7961   2.948   1.774   6.004
 2354SOL    HW2 7962   2.958   1.639   5.914
 2355SOL     OW 7963   2.360   5.484   0.477
 2355SOL    HW1 7964   2.440   5.510   0.423
 2355SOL    HW2 7965   2.390   5.444   0.564
 2356SOL     OW 7966   1.445   3.668   0.137
 2356SOL    HW1 7967   1.396   3.637   0.219
 2356SOL    HW2 7968   1.421   3.763   0.118
 2357SOL     OW 7969   4.784   6.384   3.277
 2357SOL    HW1 7970   4.767   6.290   3.307
 2357SOL    HW2 7971   4.800   6.442   3.358
 2358SOL     OW 7972   4.052   4.999   5.396
 2358SOL    HW1 7973   4.066   4.908   5.355
 2358SOL    HW2 7974   3.958   5.007   5.428
 2359SOL     OW 7975   6.854   0.902   6.031
 2359SOL    HW1 7976   6.850   0.824   6.092
 2359SOL    HW2 7977   6.860   0.986   6.084
 2360SOL     OW 7978   5.506   4.645   0.016
 2360SOL    HW1 7979   5.606   4.637   0.016
 2360SOL    HW2 7980   5.480   4.740   7.020
 2361SOL     OW 7981   2.278   0.611   5.073
 2361SOL    HW1 7982   2.220   0.692   5.077
 2361SOL    HW2 7983   2.365   0.629   5.119
 2362SOL     OW 7984   2.402   0.138   5.158
 2362SOL    HW1 7985   2.306   0.148   5.133
 2362SOL    HW2 7986   2.415   0.165   5.254
 2363SOL     OW 7987   4.167   2.234   5.264
 2363SOL    HW1 7988   4.075   2.266   5.244
 2363SOL    HW2 7989   4.190   2.157   5.204
 2364SOL     OW 7990   0.838   1.871   2.059
 2364SOL    HW1 7991   0.831   1.776   2.032
 2364SOL    HW2 7992   0.929   1.907   2.036
 2365SOL     OW 7993   6.606   3.075   6.800
 2365SOL    HW1 7994   6.510   3.072   6.775
 2365SOL    HW2 7995   6.634   3.170   6.815
 2366SOL     OW 7996   1.562   5.194   6.150
 2366SOL    HW1 7997   1.570   5.119   6.084
 2366SOL    HW2 7998   1.650   5.241   6.159
 2367SOL     OW 7999   3.071   4.674   0.407
 2367SOL    HW1 8000   3.096   4.664   0.504
 2367SOL    HW2 8001   3.108   4.760   0.372
 2368SOL     OW 8002   4.862   0.314   2.915
 2368SOL    HW1 8003   4.958   0.340   2.919
 2368SOL    HW2 8004   4.810   0.365   2.984
 2369SOL     OW 8005   0.983   2.682   5.947
 2369SOL    HW1 8006   1.082   2.674   5.934
 2369SOL    HW2 8007   0.951   2.608   6.005
 2370SOL     OW 8008   5.245   3.787   0.106
 2370SOL    HW1 8009   5.300   3.747   0.179
 2370SOL    HW2 8010   5.203   3.713   0.052
 2371SOL     OW 8011   0.696   6.831   1.842
 2371SOL    HW1 8012   0.626   6.885   1.796
 2371SOL    HW2 8013   0.675   6.734   1.832
 2372SOL     OW 8014   6.506   2.475   1.665
 2372SOL    HW1 8015   6.602   2.448   1.676
 2372SOL    HW2 8016   6.475   2.520   1.749
 2373SOL     OW 8017   0.615   1.230   0.416
 2373SOL    HW1 8018   0.645   1.220   0.321
 2373SOL    HW2 8019   0.620   1.141   0.462
 2374SOL     OW 8020   6.176   1.284   3.462
 2374SOL    HW1 8021   6.158   1.193   3.427
 2374SOL    HW2 8022   6.274   1.302   3.460
 2375SOL     OW 8023   2.752   6.998   4.655
 2375SOL    HW1 8024   2.674   6.964   4.707
 2375SOL    HW2 8025   2.826   6.930   4.658
 2376SOL     OW 8026   6.383   2.407   4.397
 2376SOL    HW1 8027   6.390   2.483   4.461
 2376SOL    HW2 8028   6.469   2.356   4.395
 2377SOL     OW 8029   3.549   4.040   3.068
 2377SOL    HW1 8030   3.473   4.047   3.133
 2377SOL    HW2 8031   3.512   4.034   2.975
 2378SOL     OW 8032   5.070   2.582   6.842
 2378SOL    HW1 8033   5.157   2.627   6.821
 2378SOL    HW2 8034   5.009   2.588   6.763
 2379SOL     OW 8035   5.349   2.497   6.966
 2379SOL    HW1 8036   5.332   2.403   6.938
 2379SOL    HW2 8037   5.290   2.521   0.020
 2380SOL     OW 8038   0.190   0.354   5.163
 2380SOL    HW1 8039   0.120   0.283   5.169
 2380SOL    HW2 8040   0.243   0.341   5.079
 2381SOL     OW 8041   1.777   3.650   4.349
 2381SOL    HW1 8042   1.837   3.592   4.293
 2381SOL    HW2 8043   1.785   3.624   4.445
 2382SOL     OW 8044   2.267   4.371   3.582
 2382SOL    HW1 8045   2.229   4.462   3.597
 2382SOL    HW2 8046   2.335   4.376   3.508
 2383SOL     OW 8047   6.198   6.769   0.946
 2383SOL    HW1 8048   6.233   6.856   0.981
 2383SOL    HW2 8049   6.204   6.768   0.846
 2384SOL     OW 8050   6.340   6.978   2.255
 2384SOL    HW1 8051   6.303   7.002   2.165
 2384SOL    HW2 8052   6.266   6.974   2.321
 2385SOL     OW 8053   0.467   6.619   0.902
 2385SOL    HW1 8054   0.564   6.594   0.897
 2385SOL    HW2 8055   0.422   6.564   0.972
 2386SOL     OW 8056   5.017   5.296   4.058
 2386SOL    HW1 8057   5.090   5.296   3.990
 2386SOL    HW2 8058   5.056   5.291   4.150
 2387SOL     OW 8059   0.872   1.310   3.668
 2387SOL    HW1 8060   0.893   1.374   3.594
 2387SOL    HW2 8061   0.917   1.222   3.650
 2388SOL     OW 8062   1.799   2.131   3.557
 2388SOL    HW1 8063   1.796   2.116   3.656
 2388SOL    HW2 8064   1.729   2.197   3.531
 2389SOL     OW 8065   4.951   3.775   2.912
 2389SOL    HW1 8066   4.915   3.709   2.978
 2389SOL    HW2 8067   4.881   3.843   2.890
 2390SOL     OW 8068   3.693   4.038   3.373
 2390SOL    HW1 8069   3.707   3.973   3.298
 2390SOL    HW2 8070   3.702   3.990   3.461
 2391SOL     OW 8071   4.981   4.735   5.833
 2391SOL    HW1 8072   4.907   4.676   5.866
 2391SOL    HW2 8073   5.065   4.681   5.823
 2392SOL     OW 8074   3.725   6.898   5.225
 2392SOL    HW1 8075   3.685   6.806   5.227
 2392SOL    HW2 8076   3.790   6.903   5.150
 2393SOL     OW 8077   5.005   4.021   6.279
 2393SOL    HW1 8078   4.972   3.979   6.364
 2393SOL    HW2 8079   5.060   4.101   6.300
 2394SOL     OW 8080   2.080   3.226   4.163
 2394SOL    HW1 8081   2.087   3.147   4.103
 2394SOL    HW2 8082   2.135   3.211   4.245
 2395SOL     OW 8083   6.445   2.816   6.521
 2395SOL    HW1 8084   6.393   2.877   6.581
 2395SOL    HW2 8085   6.506   2.759   6.576
 2396SOL     OW 8086   4.028   5.436   1.296
 2396SOL    HW1 8087   4.094   5.502   1.334
 2396SOL    HW2 8088   4.073   5.348   1.284
 2397SOL     OW 8089   0.437   3.977   6.964
 2397SOL    HW1 8090   0.383   3.944   0.018
 2397SOL    HW2 8091   0.529   4.000   6.994
 2398SOL     OW 8092   3.118   3.902   6.775
 2398SOL    HW1 8093   3.206   3.921   6.820
 2398SOL    HW2 8094   3.105   3.964   6.698
 2399SOL     OW 8095   4.696   1.171   2.333
 2399SOL    HW1 8096   4.625   1.231   2.295
 2399SOL    HW2 8097   4.715   1.198   2.428
 2400SOL     OW 8098   3.644   5.042   0.012
 2400SOL    HW1 8099   3.714   5.112   0.025
 2400SOL    HW2 8100   3.602   5.020   0.100
 2401SOL     OW 8101   4.154   6.889   6.756
 2401SOL    HW1 8102   4.101   6.952   6.813
 2401SOL    HW2 8103   4.175   6.807   6.809
 2402SOL     OW 8104   0.618   0.561   4.000
 2402SOL    HW1 8105   0.612   0.651   3.957
 2402SOL    HW2 8106   0.687   0.507   3.954
 2403SOL     OW 8107   2.453   2.498   1.009
 2403SOL    HW1 8108   2.461   2.571   0.942
 2403SOL    HW2 8109   2.542   2.481   1.050
 2404SOL     OW 8110   5.069   1.280   1.088
 2404SOL    HW1 8111   5.079   1.198   1.033
 2404SOL    HW2 8112   5.146   1.342   1.070
 2405SOL     OW 8113   3.659   3.573   2.839
 2405SOL    HW1 8114   3.754   3.592   2.816
 2405SOL    HW2 8115   3.629   3.489   2.794
 2406SOL     OW 8116   2.833   6.518   3.394
 2406SOL    HW1 8117   2.802   6.613   3.388
 2406SOL    HW2 8118   2.856   6.484   3.303
 2407SOL     OW 8119   5.146   2.217   2.609
 2407SOL    HW1 8120   5.209   2.294   2.603
 2407SOL    HW2 8121   5.053   2.250   2.620
 2408SOL     OW 8122   4.680   4.733   3.610
 2408SOL    HW1 8123   4.580   4.731   3.611
 2408SOL    HW2 8124   4.714   4.770   3.696
 2409SOL     OW 8125   1.258   3.223   1.981
 2409SOL    HW1 8126   1.272   3.280   2.062
 2409SOL    HW2 8127   1.324   3.248   1.911
 2410SOL     OW 8128   4.952   2.918   6.190
 2410SOL    HW1 8129   5.006   2.853   6.135
 2410SOL    HW2 8130   4.862   2.879   6.208
 2411SOL     OW 8131   4.257   5.351   5.887
 2411SOL    HW1 8132   4.211   5.330   5.801
 2411SOL    HW2 8133   4.327   5.421   5.872
 2412SOL     OW 8134   4.155   4.937   1.129
 2412SOL    HW1 8135   4.174   5.024   1.082
 2412SOL    HW2 8136   4.221   4.923   1.202
 2413SOL     OW 8137   6.230   2.245   0.481
 2413SOL    HW1 8138   6.192   2.325   0.529
 2413SOL    HW2 8139   6.201   2.162   0.527
 2414SOL     OW 8140   4.988   3.910   2.360
 2414SOL    HW1 8141   4.937   3.878   2.440
 2414SOL    HW2 8142   4.929   3.906   2.279
 2415SOL     OW 8143   0.227   0.101   1.910
 2415SOL    HW1 8144   0.152   0.064   1.856
 2415SOL    HW2 8145   0.199   0.189   1.949
 2416SOL     OW 8146   3.824   2.112   5.127
 2416SOL    HW1 8147   3.848   2.202   5.164
 2416SOL    HW2 8148   3.908   2.059   5.112
 2417SOL     OW 8149   3.995   3.704   6.204
 2417SOL    HW1 8150   3.970   3.800   6.193
 2417SOL    HW2 8151   4.095   3.695   6.199
 2418SOL     OW 8152   3.300   4.141   3.994
 2418SOL    HW1 8153   3.349   4.228   3.990
 2418SOL    HW2 8154   3.356   4.073   4.039
 2419SOL     OW 8155   0.722   5.897   4.704
 2419SOL    HW1 8156   0.750   5.990   4.682
 2419SOL    HW2 8157   0.684   5.895   4.796
 2420SOL     OW 8158   3.452   1.578   1.496
 2420SOL    HW1 8159   3.455   1.480   1.478
 2420SOL    HW2 8160   3.378   1.619   1.443
 2421SOL     OW 8161   3.111   1.317   5.354
 2421SOL    HW1 8162   3.041   1.331   5.284
 2421SOL    HW2 8163   3.077   1.351   5.442
 2422SOL     OW 8164   5.889   0.163   1.487
 2422SOL    HW1 8165   5.850   0.083   1.442
 2422SOL    HW2 8166   5.979   0.139   1.525
 2423SOL     OW 8167   1.488   6.586   3.828
 2423SOL    HW1 8168   1.510   6.489   3.823
 2423SOL    HW2 8169   1.472   6.611   3.924
 2424SOL     OW 8170   6.292   6.637   6.167
 2424SOL    HW1 8171   6.218   6.609   6.106
 2424SOL    HW2 8172   6.335   6.555   6.206
 2425SOL     OW 8173   6.379   0.358   4.021
 2425SOL    HW1 8174   6.351   0.442   4.067
 2425SOL    HW2 8175   6.422   0.297   4.087
 2426SOL     OW 8176   0.969   5.750   4.273
 2426SOL    HW1 8177   1.003   5.839   4.246
 2426SOL    HW2 8178   1.044   5.684   4.273
 2427SOL     OW 8179   5.528   5.417   6.198
 2427SOL    HW1 8180   5.533   5.470   6.114
 2427SOL    HW2 8181   5.510   5.479   6.275
 2428SOL     OW 8182   6.188   0.353   3.521
 2428SOL    HW1 8183   6.260   0.334   3.454
 2428SOL    HW2 8184   6.227   0.353   3.613
 2429SOL     OW 8185   6.431   5.402   4.062
 2429SOL    HW1 8186   6.482   5.449   4.134
 2429SOL    HW2 8187   6.354   5.458   4.033
 2430SOL     OW 8188   6.282   1.655   1.386
 2430SOL    HW1 8189   6.325   1.572   1.350
 2430SOL    HW2 8190   6.255   1.640   1.481
 2431SOL     OW 8191   4.398   0.686   2.254
 2431SOL    HW1 8192   4.305   0.702   2.289
 2431SOL    HW2 8193   4.394   0.621   2.178
 2432SOL     OW 8194   3.057   6.725   3.158
 2432SOL    HW1 8195   3.082   6.765   3.246
 2432SOL    HW2 8196   2.959   6.706   3.156
 2433SOL     OW 8197   3.261   0.461   1.428
 2433SOL    HW1 8198   3.267   0.526   1.503
 2433SOL    HW2 8199   3.247   0.369   1.464
 2434SOL     OW 8200   4.337   0.903   4.833
 2434SOL    HW1 8201   4.350   0.847   4.751
 2434SOL    HW2 8202   4.291   0.988   4.809
 2435SOL     OW 8203   4.241   4.532   5.786
 2435SOL    HW1 8204   4.187   4.448   5.783
 2435SOL    HW2 8205   4.199   4.596   5.850
 2436SOL     OW 8206   2.022   6.757   1.966
 2436SOL    HW1 8207   1.979   6.826   2.024
 2436SOL    HW2 8208   2.031   6.793   1.873
 2437SOL     OW 8209   4.583   5.940   0.437
 2437SOL    HW1 8210   4.537   5.917   0.352
 2437SOL    HW2 8211   4.625   5.858   0.476
 2438SOL     OW 8212   3.592   1.213   5.946
 2438SOL    HW1 8213   3.648   1.197   6.027
 2438SOL    HW2 8214   3.652   1.228   5.867
 2439SOL     OW 8215   0.698   4.380   6.539
 2439SOL    HW1 8216   0.794   4.355   6.551
 2439SOL    HW2 8217   0.643   4.335   6.609
 2440SOL     OW 8218   5.514   6.035   5.899
 2440SOL    HW1 8219   5.428   6.083   5.881
 2440SOL    HW2 8220   5.588   6.077   5.846
 2441SOL     OW 8221   0.023   0.210   0.392
 2441SOL    HW1 8222   0.029   0.111   0.397
 2441SOL    HW2 8223   6.956   0.237   0.359
 2442SOL     OW 8224   6.443   4.624   4.463
 2442SOL    HW1 8225   6.460   4.577   4.376
 2442SOL    HW2 8226   6.390   4.565   4.523
 2443SOL     OW 8227   4.453   6.285   5.740
 2443SOL    HW1 8228   4.392   6.257   5.813
 2443SOL    HW2 8229   4.447   6.221   5.663
 2444SOL     OW 8230   3.224   4.293   5.868
 2444SOL    HW1 8231   3.164   4.344   5.929
 2444SOL    HW2 8232   3.244   4.348   5.787
 2445SOL     OW 8233   0.238   1.023   2.010
 2445SOL    HW1 8234   0.237   1.044   1.912
 2445SOL    HW2 8235   0.144   1.010   2.042
 2446SOL     OW 8236   0.534   4.206   3.652
 2446SOL    HW1 8237   0.470   4.233   3.580
 2446SOL    HW2 8238   0.628   4.228   3.624
 2447SOL     OW 8239   2.755   2.155   0.834
 2447SOL    HW1 8240   2.807   2.118   0.911
 2447SOL    HW2 8241   2.755   2.255   0.840
 2448SOL     OW 8242   0.073   0.931   5.216
 2448SOL    HW1 8243   0.080   1.011   5.156
 2448SOL    HW2 8244   0.159   0.880   5.214
 2449SOL     OW 8245   0.482   5.053   1.152
 2449SOL    HW1 8246   0.390   5.077   1.122
 2449SOL    HW2 8247   0.489   4.953   1.163
 2450SOL     OW 8248   2.510   4.610   3.515
 2450SOL    HW1 8249   2.548   4.688   3.465
 2450SOL    HW2 8250   2.474   4.543   3.450
 2451SOL     OW 8251   0.536   0.003   3.732
 2451SOL    HW1 8252   0.477   6.946   3.737
 2451SOL    HW2 8253   0.487   0.083   3.764
 2452SOL     OW 8254   1.547   3.012   2.830
 2452SOL    HW1 8255   1.528   3.062   2.746
 2452SOL    HW2 8256   1.613   2.939   2.812
 2453SOL     OW 8257   6.333   3.785   0.885
 2453SOL    HW1 8258   6.429   3.796   0.912
 2453SOL    HW2 8259   6.327   3.720   0.810
 2454SOL     OW 8260   3.468   1.351   0.820
 2454SOL    HW1 8261   3.454   1.258   0.786
 2454SOL    HW2 8262   3.560   1.359   0.859
 2455SOL     OW 8263   5.628   6.370   0.707
 2455SOL    HW1 8264   5.664   6.421   0.785
 2455SOL    HW2 8265   5.528   6.364   0.714
 2456SOL     OW 8266   5.869   6.751   0.638
 2456SOL    HW1 8267   5.900   6.841   0.610
 2456SOL    HW2 8268   5.773   6.739   0.613
 2457SOL     OW 8269   6.822   6.108   0.723
 2457SOL    HW1 8270   6.762   6.178   0.762
 2457SOL    HW2 8271   6.768   6.047   0.665
 2458SOL     OW 8272   2.795   5.705   3.467
 2458SOL    HW1 8273   2.895   5.705   3.479
 2458SOL    HW2 8274   2.764   5.613   3.445
 2459SOL     OW 8275   2.562   6.989   0.494
 2459SOL    HW1 8276   2.614   6.982   0.579
 2459SOL    HW2 8277   2.618   0.012   0.425
 2460SOL     OW 8278   2.190   0.197   1.543
 2460SOL    HW1 8279   2.237   0.117   1.580
 2460SOL    HW2 8280   2.254   0.274   1.537
 2461SOL     OW 8281   4.712   0.589   2.693
 2461SOL    HW1 8282   4.803   0.586   2.737
 2461SOL    HW2 8283   4.681   0.683   2.690
 2462SOL     OW 8284   2.331   5.647   6.836
 2462SOL    HW1 8285   2.418   5.601   6.814
 2462SOL    HW2 8286   2.349   5.741   6.863
 2463SOL     OW 8287   5.827   2.365   4.345
 2463SOL    HW1 8288   5.829   2.330   4.251
 2463SOL    HW2 8289   5.895   2.438   4.354
 2464SOL     OW 8290   1.272   4.841   1.317
 2464SOL    HW1 8291   1.176   4.814   1.303
 2464SOL    HW2 8292   1.330   4.761   1.308
 2465SOL     OW 8293   6.997   5.313   1.205
 2465SOL    HW1 8294   6.931   5.287   1.134
 2465SOL    HW2 8295   6.969   5.274   1.292
 2466SOL     OW 8296   3.268   0.684   1.645
 2466SOL    HW1 8297   3.238   0.778   1.666
 2466SOL    HW2 8298   3.342   0.658   1.707
 2467SOL     OW 8299   5.651   1.521   5.531
 2467SOL    HW1 8300   5.606   1.602   5.495
 2467SOL    HW2 8301   5.722   1.548   5.596
 2468SOL     OW 8302   6.283   5.772   1.910
 2468SOL    HW1 8303   6.369   5.808   1.946
 2468SOL    HW2 8304   6.239   5.715   1.979
 2469SOL     OW 8305   3.568   4.831   5.279
 2469SOL    HW1 8306   3.521   4.743   5.278
 2469SOL    HW2 8307   3.582   4.861   5.373
 2470SOL     OW 8308   3.133   4.086   6.566
 2470SOL    HW1 8309   3.134   4.052   6.472
 2470SOL    HW2 8310   3.177   4.176   6.569
 2471SOL     OW 8311   2.208   6.583   1.368
 2471SOL    HW1 8312   2.167   6.656   1.422
 2471SOL    HW2 8313   2.275   6.534   1.423
 2472SOL     OW 8314   5.977   1.253   4.812
 2472SOL    HW1 8315   6.012   1.161   4.794
 2472SOL    HW2 8316   6.003   1.314   4.737
 2473SOL     OW 8317   2.220   4.053   4.449
 2473SOL    HW1 8318   2.253   4.147   4.457
 2473SOL    HW2 8319   2.218   4.010   4.539
 2474SOL     OW 8320   6.609   5.408   0.167
 2474SOL    HW1 8321   6.561   5.336   0.217
 2474SOL    HW2 8322   6.553   5.491   0.165
 2475SOL     OW 8323   4.597   1.615   0.832
 2475SOL    HW1 8324   4.539   1.565   0.897
 2475SOL    HW2 8325   4.547   1.695   0.798
 2476SOL     OW 8326   0.250   2.658   3.425
 2476SOL    HW1 8327   0.177   2.599   3.459
 2476SOL    HW2 8328   0.310   2.683   3.500
 2477SOL     OW 8329   6.268   0.449   2.123
 2477SOL    HW1 8330   6.291   0.360   2.163
 2477SOL    HW2 8331   6.338   0.474   2.056
 2478SOL     OW 8332   5.329   6.741   3.074
 2478SOL    HW1 8333   5.276   6.765   2.992
 2478SOL    HW2 8334   5.286   6.664   3.121
 2479SOL     OW 8335   0.827   3.489   1.426
 2479SOL    HW1 8336   0.812   3.393   1.404
 2479SOL    HW2 8337   0.924   3.503   1.450
 2480SOL     OW 8338   6.362   3.108   1.064
 2480SOL    HW1 8339   6.446   3.054   1.077
 2480SOL    HW2 8340   6.284   3.059   1.103
 2481SOL     OW 8341   3.420   6.166   0.237
 2481SOL    HW1 8342   3.412   6.133   0.143
 2481SOL    HW2 8343   3.512   6.148   0.272
 2482SOL     OW 8344   4.721   2.987   5.536
 2482SOL    HW1 8345   4.786   2.912   5.545
 2482SOL    HW2 8346   4.693   3.017   5.628
 2483SOL     OW 8347   2.296   1.492   0.924
 2483SOL    HW1 8348   2.233   1.568   0.907
 2483SOL    HW2 8349   2.290   1.466   1.021
 2484SOL     OW 8350   1.878   0.946   0.754
 2484SOL    HW1 8351   1.976   0.956   0.772
 2484SOL    HW2 8352   1.851   1.013   0.685
 2485SOL     OW 8353   4.948   5.283   3.005
 2485SOL    HW1 8354   4.997   5.205   2.965
 2485SOL    HW2 8355   4.993   5.368   2.977
 2486SOL     OW 8356   2.549   6.085   2.354
 2486SOL    HW1 8357   2.460   6.045   2.376
 2486SOL    HW2 8358   2.617   6.053   2.419
 2487SOL     OW 8359   3.857   6.166   0.545
 2487SOL    HW1 8360   3.821   6.076   0.570
 2487SOL    HW2 8361   3.893   6.211   0.626
 2488SOL     OW 8362   2.773   4.063   1.426
 2488SOL    HW1 8363   2.825   4.143   1.457
 2488SOL    HW2 8364   2.721   4.026   1.503
 2489SOL     OW 8365   2.725   4.893   4.231
 2489SOL    HW1 8366   2.690   4.984   4.211
 2489SOL    HW2 8367   2.747   4.846   4.145
 2490SOL     OW 8368   5.982   5.006   1.024
 2490SOL    HW1 8369   5.975   4.911   1.055
 2490SOL    HW2 8370   6.004   5.065   1.102
 2491SOL     OW 8371   2.837   5.893   2.820
 2491SOL    HW1 8372   2.927   5.915   2.859
 2491SOL    HW2 8373   2.803   5.809   2.862
 2492SOL     OW 8374   3.789   3.336   6.387
 2492SOL    HW1 8375   3.843   3.358   6.306
 2492SOL    HW2 8376   3.817   3.395   6.463
 2493SOL     OW 8377   5.955   0.354   3.112
 2493SOL    HW1 8378   5.961   0.328   3.208
 2493SOL    HW2 8379   6.046   0.356   3.072
 2494SOL     OW 8380   5.344   3.250   2.409
 2494SOL    HW1 8381   5.289   3.232   2.491
 2494SOL    HW2 8382   5.292   3.307   2.346
 2495SOL     OW 8383   5.100   0.698   5.341
 2495SOL    HW1 8384   5.054   0.620   5.298
 2495SOL    HW2 8385   5.031   0.764   5.372
 2496SOL     OW 8386   0.793   5.137   0.297
 2496SOL    HW1 8387   0.765   5.122   0.392
 2496SOL    HW2 8388   0.725   5.099   0.235
 2497SOL     OW 8389   0.521   1.739   6.888
 2497SOL    HW1 8390   0.487   1.743   6.982
 2497SOL    HW2 8391   0.467   1.674   6.836
 2498SOL     OW 8392   2.171   2.642   3.550
 2498SOL    HW1 8393   2.108   2.568   3.527
 2498SOL    HW2 8394   2.121   2.729   3.553
 2499SOL     OW 8395   5.640   0.413   4.338
 2499SOL    HW1 8396   5.574   0.483   4.365
 2499SOL    HW2 8397   5.593   0.324   4.330
 2500SOL     OW 8398   4.630   3.981   5.464
 2500SOL    HW1 8399   4.684   4.054   5.506
 2500SOL    HW2 8400   4.690   3.923   5.409
 2501SOL     OW 8401   6.088   4.627   6.989
 2501SOL    HW1 8402   6.038   4.639   6.904
 2501SOL    HW2 8403   6.154   4.552   6.979
 2502SOL     OW 8404   3.190   6.157   3.594
 2502SOL    HW1 8405   3.124   6.208   3.540
 2502SOL    HW2 8406   3.278   6.204   3.592
 2503SOL     OW 8407   3.919   5.942   5.817
 2503SOL    HW1 8408   3.965   6.012   5.872
 2503SOL    HW2 8409   3.882   5.984   5.735
 2504SOL     OW 8410   2.795   5.062   5.073
 2504SOL    HW1 8411   2.750   5.147   5.045
 2504SOL    HW2 8412   2.734   5.012   5.135
 2505SOL     OW 8413   3.602   5.778   4.627
 2505SOL    HW1 8414   3.624   5.873   4.605
 2505SOL    HW2 8415   3.535   5.743   4.562
 2506SOL     OW 8416   0.048   3.526   6.079
 2506SOL    HW1 8417   6.982   3.571   6.083
 2506SOL    HW2 8418   0.120   3.593   6.094
 2507SOL     OW 8419   6.047   5.157   0.174
 2507SOL    HW1 8420   6.025   5.060   0.171
 2507SOL    HW2 8421   5.978   5.206   0.227
 2508SOL     OW 8422   2.652   2.341   1.987
 2508SOL    HW1 8423   2.736   2.296   2.020
 2508SOL    HW2 8424   2.668   2.378   1.896
 2509SOL     OW 8425   5.347   1.484   2.104
 2509SOL    HW1 8426   5.356   1.398   2.155
 2509SOL    HW2 8427   5.372   1.561   2.162
 2510SOL     OW 8428   2.668   4.540   0.264
 2510SOL    HW1 8429   2.587   4.488   0.291
 2510SOL    HW2 8430   2.663   4.632   0.304
 2511SOL     OW 8431   1.573   1.805   5.062
 2511SOL    HW1 8432   1.560   1.887   5.006
 2511SOL    HW2 8433   1.534   1.726   5.014
 2512SOL     OW 8434   5.547   4.427   4.599
 2512SOL    HW1 8435   5.463   4.399   4.646
 2512SOL    HW2 8436   5.607   4.474   4.664
 2513SOL     OW 8437   0.820   2.267   5.997
 2513SOL    HW1 8438   0.873   2.344   6.033
 2513SOL    HW2 8439   0.878   2.213   5.935
 2514SOL     OW 8440   0.155   2.703   4.166
 2514SOL    HW1 8441   0.101   2.781   4.196
 2514SOL    HW2 8442   0.250   2.732   4.152
 2515SOL     OW 8443   1.160   6.800   0.858
 2515SOL    HW1 8444   1.086   6.784   0.792
 2515SOL    HW2 8445   1.175   6.898   0.869
 2516SOL     OW 8446   5.849   5.375   3.112
 2516SOL    HW1 8447   5.911   5.312   3.063
 2516SOL    HW2 8448   5.800   5.325   3.183
 2517SOL     OW 8449   2.287   4.677   6.288
 2517SOL    HW1 8450   2.199   4.678   6.337
 2517SOL    HW2 8451   2.343   4.754   6.318
 2518SOL     OW 8452   2.159   3.214   7.023
 2518SOL    HW1 8453   2.109   3.130   7.002
 2518SOL    HW2 8454   2.195   3.208   0.093
 2519SOL     OW 8455   4.304   4.961   4.186
 2519SOL    HW1 8456   4.312   5.056   4.156
 2519SOL    HW2 8457   4.395   4.923   4.202
 2520SOL     OW 8458   1.371   2.757   0.980
 2520SOL    HW1 8459   1.312   2.820   1.032
 2520SOL    HW2 8460   1.424   2.701   1.043
 2521SOL     OW 8461   1.016   0.029   5.933
 2521SOL    HW1 8462   1.056   0.053   6.021
 2521SOL    HW2 8463   0.920   0.003   5.946
 2522SOL     OW 8464   1.349   2.749   4.772
 2522SOL    HW1 8465   1.291   2.669   4.757
 2522SOL    HW2 8466   1.421   2.726   4.837
 2523SOL     OW 8467   7.018   3.270   0.947
 2523SOL    HW1 8468   6.958   3.217   0.887
 2523SOL    HW2 8469   0.061   3.209   0.990
 2524SOL     OW 8470   0.236   6.243   4.242
 2524SOL    HW1 8471   0.264   6.319   4.301
 2524SOL    HW2 8472   0.289   6.245   4.157
 2525SOL     OW 8473   1.392   3.562   4.207
 2525SOL    HW1 8474   1.432   3.474   4.230
 2525SOL    HW2 8475   1.292   3.555   4.205
 2526SOL     OW 8476   0.482   3.195   5.564
 2526SOL    HW1 8477   0.554   3.169   5.629
 2526SOL    HW2 8478   0.483   3.132   5.487
 2527SOL     OW 8479   6.246   6.704   5.360
 2527SOL    HW1 8480   6.160   6.744   5.330
 2527SOL    HW2 8481   6.228   6.627   5.421
 2528SOL     OW 8482   5.354   4.673   0.885
 2528SOL    HW1 8483   5.452   4.670   0.865
 2528SOL    HW2 8484   5.311   4.590   0.852
 2529SOL     OW 8485   4.992   4.587   6.124
 2529SOL    HW1 8486   5.014   4.634   6.210
 2529SOL    HW2 8487   4.893   4.593   6.107
 2530SOL     OW 8488   1.079   6.400   3.936
 2530SOL    HW1 8489   1.137   6.386   3.856
 2530SOL    HW2 8490   1.104   6.487   3.980
 2531SOL     OW 8491   5.775   6.435   4.892
 2531SOL    HW1 8492   5.690   6.383   4.904
 2531SOL    HW2 8493   5.849   6.373   4.868
 2532SOL     OW 8494   0.509   5.784   0.678
 2532SOL    HW1 8495   0.442   5.718   0.713
 2532SOL    HW2 8496   0.537   5.845   0.752
 2533SOL     OW 8497   5.254   6.431   4.874
 2533SOL    HW1 8498   5.263   6.418   4.776
 2533SOL    HW2 8499   5.159   6.452   4.897
 2534SOL     OW 8500   2.617   0.614   3.118
 2534SOL    HW1 8501   2.582   0.552   3.188
 2534SOL    HW2 8502   2.671   0.686   3.161
 2535SOL     OW 8503   1.863   1.914   5.898
 2535SOL    HW1 8504   1.956   1.908   5.863
 2535SOL    HW2 8505   1.799   1.875   5.831
 2536SOL     OW 8506   6.671   1.854   3.643
 2536SOL    HW1 8507   6.765   1.872   3.613
 2536SOL    HW2 8508   6.620   1.940   3.643
 2537SOL     OW 8509   5.150   6.452   0.719
 2537SOL    HW1 8510   5.058   6.438   0.682
 2537SOL    HW2 8511   5.149   6.433   0.817
 2538SOL     OW 8512   2.039   4.504   4.951
 2538SOL    HW1 8513   2.120   4.464   4.908
 2538SOL    HW2 8514   2.044   4.491   5.050
 2539SOL     OW 8515   4.290   6.984   5.492
 2539SOL    HW1 8516   4.293   6.917   5.417
 2539SOL    HW2 8517   4.373   6.975   5.548
 2540SOL     OW 8518   5.579   1.119   1.258
 2540SOL    HW1 8519   5.677   1.117   1.279
 2540SOL    HW2 8520   5.530   1.061   1.322
 2541SOL     OW 8521   1.648   0.196   5.388
 2541SOL    HW1 8522   1.678   0.104   5.416
 2541SOL    HW2 8523   1.595   0.190   5.304
 2542SOL     OW 8524   4.177   2.210   4.476
 2542SOL    HW1 8525   4.192   2.112   4.464
 2542SOL    HW2 8526   4.133   2.226   4.564
 2543SOL     OW 8527   1.370   0.397   2.889
 2543SOL    HW1 8528   1.334   0.488   2.909
 2543SOL    HW2 8529   1.347   0.373   2.794
 2544SOL     OW 8530   0.524   4.982   1.786
 2544SOL    HW1 8531   0.603   5.031   1.747
 2544SOL    HW2 8532   0.528   4.886   1.760
 2545SOL     OW 8533   1.997   1.585   1.492
 2545SOL    HW1 8534   1.910   1.577   1.443
 2545SOL    HW2 8535   1.981   1.623   1.583
 2546SOL     OW 8536   6.993   3.393   1.435
 2546SOL    HW1 8537   0.052   3.390   1.378
 2546SOL    HW2 8538   6.924   3.449   1.389
 2547SOL     OW 8539   5.289   5.330   0.957
 2547SOL    HW1 8540   5.293   5.428   0.977
 2547SOL    HW2 8541   5.366   5.283   1.000
 2548SOL     OW 8542   1.820   0.552   4.906
 2548SOL    HW1 8543   1.829   0.478   4.972
 2548SOL    HW2 8544   1.897   0.550   4.842
 2549SOL     OW 8545   2.234   2.784   1.536
 2549SOL    HW1 8546   2.179   2.701   1.537
 2549SOL    HW2 8547   2.306   2.776   1.605
 2550SOL     OW 8548   5.694   0.167   6.883
 2550SOL    HW1 8549   5.708   0.167   6.983
 2550SOL    HW2 8550   5.676   0.073   6.853
 2551SOL     OW 8551   3.499   4.684   0.269
 2551SOL    HW1 8552   3.522   4.760   0.329
 2551SOL    HW2 8553   3.579   4.661   0.213
 2552SOL     OW 8554   2.207   5.417   6.454
 2552SOL    HW1 8555   2.231   5.382   6.545
 2552SOL    HW2 8556   2.169   5.508   6.462
 2553SOL     OW 8557   3.916   2.708   6.057
 2553SOL    HW1 8558   3.843   2.675   6.118
 2553SOL    HW2 8559   4.004   2.681   6.095
 2554SOL     OW 8560   1.911   6.261   6.763
 2554SOL    HW1 8561   1.889   6.185   6.702
 2554SOL    HW2 8562   1.863   6.344   6.733
 2555SOL     OW 8563   6.066   6.050   6.335
 2555SOL    HW1 8564   6.138   5.981   6.347
 2555SOL    HW2 8565   5.987   6.025   6.391
 2556SOL     OW 8566   3.959   0.033   0.881
 2556SOL    HW1 8567   3.901   0.094   0.935
 2556SOL    HW2 8568   4.007   0.085   0.811
 2557SOL     OW 8569   2.991   1.203   7.013
 2557SOL    HW1 8570   3.006   1.112   0.030
 2557SOL    HW2 8571   3.067   1.225   6.952
 2558SOL     OW 8572   4.931   3.774   6.033
 2558SOL    HW1 8573   5.014   3.781   5.978
 2558SOL    HW2 8574   4.888   3.864   6.040
 2559SOL     OW 8575   6.891   3.339   3.458
 2559SOL    HW1 8576   6.904   3.365   3.362
 2559SOL    HW2 8577   6.875   3.240   3.463
 2560SOL     OW 8578   4.909   3.634   3.450
 2560SOL    HW1 8579   4.881   3.539   3.435
 2560SOL    HW2 8580   4.876   3.664   3.540
 2561SOL     OW 8581   3.951   1.321   3.231
 2561SOL    HW1 8582   3.870   1.378   3.214
 2561SOL    HW2 8583   3.930   1.254   3.301
 2562SOL     OW 8584   3.314   6.064   3.157
 2562SOL    HW1 8585   3.238   6.008   3.189
 2562SOL    HW2 8586   3.400   6.012   3.164
 2563SOL     OW 8587   3.708   1.570   6.620
 2563SOL    HW1 8588   3.618   1.531   6.600
 2563SOL    HW2 8589   3.722   1.652   6.564
 2564SOL     OW 8590   2.276   6.821   0.684
 2564SOL    HW1 8591   2.354   6.759   0.695
 2564SOL    HW2 8592   2.287   6.874   0.600
 2565SOL     OW 8593   0.560   1.163   6.554
 2565SOL    HW1 8594   0.534   1.214   6.472
 2565SOL    HW2 8595   0.570   1.227   6.630
 2566SOL     OW 8596   2.873   6.157   1.655
 2566SOL    HW1 8597   2.837   6.064   1.650
 2566SOL    HW2 8598   2.824   6.216   1.591
 2567SOL     OW 8599   1.787   1.301   1.431
 2567SOL    HW1 8600   1.706   1.284   1.376
 2567SOL    HW2 8601   1.852   1.226   1.419
 2568SOL     OW 8602   2.903   6.866   0.989
 2568SOL    HW1 8603   2.881   6.769   0.992
 2568SOL    HW2 8604   2.889   6.906   1.079
 2569SOL     OW 8605   2.904   2.159   1.676
 2569SOL    HW1 8606   2.879   2.237   1.619
 2569SOL    HW2 8607   2.839   2.151   1.752
 2570SOL     OW 8608   5.430   5.871   6.082
 2570SOL    HW1 8609   5.455   5.928   6.161
 2570SOL    HW2 8610   5.472   5.909   6.000
 2571SOL     OW 8611   3.626   2.823   4.819
 2571SOL    HW1 8612   3.649   2.741   4.871
 2571SOL    HW2 8613   3.610   2.899   4.882
 2572SOL     OW 8614   2.363   6.130   1.249
 2572SOL    HW1 8615   2.370   6.160   1.154
 2572SOL    HW2 8616   2.450   6.148   1.296
 2573SOL     OW 8617   6.566   2.092   3.697
 2573SOL    HW1 8618   6.596   2.185   3.675
 2573SOL    HW2 8619   6.470   2.094   3.723
 2574SOL     OW 8620   6.341   3.297   0.860
 2574SOL    HW1 8621   6.358   3.242   0.942
 2574SOL    HW2 8622   6.252   3.274   0.822
 2575SOL     OW 8623   5.297   3.803   1.222
 2575SOL    HW1 8624   5.237   3.798   1.302
 2575SOL    HW2 8625   5.384   3.843   1.248
 2576SOL     OW 8626   3.584   6.838   3.763
 2576SOL    HW1 8627   3.556   6.769   3.696
 2576SOL    HW2 8628   3.542   6.926   3.738
 2577SOL     OW 8629   4.166   0.725   3.861
 2577SOL    HW1 8630   4.104   0.646   3.864
 2577SOL    HW2 8631   4.124   0.802   3.910
 2578SOL     OW 8632   5.265   3.091   5.181
 2578SOL    HW1 8633   5.192   3.133   5.128
 2578SOL    HW2 8634   5.236   3.000   5.212
 2579SOL     OW 8635   0.740   1.201   5.382
 2579SOL    HW1 8636   0.698   1.132   5.323
 2579SOL    HW2 8637   0.681   1.217   5.461
 2580SOL     OW 8638   1.960   2.893   5.502
 2580SOL    HW1 8639   1.949   2.927   5.409
 2580SOL    HW2 8640   2.055   2.866   5.517
 2581SOL     OW 8641   5.545   4.907   1.756
 2581SOL    HW1 8642   5.632   4.883   1.799
 2581SOL    HW2 8643   5.491   4.824   1.741
 2582SOL     OW 8644   2.249   4.765   3.141
 2582SOL    HW1 8645   2.335   4.715   3.130
 2582SOL    HW2 8646   2.184   4.707   3.191
 2583SOL     OW 8647   1.395   0.875   1.317
 2583SOL    HW1 8648   1.338   0.802   1.281
 2583SOL    HW2 8649   1.346   0.924   1.390
 2584SOL     OW 8650   4.032   6.562   0.676
 2584SOL    HW1 8651   4.070   6.520   0.758
 2584SOL    HW2 8652   3.960   6.627   0.702
 2585SOL     OW 8653   3.153   0.584   0.723
 2585SOL    HW1 8654   3.141   0.628   0.634
 2585SOL    HW2 8655   3.138   0.652   0.796
 2586SOL     OW 8656   5.438   1.237   5.170
 2586SOL    HW1 8657   5.384   1.321   5.181
 2586SOL    HW2 8658   5.410   1.191   5.086
 2587SOL     OW 8659   6.958   0.184   4.410
 2587SOL    HW1 8660   6.933   0.239   4.490
 2587SOL    HW2 8661   7.004   0.101   4.441
 2588SOL     OW 8662   5.361   0.072   0.808
 2588SOL    HW1 8663   5.432   0.142   0.816
 2588SOL    HW2 8664   5.282   0.110   0.760
 2589SOL     OW 8665   7.014   6.756   4.917
 2589SOL    HW1 8666   0.010   6.692   4.843
 2589SOL    HW2 8667   6.918   6.785   4.912
 2590SOL     OW 8668   3.910   0.330   2.697
 2590SOL    HW1 8669   3.884   0.355   2.790
 2590SOL    HW2 8670   4.010   0.335   2.688
 2591SOL     OW 8671   6.167   6.406   1.548
 2591SOL    HW1 8672   6.230   6.383   1.474
 2591SOL    HW2 8673   6.195   6.358   1.632
 2592SOL     OW 8674   2.931   6.169   1.941
 2592SOL    HW1 8675   2.909   6.163   1.843
 2592SOL    HW2 8676   3.023   6.132   1.957
 2593SOL     OW 8677   3.889   6.922   2.106
 2593SOL    HW1 8678   3.927   6.851   2.165
 2593SOL    HW2 8679   3.792   6.936   2.127
 2594SOL     OW 8680   0.711   6.355   5.885
 2594SOL    HW1 8681   0.645   6.391   5.950
 2594SOL    HW2 8682   0.725   6.420   5.811
 2595SOL     OW 8683   0.438   2.229   5.639
 2595SOL    HW1 8684   0.460   2.317   5.596
 2595SOL    HW2 8685   0.495   2.217   5.721
 2596SOL     OW 8686   3.678   2.522   1.753
 2596SOL    HW1 8687   3.643   2.437   1.791
 2596SOL    HW2 8688   3.655   2.598   1.814
 2597SOL     OW 8689   2.092   3.922   1.094
 2597SOL    HW1 8690   2.106   3.978   1.012
 2597SOL    HW2 8691   1.994   3.904   1.105
 2598SOL     OW 8692   5.949   2.682   4.656
 2598SOL    HW1 8693   5.994   2.765   4.622
 2598SOL    HW2 8694   5.976   2.604   4.600
 2599SOL     OW 8695   3.999   5.861   0.074
 2599SOL    HW1 8696   3.965   5.797   0.143
 2599SOL    HW2 8697   3.950   5.947   0.081
 2600SOL     OW 8698   4.959   3.709   4.153
 2600SOL    HW1 8699   4.922   3.649   4.081
 2600SOL    HW2 8700   4.965   3.657   4.238
 2601SOL     OW 8701   3.380   2.413   6.512
 2601SOL    HW1 8702   3.396   2.508   6.485
 2601SOL    HW2 8703   3.462   2.378   6.558
 2602SOL     OW 8704   0.039   4.567   3.213
 2602SOL    HW1 8705   0.128   4.614   3.218
 2602SOL    HW2 8706   6.994   4.620   3.262
 2603SOL     OW 8707   2.595   2.266   1.380
 2603SOL    HW1 8708   2.612   2.217   1.294
 2603SOL    HW2 8709   2.599   2.365   1.363
 2604SOL     OW 8710   5.215   1.114   1.275
 2604SOL    HW1 8711   5.116   1.100   1.268
 2604SOL    HW2 8712   5.261   1.071   1.197
 2605SOL     OW 8713   3.991   4.809   3.150
 2605SOL    HW1 8714   4.035   4.807   3.240
 2605SOL    HW2 8715   3.892   4.808   3.161
 2606SOL     OW 8716   6.805   4.929   0.731
 2606SOL    HW1 8717   6.741   4.969   0.664
 2606SOL    HW2 8718   6.892   4.978   0.728
 2607SOL     OW 8719   0.738   2.041   5.296
 2607SOL    HW1 8720   0.794   1.981   5.354
 2607SOL    HW2 8721   0.762   2.026   5.200
 2608SOL     OW 8722   4.903   6.490   2.874
 2608SOL    HW1 8723   4.861   6.522   2.789
 2608SOL    HW2 8724   4.859   6.405   2.903
 2609SOL     OW 8725   0.442   2.375   1.462
 2609SOL    HW1 8726   0.525   2.335   1.422
 2609SOL    HW2 8727   0.361   2.333   1.420
 2610SOL     OW 8728   7.004   5.036   4.592
 2610SOL    HW1 8729   6.940   4.966   4.561
 2610SOL    HW2 8730   0.015   5.011   4.683
 2611SOL     OW 8731   6.547   6.886   1.029
 2611SOL    HW1 8732   6.500   6.831   0.959
 2611SOL    HW2 8733   6.480   6.915   1.098
 2612SOL     OW 8734   6.491   6.383   5.100
 2612SOL    HW1 8735   6.562   6.324   5.062
 2612SOL    HW2 8736   6.408   6.376   5.045
 2613SOL     OW 8737   3.068   6.396   2.437
 2613SOL    HW1 8738   3.074   6.311   2.386
 2613SOL    HW2 8739   3.076   6.377   2.535
 2614SOL     OW 8740   6.336   5.975   5.947
 2614SOL    HW1 8741   6.289   6.006   5.864
 2614SOL    HW2 8742   6.311   6.035   6.023
 2615SOL     OW 8743   5.924   4.941   3.277
 2615SOL    HW1 8744   6.021   4.928   3.258
 2615SOL    HW2 8745   5.883   4.854   3.301
 2616SOL     OW 8746   3.777   2.949   3.956
 2616SOL    HW1 8747   3.861   2.962   4.007
 2616SOL    HW2 8748   3.701   2.934   4.019
 2617SOL     OW 8749   3.211   5.837   1.089
 2617SOL    HW1 8750   3.256   5.883   1.012
 2617SOL    HW2 8751   3.130   5.788   1.056
 2618SOL     OW 8752   0.611   6.769   4.016
 2618SOL    HW1 8753   0.609   6.743   4.112
 2618SOL    HW2 8754   0.685   6.720   3.970
 2619SOL     OW 8755   3.192   1.283   2.830
 2619SOL    HW1 8756   3.240   1.197   2.848
 2619SOL    HW2 8757   3.259   1.357   2.821
 2620SOL     OW 8758   0.899   5.858   3.658
 2620SOL    HW1 8759   0.919   5.764   3.684
 2620SOL    HW2 8760   0.865   5.860   3.564
 2621SOL     OW 8761   1.487   5.945   3.467
 2621SOL    HW1 8762   1.541   6.028   3.477
 2621SOL    HW2 8763   1.536   5.880   3.408
 2622SOL     OW 8764   2.309   2.480   6.677
 2622SOL    HW1 8765   2.229   2.505   6.623
 2622SOL    HW2 8766   2.280   2.451   6.769
 2623SOL     OW 8767   4.027   1.938   4.732
 2623SOL    HW1 8768   4.094   2.011   4.738
 2623SOL    HW2 8769   3.945   1.970   4.685
 2624SOL     OW 8770   6.802   3.101   3.998
 2624SOL    HW1 8771   6.789   3.005   4.024
 2624SOL    HW2 8772   6.884   3.108   3.941
 2625SOL     OW 8773   2.222   2.919   5.272
 2625SOL    HW1 8774   2.285   2.921   5.194
 2625SOL    HW2 8775   2.270   2.951   5.354
 2626SOL     OW 8776   0.651   6.603   3.665
 2626SOL    HW1 8777   0.586   6.528   3.672
 2626SOL    HW2 8778   0.744   6.570   3.683
 2627SOL     OW 8779   0.466   0.845   4.195
 2627SOL    HW1 8780   0.507   0.905   4.127
 2627SOL    HW2 8781   0.530   0.831   4.271
 2628SOL     OW 8782   3.794   5.765   6.910
 2628SOL    HW1 8783   3.759   5.794   6.999
 2628SOL    HW2 8784   3.893   5.780   6.907
 2629SOL     OW 8785   3.600   4.046   2.135
 2629SOL    HW1 8786   3.657   3.979   2.183
 2629SOL    HW2 8787   3.569   4.116   2.199
 2630SOL     OW 8788   3.701   2.069   2.347
 2630SOL    HW1 8789   3.698   2.089   2.249
 2630SOL    HW2 8790   3.635   1.997   2.368
 2631SOL     OW 8791   4.460   6.811   3.527
 2631SOL    HW1 8792   4.503   6.900   3.540
 2631SOL    HW2 8793   4.474   6.754   3.608
 2632SOL     OW 8794   3.035   2.207   5.862
 2632SOL    HW1 8795   2.970   2.209   5.786
 2632SOL    HW2 8796   3.097   2.130   5.851
 2633SOL     OW 8797   6.358   2.517   5.973
 2633SOL    HW1 8798   6.358   2.602   6.025
 2633SOL    HW2 8799   6.446   2.470   5.986
 2634SOL     OW 8800   2.182   4.018   3.345
 2634SOL    HW1 8801   2.119   4.089   3.379
 2634SOL    HW2 8802   2.272   4.058   3.331
 2635SOL     OW 8803   5.719   5.737   4.166
 2635SOL    HW1 8804   5.747   5.664   4.103
 2635SOL    HW2 8805   5.620   5.731   4.181
 2636SOL     OW 8806   5.486   0.299   5.958
 2636SOL    HW1 8807   5.426   0.379   5.950
 2636SOL    HW2 8808   5.464   0.249   6.042
 2637SOL     OW 8809   6.451   0.910   3.422
 2637SOL    HW1 8810   6.407   0.843   3.483
 2637SOL    HW2 8811   6.538   0.938   3.461
 2638SOL     OW 8812   6.913   6.862   2.964
 2638SOL    HW1 8813   6.888   6.782   2.910
 2638SOL    HW2 8814   7.012   6.873   2.964
 2639SOL     OW 8815   6.752   6.659   1.785
 2639SOL    HW1 8816   6.653   6.653   1.775
 2639SOL    HW2 8817   6.795   6.655   1.695
 2640SOL     OW 8818   6.940   6.378   5.670
 2640SOL    HW1 8819   6.997   6.313   5.620
 2640SOL    HW2 8820   6.916   6.454   5.609
 2641SOL     OW 8821   5.748   3.328   1.515
 2641SOL    HW1 8822   5.841   3.300   1.539
 2641SOL    HW2 8823   5.750   3.383   1.432
 2642SOL     OW 8824   4.641   0.424   4.878
 2642SOL    HW1 8825   4.682   0.390   4.793
 2642SOL    HW2 8826   4.583   0.354   4.919
 2643SOL     OW 8827   0.954   4.718   2.986
 2643SOL    HW1 8828   0.890   4.758   2.921
 2643SOL    HW2 8829   0.967   4.621   2.965
 2644SOL     OW 8830   0.423   4.376   5.173
 2644SOL    HW1 8831   0.475   4.310   5.227
 2644SOL    HW2 8832   0.343   4.330   5.133
 2645SOL     OW 8833   4.671   6.610   5.283
 2645SOL    HW1 8834   4.680   6.530   5.223
 2645SOL    HW2 8835   4.761   6.654   5.293
 2646SOL     OW 8836   6.340   6.657   6.533
 2646SOL    HW1 8837   6.326   6.676   6.630
 2646SOL    HW2 8838   6.369   6.562   6.522
 2647SOL     OW 8839   5.592   0.834   0.850
 2647SOL    HW1 8840   5.582   0.931   0.826
 2647SOL    HW2 8841   5.677   0.821   0.902
 2648SOL     OW 8842   6.776   6.808   3.887
 2648SOL    HW1 8843   6.778   6.858   3.801
 2648SOL    HW2 8844   6.793   6.870   3.963
 2649SOL     OW 8845   4.140   2.015   6.271
 2649SOL    HW1 8846   4.197   1.933   6.270
 2649SOL    HW2 8847   4.197   2.096   6.281
 2650SOL     OW 8848   0.466   3.827   3.929
 2650SOL    HW1 8849   0.533   3.821   4.003
 2650SOL    HW2 8850   0.425   3.918   3.929
 2651SOL     OW 8851   1.581   1.788   0.543
 2651SOL    HW1 8852   1.581   1.736   0.458
 2651SOL    HW2 8853   1.629   1.736   0.614
 2652SOL     OW 8854   3.001   3.702   3.256
 2652SOL    HW1 8855   3.060   3.639   3.204
 2652SOL    HW2 8856   2.954   3.764   3.193
 2653SOL     OW 8857   5.153   6.955   5.103
 2653SOL    HW1 8858   5.252   6.969   5.108
 2653SOL    HW2 8859   5.108   7.003   5.179
 2654SOL     OW 8860   4.609   3.082   0.234
 2654SOL    HW1 8861   4.565   3.127   0.313
 2654SOL    HW2 8862   4.574   3.123   0.150
 2655SOL     OW 8863   4.559   4.487   4.534
 2655SOL    HW1 8864   4.465   4.521   4.542
 2655SOL    HW2 8865   4.623   4.563   4.532
 2656SOL     OW 8866   4.086   4.861   4.335
 2656SOL    HW1 8867   3.994   4.841   4.302
 2656SOL    HW2 8868   4.134   4.918   4.269
 2657SOL     OW 8869   2.704   4.528   6.548
 2657SOL    HW1 8870   2.795   4.569   6.539
 2657SOL    HW2 8871   2.683   4.475   6.466
 2658SOL     OW 8872   5.260   4.199   6.867
 2658SOL    HW1 8873   5.172   4.216   6.912
 2658SOL    HW2 8874   5.291   4.106   6.889
 2659SOL     OW 8875   6.155   2.318   4.257
 2659SOL    HW1 8876   6.236   2.355   4.304
 2659SOL    HW2 8877   6.160   2.340   4.160
 2660SOL     OW 8878   0.811   1.925   0.803
 2660SOL    HW1 8879   0.757   1.993   0.753
 2660SOL    HW2 8880   0.751   1.877   0.868
 2661SOL     OW 8881   2.338   6.586   1.869
 2661SOL    HW1 8882   2.318   6.645   1.947
 2661SOL    HW2 8883   2.407   6.629   1.811
 2662SOL     OW 8884   4.408   0.230   4.637
 2662SOL    HW1 8885   4.368   0.217   4.728
 2662SOL    HW2 8886   4.505   0.203   4.639
 2663SOL     OW 8887   2.662   4.880   0.957
 2663SOL    HW1 8888   2.668   4.900   1.055
 2663SOL    HW2 8889   2.571   4.845   0.936
 2664SOL     OW 8890   3.838   3.616   3.444
 2664SOL    HW1 8891   3.852   3.628   3.345
 2664SOL    HW2 8892   3.745   3.644   3.468
 2665SOL     OW 8893   3.240   1.780   4.920
 2665SOL    HW1 8894   3.176   1.715   4.960
 2665SOL    HW2 8895   3.199   1.822   4.839
 2666SOL     OW 8896   4.983   3.563   1.458
 2666SOL    HW1 8897   4.996   3.466   1.440
 2666SOL    HW2 8898   4.950   3.576   1.551
 2667SOL     OW 8899   1.581   5.628   4.864
 2667SOL    HW1 8900   1.512   5.687   4.906
 2667SOL    HW2 8901   1.555   5.532   4.878
 2668SOL     OW 8902   6.234   3.238   3.536
 2668SOL    HW1 8903   6.280   3.297   3.603
 2668SOL    HW2 8904   6.139   3.268   3.526
 2669SOL     OW 8905   3.087   4.863   5.437
 2669SOL    HW1 8906   3.133   4.949   5.416
 2669SOL    HW2 8907   3.155   4.790   5.449
 2670SOL     OW 8908   5.732   1.182   6.319
 2670SOL    HW1 8909   5.830   1.170   6.335
 2670SOL    HW2 8910   5.681   1.137   6.393
 2671SOL     OW 8911   3.173   4.951   0.341
 2671SOL    HW1 8912   3.225   4.946   0.256
 2671SOL    HW2 8913   3.181   5.043   0.379
 2672SOL     OW 8914   0.832   5.505   6.480
 2672SOL    HW1 8915   0.884   5.573   6.427
 2672SOL    HW2 8916   0.888   5.424   6.495
 2673SOL     OW 8917   5.338   2.731   3.856
 2673SOL    HW1 8918   5.275   2.764   3.927
 2673SOL    HW2 8919   5.390   2.653   3.892
 2674SOL     OW 8920   2.360   4.295   4.471
 2674SOL    HW1 8921   2.402   4.313   4.382
 2674SOL    HW2 8922   2.395   4.360   4.538
 2675SOL     OW 8923   0.739   4.440   5.472
 2675SOL    HW1 8924   0.741   4.492   5.386
 2675SOL    HW2 8925   0.833   4.418   5.499
 2676SOL     OW 8926   4.372   0.704   3.018
 2676SOL    HW1 8927   4.370   0.762   2.937
 2676SOL    HW2 8928   4.459   0.718   3.066
 2677SOL     OW 8929   3.366   5.174   1.325
 2677SOL    HW1 8930   3.288   5.237   1.321
 2677SOL    HW2 8931   3.451   5.225   1.315
 2678SOL     OW 8932   0.113   4.183   0.819
 2678SOL    HW1 8933   0.147   4.116   0.884
 2678SOL    HW2 8934   0.093   4.269   0.866
 2679SOL     OW 8935   4.602   5.522   1.060
 2679SOL    HW1 8936   4.665   5.483   0.992
 2679SOL    HW2 8937   4.526   5.568   1.013
 2680SOL     OW 8938   1.540   1.441   0.816
 2680SOL    HW1 8939   1.469   1.381   0.779
 2680SOL    HW2 8940   1.498   1.508   0.878
 2681SOL     OW 8941   1.394   2.266   4.180
 2681SOL    HW1 8942   1.402   2.267   4.279
 2681SOL    HW2 8943   1.349   2.181   4.151
 2682SOL     OW 8944   5.503   3.413   2.205
 2682SOL    HW1 8945   5.575   3.345   2.193
 2682SOL    HW2 8946   5.418   3.379   2.164
 2683SOL     OW 8947   1.688   3.633   0.361
 2683SOL    HW1 8948   1.728   3.542   0.351
 2683SOL    HW2 8949   1.743   3.687   0.425
 2684SOL     OW 8950   3.999   5.040   3.013
 2684SOL    HW1 8951   4.082   5.025   2.958
 2684SOL    HW2 8952   3.998   4.976   3.089
 2685SOL     OW 8953   6.878   6.585   5.464
 2685SOL    HW1 8954   6.804   6.624   5.519
 2685SOL    HW2 8955   6.896   6.644   5.385
 2686SOL     OW 8956   1.634   2.391   5.218
 2686SOL    HW1 8957   1.707   2.392   5.149
 2686SOL    HW2 8958   1.624   2.483   5.256
 2687SOL     OW 8959   4.469   4.681   2.933
 2687SOL    HW1 8960   4.455   4.779   2.922
 2687SOL    HW2 8961   4.526   4.664   3.013
 2688SOL     OW 8962   4.377   5.669   6.302
 2688SOL    HW1 8963   4.337   5.736   6.240
 2688SOL    HW2 8964   4.327   5.669   6.389
 2689SOL     OW 8965   2.672   2.018   3.307
 2689SOL    HW1 8966   2.712   2.110   3.309
 2689SOL    HW2 8967   2.711   1.964   3.381
 2690SOL     OW 8968   3.018   3.430   3.602
 2690SOL    HW1 8969   2.990   3.471   3.689
 2690SOL    HW2 8970   3.094   3.483   3.564
 2691SOL     OW 8971   1.683   5.271   2.305
 2691SOL    HW1 8972   1.590   5.275   2.269
 2691SOL    HW2 8973   1.734   5.353   2.278
 2692SOL     OW 8974   5.191   5.865   4.266
 2692SOL    HW1 8975   5.124   5.876   4.193
 2692SOL    HW2 8976   5.162   5.918   4.346
 2693SOL     OW 8977   1.909   4.354   2.923
 2693SOL    HW1 8978   1.870   4.305   3.002
 2693SOL    HW2 8979   1.925   4.289   2.849
 2694SOL     OW 8980   3.566   0.761   2.889
 2694SOL    HW1 8981   3.501   0.725   2.822
 2694SOL    HW2 8982   3.654   0.780   2.844
 2695SOL     OW 8983   5.409   1.692   2.671
 2695SOL    HW1 8984   5.452   1.626   2.733
 2695SOL    HW2 8985   5.415   1.784   2.711
 2696SOL     OW 8986   3.412   2.802   5.170
 2696SOL    HW1 8987   3.402   2.731   5.100
 2696SOL    HW2 8988   3.508   2.830   5.175
 2697SOL     OW 8989   4.896   2.045   3.815
 2697SOL    HW1 8990   4.911   2.121   3.878
 2697SOL    HW2 8991   4.892   1.959   3.867
 2698SOL     OW 8992   2.197   5.533   0.905
 2698SOL    HW1 8993   2.201   5.434   0.892
 2698SOL    HW2 8994   2.132   5.572   0.839
 2699SOL     OW 8995   3.370   5.676   0.473
 2699SOL    HW1 8996   3.332   5.586   0.450
 2699SOL    HW2 8997   3.296   5.738   0.500
 2700SOL     OW 8998   2.092   3.284   2.140
 2700SOL    HW1 8999   2.145   3.337   2.074
 2700SOL    HW2 9000   2.132   3.193   2.151
 2701SOL     OW 9001   3.942   0.161   6.490
 2701SOL    HW1 9002   4.011   0.193   6.425
 2701SOL    HW2 9003   3.855   0.208   6.472
 2702SOL     OW 9004   0.228   1.454   3.868
 2702SOL    HW1 9005   0.232   1.543   3.823
 2702SOL    HW2 9006   0.135   1.417   3.861
 2703SOL     OW 9007   2.228   1.019   2.635
 2703SOL    HW1 9008   2.278   0.991   2.552
 2703SOL    HW2 9009   2.246   0.954   2.708
 2704SOL     OW 9010   1.036   5.231   0.561
 2704SOL    HW1 9011   1.122   5.260   0.518
 2704SOL    HW2 9012   1.031   5.270   0.653
 2705SOL     OW 9013   0.951   5.347   4.090
 2705SOL    HW1 9014   0.986   5.368   4.181
 2705SOL    HW2 9015   1.006   5.394   4.021
 2706SOL     OW 9016   0.515   0.779   1.399
 2706SOL    HW1 9017   0.582   0.830   1.344
 2706SOL    HW2 9018   0.423   0.816   1.382
 2707SOL     OW 9019   2.485   1.014   5.864
 2707SOL    HW1 9020   2.536   0.928   5.864
 2707SOL    HW2 9021   2.549   1.090   5.857
 2708SOL     OW 9022   1.608   2.882   1.420
 2708SOL    HW1 9023   1.612   2.917   1.514
 2708SOL    HW2 9024   1.701   2.864   1.388
 2709SOL     OW 9025   5.623   6.474   1.125
 2709SOL    HW1 9026   5.627   6.568   1.159
 2709SOL    HW2 9027   5.671   6.414   1.188
 2710SOL     OW 9028   6.593   2.944   2.909
 2710SOL    HW1 9029   6.526   2.955   2.983
 2710SOL    HW2 9030   6.579   2.855   2.865
 2711SOL     OW 9031   3.238   0.676   2.907
 2711SOL    HW1 9032   3.154   0.628   2.934
 2711SOL    HW2 9033   3.215   0.765   2.870
 2712SOL     OW 9034   3.959   5.281   0.936
 2712SOL    HW1 9035   4.048   5.240   0.956
 2712SOL    HW2 9036   3.973   5.363   0.880
 2713SOL     OW 9037   1.535   2.455   4.350
 2713SOL    HW1 9038   1.530   2.550   4.382
 2713SOL    HW2 9039   1.618   2.443   4.295
 2714SOL     OW 9040   4.759   2.304   0.154
 2714SOL    HW1 9041   4.796   2.397   0.147
 2714SOL    HW2 9042   4.689   2.301   0.226
 2715SOL     OW 9043   5.840   0.060   0.322
 2715SOL    HW1 9044   5.927   0.084   0.278
 2715SOL    HW2 9045   5.797   0.144   0.357
 2716SOL     OW 9046   5.999   5.401   1.855
 2716SOL    HW1 9047   6.029   5.343   1.779
 2716SOL    HW2 9048   6.050   5.377   1.938
 2717SOL     OW 9049   1.217   5.220   1.821
 2717SOL    HW1 9050   1.258   5.265   1.900
 2717SOL    HW2 9051   1.192   5.126   1.846
 2718SOL     OW 9052   2.117   3.497   4.588
 2718SOL    HW1 9053   2.145   3.450   4.672
 2718SOL    HW2 9054   2.183   3.477   4.516
 2719SOL     OW 9055   5.025   4.889   1.624
 2719SOL    HW1 9056   5.038   4.933   1.534
 2719SOL    HW2 9057   5.080   4.806   1.628
 2720SOL     OW 9058   1.917   6.029   3.479
 2720SOL    HW1 9059   1.974   6.023   3.561
 2720SOL    HW2 9060   1.900   5.937   3.444
 2721SOL     OW 9061   2.706   0.333   5.247
 2721SOL    HW1 9062   2.722   0.254   5.306
 2721SOL    HW2 9063   2.634   0.390   5.287
 2722SOL     OW 9064   6.536   5.464   2.830
 2722SOL    HW1 9065   6.599   5.541   2.824
 2722SOL    HW2 9066   6.580   5.388   2.879
 2723SOL     OW 9067   1.679   0.156   6.263
 2723SOL    HW1 9068   1.667   0.254   6.279
 2723SOL    HW2 9069   1.692   0.109   6.350
 2724SOL     OW 9070   3.580   6.762   6.052
 2724SOL    HW1 9071   3.547   6.713   6.132
 2724SOL    HW2 9072   3.508   6.821   6.017
 2725SOL     OW 9073   6.160   5.188   3.086
 2725SOL    HW1 9074   6.171   5.276   3.039
 2725SOL    HW2 9075   6.178   5.114   3.021
 2726SOL     OW 9076   6.184   4.254   1.154
 2726SOL    HW1 9077   6.255   4.232   1.087
 2726SOL    HW2 9078   6.108   4.191   1.144
 2727SOL     OW 9079   0.207   4.818   2.643
 2727SOL    HW1 9080   0.239   4.729   2.612
 2727SOL    HW2 9081   0.183   4.875   2.564
 2728SOL     OW 9082   3.215   0.384   5.585
 2728SOL    HW1 9083   3.196   0.287   5.569
 2728SOL    HW2 9084   3.294   0.394   5.645
 2729SOL     OW 9085   6.931   5.861   1.742
 2729SOL    HW1 9086   7.018   5.910   1.731
 2729SOL    HW2 9087   6.924   5.791   1.671
 2730SOL     OW 9088   1.642   6.600   0.786
 2730SOL    HW1 9089   1.544   6.617   0.793
 2730SOL    HW2 9090   1.674   6.551   0.868
 2731SOL     OW 9091   3.590   3.796   1.527
 2731SOL    HW1 9092   3.546   3.706   1.533
 2731SOL    HW2 9093   3.674   3.795   1.581
 2732SOL     OW 9094   6.082   3.202   2.532
 2732SOL    HW1 9095   6.157   3.165   2.587
 2732SOL    HW2 9096   6.107   3.198   2.435
 2733SOL     OW 9097   0.412   6.881   5.025
 2733SOL    HW1 9098   0.458   6.810   5.079
 2733SOL    HW2 9099   0.468   6.964   5.024
 2734SOL     OW 9100   1.999   5.174   2.394
 2734SOL    HW1 9101   2.011   5.223   2.308
 2734SOL    HW2 9102   2.000   5.239   2.470
 2735SOL     OW 9103   0.769   3.549   2.732
 2735SOL    HW1 9104   0.779   3.580   2.638
 2735SOL    HW2 9105   0.677   3.512   2.745
 2736SOL     OW 9106   4.967   0.566   3.439
 2736SOL    HW1 9107   5.002   0.477   3.467
 2736SOL    HW2 9108   4.890   0.591   3.497
 2737SOL     OW 9109   3.305   3.257   5.532
 2737SOL    HW1 9110   3.366   3.193   5.486
 2737SOL    HW2 9111   3.305   3.239   5.630
 2738SOL     OW 9112   5.113   5.275   4.309
 2738SOL    HW1 9113   5.096   5.332   4.389
 2738SOL    HW2 9114   5.148   5.185   4.338
 2739SOL     OW 9115   6.209   4.794   0.417
 2739SOL    HW1 9116   6.174   4.888   0.411
 2739SOL    HW2 9117   6.247   4.779   0.508
 2740SOL     OW 9118   5.398   2.472   2.405
 2740SOL    HW1 9119   5.484   2.519   2.420
 2740SOL    HW2 9120   5.366   2.432   2.491
 2741SOL     OW 9121   6.951   1.787   6.532
 2741SOL    HW1 9122   7.020   1.750   6.593
 2741SOL    HW2 9123   6.967   1.752   6.439
 2742SOL     OW 9124   1.676   5.350   6.566
 2742SOL    HW1 9125   1.727   5.265   6.559
 2742SOL    HW2 9126   1.595   5.346   6.507
 2743SOL     OW 9127   6.312   5.333   1.596
 2743SOL    HW1 9128   6.304   5.420   1.547
 2743SOL    HW2 9129   6.349   5.263   1.534
 2744SOL     OW 9130   3.739   3.127   6.793
 2744SOL    HW1 9131   3.665   3.177   6.749
 2744SOL    HW2 9132   3.753   3.040   6.745
 2745SOL     OW 9133   1.453   0.215   6.836
 2745SOL    HW1 9134   1.389   0.262   6.897
 2745SOL    HW2 9135   1.448   0.117   6.851
 2746SOL     OW 9136   2.086   2.611   4.354
 2746SOL    HW1 9137   2.162   2.552   4.380
 2746SOL    HW2 9138   2.076   2.685   4.420
 2747SOL     OW 9139   5.540   4.099   5.103
 2747SOL    HW1 9140   5.560   4.080   5.199
 2747SOL    HW2 9141   5.570   4.021   5.047
 2748SOL     OW 9142   3.704   1.299   1.322
 2748SOL    HW1 9143   3.762   1.362   1.269
 2748SOL    HW2 9144   3.763   1.238   1.375
 2749SOL     OW 9145   5.936   4.505   3.932
 2749SOL    HW1 9146   5.898   4.415   3.949
 2749SOL    HW2 9147   5.925   4.562   4.014
 2750SOL     OW 9148   0.505   5.588   1.632
 2750SOL    HW1 9149   0.426   5.647   1.617
 2750SOL    HW2 9150   0.532   5.591   1.728
 2751SOL     OW 9151   1.874   0.053   0.530
 2751SOL    HW1 9152   1.872   0.146   0.491
 2751SOL    HW2 9153   1.851   7.010   0.458
 2752SOL     OW 9154   5.452   5.567   5.183
 2752SOL    HW1 9155   5.359   5.580   5.217
 2752SOL    HW2 9156   5.497   5.495   5.236
 2753SOL     OW 9157   1.738   6.807   5.973
 2753SOL    HW1 9158   1.706   6.896   6.005
 2753SOL    HW2 9159   1.815   6.821   5.911
 2754SOL     OW 9160   6.404   0.626   4.196
 2754SOL    HW1 9161   6.481   0.572   4.230
 2754SOL    HW2 9162   6.423   0.655   4.102
 2755SOL     OW 9163   2.806   6.656   3.056
 2755SOL    HW1 9164   2.766   6.573   3.092
 2755SOL    HW2 9165   2.737   6.729   3.053
 2756SOL     OW 9166   5.847   3.865   4.246
 2756SOL    HW1 9167   5.903   3.935   4.201
 2756SOL    HW2 9168   5.899   3.780   4.254
 2757SOL     OW 9169   2.750   1.823   6.922
 2757SOL    HW1 9170   2.713   1.755   6.984
 2757SOL    HW2 9171   2.679   1.890   6.899
 2758SOL     OW 9172   5.324   6.055   3.791
 2758SOL    HW1 9173   5.341   5.956   3.785
 2758SOL    HW2 9174   5.243   6.078   3.736
 2759SOL     OW 9175   3.549   5.306   5.079
 2759SOL    HW1 9176   3.468   5.254   5.051
 2759SOL    HW2 9177   3.601   5.253   5.146
 2760SOL     OW 9178   6.649   5.230   2.896
 2760SOL    HW1 9179   6.737   5.250   2.938
 2760SOL    HW2 9180   6.614   5.143   2.933
 2761SOL     OW 9181   2.044   3.785   3.694
 2761SOL    HW1 9182   1.957   3.834   3.706
 2761SOL    HW2 9183   2.028   3.687   3.699
 2762SOL     OW 9184   1.227   2.268   6.647
 2762SOL    HW1 9185   1.196   2.364   6.645
 2762SOL    HW2 9186   1.280   2.252   6.729
 2763SOL     OW 9187   5.218   1.983   5.651
 2763SOL    HW1 9188   5.205   1.922   5.730
 2763SOL    HW2 9189   5.145   1.966   5.584
 2764SOL     OW 9190   0.103   5.347   2.824
 2764SOL    HW1 9191   0.190   5.299   2.812
 2764SOL    HW2 9192   0.120   5.445   2.831
 2765SOL     OW 9193   0.142   0.428   1.141
 2765SOL    HW1 9194   0.081   0.489   1.091
 2765SOL    HW2 9195   0.194   0.372   1.077
 2766SOL     OW 9196   4.263   0.713   6.859
 2766SOL    HW1 9197   4.215   0.627   6.840
 2766SOL    HW2 9198   4.327   0.732   6.784
 2767SOL     OW 9199   6.053   5.939   6.717
 2767SOL    HW1 9200   6.019   6.033   6.716
 2767SOL    HW2 9201   6.034   5.895   6.630
 2768SOL     OW 9202   4.194   1.116   0.164
 2768SOL    HW1 9203   4.172   1.022   0.137
 2768SOL    HW2 9204   4.294   1.127   0.165
 2769SOL     OW 9205   2.232   4.419   6.152
 2769SOL    HW1 9206   2.278   4.442   6.067
 2769SOL    HW2 9207   2.273   4.471   6.228
 2770SOL     OW 9208   4.078   6.041   6.278
 2770SOL    HW1 9209   4.053   6.098   6.356
 2770SOL    HW2 9210   4.032   5.952   6.285
 2771SOL     OW 9211   5.384   7.020   4.793
 2771SOL    HW1 9212   5.428   0.058   4.728
 2771SOL    HW2 9213   5.285   0.013   4.793
 2772SOL     OW 9214   3.216   1.519   2.293
 2772SOL    HW1 9215   3.197   1.438   2.348
 2772SOL    HW2 9216   3.193   1.502   2.198
 2773SOL     OW 9217   0.287   3.185   3.984
 2773SOL    HW1 9218   0.320   3.273   3.949
 2773SOL    HW2 9219   0.365   3.127   4.008
 2774SOL     OW 9220   5.149   3.202   2.626
 2774SOL    HW1 9221   5.153   3.126   2.691
 2774SOL    HW2 9222   5.111   3.282   2.671
 2775SOL     OW 9223   6.607   3.624   3.914
 2775SOL    HW1 9224   6.611   3.525   3.903
 2775SOL    HW2 9225   6.700   3.661   3.922
 2776SOL     OW 9226   5.285   4.947   6.089
 2776SOL    HW1 9227   5.298   4.961   6.187
 2776SOL    HW2 9228   5.192   4.974   6.064
 2777SOL     OW 9229   2.415   1.685   6.238
 2777SOL    HW1 9230   2.315   1.679   6.238
 2777SOL    HW2 9231   2.446   1.730   6.321
 2778SOL     OW 9232   2.102   6.058   6.437
 2778SOL    HW1 9233   2.027   5.994   6.455
 2778SOL    HW2 9234   2.071   6.151   6.455
 2779SOL     OW 9235   5.667   6.670   2.033
 2779SOL    HW1 9236   5.576   6.638   2.005
 2779SOL    HW2 9237   5.733   6.595   2.024
 2780SOL     OW 9238   6.914   7.010   6.178
 2780SOL    HW1 9239   7.005   7.010   6.135
 2780SOL    HW2 9240   6.855   0.052   6.130
 2781SOL     OW 9241   5.767   0.461   2.886
 2781SOL    HW1 9242   5.783   0.370   2.924
 2781SOL    HW2 9243   5.854   0.500   2.855
 2782SOL     OW 9244   4.283   1.310   5.284
 2782SOL    HW1 9245   4.328   1.238   5.336
 2782SOL    HW2 9246   4.350   1.358   5.227
 2783SOL     OW 9247   6.220   3.632   1.266
 2783SOL    HW1 9248   6.148   3.591   1.321
 2783SOL    HW2 9249   6.286   3.678   1.326
 2784SOL     OW 9250   2.984   1.786   2.030
 2784SOL    HW1 9251   2.954   1.807   1.937
 2784SOL    HW2 9252   3.038   1.862   2.066
 2785SOL     OW 9253   5.262   2.362   0.836
 2785SOL    HW1 9254   5.251   2.308   0.919
 2785SOL    HW2 9255   5.354   2.400   0.832
 2786SOL     OW 9256   6.614   5.689   1.263
 2786SOL    HW1 9257   6.680   5.740   1.317
 2786SOL    HW2 9258   6.625   5.591   1.279
 2787SOL     OW 9259   6.595   5.969   5.909
 2787SOL    HW1 9260   6.497   5.985   5.918
 2787SOL    HW2 9261   6.633   6.032   5.841
 2788SOL     OW 9262   3.167   6.093   6.426
 2788SOL    HW1 9263   3.113   6.122   6.504
 2788SOL    HW2 9264   3.110   6.039   6.364
 2789SOL     OW 9265   1.503   2.454   3.662
 2789SOL    HW1 9266   1.475   2.532   3.606
 2789SOL    HW2 9267   1.523   2.376   3.603
 2790SOL     OW 9268   3.287   4.842   0.557
 2790SOL    HW1 9269   3.275   4.899   0.476
 2790SOL    HW2 9270   3.306   4.899   0.636
 2791SOL     OW 9271   0.191   4.313   2.322
 2791SOL    HW1 9272   0.243   4.398   2.330
 2791SOL    HW2 9273   0.212   4.270   2.234
 2792SOL     OW 9274   3.217   1.097   4.063
 2792SOL    HW1 9275   3.262   1.015   4.028
 2792SOL    HW2 9276   3.233   1.173   4.001
 2793SOL     OW 9277   5.163   3.790   1.816
 2793SOL    HW1 9278   5.217   3.844   1.881
 2793SOL    HW2 9279   5.140   3.701   1.857
 2794SOL     OW 9280   6.910   1.717   6.016
 2794SOL    HW1 9281   6.852   1.788   5.975
 2794SOL    HW2 9282   6.879   1.627   5.985
 2795SOL     OW 9283   0.588   4.994   0.881
 2795SOL    HW1 9284   0.683   4.975   0.906
 2795SOL    HW2 9285   0.534   5.004   0.965
 2796SOL     OW 9286   0.459   5.282   4.465
 2796SOL    HW1 9287   0.428   5.200   4.418
 2796SOL    HW2 9288   0.381   5.329   4.505
 2797SOL     OW 9289   5.207   5.351   5.911
 2797SOL    HW1 9290   5.133   5.359   5.978
 2797SOL    HW2 9291   5.196   5.420   5.840
 2798SOL     OW 9292   6.946   5.673   2.610
 2798SOL    HW1 9293   6.966   5.755   2.556
 2798SOL    HW2 9294   6.934   5.595   2.549
 2799SOL     OW 9295   5.015   5.484   5.521
 2799SOL    HW1 9296   4.996   5.505   5.617
 2799SOL    HW2 9297   4.966   5.402   5.494
 2800SOL     OW 9298   5.959   0.792   6.717
 2800SOL    HW1 9299   5.992   0.778   6.624
 2800SOL    HW2 9300   5.967   0.707   6.768
 2801SOL     OW 9301   1.671   5.547   5.625
 2801SOL    HW1 9302   1.614   5.466   5.610
 2801SOL    HW2 9303   1.614   5.622   5.659
 2802SOL     OW 9304   6.728   6.269   5.342
 2802SOL    HW1 9305   6.769   6.326   5.271
 2802SOL    HW2 9306   6.634   6.299   5.358
 2803SOL     OW 9307   3.239   4.407   5.622
 2803SOL    HW1 9308   3.185   4.399   5.538
 2803SOL    HW2 9309   3.293   4.324   5.635
 2804SOL     OW 9310   0.409   3.519   3.928
 2804SOL    HW1 9311   0.417   3.617   3.913
 2804SOL    HW2 9312   0.500   3.480   3.943
 2805SOL     OW 9313   5.581   3.890   2.336
 2805SOL    HW1 9314   5.659   3.869   2.277
 2805SOL    HW2 9315   5.523   3.809   2.345
 2806SOL     OW 9316   1.468   4.539   6.962
 2806SOL    HW1 9317   1.455   4.566   0.035
 2806SOL    HW2 9318   1.564   4.551   6.937
 2807SOL     OW 9319   3.660   0.460   3.122
 2807SOL    HW1 9320   3.577   0.514   3.131
 2807SOL    HW2 9321   3.707   0.457   3.210
 2808SOL     OW 9322   5.853   6.164   0.909
 2808SOL    HW1 9323   5.767   6.153   0.960
 2808SOL    HW2 9324   5.846   6.243   0.848
 2809SOL     OW 9325   5.791   2.808   1.825
 2809SOL    HW1 9326   5.716   2.765   1.774
 2809SOL    HW2 9327   5.789   2.776   1.920
 2810SOL     OW 9328   2.265   5.245   2.581
 2810SOL    HW1 9329   2.175   5.287   2.576
 2810SOL    HW2 9330   2.333   5.308   2.542
 2811SOL     OW 9331   0.873   1.074   2.593
 2811SOL    HW1 9332   0.957   1.059   2.541
 2811SOL    HW2 9333   0.888   1.048   2.689
 2812SOL     OW 9334   6.532   3.063   0.404
 2812SOL    HW1 9335   6.625   3.031   0.424
 2812SOL    HW2 9336   6.523   3.158   0.435
 2813SOL     OW 9337   0.399   1.627   0.636
 2813SOL    HW1 9338   0.469   1.628   0.708
 2813SOL    HW2 9339   0.411   1.707   0.577
 2814SOL     OW 9340   3.302   4.115   5.590
 2814SOL    HW1 9341   3.330   4.033   5.639
 2814SOL    HW2 9342   3.204   4.129   5.601
 2815SOL     OW 9343   0.479   6.138   5.828
 2815SOL    HW1 9344   0.495   6.142   5.927
 2815SOL    HW2 9345   0.532   6.211   5.783
 2816SOL     OW 9346   6.940   5.849   4.978
 2816SOL    HW1 9347   6.877   5.780   5.014
 2816SOL    HW2 9348   0.011   5.820   4.995
 2817SOL     OW 9349   3.734   1.359   2.098
 2817SOL    HW1 9350   3.732   1.366   1.998
 2817SOL    HW2 9351   3.642   1.373   2.134
 2818SOL     OW 9352   0.529   1.052   0.985
 2818SOL    HW1 9353   0.575   1.119   0.927
 2818SOL    HW2 9354   0.482   1.100   1.060
 2819SOL     OW 9355   1.475   0.345   0.916
 2819SOL    HW1 9356   1.408   0.315   0.849
 2819SOL    HW2 9357   1.524   0.266   0.953
 2820SOL     OW 9358   1.085   1.964   2.045
 2820SOL    HW1 9359   1.144   2.004   2.116
 2820SOL    HW2 9360   1.132   1.968   1.957
 2821SOL     OW 9361   3.304   5.076   5.865
 2821SOL    HW1 9362   3.259   5.161   5.840
 2821SOL    HW2 9363   3.281   5.052   5.959
 2822SOL     OW 9364   3.646   2.754   0.139
 2822SOL    HW1 9365   3.594   2.831   0.178
 2822SOL    HW2 9366   3.718   2.727   0.203
 2823SOL     OW 9367   5.244   0.933   0.074
 2823SOL    HW1 9368   5.264   0.973   0.163
 2823SOL    HW2 9369   5.234   1.006   0.006
 2824SOL     OW 9370   1.645   3.490   5.117
 2824SOL    HW1 9371   1.725   3.548   5.136
 2824SOL    HW2 9372   1.608   3.513   5.027
 2825SOL     OW 9373   5.379   0.488   6.609
 2825SOL    HW1 9374   5.369   0.574   6.660
 2825SOL    HW2 9375   5.358   0.504   6.513
 2826SOL     OW 9376   1.690   3.076   6.265
 2826SOL    HW1 9377   1.718   2.995   6.315
 2826SOL    HW2 9378   1.597   3.064   6.230
 2827SOL     OW 9379   0.569   0.680   6.415
 2827SOL    HW1 9380   0.485   0.732   6.431
 2827SOL    HW2 9381   0.640   0.711   6.479
 2828SOL     OW 9382   1.722   3.562   1.488
 2828SOL    HW1 9383   1.790   3.617   1.439
 2828SOL    HW2 9384   1.659   3.623   1.536
 2829SOL     OW 9385   3.715   3.536   3.096
 2829SOL    HW1 9386   3.803   3.582   3.109
 2829SOL    HW2 9387   3.692   3.536   2.999
 2830SOL     OW 9388   3.557   4.334   5.293
 2830SOL    HW1 9389   3.561   4.234   5.293
 2830SOL    HW2 9390   3.547   4.367   5.387
 2831SOL     OW 9391   0.235   1.948   2.576
 2831SOL    HW1 9392   0.324   1.978   2.611
 2831SOL    HW2 9393   0.214   1.999   2.493
 2832SOL     OW 9394   0.794   3.225   1.367
 2832SOL    HW1 9395   0.868   3.187   1.312
 2832SOL    HW2 9396   0.765   3.158   1.435
 2833SOL     OW 9397   2.247   1.351   2.478
 2833SOL    HW1 9398   2.345   1.362   2.497
 2833SOL    HW2 9399   2.235   1.283   2.406
 2834SOL     OW 9400   4.980   6.114   5.115
 2834SOL    HW1 9401   4.976   6.041   5.047
 2834SOL    HW2 9402   4.887   6.138   5.144
 2835SOL     OW 9403   1.204   6.201   0.135
 2835SOL    HW1 9404   1.302   6.215   0.152
 2835SOL    HW2 9405   1.184   6.221   0.039
 2836SOL     OW 9406   3.454   6.244   3.027
 2836SOL    HW1 9407   3.537   6.225   2.975
 2836SOL    HW2 9408   3.405   6.159   3.045
 2837SOL     OW 9409   5.884   4.041   2.215
 2837SOL    HW1 9410   5.919   4.080   2.300
 2837SOL    HW2 9411   5.961   4.015   2.156
 2838SOL     OW 9412   4.916   4.169   6.740
 2838SOL    HW1 9413   4.992   4.152   6.677
 2838SOL    HW2 9414   4.948   4.161   6.834
 2839SOL     OW 9415   6.777   2.380   3.357
 2839SOL    HW1 9416   6.825   2.337   3.281
 2839SOL    HW2 9417   6.794   2.327   3.441
 2840SOL     OW 9418   1.443   5.420   2.745
 2840SOL    HW1 9419   1.430   5.336   2.797
 2840SOL    HW2 9420   1.424   5.403   2.648
 2841SOL     OW 9421   6.110   2.457   0.612
 2841SOL    HW1 9422   6.074   2.550   0.610
 2841SOL    HW2 9423   6.036   2.393   0.627
 2842SOL     OW 9424   1.321   5.700   5.145
 2842SOL    HW1 9425   1.330   5.742   5.054
 2842SOL    HW2 9426   1.391   5.738   5.205
 2843SOL     OW 9427   2.611   2.470   2.457
 2843SOL    HW1 9428   2.602   2.412   2.376
 2843SOL    HW2 9429   2.700   2.455   2.499
 2844SOL     OW 9430   5.048   4.361   1.684
 2844SOL    HW1 9431   5.113   4.286   1.673
 2844SOL    HW2 9432   5.096   4.445   1.710
 2845SOL     OW 9433   5.185   2.601   3.589
 2845SOL    HW1 9434   5.256   2.536   3.615
 2845SOL    HW2 9435   5.095   2.567   3.618
 2846SOL     OW 9436   3.382   0.713   0.070
 2846SOL    HW1 9437   3.413   0.782   0.135
 2846SOL    HW2 9438   3.301   0.747   0.021
 2847SOL     OW 9439   4.786   4.148   2.033
 2847SOL    HW1 9440   4.707   4.189   2.079
 2847SOL    HW2 9441   4.851   4.220   2.010
 2848SOL     OW 9442   1.334   2.203   5.511
 2848SOL    HW1 9443   1.372   2.111   5.519
 2848SOL    HW2 9444   1.305   2.220   5.417
 2849SOL     OW 9445   3.529   1.065   1.617
 2849SOL    HW1 9446   3.549   1.093   1.710
 2849SOL    HW2 9447   3.488   1.141   1.566
 2850SOL     OW 9448   1.963   0.001   3.643
 2850SOL    HW1 9449   1.912   0.055   3.710
 2850SOL    HW2 9450   2.043   0.053   3.612
 2851SOL     OW 9451   4.034   3.418   6.940
 2851SOL    HW1 9452   3.968   3.352   6.977
 2851SOL    HW2 9453   4.123   3.404   6.984
 2852SOL     OW 9454   6.397   4.582   0.094
 2852SOL    HW1 9455   6.451   4.528   0.158
 2852SOL    HW2 9456   6.429   4.677   0.096
 2853SOL     OW 9457   0.257   3.218   6.833
 2853SOL    HW1 9458   0.220   3.219   6.926
 2853SOL    HW2 9459   0.185   3.241   6.768
 2854SOL     OW 9460   3.746   1.129   6.165
 2854SOL    HW1 9461   3.825   1.182   6.195
 2854SOL    HW2 9462   3.674   1.134   6.235
 2855SOL     OW 9463   0.947   2.476   4.193
 2855SOL    HW1 9464   0.990   2.561   4.225
 2855SOL    HW2 9465   0.981   2.399   4.246
 2856SOL     OW 9466   1.551   2.718   2.959
 2856SOL    HW1 9467   1.555   2.618   2.958
 2856SOL    HW2 9468   1.618   2.754   3.024
 2857SOL     OW 9469   0.267   3.348   0.659
 2857SOL    HW1 9470   0.321   3.390   0.732
 2857SOL    HW2 9471   0.241   3.255   0.686
 2858SOL     OW 9472   5.786   6.268   2.844
 2858SOL    HW1 9473   5.729   6.344   2.811
 2858SOL    HW2 9474   5.812   6.210   2.767
 2859SOL     OW 9475   5.367   5.339   0.568
 2859SOL    HW1 9476   5.397   5.414   0.627
 2859SOL    HW2 9477   5.305   5.279   0.619
 2860SOL     OW 9478   2.006   6.488   2.017
 2860SOL    HW1 9479   2.016   6.587   2.010
 2860SOL    HW2 9480   2.096   6.445   2.027
 2861SOL     OW 9481   3.084   5.218   5.539
 2861SOL    HW1 9482   3.162   5.229   5.477
 2861SOL    HW2 9483   2.999   5.215   5.486
 2862SOL     OW 9484   4.650   2.586   1.639
 2862SOL    HW1 9485   4.593   2.534   1.702
 2862SOL    HW2 9486   4.680   2.671   1.683
 2863SOL     OW 9487   5.250   0.923   6.231
 2863SOL    HW1 9488   5.271   0.996   6.166
 2863SOL    HW2 9489   5.260   0.834   6.187
 2864SOL     OW 9490   4.392   2.981   1.144
 2864SOL    HW1 9491   4.321   2.928   1.097
 2864SOL    HW2 9492   4.371   2.986   1.241
 2865SOL     OW 9493   4.588   6.548   4.362
 2865SOL    HW1 9494   4.498   6.557   4.405
 2865SOL    HW2 9495   4.628   6.460   4.387
 2866SOL     OW 9496   5.757   3.845   0.339
 2866SOL    HW1 9497   5.774   3.772   0.405
 2866SOL    HW2 9498   5.678   3.821   0.283
 2867SOL     OW 9499   6.394   6.622   2.234
 2867SOL    HW1 9500   6.384   6.584   2.326
 2867SOL    HW2 9501   6.313   6.678   2.212
 2868SOL     OW 9502   0.963   0.973   5.768
 2868SOL    HW1 9503   1.060   0.993   5.780
 2868SOL    HW2 9504   0.943   0.960   5.671
 2869SOL     OW 9505   5.959   0.194   4.116
 2869SOL    HW1 9506   5.957   0.113   4.174
 2869SOL    HW2 9507   5.970   0.167   4.021
 2870SOL     OW 9508   0.788   1.579   0.073
 2870SOL    HW1 9509   0.866   1.624   0.116
 2870SOL    HW2 9510   0.795   1.587   6.997
 2871SOL     OW 9511   6.817   0.944   0.575
 2871SOL    HW1 9512   6.770   1.017   0.625
 2871SOL    HW2 9513   6.887   0.985   0.516
 2872SOL     OW 9514   2.831   1.385   1.152
 2872SOL    HW1 9515   2.815   1.430   1.239
 2872SOL    HW2 9516   2.744   1.372   1.104
 2873SOL     OW 9517   6.907   5.526   1.851
 2873SOL    HW1 9518   6.832   5.461   1.841
 2873SOL    HW2 9519   6.939   5.525   1.946
 2874SOL     OW 9520   4.262   7.008   2.954
 2874SOL    HW1 9521   4.244   7.002   2.856
 2874SOL    HW2 9522   4.317   0.066   2.973
 2875SOL     OW 9523   3.427   6.963   2.861
 2875SOL    HW1 9524   3.461   0.019   2.911
 2875SOL    HW2 9525   3.343   6.931   2.904
 2876SOL     OW 9526   1.267   6.584   1.899
 2876SOL    HW1 9527   1.250   6.495   1.943
 2876SOL    HW2 9528   1.181   6.634   1.892
 2877SOL     OW 9529   2.202   1.636   6.559
 2877SOL    HW1 9530   2.173   1.642   6.464
 2877SOL    HW2 9531   2.191   1.542   6.591
 2878SOL     OW 9532   2.906   3.382   4.382
 2878SOL    HW1 9533   2.901   3.381   4.482
 2878SOL    HW2 9534   2.930   3.291   4.349
 2879SOL     OW 9535   4.185   5.289   6.152
 2879SOL    HW1 9536   4.236   5.342   6.220
 2879SOL    HW2 9537   4.219   5.311   6.060
 2880SOL     OW 9538   0.994   1.688   3.892
 2880SOL    HW1 9539   0.931   1.664   3.966
 2880SOL    HW2 9540   1.081   1.717   3.931
 2881SOL     OW 9541   3.409   5.714   0.172
 2881SOL    HW1 9542   3.352   5.761   0.238
 2881SOL    HW2 9543   3.366   5.716   0.082
 2882SOL     OW 9544   6.273   6.370   1.268
 2882SOL    HW1 9545   6.360   6.356   1.221
 2882SOL    HW2 9546   6.207   6.302   1.237
 2883SOL     OW 9547   6.538   6.621   3.679
 2883SOL    HW1 9548   6.620   6.664   3.641
 2883SOL    HW2 9549   6.543   6.624   3.779
 2884SOL     OW 9550   6.603   4.918   2.200
 2884SOL    HW1 9551   6.655   5.001   2.179
 2884SOL    HW2 9552   6.583   4.870   2.114
 2885SOL     OW 9553   1.504   2.029   4.381
 2885SOL    HW1 9554   1.598   1.995   4.377
 2885SOL    HW2 9555   1.441   1.953   4.365
 2886SOL     OW 9556   2.988   4.679   6.895
 2886SOL    HW1 9557   2.910   4.655   6.837
 2886SOL    HW2 9558   2.955   4.720   6.980
 2887SOL     OW 9559   0.177   6.607   3.920
 2887SOL    HW1 9560   0.230   6.525   3.900
 2887SOL    HW2 9561   0.137   6.642   3.835
 2888SOL     OW 9562   0.057   5.267   0.044
 2888SOL    HW1 9563   0.149   5.291   0.074
 2888SOL    HW2 9564   0.032   5.321   6.987
 2889SOL     OW 9565   3.189   6.231   2.944
 2889SOL    HW1 9566   3.275   6.245   2.994
 2889SOL    HW2 9567   3.141   6.319   2.936
 2890SOL     OW 9568   2.613   5.783   0.940
 2890SOL    HW1 9569   2.651   5.852   1.002
 2890SOL    HW2 9570   2.514   5.776   0.955
 2891SOL     OW 9571   0.930   3.401   2.877
 2891SOL    HW1 9572   0.893   3.403   2.970
 2891SOL    HW2 9573   0.886   3.472   2.822
 2892SOL     OW 9574   6.053   3.179   0.881
 2892SOL    HW1 9575   6.083   3.140   0.968
 2892SOL    HW2 9576   6.008   3.267   0.897
 2893SOL     OW 9577   1.569   5.531   4.537
 2893SOL    HW1 9578   1.568   5.542   4.636
 2893SOL    HW2 9579   1.662   5.515   4.505
 2894SOL     OW 9580   2.023   4.433   2.038
 2894SOL    HW1 9581   2.098   4.392   1.985
 2894SOL    HW2 9582   2.045   4.429   2.135
 2895SOL     OW 9583   3.621   0.931   6.409
 2895SOL    HW1 9584   3.568   0.863   6.460
 2895SOL    HW2 9585   3.611   1.020   6.454
 2896SOL     OW 9586   5.852   0.087   6.373
 2896SOL    HW1 9587   5.870   0.159   6.307
 2896SOL    HW2 9588   5.828   0.128   6.461
 2897SOL     OW 9589   4.087   4.801   2.719
 2897SOL    HW1 9590   4.005   4.854   2.736
 2897SOL    HW2 9591   4.124   4.767   2.806
 2898SOL     OW 9592   5.647   4.077   3.648
 2898SOL    HW1 9593   5.623   4.158   3.595
 2898SOL    HW2 9594   5.581   4.065   3.722
 2899SOL     OW 9595   6.430   2.297   1.454
 2899SOL    HW1 9596   6.474   2.346   1.529
 2899SOL    HW2 9597   6.354   2.353   1.419
 2900SOL     OW 9598   3.848   5.208   0.164
 2900SOL    HW1 9599   3.931   5.186   0.113
 2900SOL    HW2 9600   3.842   5.150   0.245
 2901SOL     OW 9601   1.390   5.020   3.526
 2901SOL    HW1 9602   1.319   4.956   3.497
 2901SOL    HW2 9603   1.455   4.974   3.585
 2902SOL     OW 9604   0.210   6.059   3.504
 2902SOL    HW1 9605   0.136   6.027   3.445
 2902SOL    HW2 9606   0.211   6.005   3.588
 2903SOL     OW 9607   4.694   6.039   0.814
 2903SOL    HW1 9608   4.644   6.085   0.887
 2903SOL    HW2 9609   4.785   6.081   0.805
 2904SOL     OW 9610   3.137   4.811   5.066
 2904SOL    HW1 9611   3.082   4.752   5.007
 2904SOL    HW2 9612   3.148   4.768   5.156
 2905SOL     OW 9613   1.292   4.033   3.463
 2905SOL    HW1 9614   1.345   3.949   3.458
 2905SOL    HW2 9615   1.264   4.050   3.557
 2906SOL     OW 9616   5.121   6.277   2.458
 2906SOL    HW1 9617   5.210   6.243   2.429
 2906SOL    HW2 9618   5.109   6.258   2.556
 2907SOL     OW 9619   0.886   1.196   4.026
 2907SOL    HW1 9620   0.944   1.130   3.978
 2907SOL    HW2 9621   0.812   1.225   3.965
 2908SOL     OW 9622   5.278   6.972   3.887
 2908SOL    HW1 9623   5.363   7.022   3.869
 2908SOL    HW2 9624   5.300   6.883   3.927
 2909SOL     OW 9625   1.361   6.536   2.901
 2909SOL    HW1 9626   1.389   6.453   2.948
 2909SOL    HW2 9627   1.289   6.582   2.952
 2910SOL     OW 9628   6.723   1.039   3.451
 2910SOL    HW1 9629   6.702   1.134   3.476
 2910SOL    HW2 9630   6.749   1.035   3.354
 2911SOL     OW 9631   1.120   4.752   3.881
 2911SOL    HW1 9632   1.148   4.718   3.971
 2911SOL    HW2 9633   1.195   4.803   3.840
 2912SOL     OW 9634   0.056   6.617   6.985
 2912SOL    HW1 9635   0.019   6.672   0.036
 2912SOL    HW2 9636   0.121   6.550   7.022
 2913SOL     OW 9637   2.448   4.562   2.599
 2913SOL    HW1 9638   2.469   4.646   2.649
 2913SOL    HW2 9639   2.484   4.569   2.506
 2914SOL     OW 9640   5.241   5.234   1.326
 2914SOL    HW1 9641   5.290   5.258   1.411
 2914SOL    HW2 9642   5.268   5.298   1.254
 2915SOL     OW 9643   2.749   2.313   3.461
 2915SOL    HW1 9644   2.725   2.395   3.513
 2915SOL    HW2 9645   2.833   2.273   3.498
 2916SOL     OW 9646   1.925   5.527   0.390
 2916SOL    HW1 9647   1.835   5.530   0.345
 2916SOL    HW2 9648   1.913   5.534   0.489
 2917SOL     OW 9649   2.919   0.363   3.552
 2917SOL    HW1 9650   2.909   0.304   3.632
 2917SOL    HW2 9651   2.832   0.410   3.535
 2918SOL     OW 9652   6.047   3.512   0.281
 2918SOL    HW1 9653   6.093   3.574   0.218
 2918SOL    HW2 9654   5.990   3.448   0.229
 2919SOL     OW 9655   6.537   6.368   3.588
 2919SOL    HW1 9656   6.559   6.454   3.635
 2919SOL    HW2 9657   6.610   6.345   3.524
 2920SOL     OW 9658   2.395   0.921   2.197
 2920SOL    HW1 9659   2.353   0.855   2.135
 2920SOL    HW2 9660   2.330   0.994   2.218
 2921SOL     OW 9661   7.017   0.188   5.645
 2921SOL    HW1 9662   0.013   0.279   5.681
 2921SOL    HW2 9663   6.920   0.183   5.619
 2922SOL     OW 9664   4.079   0.337   1.991
 2922SOL    HW1 9665   4.129   0.290   2.063
 2922SOL    HW2 9666   4.041   0.423   2.027
 2923SOL     OW 9667   6.530   5.101   4.357
 2923SOL    HW1 9668   6.621   5.060   4.346
 2923SOL    HW2 9669   6.538   5.185   4.410
 2924SOL     OW 9670   6.585   1.636   5.081
 2924SOL    HW1 9671   6.530   1.654   4.999
 2924SOL    HW2 9672   6.555   1.697   5.155
 2925SOL     OW 9673   5.247   1.466   6.582
 2925SOL    HW1 9674   5.290   1.543   6.535
 2925SOL    HW2 9675   5.155   1.493   6.611
 2926SOL     OW 9676   6.868   2.295   5.647
 2926SOL    HW1 9677   6.960   2.291   5.685
 2926SOL    HW2 9678   6.867   2.252   5.557
 2927SOL     OW 9679   1.980   3.559   0.774
 2927SOL    HW1 9680   2.026   3.489   0.829
 2927SOL    HW2 9681   1.939   3.627   0.834
 2928SOL     OW 9682   6.551   1.630   7.022
 2928SOL    HW1 9683   6.632   1.687   0.008
 2928SOL    HW2 9684   6.496   1.663   6.945
 2929SOL     OW 9685   1.544   2.459   4.887
 2929SOL    HW1 9686   1.528   2.543   4.937
 2929SOL    HW2 9687   1.458   2.428   4.845
 2930SOL     OW 9688   5.852   5.950   5.292
 2930SOL    HW1 9689   5.934   5.933   5.237
 2930SOL    HW2 9690   5.784   5.879   5.275
 2931SOL     OW 9691   4.326   5.027   0.426
 2931SOL    HW1 9692   4.303   5.119   0.459
 2931SOL    HW2 9693   4.423   5.023   0.404
 2932SOL     OW 9694   6.270   5.012   1.848
 2932SOL    HW1 9695   6.208   4.933   1.858
 2932SOL    HW2 9696   6.217   5.091   1.818
 2933SOL     OW 9697   0.501   0.210   1.827
 2933SOL    HW1 9698   0.410   0.173   1.847
 2933SOL    HW2 9699   0.557   0.206   1.910
 2934SOL     OW 9700   4.621   2.935   1.464
 2934SOL    HW1 9701   4.639   2.904   1.557
 2934SOL    HW2 9702   4.526   2.914   1.440
 2935SOL     OW 9703   1.117   2.520   6.639
 2935SOL    HW1 9704   1.147   2.580   6.565
 2935SOL    HW2 9705   1.099   2.575   6.721
 2936SOL     OW 9706   4.160   6.966   0.536
 2936SOL    HW1 9707   4.137   0.036   0.563
 2936SOL    HW2 9708   4.078   6.908   0.543
 2937SOL     OW 9709   4.443   4.668   1.269
 2937SOL    HW1 9710   4.391   4.752   1.280
 2937SOL    HW2 9711   4.533   4.678   1.311
 2938SOL     OW 9712   6.256   5.510   6.910
 2938SOL    HW1 9713   6.182   5.578   6.912
 2938SOL    HW2 9714   6.309   5.522   6.826
 2939SOL     OW 9715   0.763   0.238   1.376
 2939SOL    HW1 9716   0.698   0.233   1.452
 2939SOL    HW2 9717   0.765   0.331   1.339
 2940SOL     OW 9718   5.693   5.621   4.546
 2940SOL    HW1 9719   5.685   5.593   4.642
 2940SOL    HW2 9720   5.787   5.605   4.515
 2941SOL     OW 9721   2.403   2.255   3.099
 2941SOL    HW1 9722   2.470   2.278   3.028
 2941SOL    HW2 9723   2.432   2.293   3.186
 2942SOL     OW 9724   3.284   2.699   0.504
 2942SOL    HW1 9725   3.272   2.621   0.443
 2942SOL    HW2 9726   3.370   2.745   0.484
 2943SOL     OW 9727   6.470   4.544   3.632
 2943SOL    HW1 9728   6.509   4.524   3.542
 2943SOL    HW2 9729   6.478   4.642   3.651
 2944SOL     OW 9730   2.789   6.185   3.689
 2944SOL    HW1 9731   2.794   6.119   3.614
 2944SOL    HW2 9732   2.872   6.180   3.744
 2945SOL     OW 9733   5.340   3.735   1.579
 2945SOL    HW1 9734   5.271   3.746   1.651
 2945SOL    HW2 9735   5.298   3.749   1.490
 2946SOL     OW 9736   1.687   4.000   5.584
 2946SOL    HW1 9737   1.612   4.001   5.651
 2946SOL    HW2 9738   1.672   3.926   5.519
 2947SOL     OW 9739   0.308   5.713   0.098
 2947SOL    HW1 9740   0.224   5.694   0.148
 2947SOL    HW2 9741   0.315   5.652   0.019
 2948SOL     OW 9742   6.463   4.472   3.319
 2948SOL    HW1 9743   6.510   4.384   3.326
 2948SOL    HW2 9744   6.504   4.525   3.245
 2949SOL     OW 9745   0.703   6.360   6.361
 2949SOL    HW1 9746   0.773   6.411   6.410
 2949SOL    HW2 9747   0.745   6.308   6.286
 2950SOL     OW 9748   5.757   5.186   3.266
 2950SOL    HW1 9749   5.657   5.188   3.270
 2950SOL    HW2 9750   5.788   5.092   3.259
 2951SOL     OW 9751   5.204   1.087   1.997
 2951SOL    HW1 9752   5.133   1.017   2.010
 2951SOL    HW2 9753   5.294   1.047   2.018
 2952SOL     OW 9754   6.109   0.365   4.648
 2952SOL    HW1 9755   6.193   0.386   4.600
 2952SOL    HW2 9756   6.084   0.443   4.706
 2953SOL     OW 9757   6.652   4.514   3.115
 2953SOL    HW1 9758   6.729   4.452   3.130
 2953SOL    HW2 9759   6.611   4.495   3.026
 2954SOL     OW 9760   6.771   4.665   6.579
 2954SOL    HW1 9761   6.758   4.604   6.502
 2954SOL    HW2 9762   6.691   4.724   6.589
 2955SOL     OW 9763   1.061   4.380   0.231
 2955SOL    HW1 9764   1.072   4.405   0.135
 2955SOL    HW2 9765   1.148   4.389   0.279
 2956SOL     OW 9766   0.091   5.610   4.122
 2956SOL    HW1 9767   0.048   5.608   4.031
 2956SOL    HW2 9768   0.130   5.701   4.138
 2957SOL     OW 9769   4.106   4.938   1.484
 2957SOL    HW1 9770   4.023   4.992   1.498
 2957SOL    HW2 9771   4.095   4.848   1.526
 2958SOL     OW 9772   2.333   4.982   3.445
 2958SOL    HW1 9773   2.285   5.040   3.379
 2958SOL    HW2 9774   2.266   4.932   3.499
 2959SOL     OW 9775   5.091   2.685   2.936
 2959SOL    HW1 9776   5.073   2.587   2.947
 2959SOL    HW2 9777   5.020   2.725   2.878
 2960SOL     OW 9778   3.561   0.209   0.290
 2960SOL    HW1 9779   3.489   0.212   0.359
 2960SOL    HW2 9780   3.532   0.260   0.209
 2961SOL     OW 9781   6.198   4.967   2.947
 2961SOL    HW1 9782   6.282   4.940   2.994
 2961SOL    HW2 9783   6.196   4.927   2.856
 2962SOL     OW 9784   5.171   6.585   3.261
 2962SOL    HW1 9785   5.178   6.488   3.237
 2962SOL    HW2 9786   5.075   6.613   3.257
 2963SOL     OW 9787   1.353   0.938   6.626
 2963SOL    HW1 9788   1.365   1.028   6.669
 2963SOL    HW2 9789   1.401   0.869   6.680
 2964SOL     OW 9790   0.797   2.570   6.338
 2964SOL    HW1 9791   0.824   2.666   6.329
 2964SOL    HW2 9792   0.705   2.565   6.377
 2965SOL     OW 9793   1.194   0.305   4.302
 2965SOL    HW1 9794   1.259   0.380   4.314
 2965SOL    HW2 9795   1.230   0.239   4.236
 2966SOL     OW 9796   4.717   5.505   3.855
 2966SOL    HW1 9797   4.747   5.414   3.827
 2966SOL    HW2 9798   4.676   5.500   3.946
 2967SOL     OW 9799   5.663   1.431   5.885
 2967SOL    HW1 9800   5.698   1.442   5.978
 2967SOL    HW2 9801   5.719   1.484   5.821
 2968SOL     OW 9802   2.354   3.002   0.818
 2968SOL    HW1 9803   2.308   3.027   0.903
 2968SOL    HW2 9804   2.415   3.076   0.790
 2969SOL     OW 9805   4.978   3.975   4.600
 2969SOL    HW1 9806   4.923   3.904   4.643
 2969SOL    HW2 9807   4.922   4.058   4.589
 2970SOL     OW 9808   2.842   2.897   5.480
 2970SOL    HW1 9809   2.807   2.900   5.573
 2970SOL    HW2 9810   2.926   2.843   5.477
 2971SOL     OW 9811   5.773   4.164   0.332
 2971SOL    HW1 9812   5.854   4.186   0.386
 2971SOL    HW2 9813   5.766   4.064   0.322
 2972SOL     OW 9814   5.683   5.211   7.004
 2972SOL    HW1 9815   5.628   5.169   6.932
 2972SOL    HW2 9816   5.623   5.257   0.046
 2973SOL     OW 9817   4.878   6.683   2.483
 2973SOL    HW1 9818   4.801   6.719   2.431
 2973SOL    HW2 9819   4.932   6.760   2.518
 2974SOL     OW 9820   5.864   4.466   3.305
 2974SOL    HW1 9821   5.931   4.429   3.370
 2974SOL    HW2 9822   5.822   4.392   3.253
 2975SOL     OW 9823   4.797   4.630   4.123
 2975SOL    HW1 9824   4.853   4.609   4.203
 2975SOL    HW2 9825   4.849   4.688   4.060
 2976SOL     OW 9826   5.177   1.998   3.034
 2976SOL    HW1 9827   5.255   1.937   3.018
 2976SOL    HW2 9828   5.094   1.956   2.997
 2977SOL     OW 9829   1.181   0.587   2.109
 2977SOL    HW1 9830   1.275   0.554   2.109
 2977SOL    HW2 9831   1.172   0.664   2.173
 2978SOL     OW 9832   4.055   4.329   0.230
 2978SOL    HW1 9833   3.973   4.275   0.210
 2978SOL    HW2 9834   4.134   4.288   0.186
 2979SOL     OW 9835   3.368   1.451   4.178
 2979SOL    HW1 9836   3.368   1.427   4.081
 2979SOL    HW2 9837   3.449   1.413   4.222
 2980SOL     OW 9838   2.581   4.887   6.147
 2980SOL    HW1 9839   2.554   4.805   6.096
 2980SOL    HW2 9840   2.538   4.885   6.237
 2981SOL     OW 9841   2.442   1.859   0.065
 2981SOL    HW1 9842   2.491   1.936   0.107
 2981SOL    HW2 9843   2.397   1.890   7.004
 2982SOL     OW 9844   2.125   6.339   2.555
 2982SOL    HW1 9845   2.192   6.341   2.481
 2982SOL    HW2 9846   2.075   6.425   2.557
 2983SOL     OW 9847   0.120   2.504   0.591
 2983SOL    HW1 9848   0.070   2.471   0.671
 2983SOL    HW2 9849   0.144   2.427   0.532
 2984SOL     OW 9850   6.075   5.099   6.101
 2984SOL    HW1 9851   6.027   5.085   6.014
 2984SOL    HW2 9852   6.028   5.047   6.173
 2985SOL     OW 9853   0.473   1.235   4.462
 2985SOL    HW1 9854   0.411   1.161   4.487
 2985SOL    HW2 9855   0.563   1.196   4.441
 2986SOL     OW 9856   3.296   4.092   2.581
 2986SOL    HW1 9857   3.284   4.188   2.606
 2986SOL    HW2 9858   3.392   4.075   2.561
 2987SOL     OW 9859   1.904   1.759   4.219
 2987SOL    HW1 9860   1.806   1.746   4.209
 2987SOL    HW2 9861   1.952   1.716   4.142
 2988SOL     OW 9862   1.679   0.027   1.860
 2988SOL    HW1 9863   1.749   7.013   1.922
 2988SOL    HW2 9864   1.705   0.119   1.833
 2989SOL     OW 9865   5.272   4.065   5.290
 2989SOL    HW1 9866   5.372   4.060   5.301
 2989SOL    HW2 9867   5.244   4.007   5.214
 2990SOL     OW 9868   5.189   1.967   4.384
 2990SOL    HW1 9869   5.195   1.896   4.313
 2990SOL    HW2 9870   5.258   1.950   4.454
 2991SOL     OW 9871   6.577   3.536   6.909
 2991SOL    HW1 9872   6.657   3.595   6.902
 2991SOL    HW2 9873   6.495   3.588   6.882
 2992SOL     OW 9874   0.814   4.728   4.655
 2992SOL    HW1 9875   0.770   4.769   4.576
 2992SOL    HW2 9876   0.911   4.712   4.634
 2993SOL     OW 9877   6.932   4.904   0.290
 2993SOL    HW1 9878   6.941   4.845   0.371
 2993SOL    HW2 9879   7.011   4.965   0.286
 2994SOL     OW 9880   4.812   6.070   6.842
 2994SOL    HW1 9881   4.829   6.070   6.743
 2994SOL    HW2 9882   4.788   6.162   6.872
 2995SOL     OW 9883   4.942   0.067   0.362
 2995SOL    HW1 9884   4.853   0.027   0.381
 2995SOL    HW2 9885   5.005   7.020   0.331
 2996SOL     OW 9886   1.267   1.712   4.629
 2996SOL    HW1 9887   1.302   1.621   4.653
 2996SOL    HW2 9888   1.208   1.745   4.701
 2997SOL     OW 9889   4.423   0.536   3.323
 2997SOL    HW1 9890   4.432   0.628   3.361
 2997SOL    HW2 9891   4.511   0.507   3.284
 2998SOL     OW 9892   3.323   0.185   3.709
 2998SOL    HW1 9893   3.370   0.110   3.662
 2998SOL    HW2 9894   3.390   0.254   3.738
 2999SOL     OW 9895   2.844   4.577   6.183
 2999SOL    HW1 9896   2.793   4.647   6.133
 2999SOL    HW2 9897   2.932   4.614   6.212
 3000SOL     OW 9898   2.769   3.975   6.395
 3000SOL    HW1 9899   2.789   3.960   6.298
 3000SOL    HW2 9900   2.690   3.920   6.421
 3001SOL     OW 9901   6.060   2.141   0.198
 3001SOL    HW1 9902   6.159   2.142   0.214
 3001SOL    HW2 9903   6.043   2.135   0.100
 3002SOL     OW 9904   3.119   1.291   0.875
 3002SOL    HW1 9905   3.095   1.307   0.779
 3002SOL    HW2 9906   3.166   1.203   0.883
 3003SOL     OW 9907   1.251   6.255   1.329
 3003SOL    HW1 9908   1.266   6.310   1.247
 3003SOL    HW2 9909   1.336   6.208   1.354
 3004SOL     OW 9910   1.540   4.890   3.716
 3004SOL    HW1 9911   1.637   4.888   3.691
 3004SOL    HW2 9912   1.516   4.806   3.765
 3005SOL     OW 9913   1.008   3.354   5.671
 3005SOL    HW1 9914   0.968   3.262   5.667
 3005SOL    HW2 9915   1.033   3.384   5.579
 3006SOL     OW 9916   5.366   0.993   5.286
 3006SOL    HW1 9917   5.428   0.929   5.240
 3006SOL    HW2 9918   5.412   1.081   5.300
 3007SOL     OW 9919   4.487   5.404   7.018
 3007SOL    HW1 9920   4.559   5.429   0.059
 3007SOL    HW2 9921   4.521   5.334   6.955
 3008SOL     OW 9922   3.516   2.704   6.499
 3008SOL    HW1 9923   3.496   2.752   6.584
 3008SOL    HW2 9924   3.457   2.739   6.426
 3009SOL     OW 9925   0.178   2.175   3.165
 3009SOL    HW1 9926   0.178   2.163   3.066
 3009SOL    HW2 9927   0.222   2.262   3.188
 3010SOL     OW 9928   3.447   5.840   5.336
 3010SOL    HW1 9929   3.495   5.842   5.249
 3010SOL    HW2 9930   3.377   5.912   5.337
 3011SOL     OW 9931   6.703   6.978   1.549
 3011SOL    HW1 9932   6.774   6.955   1.482
 3011SOL    HW2 9933   6.744   6.984   1.640
 3012SOL     OW 9934   2.502   3.962   0.117
 3012SOL    HW1 9935   2.601   3.965   0.130
 3012SOL    HW2 9936   2.475   4.032   0.051
 3013SOL     OW 9937   6.326   5.278   3.312
 3013SOL    HW1 9938   6.284   5.240   3.230
 3013SOL    HW2 9939   6.421   5.248   3.318
 3014SOL     OW 9940   4.924   1.524   6.757
 3014SOL    HW1 9941   4.889   1.567   6.840
 3014SOL    HW2 9942   4.848   1.488   6.704
 3015SOL     OW 9943   2.297   1.351   0.702
 3015SOL    HW1 9944   2.291   1.410   0.783
 3015SOL    HW2 9945   2.252   1.395   0.625
 3016SOL     OW 9946   3.346   7.004   4.044
 3016SOL    HW1 9947   3.434   6.957   4.055
 3016SOL    HW2 9948   3.294   6.997   4.129
 3017SOL     OW 9949   5.988   4.607   2.256
 3017SOL    HW1 9950   5.897   4.595   2.296
 3017SOL    HW2 9951   6.051   4.640   2.327
 3018SOL     OW 9952   3.955   0.016   6.868
 3018SOL    HW1 9953   3.929   0.074   6.946
 3018SOL    HW2 9954   3.880   0.012   6.802
 3019SOL     OW 9955   0.753   6.970   0.422
 3019SOL    HW1 9956   0.692   0.020   0.392
 3019SOL    HW2 9957   0.707   6.913   0.489
 3020SOL     OW 9958   4.522   3.219   0.488
 3020SOL    HW1 9959   4.473   3.132   0.477
 3020SOL    HW2 9960   4.510   3.251   0.582
 3021SOL     OW 9961   2.296   6.638   4.480
 3021SOL    HW1 9962   2.370   6.629   4.414
 3021SOL    HW2 9963   2.212   6.666   4.433
 3022SOL     OW 9964   3.849   5.792   4.116
 3022SOL    HW1 9965   3.775   5.825   4.175
 3022SOL    HW2 9966   3.934   5.836   4.141
 3023SOL     OW 9967   4.010   0.020   2.740
 3023SOL    HW1 9968   3.978   0.114   2.724
 3023SOL    HW2 9969   3.936   6.990   2.781
 3024SOL     OW 9970   6.080   5.762   5.452
 3024SOL    HW1 9971   6.080   5.794   5.547
 3024SOL    HW2 9972   6.145   5.687   5.442
 3025SOL     OW 9973   4.108   6.105   1.218
 3025SOL    HW1 9974   4.187   6.143   1.170
 3025SOL    HW2 9975   4.125   6.105   1.317
 3026SOL     OW 9976   0.159   1.012   6.456
 3026SOL    HW1 9977   0.177   1.087   6.392
 3026SOL    HW2 9978   0.095   0.948   6.413
 3027SOL     OW 9979   3.947   1.420   2.248
 3027SOL    HW1 9980   4.017   1.348   2.246
 3027SOL    HW2 9981   3.865   1.387   2.202
 3028SOL     OW 9982   1.985   3.989   6.081
 3028SOL    HW1 9983   2.078   4.002   6.046
 3028SOL    HW2 9984   1.919   4.015   6.010
 3029SOL     OW 9985   0.848   2.149   3.451
 3029SOL    HW1 9986   0.757   2.187   3.469
 3029SOL    HW2 9987   0.918   2.213   3.480
 3030SOL     OW 9988   1.364   4.090   0.887
 3030SOL    HW1 9989   1.425   4.128   0.957
 3030SOL    HW2 9990   1.317   4.010   0.924
 3031SOL     OW 9991   1.454   4.997   0.923
 3031SOL    HW1 9992   1.506   5.005   1.007
 3031SOL    HW2 9993   1.356   5.004   0.943
 3032SOL     OW 9994   1.728   5.856   2.682
 3032SOL    HW1 9995   1.810   5.851   2.625
 3032SOL    HW2 9996   1.686   5.946   2.672
 3033SOL     OW 9997   5.986   1.929   3.314
 3033SOL    HW1 9998   6.020   1.919   3.220
 3033SOL    HW2 9999   5.966   1.838   3.351
 3034SOL     OW10000   1.056   5.999   3.841
 3034SOL    HW110001   0.990   6.058   3.795
 3034SOL    HW210002   1.063   5.913   3.790
 3035SOL     OW10003   1.018   3.059   6.443
 3035SOL    HW110004   0.991   3.114   6.364
 3035SOL    HW210005   1.054   3.118   6.515
 3036SOL     OW10006   1.055   1.718   5.656
 3036SOL    HW110007   1.081   1.711   5.753
 3036SOL    HW210008   1.075   1.810   5.623
 3037SOL     OW10009   7.022   5.070   5.410
 3037SOL    HW110010   0.057   5.065   5.329
 3037SOL    HW210011   6.936   5.115   5.386
 3038SOL     OW10012   5.520   4.658   6.186
 3038SOL    HW110013   5.537   4.746   6.141
 3038SOL    HW210014   5.485   4.592   6.119
 3039SOL     OW10015   0.068   2.972   6.843
 3039SOL    HW110016   7.001   2.966   6.802
 3039SOL    HW210017   0.065   3.034   6.921
 3040SOL     OW10018   3.225   4.677   5.698
 3040SOL    HW110019   3.129   4.653   5.683
 3040SOL    HW210020   3.282   4.595   5.693
 3041SOL     OW10021   0.939   4.439   5.884
 3041SOL    HW110022   0.916   4.524   5.931
 3041SOL    HW210023   0.999   4.384   5.943
 3042SOL     OW10024   6.333   5.630   2.287
 3042SOL    HW110025   6.284   5.549   2.320
 3042SOL    HW210026   6.421   5.602   2.248
 3043SOL     OW10027   3.288   3.401   0.482
 3043SOL    HW110028   3.366   3.464   0.477
 3043SOL    HW210029   3.317   3.317   0.527
 3044SOL     OW10030   2.666   4.701   5.571
 3044SOL    HW110031   2.640   4.612   5.608
 3044SOL    HW210032   2.740   4.689   5.505
 3045SOL     OW10033   4.632   6.740   3.096
 3045SOL    HW110034   4.671   6.743   3.004
 3045SOL    HW210035   4.614   6.834   3.127
 3046SOL     OW10036   3.794   6.116   6.809
 3046SOL    HW110037   3.835   6.039   6.759
 3046SOL    HW210038   3.846   6.199   6.790
 3047SOL     OW10039   5.985   6.976   0.577
 3047SOL    HW110040   5.947   0.014   0.509
 3047SOL    HW210041   6.078   7.006   0.600
 3048SOL     OW10042   4.410   2.539   0.977
 3048SOL    HW110043   4.509   2.553   0.976
 3048SOL    HW210044   4.380   2.502   0.889
 3049SOL     OW10045   1.072   0.950   3.860
 3049SOL    HW110046   1.134   1.015   3.815
 3049SOL    HW210047   1.126   0.886   3.915
 3050SOL     OW10048   2.078   2.282   1.309
 3050SOL    HW110049   2.142   2.331   1.250
 3050SOL    HW210050   2.129   2.226   1.375
 3051SOL     OW10051   2.823   6.957   6.430
 3051SOL    HW110052   2.841   6.923   6.523
 3051SOL    HW210053   2.725   6.962   6.415
 3052SOL     OW10054   5.696   5.927   2.209
 3052SOL    HW110055   5.684   6.004   2.272
 3052SOL    HW210056   5.680   5.841   2.258
 3053SOL     OW10057   0.862   4.203   1.067
 3053SOL    HW110058   0.767   4.199   1.098
 3053SOL    HW210059   0.896   4.110   1.053
 3054SOL     OW10060   5.593   1.029   2.833
 3054SOL    HW110061   5.544   1.004   2.917
 3054SOL    HW210062   5.668   0.964   2.818
 3055SOL     OW10063   5.765   6.744   5.759
 3055SOL    HW110064   5.796   6.673   5.821
 3055SOL    HW210065   5.815   6.738   5.672
 3056SOL     OW10066   6.266   1.780   5.851
 3056SOL    HW110067   6.288   1.708   5.785
 3056SOL    HW210068   6.169   1.774   5.876
 3057SOL     OW10069   5.382   5.790   3.756
 3057SOL    HW110070   5.362   5.728   3.832
 3057SOL    HW210071   5.465   5.759   3.709
 3058SOL     OW10072   6.545   4.114   1.242
 3058SOL    HW110073   6.545   4.014   1.232
 3058SOL    HW210074   6.496   4.155   1.165
 3059SOL     OW10075   2.469   1.660   4.438
 3059SOL    HW110076   2.404   1.727   4.473
 3059SOL    HW210077   2.482   1.673   4.340
 3060SOL     OW10078   2.874   5.247   6.772
 3060SOL    HW110079   2.794   5.221   6.718
 3060SOL    HW210080   2.916   5.166   6.812
 3061SOL     OW10081   5.964   5.557   5.814
 3061SOL    HW110082   5.891   5.568   5.881
 3061SOL    HW210083   5.974   5.641   5.762
 3062SOL     OW10084   3.774   5.688   0.971
 3062SOL    HW110085   3.859   5.717   0.926
 3062SOL    HW210086   3.780   5.709   1.068
 3063SOL     OW10087   0.854   4.380   0.434
 3063SOL    HW110088   0.913   4.373   0.354
 3063SOL    HW210089   0.827   4.475   0.448
 3064SOL     OW10090   4.284   2.865   6.901
 3064SOL    HW110091   4.319   2.956   6.879
 3064SOL    HW210092   4.216   2.839   6.833
 3065SOL     OW10093   1.245   1.608   6.676
 3065SOL    HW110094   1.326   1.582   6.623
 3065SOL    HW210095   1.262   1.591   6.773
 3066SOL     OW10096   4.863   5.177   6.091
 3066SOL    HW110097   4.781   5.183   6.148
 3066SOL    HW210098   4.901   5.269   6.077
 3067SOL     OW10099   2.246   1.952   0.645
 3067SOL    HW110100   2.339   1.940   0.610
 3067SOL    HW210101   2.236   2.046   0.679
 3068SOL     OW10102   0.378   1.157   1.181
 3068SOL    HW110103   0.355   1.234   1.121
 3068SOL    HW210104   0.392   1.190   1.274
 3069SOL     OW10105   6.284   6.690   3.636
 3069SOL    HW110106   6.380   6.663   3.651
 3069SOL    HW210107   6.281   6.771   3.578
 3070SOL     OW10108   2.690   1.182   7.014
 3070SOL    HW110109   2.778   1.210   0.028
 3070SOL    HW210110   2.698   1.171   6.915
 3071SOL     OW10111   6.772   4.659   3.637
 3071SOL    HW110112   6.757   4.639   3.540
 3071SOL    HW210113   6.685   4.685   3.679
 3072SOL     OW10114   1.766   5.821   0.259
 3072SOL    HW110115   1.723   5.876   0.331
 3072SOL    HW210116   1.799   5.881   0.186
 3073SOL     OW10117   0.309   4.336   1.521
 3073SOL    HW110118   0.221   4.341   1.568
 3073SOL    HW210119   0.350   4.246   1.538
 3074SOL     OW10120   1.229   4.204   1.307
 3074SOL    HW110121   1.230   4.268   1.384
 3074SOL    HW210122   1.189   4.249   1.227
 3075SOL     OW10123   2.614   5.185   4.143
 3075SOL    HW110124   2.561   5.196   4.059
 3075SOL    HW210125   2.610   5.271   4.196
 3076SOL     OW10126   6.587   1.095   4.728
 3076SOL    HW110127   6.566   1.158   4.803
 3076SOL    HW210128   6.656   1.137   4.668
 3077SOL     OW10129   5.914   3.233   1.978
 3077SOL    HW110130   5.895   3.148   1.928
 3077SOL    HW210131   5.966   3.294   1.919
 3078SOL     OW10132   6.733   2.882   2.268
 3078SOL    HW110133   6.648   2.906   2.222
 3078SOL    HW210134   6.730   2.787   2.297
 3079SOL     OW10135   2.964   2.190   4.177
 3079SOL    HW110136   3.046   2.226   4.221
 3079SOL    HW210137   2.978   2.094   4.153
 3080SOL     OW10138   4.704   4.035   1.792
 3080SOL    HW110139   4.685   4.083   1.878
 3080SOL    HW210140   4.789   3.984   1.801
 3081SOL     OW10141   0.850   4.604   6.702
 3081SOL    HW110142   0.946   4.619   6.723
 3081SOL    HW210143   0.813   4.531   6.760
 3082SOL     OW10144   2.882   5.524   4.627
 3082SOL    HW110145   2.869   5.602   4.566
 3082SOL    HW210146   2.978   5.519   4.654
 3083SOL     OW10147   3.171   5.466   2.723
 3083SOL    HW110148   3.088   5.414   2.702
 3083SOL    HW210149   3.185   5.536   2.654
 3084SOL     OW10150   0.140   4.088   2.481
 3084SOL    HW110151   0.046   4.054   2.470
 3084SOL    HW210152   0.161   4.151   2.407
 3085SOL     OW10153   4.916   4.715   1.086
 3085SOL    HW110154   5.010   4.747   1.093
 3085SOL    HW210155   4.908   4.649   1.011
 3086SOL     OW10156   4.724   1.284   6.959
 3086SOL    HW110157   4.645   1.346   6.967
 3086SOL    HW210158   4.804   1.328   6.999
 3087SOL     OW10159   2.263   6.374   2.317
 3087SOL    HW110160   2.266   6.331   2.227
 3087SOL    HW210161   2.315   6.459   2.315
 3088SOL     OW10162   1.322   2.885   5.510
 3088SOL    HW110163   1.273   2.967   5.540
 3088SOL    HW210164   1.416   2.889   5.544
 3089SOL     OW10165   4.507   1.421   5.157
 3089SOL    HW110166   4.590   1.447   5.108
 3089SOL    HW210167   4.494   1.482   5.236
 3090SOL     OW10168   1.769   1.070   1.914
 3090SOL    HW110169   1.826   1.137   1.961
 3090SOL    HW210170   1.757   1.098   1.818
 3091SOL     OW10171   1.150   0.974   0.520
 3091SOL    HW110172   1.064   0.952   0.566
 3091SOL    HW210173   1.137   1.055   0.462
 3092SOL     OW10174   5.008   6.510   1.488
 3092SOL    HW110175   4.982   6.605   1.502
 3092SOL    HW210176   4.934   6.462   1.441
 3093SOL     OW10177   5.585   6.275   5.631
 3093SOL    HW110178   5.566   6.315   5.541
 3093SOL    HW210179   5.639   6.192   5.619
 3094SOL     OW10180   3.078   0.530   4.146
 3094SOL    HW110181   3.021   0.513   4.227
 3094SOL    HW210182   3.138   0.451   4.131
 3095SOL     OW10183   2.246   3.376   5.539
 3095SOL    HW110184   2.231   3.472   5.514
 3095SOL    HW210185   2.260   3.322   5.456
 3096SOL     OW10186   0.520   3.801   4.783
 3096SOL    HW110187   0.493   3.824   4.689
 3096SOL    HW210188   0.439   3.803   4.841
 3097SOL     OW10189   5.581   2.908   0.470
 3097SOL    HW110190   5.498   2.943   0.512
 3097SOL    HW210191   5.579   2.808   0.471
 3098SOL     OW10192   1.460   3.012   2.035
 3098SOL    HW110193   1.530   3.072   1.997
 3098SOL    HW210194   1.371   3.058   2.034
 3099SOL     OW10195   0.836   6.111   3.699
 3099SOL    HW110196   0.861   6.018   3.674
 3099SOL    HW210197   0.757   6.109   3.762
 3100SOL     OW10198   6.902   6.720   2.542
 3100SOL    HW110199   6.806   6.694   2.531
 3100SOL    HW210200   6.916   6.810   2.502
 3101SOL     OW10201   4.666   6.575   6.112
 3101SOL    HW110202   4.679   6.551   6.209
 3101SOL    HW210203   4.721   6.514   6.055
 3102SOL     OW10204   6.841   5.765   0.373
 3102SOL    HW110205   6.763   5.785   0.314
 3102SOL    HW210206   6.922   5.811   0.337
 3103SOL     OW10207   5.264   0.784   0.877
 3103SOL    HW110208   5.181   0.729   0.883
 3103SOL    HW210209   5.340   0.736   0.921
 3104SOL     OW10210   4.426   6.868   6.979
 3104SOL    HW110211   4.442   6.769   6.982
 3104SOL    HW210212   4.356   6.892   0.023
 3105SOL     OW10213   4.642   3.222   1.021
 3105SOL    HW110214   4.553   3.209   0.978
 3105SOL    HW210215   4.711   3.168   0.971
 3106SOL     OW10216   5.534   6.938   5.530
 3106SOL    HW110217   5.438   6.951   5.505
 3106SOL    HW210218   5.554   6.985   5.615
 3107SOL     OW10219   4.508   1.664   4.242
 3107SOL    HW110220   4.507   1.764   4.235
 3107SOL    HW210221   4.586   1.628   4.192
 3108SOL     OW10222   1.994   5.313   4.678
 3108SOL    HW110223   2.064   5.271   4.736
 3108SOL    HW210224   1.910   5.325   4.731
 3109SOL     OW10225   6.351   0.385   4.496
 3109SOL    HW110226   6.396   0.465   4.456
 3109SOL    HW210227   6.303   0.335   4.423
 3110SOL     OW10228   2.406   4.418   3.340
 3110SOL    HW110229   2.314   4.428   3.302
 3110SOL    HW210230   2.472   4.405   3.266
 3111SOL     OW10231   6.898   4.717   3.367
 3111SOL    HW110232   6.952   4.796   3.396
 3111SOL    HW210233   6.818   4.748   3.316
 3112SOL     OW10234   3.113   3.604   6.816
 3112SOL    HW110235   3.107   3.701   6.794
 3112SOL    HW210236   3.150   3.554   6.738
 3113SOL     OW10237   3.403   5.886   2.618
 3113SOL    HW110238   3.486   5.832   2.632
 3113SOL    HW210239   3.427   5.979   2.590
 3114SOL     OW10240   3.982   1.314   0.212
 3114SOL    HW110241   3.974   1.320   0.312
 3114SOL    HW210242   4.040   1.236   0.189
 3115SOL     OW10243   3.849   4.729   5.275
 3115SOL    HW110244   3.764   4.781   5.279
 3115SOL    HW210245   3.848   4.658   5.346
 3116SOL     OW10246   0.602   2.155   0.421
 3116SOL    HW110247   0.569   2.248   0.401
 3116SOL    HW210248   0.639   2.114   0.338
 3117SOL     OW10249   4.710   2.709   5.590
 3117SOL    HW110250   4.702   2.635   5.523
 3117SOL    HW210251   4.755   2.676   5.672
 3118SOL     OW10252   1.298   0.261   2.330
 3118SOL    HW110253   1.264   0.241   2.238
 3118SOL    HW210254   1.349   0.348   2.328
 3119SOL     OW10255   3.069   2.747   5.486
 3119SOL    HW110256   3.123   2.665   5.505
 3119SOL    HW210257   3.114   2.800   5.414
 3120SOL     OW10258   3.141   0.494   5.877
 3120SOL    HW110259   3.217   0.555   5.899
 3120SOL    HW210260   3.055   0.534   5.908
 3121SOL     OW10261   5.485   1.698   4.325
 3121SOL    HW110262   5.471   1.757   4.246
 3121SOL    HW210263   5.583   1.694   4.347
 3122SOL     OW10264   4.468   4.701   5.151
 3122SOL    HW110265   4.412   4.772   5.108
 3122SOL    HW210266   4.464   4.618   5.095
 3123SOL     OW10267   1.701   0.699   3.569
 3123SOL    HW110268   1.678   0.606   3.599
 3123SOL    HW210269   1.631   0.762   3.603
 3124SOL     OW10270   5.322   6.702   3.950
 3124SOL    HW110271   5.224   6.690   3.932
 3124SOL    HW210272   5.374   6.685   3.867
 3125SOL     OW10273   0.960   2.960   5.449
 3125SOL    HW110274   0.988   2.999   5.361
 3125SOL    HW210275   0.995   2.866   5.456
 3126SOL     OW10276   5.368   4.762   6.407
 3126SOL    HW110277   5.430   4.833   6.439
 3126SOL    HW210278   5.412   4.709   6.334
 3127SOL     OW10279   1.501   2.695   5.041
 3127SOL    HW110280   1.570   2.744   4.988
 3127SOL    HW210281   1.543   2.656   5.123
 3128SOL     OW10282   3.775   0.790   0.303
 3128SOL    HW110283   3.830   0.744   0.373
 3128SOL    HW210284   3.761   0.729   0.225
 3129SOL     OW10285   4.873   3.394   1.063
 3129SOL    HW110286   4.783   3.350   1.056
 3129SOL    HW210287   4.861   3.485   1.104
 3130SOL     OW10288   1.459   4.067   1.442
 3130SOL    HW110289   1.390   4.099   1.377
 3130SOL    HW210290   1.507   4.146   1.481
 3131SOL     OW10291   0.117   3.162   2.480
 3131SOL    HW110292   0.191   3.181   2.416
 3131SOL    HW210293   0.113   3.064   2.499
 3132SOL     OW10294   4.231   5.264   6.867
 3132SOL    HW110295   4.198   5.172   6.889
 3132SOL    HW210296   4.331   5.264   6.867
 3133SOL     OW10297   3.722   1.451   3.186
 3133SOL    HW110298   3.756   1.545   3.185
 3133SOL    HW210299   3.657   1.440   3.261
 3134SOL     OW10300   3.786   5.073   1.858
 3134SOL    HW110301   3.835   4.985   1.858
 3134SOL    HW210302   3.816   5.128   1.935
 3135SOL     OW10303   5.150   6.583   6.385
 3135SOL    HW110304   5.223   6.549   6.325
 3135SOL    HW210305   5.144   6.526   6.466
 3136SOL     OW10306   5.727   0.574   1.770
 3136SOL    HW110307   5.723   0.674   1.772
 3136SOL    HW210308   5.694   0.538   1.857
 3137SOL     OW10309   6.592   7.009   2.349
 3137SOL    HW110310   6.661   0.006   2.280
 3137SOL    HW210311   6.502   7.004   2.306
 3138SOL     OW10312   6.332   5.425   3.568
 3138SOL    HW110313   6.318   5.374   3.483
 3138SOL    HW210314   6.427   5.415   3.597
 3139SOL     OW10315   3.294   4.884   1.707
 3139SOL    HW110316   3.314   4.786   1.698
 3139SOL    HW210317   3.369   4.929   1.756
 3140SOL     OW10318   6.845   6.018   5.400
 3140SOL    HW110319   6.944   6.012   5.387
 3140SOL    HW210320   6.814   6.112   5.385
 3141SOL     OW10321   6.967   0.754   6.605
 3141SOL    HW110322   0.035   0.768   6.645
 3141SOL    HW210323   6.967   0.668   6.553
 3142SOL     OW10324   3.787   1.128   2.819
 3142SOL    HW110325   3.734   1.078   2.888
 3142SOL    HW210326   3.860   1.179   2.865
 3143SOL     OW10327   6.118   2.112   6.690
 3143SOL    HW110328   6.148   2.196   6.734
 3143SOL    HW210329   6.031   2.128   6.643
 3144SOL     OW10330   4.187   3.643   0.143
 3144SOL    HW110331   4.095   3.630   0.180
 3144SOL    HW210332   4.212   3.565   0.086
 3145SOL     OW10333   1.887   6.579   2.727
 3145SOL    HW110334   1.941   6.589   2.810
 3145SOL    HW210335   1.805   6.524   2.747
 3146SOL     OW10336   0.709   0.916   5.071
 3146SOL    HW110337   0.766   0.994   5.045
 3146SOL    HW210338   0.629   0.912   5.011
 3147SOL     OW10339   3.170   5.211   6.666
 3147SOL    HW110340   3.098   5.277   6.643
 3147SOL    HW210341   3.252   5.232   6.613
 3148SOL     OW10342   0.407   0.385   4.182
 3148SOL    HW110343   0.356   0.301   4.164
 3148SOL    HW210344   0.434   0.427   4.095
 3149SOL     OW10345   3.268   1.525   6.880
 3149SOL    HW110346   3.349   1.564   6.925
 3149SOL    HW210347   3.202   1.598   6.861
 3150SOL     OW10348   6.425   5.688   5.398
 3150SOL    HW110349   6.436   5.680   5.299
 3150SOL    HW210350   6.400   5.598   5.435
 3151SOL     OW10351   0.044   2.057   5.819
 3151SOL    HW110352   0.072   2.094   5.730
 3151SOL    HW210353   0.107   2.088   5.890
 3152SOL     OW10354   1.061   4.459   6.974
 3152SOL    HW110355   1.107   4.523   6.912
 3152SOL    HW210356   0.971   4.436   6.938
 3153SOL     OW10357   5.852   5.013   0.003
 3153SOL    HW110358   5.775   5.073   0.024
 3153SOL    HW210359   5.823   4.918   0.011
 3154SOL     OW10360   5.974   0.860   1.306
 3154SOL    HW110361   5.913   0.816   1.372
 3154SOL    HW210362   6.015   0.791   1.247
 3155SOL     OW10363   6.512   4.417   0.298
 3155SOL    HW110364   6.453   4.390   0.373
 3155SOL    HW210365   6.510   4.346   0.227
 3156SOL     OW10366   3.169   4.058   2.212
 3156SOL    HW110367   3.122   4.003   2.281
 3156SOL    HW210368   3.149   4.155   2.228
 3157SOL     OW10369   1.787   1.940   5.282
 3157SOL    HW110370   1.864   1.879   5.259
 3157SOL    HW210371   1.718   1.889   5.332
 3158SOL     OW10372   3.021   1.545   4.815
 3158SOL    HW110373   3.062   1.566   4.904
 3158SOL    HW210374   2.942   1.605   4.800
 3159SOL     OW10375   5.727   0.437   6.627
 3159SOL    HW110376   5.809   0.449   6.683
 3159SOL    HW210377   5.716   0.340   6.604
 3160SOL     OW10378   1.826   6.552   5.658
 3160SOL    HW110379   1.731   6.570   5.632
 3160SOL    HW210380   1.877   6.518   5.579
 3161SOL     OW10381   2.036   2.353   2.667
 3161SOL    HW110382   2.059   2.445   2.636
 3161SOL    HW210383   2.111   2.317   2.723
 3162SOL     OW10384   1.728   5.791   0.785
 3162SOL    HW110385   1.733   5.849   0.867
 3162SOL    HW210386   1.755   5.844   0.705
 3163SOL     OW10387   3.285   3.503   7.013
 3163SOL    HW110388   3.234   3.548   6.940
 3163SOL    HW210389   3.260   3.544   0.078
 3164SOL     OW10390   3.646   5.754   2.723
 3164SOL    HW110391   3.654   5.697   2.642
 3164SOL    HW210392   3.737   5.780   2.755
 3165SOL     OW10393   1.115   5.538   1.173
 3165SOL    HW110394   1.124   5.535   1.073
 3165SOL    HW210395   1.139   5.449   1.211
 3166SOL     OW10396   4.569   1.321   4.514
 3166SOL    HW110397   4.561   1.420   4.524
 3166SOL    HW210398   4.599   1.299   4.421
 3167SOL     OW10399   5.560   4.603   0.644
 3167SOL    HW110400   5.611   4.675   0.596
 3167SOL    HW210401   5.602   4.588   0.734
 3168SOL     OW10402   5.531   2.457   0.812
 3168SOL    HW110403   5.593   2.404   0.869
 3168SOL    HW210404   5.563   2.552   0.807
 3169SOL     OW10405   1.899   3.955   3.244
 3169SOL    HW110406   1.806   3.944   3.280
 3169SOL    HW210407   1.961   3.894   3.293
 3170SOL     OW10408   4.071   5.983   2.909
 3170SOL    HW110409   4.107   6.076   2.899
 3170SOL    HW210410   4.146   5.920   2.930
 3171SOL     OW10411   5.845   2.241   1.785
 3171SOL    HW110412   5.938   2.268   1.813
 3171SOL    HW210413   5.851   2.172   1.713
 3172SOL     OW10414   0.401   5.499   0.257
 3172SOL    HW110415   0.357   5.489   0.346
 3172SOL    HW210416   0.390   5.594   0.225
 3173SOL     OW10417   3.257   2.894   6.617
 3173SOL    HW110418   3.337   2.895   6.678
 3173SOL    HW210419   3.202   2.976   6.634
 3174SOL     OW10420   2.316   2.939   6.144
 3174SOL    HW110421   2.289   3.003   6.217
 3174SOL    HW210422   2.260   2.955   6.063
 3175SOL     OW10423   5.937   1.365   1.705
 3175SOL    HW110424   5.952   1.266   1.716
 3175SOL    HW210425   5.844   1.382   1.674
 3176SOL     OW10426   0.909   3.071   5.688
 3176SOL    HW110427   0.935   3.047   5.594
 3176SOL    HW210428   0.811   3.058   5.699
 3177SOL     OW10429   5.343   4.487   3.980
 3177SOL    HW110430   5.421   4.503   4.040
 3177SOL    HW210431   5.328   4.569   3.924
 3178SOL     OW10432   6.037   2.567   0.175
 3178SOL    HW110433   6.017   2.531   0.266
 3178SOL    HW210434   6.112   2.516   0.135
 3179SOL     OW10435   1.508   1.393   1.626
 3179SOL    HW110436   1.431   1.400   1.561
 3179SOL    HW210437   1.553   1.481   1.634
 3180SOL     OW10438   5.646   6.587   0.525
 3180SOL    HW110439   5.554   6.590   0.487
 3180SOL    HW210440   5.648   6.526   0.604
 3181SOL     OW10441   6.968   2.181   4.112
 3181SOL    HW110442   0.027   2.127   4.095
 3181SOL    HW210443   6.907   2.129   4.172
 3182SOL     OW10444   2.901   0.755   6.481
 3182SOL    HW110445   2.807   0.729   6.458
 3182SOL    HW210446   2.907   0.772   6.580
 3183SOL     OW10447   4.368   4.652   2.081
 3183SOL    HW110448   4.421   4.737   2.079
 3183SOL    HW210449   4.279   4.670   2.124
 3184SOL     OW10450   0.525   1.928   2.678
 3184SOL    HW110451   0.545   1.831   2.663
 3184SOL    HW210452   0.607   1.982   2.663
 3185SOL     OW10453   5.392   6.466   6.305
 3185SOL    HW110454   5.404   6.427   6.214
 3185SOL    HW210455   5.463   6.431   6.366
 3186SOL     OW10456   2.786   1.465   0.241
 3186SOL    HW110457   2.812   1.540   0.302
 3186SOL    HW210458   2.868   1.427   0.198
 3187SOL     OW10459   3.587   5.306   2.309
 3187SOL    HW110460   3.634   5.360   2.379
 3187SOL    HW210461   3.495   5.285   2.341
 3188SOL     OW10462   1.911   5.962   4.431
 3188SOL    HW110463   1.813   5.958   4.415
 3188SOL    HW210464   1.933   6.043   4.485
 3189SOL     OW10465   2.030   1.542   0.679
 3189SOL    HW110466   2.029   1.490   0.764
 3189SOL    HW210467   2.015   1.480   0.602
 3190SOL     OW10468   0.046   5.919   6.891
 3190SOL    HW110469   0.139   5.893   6.864
 3190SOL    HW210470   0.012   5.855   6.959
 3191SOL     OW10471   4.468   5.048   1.591
 3191SOL    HW110472   4.558   5.039   1.635
 3191SOL    HW210473   4.403   4.987   1.636
 3192SOL     OW10474   0.173   2.799   0.947
 3192SOL    HW110475   0.204   2.774   0.856
 3192SOL    HW210476   0.101   2.737   0.977
 3193SOL     OW10477   3.925   1.744   4.935
 3193SOL    HW110478   3.996   1.707   4.995
 3193SOL    HW210479   3.968   1.798   4.862
 3194SOL     OW10480   0.549   1.281   5.609
 3194SOL    HW110481   0.588   1.208   5.666
 3194SOL    HW210482   0.450   1.271   5.606
 3195SOL     OW10483   0.853   1.117   1.333
 3195SOL    HW110484   0.895   1.175   1.264
 3195SOL    HW210485   0.906   1.033   1.343
 3196SOL     OW10486   6.434   0.674   6.685
 3196SOL    HW110487   6.421   0.587   6.637
 3196SOL    HW210488   6.526   0.709   6.665
 3197SOL     OW10489   2.471   6.879   5.393
 3197SOL    HW110490   2.551   6.844   5.343
 3197SOL    HW210491   2.485   6.975   5.415
 3198SOL     OW10492   6.344   2.714   3.316
 3198SOL    HW110493   6.362   2.777   3.392
 3198SOL    HW210494   6.246   2.710   3.298
 3199SOL     OW10495   5.329   4.541   2.752
 3199SOL    HW110496   5.303   4.468   2.689
 3199SOL    HW210497   5.426   4.532   2.775
 3200SOL     OW10498   5.832   2.781   2.864
 3200SOL    HW110499   5.823   2.828   2.776
 3200SOL    HW210500   5.742   2.773   2.907
 3201SOL     OW10501   6.463   4.882   3.167
 3201SOL    HW110502   6.394   4.819   3.132
 3201SOL    HW210503   6.475   4.958   3.102
 3202SOL     OW10504   0.768   5.125   0.559
 3202SOL    HW110505   0.849   5.174   0.527
 3202SOL    HW210506   0.787   5.084   0.648
 3203SOL     OW10507   5.691   1.749   1.390
 3203SOL    HW110508   5.725   1.747   1.484
 3203SOL    HW210509   5.748   1.811   1.336
 3204SOL     OW10510   3.506   0.618   3.553
 3204SOL    HW110511   3.412   0.610   3.586
 3204SOL    HW210512   3.534   0.532   3.511
 3205SOL     OW10513   5.005   2.916   5.808
 3205SOL    HW110514   5.023   3.012   5.827
 3205SOL    HW210515   4.907   2.901   5.801
 3206SOL     OW10516   1.824   3.899   1.107
 3206SOL    HW110517   1.753   3.921   1.041
 3206SOL    HW210518   1.830   3.972   1.175
 3207SOL     OW10519   1.467   0.748   6.760
 3207SOL    HW110520   1.466   0.651   6.736
 3207SOL    HW210521   1.479   0.757   6.859
 3208SOL     OW10522   5.101   5.924   6.389
 3208SOL    HW110523   5.133   5.851   6.328
 3208SOL    HW210524   5.178   5.958   6.443
 3209SOL     OW10525   3.062   5.151   4.551
 3209SOL    HW110526   2.962   5.153   4.560
 3209SOL    HW210527   3.096   5.245   4.550
 3210SOL     OW10528   1.232   5.047   1.088
 3210SOL    HW110529   1.224   5.009   1.180
 3210SOL    HW210530   1.143   5.042   1.042
 3211SOL     OW10531   1.986   4.294   0.521
 3211SOL    HW110532   2.015   4.240   0.442
 3211SOL    HW210533   2.064   4.308   0.583
 3212SOL     OW10534   3.204   6.933   2.652
 3212SOL    HW110535   3.221   6.920   2.750
 3212SOL    HW210536   3.282   6.980   2.610
 3213SOL     OW10537   1.456   0.478   6.678
 3213SOL    HW110538   1.375   0.472   6.619
 3213SOL    HW210539   1.477   0.388   6.715
 3214SOL     OW10540   4.928   5.704   2.456
 3214SOL    HW110541   4.879   5.642   2.517
 3214SOL    HW210542   4.900   5.799   2.475
 3215SOL     OW10543   0.397   3.817   0.705
 3215SOL    HW110544   0.396   3.771   0.616
 3215SOL    HW210545   0.331   3.892   0.704
 3216SOL     OW10546   5.697   5.338   0.820
 3216SOL    HW110547   5.612   5.388   0.806
 3216SOL    HW210548   5.711   5.274   0.745
 3217SOL     OW10549   0.328   5.206   2.783
 3217SOL    HW110550   0.371   5.169   2.865
 3217SOL    HW210551   0.349   5.148   2.705
 3218SOL     OW10552   5.578   2.520   3.330
 3218SOL    HW110553   5.612   2.545   3.239
 3218SOL    HW210554   5.587   2.598   3.392
 3219SOL     OW10555   6.899   0.504   4.298
 3219SOL    HW110556   6.960   0.445   4.245
 3219SOL    HW210557   6.907   0.598   4.266
 3220SOL     OW10558   0.326   5.908   6.205
 3220SOL    HW110559   0.303   5.860   6.120
 3220SOL    HW210560   0.242   5.930   6.254
 3221SOL     OW10561   3.404   0.093   2.550
 3221SOL    HW110562   3.495   0.132   2.539
 3221SOL    HW210563   3.354   0.141   2.622
 3222SOL     OW10564   2.973   1.334   2.680
 3222SOL    HW110565   2.950   1.430   2.694
 3222SOL    HW210566   3.060   1.314   2.725
 3223SOL     OW10567   2.539   6.809   0.139
 3223SOL    HW110568   2.537   6.713   0.167
 3223SOL    HW210569   2.630   6.832   0.105
 3224SOL     OW10570   4.847   2.772   5.035
 3224SOL    HW110571   4.857   2.685   4.986
 3224SOL    HW210572   4.815   2.842   4.972
 3225SOL     OW10573   4.467   1.602   5.370
 3225SOL    HW110574   4.367   1.606   5.378
 3225SOL    HW210575   4.504   1.543   5.441
 3226SOL     OW10576   2.230   1.145   2.287
 3226SOL    HW110577   2.144   1.095   2.300
 3226SOL    HW210578   2.225   1.198   2.202
 3227SOL     OW10579   3.539   3.714   6.804
 3227SOL    HW110580   3.491   3.628   6.785
 3227SOL    HW210581   3.635   3.695   6.824
 3228SOL     OW10582   6.744   3.541   0.878
 3228SOL    HW110583   6.834   3.550   0.834
 3228SOL    HW210584   6.700   3.457   0.847
 3229SOL     OW10585   3.814   0.952   5.670
 3229SOL    HW110586   3.762   0.973   5.587
 3229SOL    HW210587   3.912   0.958   5.651
 3230SOL     OW10588   2.146   5.632   5.962
 3230SOL    HW110589   2.242   5.656   5.976
 3230SOL    HW210590   2.138   5.572   5.882
 3231SOL     OW10591   2.700   0.573   2.510
 3231SOL    HW110592   2.778   0.607   2.457
 3231SOL    HW210593   2.667   0.646   2.570
 3232SOL     OW10594   4.104   5.899   4.191
 3232SOL    HW110595   4.104   5.929   4.286
 3232SOL    HW210596   4.089   5.977   4.131
 3233SOL     OW10597   6.858   2.466   0.388
 3233SOL    HW110598   6.906   2.486   0.303
 3233SOL    HW210599   6.806   2.546   0.417
 3234SOL     OW10600   0.848   2.644   0.230
 3234SOL    HW110601   0.843   2.599   0.141
 3234SOL    HW210602   0.872   2.740   0.218
 3235SOL     OW10603   6.595   0.222   1.599
 3235SOL    HW110604   6.638   0.131   1.599
 3235SOL    HW210605   6.657   0.288   1.642
 3236SOL     OW10606   0.666   4.173   0.434
 3236SOL    HW110607   0.724   4.254   0.428
 3236SOL    HW210608   0.716   4.099   0.479
 3237SOL     OW10609   5.847   1.348   2.554
 3237SOL    HW110610   5.943   1.345   2.527
 3237SOL    HW210611   5.840   1.349   2.653
 3238SOL     OW10612   5.946   5.343   7.020
 3238SOL    HW110613   5.856   5.303   7.001
 3238SOL    HW210614   6.001   5.278   0.049
 3239SOL     OW10615   0.599   0.645   2.959
 3239SOL    HW110616   0.624   0.672   2.866
 3239SOL    HW210617   0.546   0.717   3.002
 3240SOL     OW10618   0.014   0.291   6.227
 3240SOL    HW110619   0.094   0.267   6.282
 3240SOL    HW210620   6.955   0.262   6.275
 3241SOL     OW10621   5.080   1.453   5.755
 3241SOL    HW110622   5.162   1.511   5.757
 3241SOL    HW210623   5.059   1.421   5.847
 3242SOL     OW10624   4.514   3.794   6.114
 3242SOL    HW110625   4.526   3.849   6.031
 3242SOL    HW210626   4.603   3.762   6.146
 3243SOL     OW10627   4.326   5.235   0.213
 3243SOL    HW110628   4.415   5.191   0.222
 3243SOL    HW210629   4.332   5.310   0.148
 3244SOL     OW10630   5.455   6.003   0.070
 3244SOL    HW110631   5.507   5.925   0.036
 3244SOL    HW210632   5.501   6.042   0.150
 3245SOL     OW10633   4.943   1.713   4.248
 3245SOL    HW110634   4.992   1.630   4.273
 3245SOL    HW210635   4.987   1.754   4.168
 3246SOL     OW10636   6.830   0.106   2.834
 3246SOL    HW110637   6.836   0.107   2.734
 3246SOL    HW210638   6.833   0.011   2.867
 3247SOL     OW10639   6.043   4.213   1.884
 3247SOL    HW110640   6.082   4.130   1.923
 3247SOL    HW210641   5.945   4.202   1.872
 3248SOL     OW10642   5.618   2.576   2.702
 3248SOL    HW110643   5.587   2.664   2.667
 3248SOL    HW210644   5.698   2.546   2.651
 3249SOL     OW10645   3.258   4.037   3.520
 3249SOL    HW110646   3.191   4.028   3.447
 3249SOL    HW210647   3.344   4.072   3.482
 3250SOL     OW10648   5.678   0.341   2.504
 3250SOL    HW110649   5.764   0.331   2.453
 3250SOL    HW210650   5.660   0.258   2.556
 3251SOL     OW10651   3.705   0.942   3.957
 3251SOL    HW110652   3.753   0.991   4.030
 3251SOL    HW210653   3.708   0.844   3.975
 3252SOL     OW10654   2.972   0.994   2.565
 3252SOL    HW110655   2.949   0.953   2.477
 3252SOL    HW210656   2.888   1.022   2.612
 3253SOL     OW10657   4.209   3.557   0.435
 3253SOL    HW110658   4.159   3.634   0.396
 3253SOL    HW210659   4.144   3.495   0.479
 3254SOL     OW10660   5.167   6.329   6.934
 3254SOL    HW110661   5.243   6.341   6.870
 3254SOL    HW210662   5.083   6.364   6.894
 3255SOL     OW10663   4.724   6.578   1.330
 3255SOL    HW110664   4.641   6.634   1.329
 3255SOL    HW210665   4.800   6.630   1.291
 3256SOL     OW10666   3.718   1.701   1.132
 3256SOL    HW110667   3.720   1.701   1.232
 3256SOL    HW210668   3.689   1.792   1.100
 3257SOL     OW10669   1.549   1.658   1.734
 3257SOL    HW110670   1.459   1.669   1.692
 3257SOL    HW210671   1.547   1.696   1.827
 3258SOL     OW10672   4.066   5.432   3.269
 3258SOL    HW110673   3.969   5.413   3.289
 3258SOL    HW210674   4.115   5.346   3.260
 3259SOL     OW10675   4.724   4.690   4.482
 3259SOL    HW110676   4.744   4.787   4.496
 3259SOL    HW210677   4.809   4.639   4.476
 3260SOL     OW10678   1.872   3.182   1.509
 3260SOL    HW110679   1.871   3.211   1.605
 3260SOL    HW210680   1.964   3.150   1.484
 3261SOL     OW10681   5.435   0.978   1.429
 3261SOL    HW110682   5.348   1.008   1.389
 3261SOL    HW210683   5.418   0.903   1.493
 3262SOL     OW10684   3.900   2.088   2.040
 3262SOL    HW110685   3.942   2.140   1.965
 3262SOL    HW210686   3.801   2.102   2.039
 3263SOL     OW10687   3.166   1.563   2.906
 3263SOL    HW110688   3.264   1.563   2.886
 3263SOL    HW210689   3.141   1.478   2.951
 3264SOL     OW10690   2.344   5.739   0.998
 3264SOL    HW110691   2.298   5.650   0.999
 3264SOL    HW210692   2.289   5.803   0.944
 3265SOL     OW10693   5.465   7.013   6.511
 3265SOL    HW110694   5.448   0.018   6.417
 3265SOL    HW210695   5.432   6.920   6.524
 3266SOL     OW10696   2.829   5.002   6.881
 3266SOL    HW110697   2.739   5.045   6.896
 3266SOL    HW210698   2.849   4.940   6.957
 3267SOL     OW10699   3.003   6.730   2.260
 3267SOL    HW110700   2.993   6.774   2.349
 3267SOL    HW210701   3.031   6.635   2.272
 3268SOL     OW10702   2.189   4.089   1.290
 3268SOL    HW110703   2.280   4.077   1.330
 3268SOL    HW210704   2.176   4.022   1.217
 3269SOL     OW10705   6.498   5.888   2.086
 3269SOL    HW110706   6.502   5.900   2.185
 3269SOL    HW210707   6.498   5.978   2.042
 3270SOL     OW10708   1.571   3.712   6.320
 3270SOL    HW110709   1.610   3.727   6.411
 3270SOL    HW210710   1.641   3.674   6.259
 3271SOL     OW10711   7.006   2.911   1.417
 3271SOL    HW110712   0.047   2.906   1.340
 3271SOL    HW210713   0.029   2.949   1.497
 3272SOL     OW10714   3.019   4.175   6.173
 3272SOL    HW110715   3.109   4.201   6.206
 3272SOL    HW210716   2.950   4.234   6.215
 3273SOL     OW10717   6.278   4.846   6.984
 3273SOL    HW110718   6.251   4.751   7.003
 3273SOL    HW210719   6.203   4.892   6.935
 3274SOL     OW10720   5.791   0.464   0.657
 3274SOL    HW110721   5.708   0.521   0.656
 3274SOL    HW210722   5.782   0.394   0.727
 3275SOL     OW10723   4.866   0.974   6.939
 3275SOL    HW110724   4.863   0.960   0.014
 3275SOL    HW210725   4.774   0.996   6.906
 3276SOL     OW10726   4.335   6.502   6.636
 3276SOL    HW110727   4.311   6.421   6.582
 3276SOL    HW210728   4.376   6.571   6.576
 3277SOL     OW10729   3.705   0.821   1.217
 3277SOL    HW110730   3.783   0.789   1.162
 3277SOL    HW210731   3.681   0.914   1.189
 3278SOL     OW10732   1.366   0.694   5.831
 3278SOL    HW110733   1.372   0.730   5.738
 3278SOL    HW210734   1.271   0.668   5.851
 3279SOL     OW10735   5.525   0.081   0.515
 3279SOL    HW110736   5.453   0.054   0.451
 3279SOL    HW210737   5.532   0.013   0.588
 3280SOL     OW10738   5.059   4.826   5.181
 3280SOL    HW110739   4.996   4.758   5.143
 3280SOL    HW210740   5.109   4.870   5.107
 3281SOL     OW10741   0.871   5.049   0.843
 3281SOL    HW110742   0.952   4.991   0.854
 3281SOL    HW210743   0.899   5.145   0.839
 3282SOL     OW10744   6.773   5.039   5.206
 3282SOL    HW110745   6.780   5.120   5.265
 3282SOL    HW210746   6.691   4.988   5.229
 3283SOL     OW10747   3.355   1.289   1.198
 3283SOL    HW110748   3.277   1.335   1.154
 3283SOL    HW210749   3.434   1.350   1.196
 3284SOL     OW10750   1.405   6.038   5.621
 3284SOL    HW110751   1.503   6.016   5.620
 3284SOL    HW210752   1.359   5.983   5.690
 3285SOL     OW10753   4.503   2.364   4.709
 3285SOL    HW110754   4.465   2.322   4.626
 3285SOL    HW210755   4.594   2.328   4.726
 3286SOL     OW10756   3.302   2.836   1.809
 3286SOL    HW110757   3.303   2.738   1.789
 3286SOL    HW210758   3.389   2.877   1.781
 3287SOL     OW10759   0.354   6.977   0.257
 3287SOL    HW110760   0.310   6.940   0.175
 3287SOL    HW210761   0.285   7.005   0.323
 3288SOL     OW10762   1.819   6.882   0.322
 3288SOL    HW110763   1.885   6.809   0.333
 3288SOL    HW210764   1.731   6.845   0.291
 3289SOL     OW10765   2.717   1.660   6.193
 3289SOL    HW110766   2.692   1.737   6.135
 3289SOL    HW210767   2.659   1.581   6.172
 3290SOL     OW10768   6.608   4.998   0.546
 3290SOL    HW110769   6.597   4.905   0.511
 3290SOL    HW210770   6.526   5.025   0.597
 3291SOL     OW10771   2.126   1.377   5.894
 3291SOL    HW110772   2.208   1.342   5.940
 3291SOL    HW210773   2.052   1.386   5.960
 3292SOL     OW10774   0.100   1.045   0.780
 3292SOL    HW110775   0.052   1.132   0.789
 3292SOL    HW210776   0.158   1.047   0.699
 3293SOL     OW10777   6.601   4.527   1.549
 3293SOL    HW110778   6.688   4.477   1.551
 3293SOL    HW210779   6.597   4.588   1.628
 3294SOL     OW10780   5.032   2.964   6.509
 3294SOL    HW110781   5.120   3.009   6.517
 3294SOL    HW210782   4.997   2.975   6.415
 3295SOL     OW10783   0.748   2.936   1.965
 3295SOL    HW110784   0.789   2.853   2.004
 3295SOL    HW210785   0.812   2.979   1.902
 3296SOL     OW10786   1.245   0.668   2.825
 3296SOL    HW110787   1.157   0.628   2.853
 3296SOL    HW210788   1.255   0.758   2.867
 3297SOL     OW10789   2.644   1.279   5.319
 3297SOL    HW110790   2.733   1.266   5.274
 3297SOL    HW210791   2.579   1.315   5.253
 3298SOL     OW10792   6.609   2.752   5.888
 3298SOL    HW110793   6.651   2.675   5.842
 3298SOL    HW210794   6.663   2.835   5.872
 3299SOL     OW10795   3.857   6.260   2.763
 3299SOL    HW110796   3.896   6.350   2.747
 3299SOL    HW210797   3.918   6.190   2.726
 3300SOL     OW10798   1.174   0.380   6.108
 3300SOL    HW110799   1.257   0.416   6.066
 3300SOL    HW210800   1.105   0.452   6.112
 3301SOL     OW10801   1.795   2.642   3.554
 3301SOL    HW110802   1.845   2.571   3.504
 3301SOL    HW210803   1.821   2.732   3.519
 3302SOL     OW10804   0.684   4.594   5.248
 3302SOL    HW110805   0.704   4.686   5.281
 3302SOL    HW210806   0.648   4.599   5.154
 3303SOL     OW10807   3.213   3.614   0.233
 3303SOL    HW110808   3.146   3.670   0.185
 3303SOL    HW210809   3.247   3.664   0.314
 3304SOL     OW10810   1.840   5.255   6.244
 3304SOL    HW110811   1.826   5.352   6.264
 3304SOL    HW210812   1.938   5.237   6.237
 3305SOL     OW10813   2.470   1.571   2.249
 3305SOL    HW110814   2.515   1.616   2.171
 3305SOL    HW210815   2.493   1.619   2.333
 3306SOL     OW10816   1.454   5.079   4.527
 3306SOL    HW110817   1.441   5.173   4.496
 3306SOL    HW210818   1.515   5.077   4.606
 3307SOL     OW10819   0.892   6.812   5.643
 3307SOL    HW110820   0.879   6.888   5.579
 3307SOL    HW210821   0.903   6.848   5.735
 3308SOL     OW10822   3.138   5.368   1.404
 3308SOL    HW110823   3.204   5.428   1.449
 3308SOL    HW210824   3.047   5.385   1.441
 3309SOL     OW10825   6.837   4.911   3.767
 3309SOL    HW110826   6.805   4.922   3.861
 3309SOL    HW210827   6.828   4.815   3.740
 3310SOL     OW10828   6.817   4.167   4.787
 3310SOL    HW110829   6.839   4.187   4.692
 3310SOL    HW210830   6.886   4.208   4.847
 3311SOL     OW10831   3.350   4.263   0.607
 3311SOL    HW110832   3.442   4.292   0.635
 3311SOL    HW210833   3.298   4.234   0.687
 3312SOL     OW10834   3.875   3.865   5.752
 3312SOL    HW110835   3.952   3.886   5.692
 3312SOL    HW210836   3.876   3.926   5.831
 3313SOL     OW10837   0.979   6.828   3.933
 3313SOL    HW110838   0.904   6.893   3.945
 3313SOL    HW210839   0.971   6.784   3.844
 3314SOL     OW10840   2.521   1.379   2.530
 3314SOL    HW110841   2.556   1.331   2.450
 3314SOL    HW210842   2.576   1.462   2.545
 3315SOL     OW10843   0.182   3.806   4.562
 3315SOL    HW110844   0.191   3.744   4.484
 3315SOL    HW210845   0.175   3.900   4.530
 3316SOL     OW10846   4.406   0.877   5.107
 3316SOL    HW110847   4.474   0.806   5.089
 3316SOL    HW210848   4.365   0.907   5.021
 3317SOL     OW10849   4.930   2.573   2.124
 3317SOL    HW110850   4.957   2.518   2.203
 3317SOL    HW210851   4.906   2.512   2.048
 3318SOL     OW10852   1.712   1.591   0.671
 3318SOL    HW110853   1.802   1.552   0.647
 3318SOL    HW210854   1.666   1.529   0.735
 3319SOL     OW10855   5.684   1.152   3.969
 3319SOL    HW110856   5.737   1.082   4.017
 3319SOL    HW210857   5.652   1.116   3.882
 3320SOL     OW10858   6.000   1.226   0.167
 3320SOL    HW110859   5.947   1.169   0.104
 3320SOL    HW210860   6.050   1.296   0.116
 3321SOL     OW10861   5.472   1.757   0.495
 3321SOL    HW110862   5.494   1.827   0.562
 3321SOL    HW210863   5.426   1.799   0.416
 3322SOL     OW10864   6.587   2.632   1.447
 3322SOL    HW110865   6.545   2.563   1.506
 3322SOL    HW210866   6.595   2.718   1.498
 3323SOL     OW10867   2.465   3.028   0.021
 3323SOL    HW110868   2.409   2.948   7.023
 3323SOL    HW210869   2.560   3.010   7.016
 3324SOL     OW10870   3.869   4.898   6.417
 3324SOL    HW110871   3.794   4.838   6.390
 3324SOL    HW210872   3.956   4.854   6.397
 3325SOL     OW10873   0.147   3.942   0.086
 3325SOL    HW110874   0.079   4.010   0.061
 3325SOL    HW210875   0.210   3.981   0.154
 3326SOL     OW10876   4.600   1.824   1.838
 3326SOL    HW110877   4.589   1.908   1.785
 3326SOL    HW210878   4.512   1.777   1.845
 3327SOL     OW10879   3.057   5.433   2.074
 3327SOL    HW110880   3.141   5.430   2.127
 3327SOL    HW210881   3.045   5.525   2.036
 3328SOL     OW10882   3.850   1.895   0.738
 3328SOL    HW110883   3.949   1.901   0.723
 3328SOL    HW210884   3.803   1.940   0.662
 3329SOL     OW10885   5.729   0.337   5.492
 3329SOL    HW110886   5.798   0.265   5.495
 3329SOL    HW210887   5.712   0.370   5.584
 3330SOL     OW10888   6.422   3.663   1.662
 3330SOL    HW110889   6.401   3.716   1.580
 3330SOL    HW210890   6.493   3.595   1.640
 3331SOL     OW10891   2.327   3.175   1.742
 3331SOL    HW110892   2.365   3.264   1.768
 3331SOL    HW210893   2.397   3.122   1.693
 3332SOL     OW10894   5.859   5.710   0.074
 3332SOL    HW110895   5.927   5.665   0.016
 3332SOL    HW210896   5.862   5.670   0.165
 3333SOL     OW10897   3.869   5.891   6.153
 3333SOL    HW110898   3.817   5.974   6.171
 3333SOL    HW210899   3.831   5.845   6.073
 3334SOL     OW10900   3.270   3.676   1.225
 3334SOL    HW110901   3.284   3.773   1.244
 3334SOL    HW210902   3.172   3.657   1.216
 3335SOL     OW10903   4.845   5.028   5.737
 3335SOL    HW110904   4.757   4.993   5.705
 3335SOL    HW210905   4.916   4.960   5.721
 3336SOL     OW10906   3.021   5.512   4.958
 3336SOL    HW110907   2.993   5.416   4.962
 3336SOL    HW210908   3.116   5.518   4.928
 3337SOL     OW10909   3.259   3.032   2.010
 3337SOL    HW110910   3.295   2.965   1.944
 3337SOL    HW210911   3.286   3.005   2.102
 3338SOL     OW10912   5.802   2.928   1.075
 3338SOL    HW110913   5.714   2.922   1.124
 3338SOL    HW210914   5.871   2.876   1.125
 3339SOL     OW10915   6.272   0.477   6.545
 3339SOL    HW110916   6.254   0.438   6.635
 3339SOL    HW210917   6.285   0.402   6.479
 3340SOL     OW10918   3.758   0.516   1.250
 3340SOL    HW110919   3.746   0.537   1.153
 3340SOL    HW210920   3.680   0.550   1.302
 3341SOL     OW10921   1.355   6.175   3.942
 3341SOL    HW110922   1.414   6.095   3.947
 3341SOL    HW210923   1.279   6.164   4.006
 3342SOL     OW10924   2.897   6.533   4.468
 3342SOL    HW110925   2.953   6.615   4.480
 3342SOL    HW210926   2.851   6.512   4.555
 3343SOL     OW10927   4.740   3.032   0.711
 3343SOL    HW110928   4.775   2.959   0.652
 3343SOL    HW210929   4.661   2.999   0.762
 3344SOL     OW10930   6.237   3.603   4.507
 3344SOL    HW110931   6.275   3.532   4.448
 3344SOL    HW210932   6.181   3.561   4.578
 3345SOL     OW10933   1.338   3.727   5.409
 3345SOL    HW110934   1.317   3.674   5.327
 3345SOL    HW210935   1.348   3.823   5.384
 3346SOL     OW10936   1.737   1.095   1.044
 3346SOL    HW110937   1.688   1.018   1.004
 3346SOL    HW210938   1.832   1.069   1.064
 3347SOL     OW10939   0.792   4.356   3.613
 3347SOL    HW110940   0.744   4.444   3.611
 3347SOL    HW210941   0.819   4.331   3.520
 3348SOL     OW10942   3.028   3.130   3.171
 3348SOL    HW110943   2.956   3.065   3.148
 3348SOL    HW210944   3.108   3.080   3.207
 3349SOL     OW10945   0.915   4.850   4.385
 3349SOL    HW110946   0.816   4.838   4.391
 3349SOL    HW210947   0.936   4.921   4.317
 3350SOL     OW10948   1.150   2.158   6.419
 3350SOL    HW110949   1.177   2.211   6.499
 3350SOL    HW210950   1.057   2.182   6.393
 3351SOL     OW10951   5.595   0.027   2.627
 3351SOL    HW110952   5.521   0.059   2.567
 3351SOL    HW210953   5.583   0.066   2.718
 3352SOL     OW10954   0.333   3.342   0.392
 3352SOL    HW110955   0.328   3.440   0.373
 3352SOL    HW210956   0.327   3.327   0.491
 3353SOL     OW10957   1.633   6.229   2.225
 3353SOL    HW110958   1.686   6.302   2.182
 3353SOL    HW210959   1.541   6.262   2.246
 3354SOL     OW10960   5.402   2.698   4.125
 3354SOL    HW110961   5.325   2.762   4.135
 3354SOL    HW210962   5.417   2.651   4.211
 3355SOL     OW10963   1.359   1.602   6.938
 3355SOL    HW110964   1.315   1.669   6.998
 3355SOL    HW210965   1.458   1.615   6.939
 3356SOL     OW10966   2.101   3.503   6.312
 3356SOL    HW110967   2.160   3.444   6.366
 3356SOL    HW210968   2.007   3.499   6.346
 3357SOL     OW10969   2.678   4.693   1.701
 3357SOL    HW110970   2.718   4.626   1.764
 3357SOL    HW210971   2.660   4.778   1.751
 3358SOL     OW10972   4.764   0.248   1.292
 3358SOL    HW110973   4.689   0.268   1.229
 3358SOL    HW210974   4.850   0.284   1.255
 3359SOL     OW10975   6.605   0.154   3.855
 3359SOL    HW110976   6.584   0.158   3.953
 3359SOL    HW210977   6.693   0.198   3.838
 3360SOL     OW10978   0.077   0.877   0.219
 3360SOL    HW110979   0.136   0.829   0.284
 3360SOL    HW210980   0.094   0.843   0.126
 3361SOL     OW10981   0.339   5.271   2.454
 3361SOL    HW110982   0.383   5.278   2.364
 3361SOL    HW210983   0.369   5.188   2.500
 3362SOL     OW10984   4.002   1.642   4.063
 3362SOL    HW110985   4.092   1.660   4.022
 3362SOL    HW210986   3.939   1.716   4.039
 3363SOL     OW10987   0.687   0.071   0.001
 3363SOL    HW110988   0.664   7.008   6.982
 3363SOL    HW210989   0.787   0.079   0.008
 3364SOL     OW10990   1.156   4.279   4.415
 3364SOL    HW110991   1.254   4.285   4.432
 3364SOL    HW210992   1.127   4.184   4.417
 3365SOL     OW10993   0.454   2.443   5.030
 3365SOL    HW110994   0.432   2.539   5.019
 3365SOL    HW210995   0.399   2.404   5.104
 3366SOL     OW10996   6.063   0.538   6.151
 3366SOL    HW110997   6.139   0.575   6.098
 3366SOL    HW210998   5.987   0.516   6.090
 3367SOL     OW10999   2.545   3.119   1.259
 3367SOL    HW111000   2.458   3.076   1.282
 3367SOL    HW211001   2.579   3.169   1.339
 3368SOL     OW11002   0.692   5.934   6.414
 3368SOL    HW111003   0.681   5.949   6.512
 3368SOL    HW211004   0.786   5.905   6.395
 3369SOL     OW11005   3.791   2.345   6.054
 3369SOL    HW111006   3.823   2.252   6.036
 3369SOL    HW211007   3.752   2.383   5.971
 3370SOL     OW11008   6.727   6.274   5.796
 3370SOL    HW111009   6.812   6.325   5.787
 3370SOL    HW211010   6.733   6.190   5.741
 3371SOL     OW11011   0.488   4.162   2.402
 3371SOL    HW111012   0.479   4.249   2.354
 3371SOL    HW211013   0.454   4.172   2.496
 3372SOL     OW11014   1.269   1.691   1.670
 3372SOL    HW111015   1.180   1.680   1.625
 3372SOL    HW211016   1.274   1.632   1.750
 3373SOL     OW11017   6.126   1.420   3.043
 3373SOL    HW111018   6.048   1.378   3.090
 3373SOL    HW211019   6.163   1.355   2.977
 3374SOL     OW11020   2.504   5.553   4.717
 3374SOL    HW111021   2.406   5.547   4.734
 3374SOL    HW211022   2.552   5.561   4.804
 3375SOL     OW11023   4.591   5.019   5.969
 3375SOL    HW111024   4.678   5.068   5.972
 3375SOL    HW211025   4.544   5.029   6.056
 3376SOL     OW11026   3.925   3.642   2.848
 3376SOL    HW111027   4.009   3.588   2.853
 3376SOL    HW211028   3.940   3.731   2.891
 3377SOL     OW11029   0.057   6.199   4.452
 3377SOL    HW111030   0.078   6.249   4.535
 3377SOL    HW211031   0.114   6.231   4.377
 3378SOL     OW11032   6.343   0.601   0.703
 3378SOL    HW111033   6.399   0.596   0.620
 3378SOL    HW211034   6.258   0.550   0.689
 3379SOL     OW11035   6.996   5.318   5.988
 3379SOL    HW111036   6.968   5.292   5.895
 3379SOL    HW211037   6.958   5.252   6.054
 3380SOL     OW11038   6.057   6.260   5.931
 3380SOL    HW111039   6.085   6.196   6.002
 3380SOL    HW211040   6.051   6.352   5.969
 3381SOL     OW11041   1.255   2.511   0.917
 3381SOL    HW111042   1.281   2.606   0.933
 3381SOL    HW211043   1.301   2.452   0.984
 3382SOL     OW11044   1.021   0.872   0.118
 3382SOL    HW111045   1.032   0.782   0.076
 3382SOL    HW211046   1.108   0.921   0.113
 3383SOL     OW11047   4.605   5.479   3.298
 3383SOL    HW111048   4.544   5.428   3.238
 3383SOL    HW211049   4.675   5.417   3.334
 3384SOL     OW11050   2.906   3.291   5.123
 3384SOL    HW111051   2.835   3.247   5.178
 3384SOL    HW211052   2.972   3.223   5.092
 3385SOL     OW11053   0.366   3.911   3.587
 3385SOL    HW111054   0.295   3.892   3.655
 3385SOL    HW211055   0.408   4.000   3.608
 3386SOL     OW11056   6.836   3.645   6.158
 3386SOL    HW111057   6.742   3.659   6.127
 3386SOL    HW211058   6.837   3.629   6.257
 3387SOL     OW11059   3.147   0.892   2.784
 3387SOL    HW111060   3.114   0.931   2.698
 3387SOL    HW211061   3.075   0.897   2.853
 3388SOL     OW11062   6.289   3.008   1.734
 3388SOL    HW111063   6.295   3.039   1.639
 3388SOL    HW211064   6.194   2.986   1.756
 3389SOL     OW11065   4.584   5.247   4.820
 3389SOL    HW111066   4.515   5.176   4.808
 3389SOL    HW211067   4.647   5.220   4.893
 3390SOL     OW11068   5.811   4.747   5.875
 3390SOL    HW111069   5.854   4.779   5.959
 3390SOL    HW211070   5.843   4.800   5.797
 3391SOL     OW11071   5.564   2.654   4.626
 3391SOL    HW111072   5.479   2.629   4.578
 3391SOL    HW211073   5.607   2.730   4.578
 3392SOL     OW11074   2.681   0.509   3.548
 3392SOL    HW111075   2.635   0.537   3.464
 3392SOL    HW211076   2.623   0.530   3.626
 3393SOL     OW11077   0.102   6.351   0.642
 3393SOL    HW111078   0.191   6.344   0.597
 3393SOL    HW211079   0.036   6.292   0.596
 3394SOL     OW11080   5.835   3.211   1.137
 3394SOL    HW111081   5.895   3.224   1.216
 3394SOL    HW211082   5.808   3.115   1.131
 3395SOL     OW11083   5.961   3.331   3.540
 3395SOL    HW111084   5.917   3.269   3.476
 3395SOL    HW211085   5.922   3.318   3.631
 3396SOL     OW11086   6.241   2.012   3.448
 3396SOL    HW111087   6.316   1.949   3.431
 3396SOL    HW211088   6.155   1.971   3.417
 3397SOL     OW11089   2.929   1.407   5.611
 3397SOL    HW111090   2.844   1.453   5.584
 3397SOL    HW211091   2.953   1.433   5.705
 3398SOL     OW11092   1.630   6.893   3.947
 3398SOL    HW111093   1.600   6.873   3.853
 3398SOL    HW211094   1.621   6.810   4.003
 3399SOL     OW11095   5.396   4.630   4.928
 3399SOL    HW111096   5.304   4.596   4.947
 3399SOL    HW211097   5.400   4.666   4.834
 3400SOL     OW11098   4.433   1.751   5.708
 3400SOL    HW111099   4.475   1.841   5.698
 3400SOL    HW211100   4.361   1.741   5.639
 3401SOL     OW11101   6.825   3.548   1.273
 3401SOL    HW111102   6.842   3.632   1.221
 3401SOL    HW211103   6.779   3.481   1.215
 3402SOL     OW11104   4.404   6.322   0.795
 3402SOL    HW111105   4.359   6.412   0.794
 3402SOL    HW211106   4.502   6.334   0.776
 3403SOL     OW11107   4.069   0.267   4.953
 3403SOL    HW111108   4.025   0.237   4.868
 3403SOL    HW211109   4.000   0.278   5.024
 3404SOL     OW11110   5.574   1.676   6.641
 3404SOL    HW111111   5.485   1.685   6.596
 3404SOL    HW211112   5.568   1.608   6.714
 3405SOL     OW11113   6.363   4.060   4.146
 3405SOL    HW111114   6.299   4.044   4.221
 3405SOL    HW211115   6.416   3.977   4.129
 3406SOL     OW11116   0.601   4.009   2.208
 3406SOL    HW111117   0.575   4.071   2.282
 3406SOL    HW211118   0.677   4.050   2.157
 3407SOL     OW11119   1.426   5.277   6.957
 3407SOL    HW111120   1.435   5.180   6.931
 3407SOL    HW211121   1.491   5.332   6.903
 3408SOL     OW11122   5.035   4.247   4.893
 3408SOL    HW111123   4.937   4.234   4.880
 3408SOL    HW211124   5.084   4.169   4.855
 3409SOL     OW11125   3.529   6.358   6.164
 3409SOL    HW111126   3.605   6.367   6.227
 3409SOL    HW211127   3.456   6.305   6.206
 3410SOL     OW11128   6.648   6.101   0.003
 3410SOL    HW111129   6.688   6.178   0.053
 3410SOL    HW211130   6.567   6.069   0.052
 3411SOL     OW11131   0.531   2.763   2.303
 3411SOL    HW111132   0.479   2.801   2.226
 3411SOL    HW211133   0.583   2.683   2.272
 3412SOL     OW11134   4.495   2.693   6.221
 3412SOL    HW111135   4.403   2.730   6.227
 3412SOL    HW211136   4.500   2.627   6.145
 3413SOL     OW11137   5.014   0.594   2.448
 3413SOL    HW111138   5.100   0.642   2.433
 3413SOL    HW211139   4.982   0.613   2.541
 3414SOL     OW11140   1.804   0.952   5.895
 3414SOL    HW111141   1.893   0.967   5.938
 3414SOL    HW211142   1.807   0.867   5.842
 3415SOL     OW11143   1.623   4.592   4.721
 3415SOL    HW111144   1.700   4.556   4.668
 3415SOL    HW211145   1.643   4.584   4.819
 3416SOL     OW11146   0.004   5.676   0.002
 3416SOL    HW111147   0.015   5.646   0.097
 3416SOL    HW211148   0.055   5.614   6.965
 3417SOL     OW11149   0.593   5.892   3.523
 3417SOL    HW111150   0.581   5.826   3.450
 3417SOL    HW211151   0.590   5.985   3.485
 3418SOL     OW11152   3.858   0.194   5.375
 3418SOL    HW111153   3.785   0.218   5.440
 3418SOL    HW211154   3.856   0.096   5.356
 3419SOL     OW11155   3.881   5.255   4.704
 3419SOL    HW111156   3.939   5.273   4.624
 3419SOL    HW211157   3.818   5.332   4.716
 3420SOL     OW11158   5.409   2.932   3.669
 3420SOL    HW111159   5.384   2.847   3.717
 3420SOL    HW211160   5.341   2.951   3.598
 3421SOL     OW11161   5.951   1.059   6.127
 3421SOL    HW111162   5.973   0.977   6.179
 3421SOL    HW211163   5.923   1.033   6.035
 3422SOL     OW11164   2.094   6.646   0.990
 3422SOL    HW111165   2.043   6.665   0.906
 3422SOL    HW211166   2.112   6.548   0.997
 3423SOL     OW11167   2.280   6.624   0.399
 3423SOL    HW111168   2.358   6.666   0.445
 3423SOL    HW211169   2.262   6.673   0.314
 3424SOL     OW11170   2.995   6.903   2.478
 3424SOL    HW111171   2.913   6.886   2.533
 3424SOL    HW211172   3.077   6.891   2.534
 3425SOL     OW11173   5.609   4.080   2.531
 3425SOL    HW111174   5.581   3.994   2.489
 3425SOL    HW211175   5.553   4.098   2.612
 3426SOL     OW11176   2.849   3.195   0.141
 3426SOL    HW111177   2.853   3.115   0.200
 3426SOL    HW211178   2.780   3.182   0.070
 3427SOL     OW11179   6.777   6.603   6.586
 3427SOL    HW111180   6.789   6.560   6.675
 3427SOL    HW211181   6.866   6.628   6.548
 3428SOL     OW11182   3.466   5.073   1.044
 3428SOL    HW111183   3.549   5.017   1.042
 3428SOL    HW211184   3.429   5.075   1.137
 3429SOL     OW11185   0.944   0.874   6.824
 3429SOL    HW111186   0.945   0.797   6.888
 3429SOL    HW211187   0.875   0.941   6.852
 3430SOL     OW11188   0.282   6.503   5.157
 3430SOL    HW111189   0.276   6.603   5.159
 3430SOL    HW211190   0.191   6.464   5.171
 3431SOL     OW11191   1.889   7.003   1.016
 3431SOL    HW111192   1.940   0.013   0.937
 3431SOL    HW211193   1.939   6.928   1.059
 3432SOL     OW11194   2.565   2.614   6.748
 3432SOL    HW111195   2.476   2.577   6.720
 3432SOL    HW211196   2.581   2.701   6.701
 3433SOL     OW11197   1.086   6.808   6.543
 3433SOL    HW111198   0.988   6.824   6.543
 3433SOL    HW211199   1.133   6.887   6.501
 3434SOL     OW11200   3.761   2.322   0.947
 3434SOL    HW111201   3.684   2.369   0.904
 3434SOL    HW211202   3.744   2.312   1.045
 3435SOL     OW11203   1.372   1.567   0.995
 3435SOL    HW111204   1.409   1.622   1.070
 3435SOL    HW211205   1.351   1.475   1.029
 3436SOL     OW11206   3.683   6.500   5.672
 3436SOL    HW111207   3.744   6.579   5.658
 3436SOL    HW211208   3.649   6.501   5.766
 3437SOL     OW11209   3.366   0.556   6.370
 3437SOL    HW111210   3.401   0.571   6.462
 3437SOL    HW211211   3.266   0.551   6.373
 3438SOL     OW11212   1.546   2.770   0.481
 3438SOL    HW111213   1.554   2.681   0.526
 3438SOL    HW211214   1.560   2.843   0.549
 3439SOL     OW11215   2.325   6.613   5.714
 3439SOL    HW111216   2.354   6.525   5.676
 3439SOL    HW211217   2.272   6.663   5.645
 3440SOL     OW11218   3.943   3.174   1.625
 3440SOL    HW111219   3.876   3.247   1.638
 3440SOL    HW211220   3.895   3.087   1.612
 3441SOL     OW11221   4.716   0.387   3.642
 3441SOL    HW111222   4.714   0.322   3.718
 3441SOL    HW211223   4.762   0.471   3.672
 3442SOL     OW11224   2.700   4.748   2.523
 3442SOL    HW111225   2.657   4.710   2.441
 3442SOL    HW211226   2.629   4.778   2.586
 3443SOL     OW11227   5.426   0.219   1.915
 3443SOL    HW111228   5.501   0.252   1.858
 3443SOL    HW211229   5.425   0.119   1.915
 3444SOL     OW11230   4.813   5.299   0.185
 3444SOL    HW111231   4.750   5.246   0.242
 3444SOL    HW211232   4.834   5.247   0.102
 3445SOL     OW11233   6.044   5.438   4.352
 3445SOL    HW111234   6.061   5.352   4.304
 3445SOL    HW211235   6.126   5.495   4.348
 3446SOL     OW11236   5.973   0.997   2.628
 3446SOL    HW111237   5.925   0.935   2.690
 3446SOL    HW211238   5.949   1.092   2.652
 3447SOL     OW11239   5.198   5.042   1.070
 3447SOL    HW111240   5.137   5.044   0.991
 3447SOL    HW211241   5.287   5.079   1.044
 3448SOL     OW11242   3.004   0.322   0.691
 3448SOL    HW111243   3.003   0.267   0.775
 3448SOL    HW211244   3.061   0.403   0.706
 3449SOL     OW11245   6.493   6.605   3.983
 3449SOL    HW111246   6.456   6.669   4.050
 3449SOL    HW211247   6.581   6.570   4.015
 3450SOL     OW11248   0.329   2.805   6.586
 3450SOL    HW111249   0.356   2.901   6.587
 3450SOL    HW211250   0.234   2.797   6.557
 3451SOL     OW11251   1.576   5.549   3.026
 3451SOL    HW111252   1.624   5.489   2.962
 3451SOL    HW211253   1.478   5.545   3.008
 3452SOL     OW11254   5.762   2.120   6.649
 3452SOL    HW111255   5.693   2.187   6.676
 3452SOL    HW211256   5.763   2.045   6.715
 3453SOL     OW11257   0.351   6.615   6.158
 3453SOL    HW111258   0.339   6.688   6.225
 3453SOL    HW211259   0.287   6.628   6.083
 3454SOL     OW11260   1.864   1.036   6.898
 3454SOL    HW111261   1.857   0.945   6.938
 3454SOL    HW211262   1.917   1.032   6.813
 3455SOL     OW11263   2.161   2.954   4.110
 3455SOL    HW111264   2.244   2.941   4.164
 3455SOL    HW211265   2.082   2.929   4.165
 3456SOL     OW11266   5.427   6.125   2.496
 3456SOL    HW111267   5.513   6.121   2.445
 3456SOL    HW211268   5.368   6.049   2.467
 3457SOL     OW11269   2.567   5.497   3.945
 3457SOL    HW111270   2.658   5.514   3.907
 3457SOL    HW211271   2.575   5.450   4.033
 3458SOL     OW11272   4.976   6.891   0.602
 3458SOL    HW111273   4.881   6.868   0.581
 3458SOL    HW211274   5.033   6.868   0.523
 3459SOL     OW11275   6.246   4.092   2.661
 3459SOL    HW111276   6.148   4.092   2.640
 3459SOL    HW211277   6.298   4.072   2.579
 3460SOL     OW11278   2.619   3.398   0.473
 3460SOL    HW111279   2.713   3.369   0.453
 3460SOL    HW211280   2.557   3.320   0.463
 3461SOL     OW11281   4.568   5.827   4.518
 3461SOL    HW111282   4.512   5.845   4.437
 3461SOL    HW211283   4.642   5.765   4.494
 3462SOL     OW11284   0.151   3.386   2.202
 3462SOL    HW111285   0.250   3.381   2.189
 3462SOL    HW211286   0.130   3.459   2.267
 3463SOL     OW11287   1.077   3.205   3.338
 3463SOL    HW111288   0.982   3.177   3.338
 3463SOL    HW211289   1.094   3.267   3.415
 3464SOL     OW11290   6.649   2.664   6.628
 3464SOL    HW111291   6.707   2.648   6.708
 3464SOL    HW211292   6.607   2.578   6.599
 3465SOL     OW11293   0.381   2.819   2.081
 3465SOL    HW111294   0.322   2.740   2.069
 3465SOL    HW211295   0.331   2.902   2.055
 3466SOL     OW11296   6.445   4.600   6.630
 3466SOL    HW111297   6.469   4.676   6.571
 3466SOL    HW211298   6.524   4.574   6.685
 3467SOL     OW11299   2.192   1.747   0.956
 3467SOL    HW111300   2.142   1.805   0.891
 3467SOL    HW211301   2.167   1.772   1.049
 3468SOL     OW11302   5.238   0.732   3.163
 3468SOL    HW111303   5.171   0.735   3.236
 3468SOL    HW211304   5.289   0.818   3.161
 3469SOL     OW11305   4.899   0.673   4.287
 3469SOL    HW111306   4.962   0.747   4.313
 3469SOL    HW211307   4.817   0.678   4.343
 3470SOL     OW11308   0.087   2.140   1.874
 3470SOL    HW111309   0.137   2.135   1.787
 3470SOL    HW211310   0.124   2.073   1.937
 3471SOL     OW11311   4.695   4.316   4.359
 3471SOL    HW111312   4.634   4.369   4.419
 3471SOL    HW211313   4.669   4.331   4.264
 3472SOL     OW11314   2.653   1.243   2.315
 3472SOL    HW111315   2.747   1.268   2.293
 3472SOL    HW211316   2.607   1.208   2.233
 3473SOL     OW11317   6.953   2.514   2.391
 3473SOL    HW111318   7.009   2.439   2.354
 3473SOL    HW211319   7.003   2.600   2.380
 3474SOL     OW11320   0.318   4.559   2.596
 3474SOL    HW111321   0.304   4.465   2.625
 3474SOL    HW211322   0.287   4.571   2.502
 3475SOL     OW11323   1.172   4.157   3.705
 3475SOL    HW111324   1.196   4.245   3.666
 3475SOL    HW211325   1.073   4.150   3.716
 3476SOL     OW11326   1.935   1.826   2.747
 3476SOL    HW111327   1.851   1.878   2.732
 3476SOL    HW211328   1.991   1.831   2.664
 3477SOL     OW11329   2.166   4.965   1.313
 3477SOL    HW111330   2.085   4.987   1.258
 3477SOL    HW211331   2.155   5.003   1.405
 3478SOL     OW11332   2.372   5.781   6.075
 3478SOL    HW111333   2.398   5.695   6.118
 3478SOL    HW211334   2.320   5.837   6.141
 3479SOL     OW11335   1.161   0.912   2.673
 3479SOL    HW111336   1.141   0.978   2.601
 3479SOL    HW211337   1.241   0.858   2.648
 3480SOL     OW11338   6.797   5.474   4.638
 3480SOL    HW111339   6.818   5.558   4.689
 3480SOL    HW211340   6.866   5.461   4.566
 3481SOL     OW11341   5.149   0.617   0.135
 3481SOL    HW111342   5.071   0.565   0.102
 3481SOL    HW211343   5.177   0.684   0.066
 3482SOL     OW11344   6.581   0.998   2.328
 3482SOL    HW111345   6.507   1.013   2.262
 3482SOL    HW211346   6.667   1.028   2.288
 3483SOL     OW11347   4.897   1.783   1.784
 3483SOL    HW111348   4.889   1.749   1.690
 3483SOL    HW211349   4.807   1.779   1.828
 3484SOL     OW11350   0.882   2.589   0.484
 3484SOL    HW111351   0.942   2.656   0.530
 3484SOL    HW211352   0.868   2.617   0.389
 3485SOL     OW11353   1.640   1.485   4.381
 3485SOL    HW111354   1.558   1.490   4.436
 3485SOL    HW211355   1.644   1.564   4.319
 3486SOL     OW11356   2.551   0.409   3.303
 3486SOL    HW111357   2.623   0.340   3.301
 3486SOL    HW211358   2.463   0.365   3.320
 3487SOL     OW11359   7.016   2.068   0.448
 3487SOL    HW111360   0.063   1.996   0.450
 3487SOL    HW211361   6.983   2.085   0.541
 3488SOL     OW11362   6.025   0.592   4.808
 3488SOL    HW111363   5.938   0.616   4.851
 3488SOL    HW211364   6.095   0.582   4.879
 3489SOL     OW11365   4.131   0.693   1.975
 3489SOL    HW111366   4.032   0.689   1.966
 3489SOL    HW211367   4.171   0.725   1.889
 3490SOL     OW11368   4.269   3.812   1.191
 3490SOL    HW111369   4.197   3.869   1.231
 3490SOL    HW211370   4.347   3.869   1.166
 3491SOL     OW11371   4.693   2.410   5.779
 3491SOL    HW111372   4.600   2.442   5.759
 3491SOL    HW211373   4.697   2.381   5.875
 3492SOL     OW11374   6.547   4.254   0.661
 3492SOL    HW111375   6.616   4.326   0.660
 3492SOL    HW211376   6.586   4.171   0.700
 3493SOL     OW11377   4.760   4.209   4.864
 3493SOL    HW111378   4.678   4.266   4.860
 3493SOL    HW211379   4.751   4.143   4.939
 3494SOL     OW11380   3.120   1.098   2.133
 3494SOL    HW111381   3.213   1.078   2.163
 3494SOL    HW211382   3.120   1.116   2.035
 3495SOL     OW11383   5.935   4.729   1.553
 3495SOL    HW111384   5.980   4.646   1.521
 3495SOL    HW211385   5.848   4.704   1.596
 3496SOL     OW11386   6.143   5.288   0.568
 3496SOL    HW111387   6.058   5.290   0.620
 3496SOL    HW211388   6.146   5.367   0.506
 3497SOL     OW11389   2.498   1.003   3.907
 3497SOL    HW111390   2.595   0.999   3.933
 3497SOL    HW211391   2.469   1.098   3.902
 3498SOL     OW11392   2.995   1.787   1.317
 3498SOL    HW111393   2.896   1.777   1.310
 3498SOL    HW211394   3.018   1.883   1.332
 3499SOL     OW11395   5.679   3.885   4.475
 3499SOL    HW111396   5.736   3.899   4.394
 3499SOL    HW211397   5.594   3.937   4.466
 3500SOL     OW11398   1.898   3.448   4.123
 3500SOL    HW111399   1.961   3.372   4.111
 3500SOL    HW211400   1.947   3.534   4.110
 3501SOL     OW11401   2.718   5.620   5.868
 3501SOL    HW111402   2.715   5.702   5.925
 3501SOL    HW211403   2.691   5.541   5.922
 3502SOL     OW11404   6.626   2.093   1.707
 3502SOL    HW111405   6.675   2.180   1.718
 3502SOL    HW211406   6.614   2.074   1.609
 3503SOL     OW11407   6.020   5.956   4.745
 3503SOL    HW111408   5.926   5.981   4.768
 3503SOL    HW211409   6.050   6.010   4.666
 3504SOL     OW11410   2.488   0.536   1.759
 3504SOL    HW111411   2.584   0.535   1.731
 3504SOL    HW211412   2.482   0.513   1.857
 3505SOL     OW11413   5.423   4.192   5.960
 3505SOL    HW111414   5.519   4.168   5.943
 3505SOL    HW211415   5.418   4.287   5.993
 3506SOL     OW11416   5.414   4.762   5.412
 3506SOL    HW111417   5.438   4.827   5.485
 3506SOL    HW211418   5.321   4.729   5.426
 3507SOL     OW11419   2.530   0.830   1.022
 3507SOL    HW111420   2.487   0.905   1.072
 3507SOL    HW211421   2.580   0.772   1.086
 3508SOL     OW11422   2.111   2.327   5.808
 3508SOL    HW111423   2.024   2.283   5.831
 3508SOL    HW211424   2.097   2.391   5.732
 3509SOL     OW11425   4.922   0.264   6.605
 3509SOL    HW111426   4.971   0.216   6.532
 3509SOL    HW211427   4.824   0.261   6.586
 3510SOL     OW11428   1.463   1.028   1.906
 3510SOL    HW111429   1.401   1.104   1.889
 3510SOL    HW211430   1.557   1.057   1.890
 3511SOL     OW11431   2.142   4.857   2.022
 3511SOL    HW111432   2.057   4.875   1.972
 3511SOL    HW211433   2.220   4.883   1.964
 3512SOL     OW11434   0.712   4.631   0.471
 3512SOL    HW111435   0.616   4.643   0.497
 3512SOL    HW211436   0.726   4.667   0.379
 3513SOL     OW11437   5.299   2.251   0.338
 3513SOL    HW111438   5.215   2.198   0.325
 3513SOL    HW211439   5.366   2.223   0.269
 3514SOL     OW11440   0.444   1.433   1.889
 3514SOL    HW111441   0.361   1.431   1.946
 3514SOL    HW211442   0.432   1.500   1.816
 3515SOL     OW11443   4.281   5.809   3.286
 3515SOL    HW111444   4.196   5.831   3.333
 3515SOL    HW211445   4.344   5.766   3.350
 3516SOL     OW11446   5.234   6.835   0.854
 3516SOL    HW111447   5.226   6.934   0.859
 3516SOL    HW211448   5.147   6.793   0.881
 3517SOL     OW11449   1.012   2.158   1.128
 3517SOL    HW111450   0.969   2.187   1.043
 3517SOL    HW211451   1.090   2.099   1.108
 3518SOL     OW11452   5.018   2.672   4.264
 3518SOL    HW111453   4.997   2.593   4.322
 3518SOL    HW211454   4.933   2.721   4.244
 3519SOL     OW11455   1.402   1.133   6.247
 3519SOL    HW111456   1.374   1.224   6.276
 3519SOL    HW211457   1.492   1.138   6.204
 3520SOL     OW11458   3.122   5.555   0.027
 3520SOL    HW111459   3.171   5.615   6.988
 3520SOL    HW211460   3.040   5.602   0.061
 3521SOL     OW11461   4.870   2.575   0.183
 3521SOL    HW111462   4.832   2.616   0.266
 3521SOL    HW211463   4.947   2.631   0.151
 3522SOL     OW11464   0.161   4.714   1.278
 3522SOL    HW111465   0.108   4.716   1.193
 3522SOL    HW211466   0.100   4.693   1.354
 3523SOL     OW11467   1.228   4.635   6.256
 3523SOL    HW111468   1.172   4.564   6.300
 3523SOL    HW211469   1.290   4.674   6.323
 3524SOL     OW11470   4.764   1.562   1.916
 3524SOL    HW111471   4.779   1.509   1.833
 3524SOL    HW211472   4.666   1.565   1.936
 3525SOL     OW11473   0.396   4.452   3.334
 3525SOL    HW111474   0.343   4.534   3.355
 3525SOL    HW211475   0.390   4.388   3.411
 3526SOL     OW11476   2.394   6.636   4.003
 3526SOL    HW111477   2.349   6.564   3.950
 3526SOL    HW211478   2.471   6.673   3.951
 3527SOL     OW11479   5.773   3.675   6.288
 3527SOL    HW111480   5.720   3.642   6.367
 3527SOL    HW211481   5.753   3.772   6.273
 3528SOL     OW11482   1.432   6.059   5.274
 3528SOL    HW111483   1.451   6.142   5.222
 3528SOL    HW211484   1.466   6.070   5.368
 3529SOL     OW11485   3.862   0.388   0.175
 3529SOL    HW111486   3.888   0.371   0.270
 3529SOL    HW211487   3.816   0.476   0.168
 3530SOL     OW11488   6.381   5.243   2.467
 3530SOL    HW111489   6.471   5.202   2.451
 3530SOL    HW211490   6.391   5.339   2.490
 3531SOL     OW11491   5.122   3.373   0.888
 3531SOL    HW111492   5.129   3.437   0.965
 3531SOL    HW211493   5.102   3.424   0.804
 3532SOL     OW11494   2.974   0.285   1.977
 3532SOL    HW111495   3.059   0.245   1.942
 3532SOL    HW211496   2.995   0.366   2.032
 3533SOL     OW11497   1.272   1.698   2.719
 3533SOL    HW111498   1.221   1.693   2.805
 3533SOL    HW211499   1.237   1.774   2.664
 3534SOL     OW11500   6.773   1.930   0.863
 3534SOL    HW111501   6.687   1.881   0.855
 3534SOL    HW211502   6.849   1.865   0.868
 3535SOL     OW11503   1.670   5.566   0.256
 3535SOL    HW111504   1.605   5.566   0.332
 3535SOL    HW211505   1.697   5.660   0.235
 3536SOL     OW11506   2.744   1.649   3.131
 3536SOL    HW111507   2.681   1.722   3.104
 3536SOL    HW211508   2.836   1.673   3.101
 3537SOL     OW11509   3.260   6.638   2.483
 3537SOL    HW111510   3.221   6.547   2.492
 3537SOL    HW211511   3.222   6.698   2.555
 3538SOL     OW11512   1.670   6.834   6.352
 3538SOL    HW111513   1.579   6.855   6.317
 3538SOL    HW211514   1.694   6.899   6.424
 3539SOL     OW11515   4.372   3.082   5.733
 3539SOL    HW111516   4.324   3.152   5.680
 3539SOL    HW211517   4.468   3.108   5.745
 3540SOL     OW11518   2.362   2.349   5.528
 3540SOL    HW111519   2.288   2.378   5.589
 3540SOL    HW211520   2.404   2.429   5.486
 3541SOL     OW11521   1.789   2.793   6.380
 3541SOL    HW111522   1.824   2.757   6.293
 3541SOL    HW211523   1.689   2.780   6.383
 3542SOL     OW11524   1.913   5.615   2.875
 3542SOL    HW111525   1.986   5.643   2.937
 3542SOL    HW211526   1.847   5.690   2.867
 3543SOL     OW11527   0.923   2.438   4.614
 3543SOL    HW111528   0.952   2.453   4.520
 3543SOL    HW211529   0.983   2.489   4.676
 3544SOL     OW11530   2.309   4.055   6.460
 3544SOL    HW111531   2.304   4.104   6.373
 3544SOL    HW211532   2.263   3.967   6.451
 3545SOL     OW11533   4.218   6.047   0.729
 3545SOL    HW111534   4.252   6.121   0.673
 3545SOL    HW211535   4.122   6.029   0.707
 3546SOL     OW11536   1.432   4.310   4.419
 3546SOL    HW111537   1.463   4.385   4.361
 3546SOL    HW211538   1.487   4.228   4.401
 3547SOL     OW11539   6.745   4.502   3.978
 3547SOL    HW111540   6.663   4.456   3.943
 3547SOL    HW211541   6.815   4.503   3.907
 3548SOL     OW11542   5.613   1.751   5.834
 3548SOL    HW111543   5.682   1.694   5.881
 3548SOL    HW211544   5.624   1.846   5.863
 3549SOL     OW11545   6.842   5.233   5.750
 3549SOL    HW111546   6.793   5.307   5.705
 3549SOL    HW211547   6.925   5.211   5.699
 3550SOL     OW11548   6.389   2.164   2.833
 3550SOL    HW111549   6.387   2.238   2.901
 3550SOL    HW211550   6.303   2.114   2.836
 3551SOL     OW11551   3.704   0.811   2.008
 3551SOL    HW111552   3.621   0.813   1.953
 3551SOL    HW211553   3.752   0.899   1.998
 3552SOL     OW11554   5.542   6.384   2.109
 3552SOL    HW111555   5.565   6.288   2.089
 3552SOL    HW211556   5.524   6.393   2.207
 3553SOL     OW11557   4.834   4.049   0.940
 3553SOL    HW111558   4.829   4.090   0.849
 3553SOL    HW211559   4.873   4.116   1.004
 3554SOL     OW11560   4.466   2.342   0.737
 3554SOL    HW111561   4.435   2.278   0.666
 3554SOL    HW211562   4.491   2.290   0.819
 3555SOL     OW11563   1.231   3.991   4.023
 3555SOL    HW111564   1.223   4.085   4.057
 3555SOL    HW211565   1.326   3.962   4.028
 3556SOL     OW11566   4.077   1.554   3.191
 3556SOL    HW111567   4.023   1.471   3.199
 3556SOL    HW211568   4.080   1.600   3.280
 3557SOL     OW11569   0.952   0.215   3.966
 3557SOL    HW111570   0.872   0.163   3.934
 3557SOL    HW211571   0.939   0.312   3.945
 3558SOL     OW11572   1.488   6.549   1.476
 3558SOL    HW111573   1.488   6.471   1.414
 3558SOL    HW211574   1.577   6.595   1.471
 3559SOL     OW11575   0.073   6.226   5.190
 3559SOL    HW111576   0.064   6.153   5.258
 3559SOL    HW211577   0.163   6.221   5.147
 3560SOL     OW11578   0.894   5.905   1.362
 3560SOL    HW111579   0.924   5.812   1.384
 3560SOL    HW211580   0.808   5.902   1.312
 3561SOL     OW11581   4.121   4.741   5.243
 3561SOL    HW111582   4.022   4.754   5.236
 3561SOL    HW211583   4.140   4.645   5.265
 3562SOL     OW11584   5.036   1.027   3.172
 3562SOL    HW111585   5.008   0.932   3.184
 3562SOL    HW211586   5.052   1.045   3.075
 3563SOL     OW11587   5.586   1.867   0.070
 3563SOL    HW111588   5.667   1.850   0.127
 3563SOL    HW211589   5.534   1.782   0.060
 3564SOL     OW11590   1.268   4.571   4.090
 3564SOL    HW111591   1.289   4.518   4.008
 3564SOL    HW211592   1.200   4.522   4.145
 3565SOL     OW11593   3.498   5.751   4.878
 3565SOL    HW111594   3.554   5.720   4.802
 3565SOL    HW211595   3.454   5.672   4.921
 3566SOL     OW11596   6.749   3.794   5.919
 3566SOL    HW111597   6.817   3.766   5.987
 3566SOL    HW211598   6.724   3.717   5.861
 3567SOL     OW11599   0.336   3.213   0.138
 3567SOL    HW111600   0.401   3.138   0.147
 3567SOL    HW211601   0.322   3.256   0.227
 3568SOL     OW11602   4.650   5.417   4.155
 3568SOL    HW111603   4.745   5.447   4.153
 3568SOL    HW211604   4.621   5.401   4.249
 3569SOL     OW11605   2.573   2.513   5.838
 3569SOL    HW111606   2.579   2.612   5.824
 3569SOL    HW211607   2.663   2.478   5.863
 3570SOL     OW11608   5.126   0.252   5.174
 3570SOL    HW111609   5.035   0.237   5.135
 3570SOL    HW211610   5.192   0.264   5.100
 3571SOL     OW11611   1.515   0.322   5.102
 3571SOL    HW111612   1.455   0.292   5.028
 3571SOL    HW211613   1.460   0.360   5.177
 3572SOL     OW11614   5.497   3.066   3.028
 3572SOL    HW111615   5.512   3.111   2.940
 3572SOL    HW211616   5.513   3.131   3.102
 3573SOL     OW11617   6.445   4.191   3.121
 3573SOL    HW111618   6.388   4.142   3.187
 3573SOL    HW211619   6.541   4.165   3.135
 3574SOL     OW11620   0.420   2.727   1.056
 3574SOL    HW111621   0.408   2.668   1.136
 3574SOL    HW211622   0.330   2.753   1.020
 3575SOL     OW11623   5.281   5.694   3.043
 3575SOL    HW111624   5.218   5.709   3.119
 3575SOL    HW211625   5.354   5.762   3.046
 3576SOL     OW11626   0.719   1.810   6.731
 3576SOL    HW111627   0.638   1.815   6.789
 3576SOL    HW211628   0.691   1.793   6.636
 3577SOL     OW11629   1.455   2.871   6.868
 3577SOL    HW111630   1.385   2.905   6.806
 3577SOL    HW211631   1.531   2.834   6.816
 3578SOL     OW11632   4.865   1.699   0.863
 3578SOL    HW111633   4.885   1.744   0.950
 3578SOL    HW211634   4.769   1.670   0.861
 3579SOL     OW11635   6.625   1.965   2.747
 3579SOL    HW111636   6.575   1.928   2.826
 3579SOL    HW211637   6.615   2.065   2.745
 3580SOL     OW11638   6.024   3.742   0.687
 3580SOL    HW111639   6.092   3.669   0.699
 3580SOL    HW211640   5.953   3.733   0.757
 3581SOL     OW11641   0.571   5.432   3.448
 3581SOL    HW111642   0.599   5.337   3.436
 3581SOL    HW211643   0.472   5.438   3.451
 3582SOL     OW11644   1.072   4.054   5.780
 3582SOL    HW111645   1.084   3.966   5.733
 3582SOL    HW211646   1.112   4.127   5.726
 3583SOL     OW11647   1.751   4.499   6.982
 3583SOL    HW111648   1.753   4.462   6.889
 3583SOL    HW211649   1.808   4.581   6.986
 3584SOL     OW11650   5.670   4.383   5.736
 3584SOL    HW111651   5.746   4.404   5.798
 3584SOL    HW211652   5.611   4.463   5.728
 3585SOL     OW11653   2.778   2.302   4.518
 3585SOL    HW111654   2.875   2.290   4.496
 3585SOL    HW211655   2.769   2.347   4.607
 3586SOL     OW11656   6.392   1.726   4.902
 3586SOL    HW111657   6.343   1.642   4.881
 3586SOL    HW211658   6.350   1.771   4.980
 3587SOL     OW11659   2.160   5.485   5.731
 3587SOL    HW111660   2.195   5.473   5.638
 3587SOL    HW211661   2.134   5.396   5.768
 3588SOL     OW11662   0.220   2.964   5.101
 3588SOL    HW111663   0.186   3.053   5.132
 3588SOL    HW211664   0.147   2.915   5.053
 3589SOL     OW11665   5.503   0.631   5.772
 3589SOL    HW111666   5.415   0.594   5.800
 3589SOL    HW211667   5.530   0.704   5.835
 3590SOL     OW11668   6.507   3.317   0.513
 3590SOL    HW111669   6.436   3.384   0.491
 3590SOL    HW211670   6.593   3.365   0.530
 3591SOL     OW11671   5.605   3.502   0.391
 3591SOL    HW111672   5.699   3.525   0.413
 3591SOL    HW211673   5.602   3.452   0.304
 3592SOL     OW11674   0.309   6.902   2.727
 3592SOL    HW111675   0.366   6.960   2.669
 3592SOL    HW211676   0.320   6.807   2.700
 3593SOL     OW11677   0.501   4.128   5.810
 3593SOL    HW111678   0.436   4.138   5.885
 3593SOL    HW211679   0.592   4.155   5.841
 3594SOL     OW11680   4.433   0.454   3.599
 3594SOL    HW111681   4.526   0.420   3.585
 3594SOL    HW211682   4.399   0.495   3.514
 3595SOL     OW11683   5.408   5.751   6.652
 3595SOL    HW111684   5.483   5.697   6.692
 3595SOL    HW211685   5.329   5.750   6.714
 3596SOL     OW11686   4.920   3.168   3.217
 3596SOL    HW111687   4.859   3.214   3.152
 3596SOL    HW211688   4.975   3.100   3.168
 3597SOL     OW11689   2.187   2.644   5.412
 3597SOL    HW111690   2.274   2.597   5.394
 3597SOL    HW211691   2.179   2.723   5.351
 3598SOL     OW11692   2.153   6.766   5.873
 3598SOL    HW111693   2.152   6.724   5.964
 3598SOL    HW211694   2.218   6.718   5.814
 3599SOL     OW11695   4.836   1.913   0.273
 3599SOL    HW111696   4.740   1.919   0.245
 3599SOL    HW211697   4.841   1.891   0.370
 3600SOL     OW11698   0.993   2.649   2.440
 3600SOL    HW111699   1.092   2.644   2.446
 3600SOL    HW211700   0.959   2.724   2.496
 3601SOL     OW11701   5.294   2.733   6.236
 3601SOL    HW111702   5.338   2.787   6.308
 3601SOL    HW211703   5.269   2.794   6.161
 3602SOL     OW11704   1.344   3.867   1.291
 3602SOL    HW111705   1.393   3.935   1.346
 3602SOL    HW211706   1.398   3.784   1.285
 3603SOL     OW11707   3.722   0.849   4.296
 3603SOL    HW111708   3.725   0.945   4.267
 3603SOL    HW211709   3.663   0.840   4.376
 3604SOL     OW11710   6.784   6.999   3.649
 3604SOL    HW111711   6.838   0.060   3.653
 3604SOL    HW211712   6.690   7.021   3.622
 3605SOL     OW11713   0.862   4.263   3.365
 3605SOL    HW111714   0.905   4.177   3.336
 3605SOL    HW211715   0.899   4.339   3.312
 3606SOL     OW11716   0.890   6.935   4.295
 3606SOL    HW111717   0.947   7.014   4.274
 3606SOL    HW211718   0.816   6.963   4.356
 3607SOL     OW11719   5.550   4.583   2.038
 3607SOL    HW111720   5.647   4.561   2.040
 3607SOL    HW211721   5.533   4.669   2.086
 3608SOL     OW11722   4.880   1.519   4.626
 3608SOL    HW111723   4.790   1.554   4.651
 3608SOL    HW211724   4.950   1.583   4.659
 3609SOL     OW11725   1.926   0.124   4.349
 3609SOL    HW111726   1.853   0.135   4.416
 3609SOL    HW211727   1.982   0.044   4.374
 3610SOL     OW11728   1.932   0.971   6.304
 3610SOL    HW111729   1.973   0.966   6.212
 3610SOL    HW211730   1.933   0.880   6.345
 3611SOL     OW11731   4.168   5.024   3.889
 3611SOL    HW111732   4.224   4.943   3.908
 3611SOL    HW211733   4.226   5.105   3.894
 3612SOL     OW11734   0.870   0.596   6.327
 3612SOL    HW111735   0.886   0.633   6.419
 3612SOL    HW211736   0.783   0.546   6.327
 3613SOL     OW11737   4.814   4.771   2.191
 3613SOL    HW111738   4.834   4.868   2.181
 3613SOL    HW211739   4.889   4.726   2.238
 3614SOL     OW11740   3.579   3.543   0.836
 3614SOL    HW111741   3.500   3.549   0.897
 3614SOL    HW211742   3.661   3.526   0.890
 3615SOL     OW11743   5.445   2.877   6.407
 3615SOL    HW111744   5.470   2.795   6.459
 3615SOL    HW211745   5.455   2.958   6.464
 3616SOL     OW11746   1.030   0.640   6.104
 3616SOL    HW111747   1.092   0.681   6.172
 3616SOL    HW211748   0.943   0.617   6.149
 3617SOL     OW11749   4.015   0.665   6.152
 3617SOL    HW111750   4.115   0.671   6.157
 3617SOL    HW211751   3.976   0.757   6.155
 3618SOL     OW11752   2.346   3.274   5.290
 3618SOL    HW111753   2.395   3.189   5.269
 3618SOL    HW211754   2.413   3.347   5.304
 3619SOL     OW11755   5.881   2.995   6.409
 3619SOL    HW111756   5.928   2.992   6.497
 3619SOL    HW211757   5.900   3.082   6.364
 3620SOL     OW11758   5.614   5.765   5.281
 3620SOL    HW111759   5.573   5.692   5.226
 3620SOL    HW211760   5.620   5.736   5.377
 3621SOL     OW11761   3.097   3.137   4.598
 3621SOL    HW111762   3.178   3.108   4.649
 3621SOL    HW211763   3.034   3.183   4.661
 3622SOL     OW11764   1.954   1.112   0.511
 3622SOL    HW111765   1.880   1.130   0.446
 3622SOL    HW211766   2.011   1.194   0.520
 3623SOL     OW11767   6.398   5.939   4.564
 3623SOL    HW111768   6.493   5.909   4.562
 3623SOL    HW211769   6.341   5.866   4.602
 3624SOL     OW11770   1.181   0.094   2.522
 3624SOL    HW111771   1.243   0.136   2.456
 3624SOL    HW211772   1.231   0.071   2.606
 3625SOL     OW11773   0.131   3.349   6.596
 3625SOL    HW111774   0.088   3.413   6.660
 3625SOL    HW211775   0.063   3.314   6.532
 3626SOL     OW11776   0.635   3.416   5.518
 3626SOL    HW111777   0.596   3.325   5.526
 3626SOL    HW211778   0.696   3.434   5.595
 3627SOL     OW11779   4.370   3.321   1.496
 3627SOL    HW111780   4.377   3.415   1.531
 3627SOL    HW211781   4.403   3.257   1.565
 3628SOL     OW11782   1.310   1.536   1.904
 3628SOL    HW111783   1.321   1.562   2.000
 3628SOL    HW211784   1.326   1.437   1.895
 3629SOL     OW11785   0.542   0.205   5.288
 3629SOL    HW111786   0.547   0.178   5.192
 3629SOL    HW211787   0.475   0.279   5.298
 3630SOL     OW11788   6.184   2.384   3.741
 3630SOL    HW111789   6.261   2.437   3.704
 3630SOL    HW211790   6.209   2.346   3.830
 3631SOL     OW11791   1.849   0.112   3.129
 3631SOL    HW111792   1.862   0.209   3.108
 3631SOL    HW211793   1.816   0.103   3.223
 3632SOL     OW11794   5.119   4.812   0.624
 3632SOL    HW111795   5.187   4.815   0.550
 3632SOL    HW211796   5.031   4.842   0.589
 3633SOL     OW11797   4.348   2.730   5.873
 3633SOL    HW111798   4.380   2.718   5.779
 3633SOL    HW211799   4.380   2.818   5.908
 3634SOL     OW11800   2.222   5.951   6.222
 3634SOL    HW111801   2.152   5.912   6.162
 3634SOL    HW211802   2.179   5.997   6.299
 3635SOL     OW11803   2.819   1.126   0.945
 3635SOL    HW111804   2.728   1.102   0.914
 3635SOL    HW211805   2.825   1.224   0.961
 3636SOL     OW11806   6.689   5.538   0.684
 3636SOL    HW111807   6.616   5.510   0.622
 3636SOL    HW211808   6.735   5.457   0.719
 3637SOL     OW11809   0.309   2.615   1.309
 3637SOL    HW111810   0.337   2.560   1.387
 3637SOL    HW211811   0.223   2.579   1.271
 3638SOL     OW11812   6.720   3.876   2.951
 3638SOL    HW111813   6.789   3.899   2.882
 3638SOL    HW211814   6.634   3.853   2.905
 3639SOL     OW11815   3.786   5.090   6.605
 3639SOL    HW111816   3.832   5.043   6.530
 3639SOL    HW211817   3.690   5.062   6.609
 3640SOL     OW11818   4.933   1.747   0.084
 3640SOL    HW111819   4.907   1.811   0.156
 3640SOL    HW211820   5.028   1.761   0.059
 3641SOL     OW11821   5.943   3.715   1.572
 3641SOL    HW111822   5.941   3.792   1.636
 3641SOL    HW211823   5.919   3.631   1.621
 3642SOL     OW11824   4.614   2.318   6.653
 3642SOL    HW111825   4.550   2.354   6.586
 3642SOL    HW211826   4.564   2.268   6.724
 3643SOL     OW11827   4.241   5.912   5.465
 3643SOL    HW111828   4.150   5.933   5.431
 3643SOL    HW211829   4.233   5.864   5.553
 3644SOL     OW11830   2.318   1.058   1.620
 3644SOL    HW111831   2.249   0.986   1.626
 3644SOL    HW211832   2.332   1.083   1.524
 3645SOL     OW11833   1.444   3.259   4.185
 3645SOL    HW111834   1.375   3.263   4.113
 3645SOL    HW211835   1.422   3.185   4.249
 3646SOL     OW11836   1.438   4.009   5.365
 3646SOL    HW111837   1.440   4.051   5.274
 3646SOL    HW211838   1.523   3.958   5.380
 3647SOL     OW11839   2.374   5.950   6.879
 3647SOL    HW111840   2.288   5.988   6.845
 3647SOL    HW211841   2.450   5.986   6.826
 3648SOL     OW11842   5.000   5.877   3.417
 3648SOL    HW111843   4.936   5.940   3.373
 3648SOL    HW211844   4.959   5.843   3.502
 3649SOL     OW11845   6.273   3.085   0.288
 3649SOL    HW111846   6.365   3.063   0.321
 3649SOL    HW211847   6.277   3.109   0.191
 3650SOL     OW11848   6.222   4.983   0.830
 3650SOL    HW111849   6.126   5.001   0.853
 3650SOL    HW211850   6.272   4.958   0.912
 3651SOL     OW11851   2.033   0.568   4.736
 3651SOL    HW111852   2.129   0.564   4.711
 3651SOL    HW211853   1.978   0.584   4.654
 3652SOL     OW11854   6.032   6.870   3.601
 3652SOL    HW111855   5.991   6.907   3.518
 3652SOL    HW211856   6.005   6.775   3.613
 3653SOL     OW11857   1.545   1.007   3.044
 3653SOL    HW111858   1.585   1.043   3.129
 3653SOL    HW211859   1.618   0.984   2.980
 3654SOL     OW11860   4.720   5.719   0.538
 3654SOL    HW111861   4.650   5.658   0.577
 3654SOL    HW211862   4.777   5.667   0.475
 3655SOL     OW11863   3.777   1.081   4.186
 3655SOL    HW111864   3.724   1.163   4.166
 3655SOL    HW211865   3.838   1.098   4.264
 3656SOL     OW11866   0.964   5.618   1.383
 3656SOL    HW111867   0.948   5.526   1.418
 3656SOL    HW211868   1.015   5.613   1.297
 3657SOL     OW11869   4.749   5.447   4.702
 3657SOL    HW111870   4.747   5.542   4.734
 3657SOL    HW211871   4.677   5.395   4.747
 3658SOL     OW11872   2.197   5.391   6.728
 3658SOL    HW111873   2.242   5.320   6.781
 3658SOL    HW211874   2.225   5.481   6.762
 3659SOL     OW11875   1.339   2.124   6.194
 3659SOL    HW111876   1.298   2.156   6.109
 3659SOL    HW211877   1.267   2.107   6.261
 3660SOL     OW11878   6.065   5.794   4.355
 3660SOL    HW111879   6.115   5.722   4.306
 3660SOL    HW211880   6.120   5.827   4.432
 3661SOL     OW11881   0.761   0.538   5.075
 3661SOL    HW111882   0.823   0.615   5.088
 3661SOL    HW211883   0.680   0.569   5.025
 3662SOL     OW11884   4.183   1.103   4.712
 3662SOL    HW111885   4.170   1.158   4.794
 3662SOL    HW211886   4.171   1.160   4.631
 3663SOL     OW11887   1.712   2.764   6.834
 3663SOL    HW111888   1.793   2.803   6.789
 3663SOL    HW211889   1.715   2.787   6.932
 3664SOL     OW11890   4.909   2.493   1.697
 3664SOL    HW111891   4.814   2.522   1.684
 3664SOL    HW211892   4.917   2.441   1.782
 3665SOL     OW11893   0.675   5.937   5.692
 3665SOL    HW111894   0.586   5.982   5.703
 3665SOL    HW211895   0.680   5.896   5.602
 3666SOL     OW11896   0.893   3.415   3.144
 3666SOL    HW111897   0.918   3.353   3.219
 3666SOL    HW211898   0.921   3.508   3.166
 3667SOL     OW11899   0.400   1.281   3.419
 3667SOL    HW111900   0.472   1.286   3.349
 3667SOL    HW211901   0.442   1.287   3.509
 3668SOL     OW11902   1.429   0.697   1.662
 3668SOL    HW111903   1.412   0.778   1.606
 3668SOL    HW211904   1.491   0.722   1.737
 3669SOL     OW11905   5.520   1.500   3.774
 3669SOL    HW111906   5.606   1.451   3.789
 3669SOL    HW211907   5.466   1.452   3.704
 3670SOL     OW11908   2.972   5.457   0.557
 3670SOL    HW111909   3.024   5.535   0.591
 3670SOL    HW211910   2.885   5.452   0.605
 3671SOL     OW11911   6.783   1.816   4.135
 3671SOL    HW111912   6.741   1.815   4.045
 3671SOL    HW211913   6.872   1.860   4.131
 3672SOL     OW11914   4.590   2.120   2.464
 3672SOL    HW111915   4.492   2.129   2.481
 3672SOL    HW211916   4.616   2.024   2.470
 3673SOL     OW11917   3.891   5.597   6.667
 3673SOL    HW111918   3.826   5.629   6.737
 3673SOL    HW211919   3.936   5.514   6.700
 3674SOL     OW11920   1.770   5.724   5.148
 3674SOL    HW111921   1.698   5.786   5.118
 3674SOL    HW211922   1.800   5.748   5.240
 3675SOL     OW11923   0.834   2.376   3.934
 3675SOL    HW111924   0.774   2.296   3.938
 3675SOL    HW211925   0.842   2.417   4.025
 3676SOL     OW11926   5.604   3.267   2.542
 3676SOL    HW111927   5.512   3.276   2.503
 3676SOL    HW211928   5.672   3.302   2.478
 3677SOL     OW11929   2.636   0.519   4.889
 3677SOL    HW111930   2.594   0.480   4.807
 3677SOL    HW211931   2.634   0.451   4.963
 3678SOL     OW11932   1.986   1.275   4.130
 3678SOL    HW111933   1.971   1.230   4.041
 3678SOL    HW211934   1.918   1.347   4.143
 3679SOL     OW11935   0.001   0.374   3.256
 3679SOL    HW111936   0.037   0.441   3.191
 3679SOL    HW211937   6.925   0.386   3.264
 3680SOL     OW11938   4.820   2.621   4.577
 3680SOL    HW111939   4.862   2.552   4.519
 3680SOL    HW211940   4.724   2.634   4.550
 3681SOL     OW11941   1.119   0.773   6.619
 3681SOL    HW111942   1.197   0.837   6.623
 3681SOL    HW211943   1.050   0.801   6.687
 3682SOL     OW11944   5.508   2.635   0.491
 3682SOL    HW111945   5.533   2.545   0.528
 3682SOL    HW211946   5.455   2.685   0.560
 3683SOL     OW11947   0.310   0.760   3.796
 3683SOL    HW111948   0.271   0.671   3.772
 3683SOL    HW211949   0.408   0.750   3.814
 3684SOL     OW11950   1.229   5.479   6.865
 3684SOL    HW111951   1.232   5.554   6.932
 3684SOL    HW211952   1.293   5.408   6.892
 3685SOL     OW11953   2.449   6.077   5.638
 3685SOL    HW111954   2.533   6.131   5.646
 3685SOL    HW211955   2.458   5.994   5.693
 3686SOL     OW11956   6.564   4.801   3.745
 3686SOL    HW111957   6.518   4.873   3.693
 3686SOL    HW211958   6.547   4.814   3.843
 3687SOL     OW11959   4.849   6.832   3.445
 3687SOL    HW111960   4.784   6.883   3.388
 3687SOL    HW211961   4.905   6.896   3.496
 3688SOL     OW11962   6.332   3.092   6.774
 3688SOL    HW111963   6.337   3.112   6.676
 3688SOL    HW211964   6.238   3.069   6.799
 3689SOL     OW11965   2.222   2.042   5.424
 3689SOL    HW111966   2.258   2.136   5.418
 3689SOL    HW211967   2.270   1.984   5.357
 3690SOL     OW11968   4.947   5.777   1.044
 3690SOL    HW111969   4.963   5.684   1.076
 3690SOL    HW211970   4.932   5.777   0.945
 3691SOL     OW11971   2.678   2.040   6.563
 3691SOL    HW111972   2.623   1.957   6.554
 3691SOL    HW211973   2.687   2.085   6.474
 3692SOL     OW11974   6.704   4.693   6.076
 3692SOL    HW111975   6.784   4.633   6.071
 3692SOL    HW211976   6.664   4.702   5.984
 3693SOL     OW11977   1.664   1.772   2.868
 3693SOL    HW111978   1.580   1.726   2.837
 3693SOL    HW211979   1.734   1.703   2.886
 3694SOL     OW11980   1.711   6.866   2.269
 3694SOL    HW111981   1.642   6.922   2.315
 3694SOL    HW211982   1.704   6.772   2.301
 3695SOL     OW11983   5.429   1.433   1.850
 3695SOL    HW111984   5.508   1.376   1.873
 3695SOL    HW211985   5.374   1.449   1.931
 3696SOL     OW11986   4.049   6.936   5.389
 3696SOL    HW111987   4.075   6.932   5.293
 3696SOL    HW211988   4.123   6.979   5.442
 3697SOL     OW11989   6.825   6.110   3.056
 3697SOL    HW111990   6.883   6.186   3.083
 3697SOL    HW211991   6.753   6.142   2.995
 3698SOL     OW11992   1.937   1.128   3.595
 3698SOL    HW111993   1.900   1.054   3.538
 3698SOL    HW211994   2.027   1.155   3.561
 3699SOL     OW11995   1.601   1.610   3.625
 3699SOL    HW111996   1.625   1.701   3.592
 3699SOL    HW211997   1.644   1.541   3.566
 3700SOL     OW11998   1.635   5.069   4.721
 3700SOL    HW111999   1.702   5.126   4.769
 3700SOL    HW212000   1.613   4.989   4.778
 3701SOL     OW12001   1.068   6.270   2.707
 3701SOL    HW112002   1.021   6.355   2.731
 3701SOL    HW212003   1.003   6.194   2.706
 3702SOL     OW12004   5.476   6.460   2.904
 3702SOL    HW112005   5.527   6.460   2.990
 3702SOL    HW212006   5.378   6.452   2.923
 3703SOL     OW12007   1.055   0.350   6.827
 3703SOL    HW112008   0.960   0.369   6.851
 3703SOL    HW212009   1.065   0.254   6.802
 3704SOL     OW12010   5.147   2.960   0.760
 3704SOL    HW112011   5.089   3.021   0.814
 3704SOL    HW212012   5.233   3.007   0.739
 3705SOL     OW12013   4.946   4.783   3.958
 3705SOL    HW112014   5.013   4.836   4.009
 3705SOL    HW212015   4.993   4.723   3.892
 3706SOL     OW12016   0.416   4.499   7.007
 3706SOL    HW112017   0.378   4.427   0.041
 3706SOL    HW212018   0.345   4.565   6.984
 3707SOL     OW12019   4.363   6.044   3.946
 3707SOL    HW112020   4.265   6.027   3.956
 3707SOL    HW212021   4.381   6.142   3.956
 3708SOL     OW12022   4.073   6.954   1.329
 3708SOL    HW112023   4.002   6.941   1.258
 3708SOL    HW212024   4.091   6.866   1.373
 3709SOL     OW12025   2.737   0.189   1.891
 3709SOL    HW112026   2.740   0.268   1.829
 3709SOL    HW212027   2.822   0.184   1.943
 3710SOL     OW12028   0.758   5.393   4.876
 3710SOL    HW112029   0.695   5.426   4.806
 3710SOL    HW212030   0.809   5.315   4.841
 3711SOL     OW12031   1.039   5.799   4.839
 3711SOL    HW112032   0.959   5.744   4.863
 3711SOL    HW212033   1.061   5.785   4.743
 3712SOL     OW12034   1.457   5.903   0.087
 3712SOL    HW112035   1.400   5.944   0.016
 3712SOL    HW212036   1.411   5.911   0.175
 3713SOL     OW12037   0.722   0.552   5.341
 3713SOL    HW112038   0.625   0.576   5.352
 3713SOL    HW212039   0.739   0.529   5.245
 3714SOL     OW12040   6.064   4.953   6.325
 3714SOL    HW112041   6.078   5.038   6.376
 3714SOL    HW212042   6.133   4.886   6.352
 3715SOL     OW12043   1.224   5.053   2.391
 3715SOL    HW112044   1.188   5.070   2.299
 3715SOL    HW212045   1.148   5.036   2.453
 3716SOL     OW12046   6.011   5.693   4.807
 3716SOL    HW112047   6.016   5.791   4.786
 3716SOL    HW212048   6.001   5.642   4.722
 3717SOL     OW12049   6.026   1.353   0.673
 3717SOL    HW112050   6.109   1.338   0.726
 3717SOL    HW212051   6.024   1.447   0.640
 3718SOL     OW12052   6.523   0.252   6.699
 3718SOL    HW112053   6.434   0.264   6.657
 3718SOL    HW212054   6.586   0.210   6.633
 3719SOL     OW12055   4.121   3.339   6.401
 3719SOL    HW112056   4.194   3.270   6.400
 3719SOL    HW212057   4.058   3.319   6.475
 3720SOL     OW12058   5.649   4.037   0.613
 3720SOL    HW112059   5.644   3.981   0.531
 3720SOL    HW212060   5.596   4.121   0.599
 3721SOL     OW12061   0.046   5.045   0.669
 3721SOL    HW112062   7.017   5.051   0.584
 3721SOL    HW212063   0.136   5.087   0.655
 3722SOL     OW12064   5.526   5.902   1.854
 3722SOL    HW112065   5.581   5.847   1.916
 3722SOL    HW212066   5.449   5.848   1.820
 3723SOL     OW12067   4.842   5.500   0.417
 3723SOL    HW112068   4.913   5.431   0.427
 3723SOL    HW212069   4.753   5.456   0.409
 3724SOL     OW12070   1.539   4.353   5.545
 3724SOL    HW112071   1.627   4.400   5.557
 3724SOL    HW212072   1.556   4.262   5.508
 3725SOL     OW12073   0.702   5.965   6.663
 3725SOL    HW112074   0.774   6.028   6.691
 3725SOL    HW212075   0.675   5.908   6.741
 3726SOL     OW12076   5.213   3.875   6.138
 3726SOL    HW112077   5.118   3.906   6.148
 3726SOL    HW212078   5.272   3.932   6.194
 3727SOL     OW12079   6.273   3.271   5.067
 3727SOL    HW112080   6.253   3.189   5.013
 3727SOL    HW212081   6.331   3.246   5.145
 3728SOL     OW12082   2.052   3.747   6.876
 3728SOL    HW112083   2.024   3.727   6.970
 3728SOL    HW212084   1.970   3.754   6.818
 3729SOL     OW12085   0.709   1.102   4.454
 3729SOL    HW112086   0.805   1.109   4.481
 3729SOL    HW212087   0.685   1.006   4.441
 3730SOL     OW12088   3.980   6.352   5.669
 3730SOL    HW112089   3.966   6.440   5.622
 3730SOL    HW212090   4.055   6.303   5.627
 3731SOL     OW12091   0.266   1.360   0.007
 3731SOL    HW112092   0.229   1.268   0.015
 3731SOL    HW212093   0.266   1.403   0.097
 3732SOL     OW12094   2.109   2.507   0.493
 3732SOL    HW112095   2.051   2.427   0.505
 3732SOL    HW212096   2.190   2.500   0.552
 3733SOL     OW12097   2.052   2.084   3.442
 3733SOL    HW112098   1.955   2.107   3.455
 3733SOL    HW212099   2.109   2.152   3.488
 3734SOL     OW12100   4.447   0.593   1.225
 3734SOL    HW112101   4.374   0.571   1.161
 3734SOL    HW212102   4.535   0.570   1.184
 3735SOL     OW12103   4.222   0.504   2.415
 3735SOL    HW112104   4.196   0.575   2.481
 3735SOL    HW212105   4.162   0.510   2.336
 3736SOL     OW12106   6.811   1.155   1.058
 3736SOL    HW112107   6.860   1.220   1.116
 3736SOL    HW212108   6.724   1.130   1.100
 3737SOL     OW12109   5.922   1.360   3.482
 3737SOL    HW112110   5.930   1.458   3.467
 3737SOL    HW212111   6.013   1.318   3.485
 3738SOL     OW12112   6.776   0.121   1.215
 3738SOL    HW112113   6.693   0.153   1.261
 3738SOL    HW212114   6.850   0.185   1.233
 3739SOL     OW12115   2.510   4.423   1.722
 3739SOL    HW112116   2.609   4.415   1.720
 3739SOL    HW212117   2.476   4.447   1.631
 3740SOL     OW12118   6.087   5.535   0.138
 3740SOL    HW112119   6.031   5.472   0.084
 3740SOL    HW212120   6.163   5.568   0.083
 3741SOL     OW12121   4.241   2.974   6.588
 3741SOL    HW112122   4.196   2.891   6.622
 3741SOL    HW212123   4.202   3.054   6.634
 3742SOL     OW12124   4.432   0.354   0.518
 3742SOL    HW112125   4.439   0.387   0.612
 3742SOL    HW212126   4.341   0.375   0.481
 3743SOL     OW12127   5.198   4.004   1.079
 3743SOL    HW112128   5.201   3.927   1.142
 3743SOL    HW212129   5.270   4.069   1.103
 3744SOL     OW12130   1.070   6.106   2.047
 3744SOL    HW112131   0.982   6.092   2.002
 3744SOL    HW212132   1.056   6.119   2.145
 3745SOL     OW12133   5.398   3.888   3.015
 3745SOL    HW112134   5.425   3.808   2.961
 3745SOL    HW212135   5.324   3.864   3.077
 3746SOL     OW12136   5.741   0.107   3.705
 3746SOL    HW112137   5.749   0.205   3.724
 3746SOL    HW212138   5.804   0.057   3.764
 3747SOL     OW12139   4.846   6.370   5.545
 3747SOL    HW112140   4.767   6.413   5.588
 3747SOL    HW212141   4.835   6.372   5.445
 3748SOL     OW12142   5.142   0.525   1.753
 3748SOL    HW112143   5.126   0.619   1.720
 3748SOL    HW212144   5.240   0.510   1.765
 3749SOL     OW12145   2.144   4.591   3.646
 3749SOL    HW112146   2.145   4.548   3.736
 3749SOL    HW212147   2.056   4.573   3.602
 3750SOL     OW12148   5.867   4.186   0.897
 3750SOL    HW112149   5.882   4.284   0.881
 3750SOL    HW212150   5.771   4.165   0.882
 3751SOL     OW12151   6.655   2.953   0.857
 3751SOL    HW112152   6.628   2.921   0.948
 3751SOL    HW212153   6.700   2.878   0.807
 3752SOL     OW12154   0.958   6.840   0.662
 3752SOL    HW112155   0.862   6.867   0.667
 3752SOL    HW212156   0.965   6.750   0.618
 3753SOL     OW12157   0.110   0.726   4.120
 3753SOL    HW112158   0.029   0.734   4.178
 3753SOL    HW212159   0.106   0.796   4.048
 3754SOL     OW12160   4.433   6.320   1.792
 3754SOL    HW112161   4.408   6.412   1.764
 3754SOL    HW212162   4.375   6.291   1.869
 3755SOL     OW12163   5.275   5.525   4.724
 3755SOL    HW112164   5.333   5.491   4.798
 3755SOL    HW212165   5.326   5.593   4.671
 3756SOL     OW12166   1.958   0.290   6.358
 3756SOL    HW112167   2.006   0.355   6.417
 3756SOL    HW212168   2.005   0.283   6.270
 3757SOL     OW12169   4.185   6.139   0.006
 3757SOL    HW112170   4.211   6.202   6.956
 3757SOL    HW212171   4.135   6.062   6.990
 3758SOL     OW12172   1.735   0.872   4.351
 3758SOL    HW112173   1.689   0.874   4.263
 3758SOL    HW212174   1.794   0.952   4.360
 3759SOL     OW12175   4.103   5.008   6.106
 3759SOL    HW112176   4.004   4.995   6.108
 3759SOL    HW212177   4.124   5.102   6.079
 3760SOL     OW12178   1.088   3.065   4.284
 3760SOL    HW112179   1.022   3.119   4.337
 3760SOL    HW212180   1.049   3.044   4.194
 3761SOL     OW12181   0.603   0.057   5.037
 3761SOL    HW112182   0.614   0.098   4.947
 3761SOL    HW212183   0.685   0.006   5.062
 3762SOL     OW12184   0.880   5.632   6.786
 3762SOL    HW112185   0.793   5.637   6.736
 3762SOL    HW212186   0.914   5.538   6.784
 3763SOL     OW12187   6.401   4.998   0.149
 3763SOL    HW112188   6.483   4.950   0.180
 3763SOL    HW212189   6.344   4.936   0.094
 3764SOL     OW12190   1.640   0.456   3.680
 3764SOL    HW112191   1.676   0.455   3.773
 3764SOL    HW212192   1.626   0.361   3.649
 3765SOL     OW12193   5.146   1.659   1.348
 3765SOL    HW112194   5.122   1.563   1.329
 3765SOL    HW212195   5.240   1.664   1.383
 3766SOL     OW12196   1.320   1.084   4.401
 3766SOL    HW112197   1.280   1.166   4.361
 3766SOL    HW212198   1.403   1.109   4.451
 3767SOL     OW12199   2.118   5.332   0.385
 3767SOL    HW112200   2.199   5.381   0.420
 3767SOL    HW212201   2.039   5.393   0.387
 3768SOL     OW12202   2.544   5.851   5.424
 3768SOL    HW112203   2.547   5.782   5.496
 3768SOL    HW212204   2.458   5.902   5.430
 3769SOL     OW12205   5.545   5.735   4.887
 3769SOL    HW112206   5.470   5.708   4.948
 3769SOL    HW212207   5.624   5.677   4.905
 3770SOL     OW12208   1.876   0.306   6.877
 3770SOL    HW112209   1.952   0.302   6.942
 3770SOL    HW212210   1.837   0.214   6.867
 3771SOL     OW12211   5.588   2.497   0.135
 3771SOL    HW112212   5.606   2.594   0.119
 3771SOL    HW212213   5.523   2.464   0.067
 3772SOL     OW12214   6.708   1.480   6.820
 3772SOL    HW112215   6.788   1.521   6.866
 3772SOL    HW212216   6.630   1.483   6.882
 3773SOL     OW12217   6.353   3.093   6.493
 3773SOL    HW112218   6.300   3.116   6.411
 3773SOL    HW212219   6.432   3.037   6.466
 3774SOL     OW12220   0.589   6.490   6.932
 3774SOL    HW112221   0.553   6.433   6.858
 3774SOL    HW212222   0.528   6.568   6.947
 3775SOL     OW12223   5.236   4.313   2.136
 3775SOL    HW112224   5.336   4.312   2.143
 3775SOL    HW212225   5.197   4.258   2.210
 3776SOL     OW12226   3.722   0.931   0.694
 3776SOL    HW112227   3.821   0.939   0.683
 3776SOL    HW212228   3.687   0.861   0.632
 3777SOL     OW12229   2.957   4.805   4.342
 3777SOL    HW112230   2.953   4.820   4.441
 3777SOL    HW212231   2.874   4.842   4.299
 3778SOL     OW12232   2.708   5.217   2.889
 3778SOL    HW112233   2.708   5.308   2.849
 3778SOL    HW212234   2.730   5.223   2.986
 3779SOL     OW12235   1.782   4.649   0.954
 3779SOL    HW112236   1.780   4.659   0.855
 3779SOL    HW212237   1.689   4.642   0.989
 3780SOL     OW12238   4.493   4.771   5.880
 3780SOL    HW112239   4.524   4.866   5.888
 3780SOL    HW212240   4.444   4.760   5.793
 3781SOL     OW12241   1.385   6.878   4.793
 3781SOL    HW112242   1.461   6.822   4.757
 3781SOL    HW212243   1.415   6.924   4.877
 3782SOL     OW12244   3.001   1.942   4.456
 3782SOL    HW112245   3.091   1.900   4.444
 3782SOL    HW212246   2.930   1.875   4.433
 3783SOL     OW12247   5.630   6.174   5.179
 3783SOL    HW112248   5.625   6.236   5.101
 3783SOL    HW212249   5.722   6.137   5.186
 3784SOL     OW12250   5.223   1.968   3.760
 3784SOL    HW112251   5.193   2.057   3.796
 3784SOL    HW212252   5.275   1.982   3.676
 3785SOL     OW12253   1.031   1.158   6.765
 3785SOL    HW112254   1.085   1.103   6.700
 3785SOL    HW212255   1.034   1.115   6.855
 3786SOL     OW12256   2.544   6.690   2.671
 3786SOL    HW112257   2.550   6.639   2.756
 3786SOL    HW212258   2.448   6.692   2.640
 3787SOL     OW12259   5.748   6.302   3.242
 3787SOL    HW112260   5.832   6.333   3.198
 3787SOL    HW212261   5.693   6.382   3.270
 3788SOL     OW12262   0.615   2.975   3.729
 3788SOL    HW112263   0.584   2.943   3.640
 3788SOL    HW212264   0.644   3.070   3.723
 3789SOL     OW12265   0.694   2.858   4.107
 3789SOL    HW112266   0.711   2.787   4.038
 3789SOL    HW212267   0.690   2.815   4.197
 3790SOL     OW12268   1.647   3.804   5.378
 3790SOL    HW112269   1.564   3.756   5.407
 3790SOL    HW212270   1.699   3.746   5.316
 3791SOL     OW12271   6.096   0.373   0.689
 3791SOL    HW112272   6.131   0.297   0.743
 3791SOL    HW212273   5.997   0.379   0.700
 3792SOL     OW12274   6.921   1.074   3.967
 3792SOL    HW112275   7.006   1.034   3.932
 3792SOL    HW212276   6.904   1.161   3.922
 3793SOL     OW12277   3.655   0.130   3.131
 3793SOL    HW112278   3.681   0.123   3.035
 3793SOL    HW212279   3.665   0.225   3.162
 3794SOL     OW12280   2.780   4.280   1.113
 3794SOL    HW112281   2.716   4.224   1.166
 3794SOL    HW212282   2.740   4.302   1.024
 3795SOL     OW12283   3.904   6.360   6.792
 3795SOL    HW112284   3.860   6.384   6.879
 3795SOL    HW212285   3.973   6.428   6.769
 3796SOL     OW12286   2.691   1.884   1.081
 3796SOL    HW112287   2.610   1.846   1.036
 3796SOL    HW212288   2.696   1.850   1.174
 3797SOL     OW12289   6.043   4.363   2.652
 3797SOL    HW112290   6.069   4.358   2.555
 3797SOL    HW212291   6.118   4.401   2.705
 3798SOL     OW12292   3.443   5.369   3.428
 3798SOL    HW112293   3.419   5.298   3.494
 3798SOL    HW212294   3.413   5.458   3.462
 3799SOL     OW12295   0.012   2.458   4.427
 3799SOL    HW112296   6.954   2.459   4.484
 3799SOL    HW212297   0.060   2.546   4.435
 3800SOL     OW12298   5.175   2.824   4.421
 3800SOL    HW112299   5.193   2.783   4.510
 3800SOL    HW212300   5.130   2.756   4.362
 3801SOL     OW12301   6.753   6.316   3.439
 3801SOL    HW112302   6.787   6.244   3.499
 3801SOL    HW212303   6.767   6.289   3.344
 3802SOL     OW12304   0.419   2.315   3.991
 3802SOL    HW112305   0.380   2.405   3.973
 3802SOL    HW212306   0.425   2.300   4.090
 3803SOL     OW12307   3.711   2.239   1.249
 3803SOL    HW112308   3.769   2.161   1.225
 3803SOL    HW212309   3.751   2.287   1.328
 3804SOL     OW12310   5.623   1.886   3.757
 3804SOL    HW112311   5.574   1.959   3.709
 3804SOL    HW212312   5.657   1.819   3.691
 3805SOL     OW12313   2.762   3.468   1.588
 3805SOL    HW112314   2.735   3.546   1.531
 3805SOL    HW212315   2.839   3.421   1.545
 3806SOL     OW12316   2.770   4.045   0.211
 3806SOL    HW112317   2.781   3.965   0.269
 3806SOL    HW212318   2.819   4.122   0.250
 3807SOL     OW12319   2.479   0.331   4.020
 3807SOL    HW112320   2.383   0.359   4.018
 3807SOL    HW212321   2.535   0.407   4.052
 3808SOL     OW12322   4.355   0.960   1.232
 3808SOL    HW112323   4.292   0.885   1.211
 3808SOL    HW212324   4.304   1.034   1.276
 3809SOL     OW12325   6.049   2.757   0.630
 3809SOL    HW112326   6.116   2.746   0.556
 3809SOL    HW212327   6.015   2.850   0.631
 3810SOL     OW12328   4.503   2.298   5.260
 3810SOL    HW112329   4.549   2.296   5.171
 3810SOL    HW212330   4.564   2.339   5.327
 3811SOL     OW12331   0.906   4.138   3.738
 3811SOL    HW112332   0.860   4.227   3.733
 3811SOL    HW212333   0.884   4.085   3.656
 3812SOL     OW12334   5.304   0.640   5.169
 3812SOL    HW112335   5.247   0.643   5.251
 3812SOL    HW212336   5.249   0.611   5.090
 3813SOL     OW12337   3.886   4.459   0.441
 3813SOL    HW112338   3.907   4.410   0.526
 3813SOL    HW212339   3.949   4.430   0.369
 3814SOL     OW12340   0.435   6.692   1.304
 3814SOL    HW112341   0.523   6.645   1.302
 3814SOL    HW212342   0.451   6.790   1.314
 3815SOL     OW12343   4.764   2.687   0.414
 3815SOL    HW112344   4.743   2.696   0.512
 3815SOL    HW212345   4.687   2.723   0.361
 3816SOL     OW12346   6.975   5.749   0.692
 3816SOL    HW112347   6.945   5.654   0.700
 3816SOL    HW212348   6.895   5.809   0.683
 3817SOL     OW12349   5.174   3.287   3.482
 3817SOL    HW112350   5.087   3.314   3.522
 3817SOL    HW212351   5.248   3.340   3.523
 3818SOL     OW12352   5.245   0.338   0.224
 3818SOL    HW112353   5.245   0.435   0.201
 3818SOL    HW212354   5.228   0.284   0.142
 3819SOL     OW12355   5.759   5.705   1.208
 3819SOL    HW112356   5.817   5.727   1.287
 3819SOL    HW212357   5.789   5.757   1.128
 3820SOL     OW12358   6.898   6.848   4.303
 3820SOL    HW112359   6.953   6.897   4.371
 3820SOL    HW212360   6.927   6.876   4.212
 3821SOL     OW12361   2.151   3.021   1.038
 3821SOL    HW112362   2.060   2.984   1.020
 3821SOL    HW212363   2.144   3.096   1.104
 3822SOL     OW12364   1.332   5.911   2.360
 3822SOL    HW112365   1.298   5.987   2.414
 3822SOL    HW212366   1.296   5.916   2.267
 3823SOL     OW12367   4.413   2.300   5.727
 3823SOL    HW112368   4.343   2.317   5.657
 3823SOL    HW212369   4.371   2.254   5.805
 3824SOL     OW12370   6.087   2.077   5.832
 3824SOL    HW112371   6.171   2.129   5.849
 3824SOL    HW212372   6.040   2.060   5.919
 3825SOL     OW12373   0.238   6.525   1.381
 3825SOL    HW112374   0.165   6.564   1.325
 3825SOL    HW212375   0.325   6.567   1.355
 3826SOL     OW12376   1.154   3.714   6.765
 3826SOL    HW112377   1.091   3.650   6.722
 3826SOL    HW212378   1.197   3.671   6.844
 3827SOL     OW12379   3.281   3.259   0.766
 3827SOL    HW112380   3.233   3.332   0.815
 3827SOL    HW212381   3.370   3.243   0.808
 3828SOL     OW12382   4.401   2.403   1.205
 3828SOL    HW112383   4.431   2.470   1.272
 3828SOL    HW212384   4.396   2.446   1.115
 3829SOL     OW12385   1.796   4.845   4.063
 3829SOL    HW112386   1.810   4.909   3.987
 3829SOL    HW212387   1.738   4.888   4.133
 3830SOL     OW12388   1.168   0.502   4.511
 3830SOL    HW112389   1.151   0.430   4.443
 3830SOL    HW212390   1.155   0.465   4.603
 3831SOL     OW12391   4.364   1.951   2.244
 3831SOL    HW112392   4.423   2.028   2.267
 3831SOL    HW212393   4.419   1.874   2.211
 3832SOL     OW12394   5.918   0.552   2.245
 3832SOL    HW112395   5.998   0.608   2.223
 3832SOL    HW212396   5.942   0.487   2.316
 3833SOL     OW12397   1.104   5.772   6.015
 3833SOL    HW112398   1.090   5.836   5.939
 3833SOL    HW212399   1.101   5.678   5.980
 3834SOL     OW12400   3.354   2.735   0.822
 3834SOL    HW112401   3.312   2.725   0.732
 3834SOL    HW212402   3.415   2.658   0.839
 3835SOL     OW12403   3.287   5.532   4.921
 3835SOL    HW112404   3.313   5.499   5.012
 3835SOL    HW212405   3.331   5.475   4.851
 3836SOL     OW12406   1.871   3.736   4.828
 3836SOL    HW112407   1.950   3.767   4.880
 3836SOL    HW212408   1.808   3.812   4.815
 3837SOL     OW12409   5.169   3.561   7.021
 3837SOL    HW112410   5.246   3.510   0.035
 3837SOL    HW212411   5.089   3.501   7.014
 3838SOL     OW12412   6.480   4.159   4.503
 3838SOL    HW112413   6.395   4.129   4.459
 3838SOL    HW212414   6.472   4.255   4.530
 3839SOL     OW12415   4.236   0.394   4.519
 3839SOL    HW112416   4.306   0.352   4.578
 3839SOL    HW212417   4.187   0.321   4.470
 3840SOL     OW12418   1.645   1.126   5.665
 3840SOL    HW112419   1.684   1.109   5.756
 3840SOL    HW212420   1.706   1.090   5.595
 3841SOL     OW12421   6.731   3.360   4.787
 3841SOL    HW112422   6.769   3.421   4.717
 3841SOL    HW212423   6.801   3.294   4.814
 3842SOL     OW12424   1.308   5.005   0.288
 3842SOL    HW112425   1.220   5.051   0.274
 3842SOL    HW212426   1.337   4.962   0.202
 3843SOL     OW12427   6.998   4.100   1.697
 3843SOL    HW112428   0.013   4.014   1.731
 3843SOL    HW212429   7.017   4.174   1.762
 3844SOL     OW12430   0.123   4.574   5.521
 3844SOL    HW112431   0.176   4.587   5.605
 3844SOL    HW212432   0.045   4.636   5.520
 3845SOL     OW12433   3.563   2.926   2.900
 3845SOL    HW112434   3.576   2.909   2.998
 3845SOL    HW212435   3.651   2.918   2.853
 3846SOL     OW12436   0.459   4.563   4.036
 3846SOL    HW112437   0.485   4.517   3.951
 3846SOL    HW212438   0.365   4.539   4.060
 3847SOL     OW12439   6.314   1.575   5.665
 3847SOL    HW112440   6.363   1.492   5.692
 3847SOL    HW212441   6.313   1.583   5.566
 3848SOL     OW12442   2.927   5.585   3.076
 3848SOL    HW112443   2.936   5.539   3.164
 3848SOL    HW212444   3.017   5.598   3.035
 3849SOL     OW12445   0.279   1.261   5.666
 3849SOL    HW112446   0.229   1.198   5.607
 3849SOL    HW212447   0.219   1.294   5.739
 3850SOL     OW12448   2.434   3.594   1.654
 3850SOL    HW112449   2.436   3.679   1.706
 3850SOL    HW212450   2.418   3.517   1.715
 3851SOL     OW12451   1.040   4.253   2.570
 3851SOL    HW112452   1.077   4.175   2.621
 3851SOL    HW212453   0.946   4.233   2.544
 3852SOL     OW12454   4.661   0.106   4.655
 3852SOL    HW112455   4.657   0.085   4.752
 3852SOL    HW212456   4.756   0.108   4.624
 3853SOL     OW12457   1.693   3.250   2.541
 3853SOL    HW112458   1.683   3.165   2.491
 3853SOL    HW212459   1.611   3.268   2.595
 3854SOL     OW12460   0.568   3.898   3.029
 3854SOL    HW112461   0.468   3.902   3.029
 3854SOL    HW212462   0.597   3.807   3.059
 3855SOL     OW12463   5.611   5.608   6.770
 3855SOL    HW112464   5.705   5.587   6.741
 3855SOL    HW212465   5.582   5.542   6.839
 3856SOL     OW12466   6.964   6.391   4.898
 3856SOL    HW112467   6.980   6.318   4.964
 3856SOL    HW212468   6.956   6.352   4.807
 3857SOL     OW12469   1.186   6.361   5.086
 3857SOL    HW112470   1.253   6.394   5.152
 3857SOL    HW212471   1.198   6.263   5.072
 3858SOL     OW12472   1.771   5.888   6.081
 3858SOL    HW112473   1.737   5.809   6.132
 3858SOL    HW212474   1.696   5.929   6.029
 3859SOL     OW12475   0.176   1.905   2.986
 3859SOL    HW112476   0.141   1.823   3.031
 3859SOL    HW212477   0.123   1.924   2.903
 3860SOL     OW12478   1.950   6.200   4.536
 3860SOL    HW112479   1.989   6.278   4.584
 3860SOL    HW212480   1.896   6.231   4.459
 3861SOL     OW12481   5.445   4.647   1.787
 3861SOL    HW112482   5.486   4.598   1.710
 3861SOL    HW212483   5.502   4.633   1.869
 3862SOL     OW12484   6.683   6.921   5.193
 3862SOL    HW112485   6.630   6.880   5.267
 3862SOL    HW212486   6.677   7.021   5.198
 3863SOL     OW12487   3.870   4.226   6.828
 3863SOL    HW112488   3.840   4.143   6.876
 3863SOL    HW212489   3.793   4.290   6.822
 3864SOL     OW12490   3.841   2.082   5.966
 3864SOL    HW112491   3.917   2.027   6.002
 3864SOL    HW212492   3.834   2.068   5.867
 3865SOL     OW12493   4.223   0.789   1.693
 3865SOL    HW112494   4.144   0.781   1.631
 3865SOL    HW212495   4.299   0.734   1.659
 3866SOL     OW12496   4.215   0.800   0.183
 3866SOL    HW112497   4.298   0.747   0.169
 3866SOL    HW212498   4.148   0.777   0.112
 3867SOL     OW12499   2.016   3.543   3.829
 3867SOL    HW112500   2.055   3.452   3.812
 3867SOL    HW212501   2.067   3.587   3.903
 3868SOL     OW12502   2.272   6.361   2.009
 3868SOL    HW112503   2.320   6.279   1.978
 3868SOL    HW212504   2.287   6.436   1.944
 3869SOL     OW12505   0.410   2.766   4.169
 3869SOL    HW112506   0.390   2.841   4.232
 3869SOL    HW212507   0.482   2.795   4.105
 3870SOL     OW12508   3.979   5.376   0.336
 3870SOL    HW112509   3.944   5.294   0.290
 3870SOL    HW212510   4.064   5.405   0.293
 3871SOL     OW12511   3.494   0.323   2.929
 3871SOL    HW112512   3.541   0.370   3.003
 3871SOL    HW212513   3.554   0.253   2.890
 3872SOL     OW12514   3.847   2.799   1.312
 3872SOL    HW112515   3.928   2.854   1.292
 3872SOL    HW212516   3.870   2.702   1.305
 3873SOL     OW12517   5.612   5.722   1.512
 3873SOL    HW112518   5.549   5.786   1.468
 3873SOL    HW212519   5.702   5.729   1.470
 3874SOL     OW12520   4.198   6.563   0.456
 3874SOL    HW112521   4.148   6.588   0.373
 3874SOL    HW212522   4.140   6.580   0.536
 3875SOL     OW12523   1.443   3.817   2.711
 3875SOL    HW112524   1.475   3.799   2.618
 3875SOL    HW212525   1.461   3.913   2.735
 3876SOL     OW12526   4.609   5.008   6.434
 3876SOL    HW112527   4.594   5.065   6.354
 3876SOL    HW212528   4.687   4.947   6.418
 3877SOL     OW12529   6.872   1.548   1.233
 3877SOL    HW112530   6.942   1.602   1.281
 3877SOL    HW212531   6.905   1.454   1.223
 3878SOL     OW12532   2.450   6.330   6.122
 3878SOL    HW112533   2.356   6.303   6.101
 3878SOL    HW212534   2.513   6.281   6.062
 3879SOL     OW12535   5.062   5.692   1.669
 3879SOL    HW112536   5.066   5.685   1.570
 3879SOL    HW212537   5.087   5.784   1.698
 3880SOL     OW12538   6.036   3.779   2.724
 3880SOL    HW112539   5.946   3.822   2.729
 3880SOL    HW212540   6.090   3.805   2.803
 3881SOL     OW12541   1.776   5.464   1.015
 3881SOL    HW112542   1.850   5.522   1.049
 3881SOL    HW212543   1.707   5.521   0.971
 3882SOL     OW12544   6.481   0.658   5.621
 3882SOL    HW112545   6.461   0.648   5.718
 3882SOL    HW212546   6.572   0.698   5.610
 3883SOL     OW12547   4.983   1.355   3.931
 3883SOL    HW112548   5.077   1.387   3.929
 3883SOL    HW212549   4.945   1.358   3.838
 3884SOL     OW12550   1.512   6.171   4.558
 3884SOL    HW112551   1.582   6.207   4.497
 3884SOL    HW212552   1.423   6.207   4.531
 3885SOL     OW12553   6.369   1.001   4.634
 3885SOL    HW112554   6.443   1.034   4.693
 3885SOL    HW212555   6.391   0.910   4.601
 3886SOL     OW12556   6.382   0.062   5.794
 3886SOL    HW112557   6.383   0.003   5.875
 3886SOL    HW212558   6.312   0.031   5.730
 3887SOL     OW12559   4.689   1.866   5.509
 3887SOL    HW112560   4.624   1.918   5.452
 3887SOL    HW212561   4.681   1.896   5.604
 3888SOL     OW12562   6.686   1.517   6.535
 3888SOL    HW112563   6.693   1.496   6.633
 3888SOL    HW212564   6.767   1.483   6.488
 3889SOL     OW12565   0.777   5.019   6.951
 3889SOL    HW112566   0.747   4.962   6.874
 3889SOL    HW212567   0.706   5.020   7.021
 3890SOL     OW12568   6.407   6.344   3.027
 3890SOL    HW112569   6.438   6.295   3.109
 3890SOL    HW212570   6.457   6.430   3.019
 3891SOL     OW12571   5.058   4.976   4.733
 3891SOL    HW112572   5.124   4.994   4.806
 3891SOL    HW212573   4.974   5.027   4.751
 3892SOL     OW12574   0.732   0.028   2.820
 3892SOL    HW112575   0.814   0.053   2.768
 3892SOL    HW212576   0.758   0.011   2.915
 3893SOL     OW12577   3.530   5.882   3.201
 3893SOL    HW112578   3.523   5.807   3.135
 3893SOL    HW212579   3.625   5.892   3.231
 3894SOL     OW12580   3.686   2.530   0.459
 3894SOL    HW112581   3.741   2.569   0.386
 3894SOL    HW212582   3.738   2.532   0.545
 3895SOL     OW12583   1.473   1.374   5.580
 3895SOL    HW112584   1.426   1.431   5.647
 3895SOL    HW212585   1.505   1.290   5.625
 3896SOL     OW12586   0.553   1.621   6.067
 3896SOL    HW112587   0.590   1.568   5.991
 3896SOL    HW212588   0.456   1.600   6.077
 3897SOL     OW12589   2.560   6.316   2.239
 3897SOL    HW112590   2.544   6.228   2.283
 3897SOL    HW212591   2.647   6.354   2.269
 3898SOL     OW12592   3.100   3.259   3.842
 3898SOL    HW112593   3.109   3.337   3.903
 3898SOL    HW212594   3.043   3.283   3.764
 3899SOL     OW12595   5.391   1.029   4.993
 3899SOL    HW112596   5.375   0.982   4.906
 3899SOL    HW212597   5.311   1.017   5.052
 3900SOL     OW12598   6.452   2.461   3.457
 3900SOL    HW112599   6.457   2.517   3.374
 3900SOL    HW212600   6.446   2.365   3.432
 3901SOL     OW12601   1.480   6.260   5.112
 3901SOL    HW112602   1.524   6.339   5.154
 3901SOL    HW212603   1.451   6.283   5.019
 3902SOL     OW12604   5.634   5.023   2.489
 3902SOL    HW112605   5.563   4.954   2.504
 3902SOL    HW212606   5.717   4.997   2.538
 3903SOL     OW12607   3.859   2.699   0.273
 3903SOL    HW112608   3.885   2.710   0.369
 3903SOL    HW212609   3.931   2.736   0.214
 3904SOL     OW12610   0.896   6.855   0.192
 3904SOL    HW112611   0.839   6.777   0.167
 3904SOL    HW212612   0.864   6.894   0.278
 3905SOL     OW12613   6.817   6.259   6.394
 3905SOL    HW112614   6.784   6.165   6.386
 3905SOL    HW212615   6.804   6.306   6.307
 3906SOL     OW12616   1.375   5.269   3.668
 3906SOL    HW112617   1.350   5.187   3.617
 3906SOL    HW212618   1.439   5.244   3.741
 3907SOL     OW12619   6.894   0.844   4.567
 3907SOL    HW112620   6.858   0.937   4.566
 3907SOL    HW212621   6.892   0.806   4.475
 3908SOL     OW12622   1.583   0.867   5.486
 3908SOL    HW112623   1.519   0.853   5.410
 3908SOL    HW212624   1.532   0.879   5.571
 3909SOL     OW12625   5.676   3.608   5.670
 3909SOL    HW112626   5.581   3.584   5.691
 3909SOL    HW212627   5.720   3.532   5.623
 3910SOL     OW12628   3.424   3.687   1.987
 3910SOL    HW112629   3.348   3.662   1.926
 3910SOL    HW212630   3.399   3.669   2.082
 3911SOL     OW12631   5.570   0.610   1.163
 3911SOL    HW112632   5.517   0.601   1.079
 3911SOL    HW212633   5.642   0.678   1.150
 3912SOL     OW12634   3.114   2.396   6.254
 3912SOL    HW112635   3.133   2.466   6.185
 3912SOL    HW212636   3.073   2.440   6.334
 3913SOL     OW12637   3.821   6.594   0.454
 3913SOL    HW112638   3.820   6.691   0.480
 3913SOL    HW212639   3.869   6.541   0.524
 3914SOL     OW12640   6.030   1.454   1.002
 3914SOL    HW112641   5.994   1.493   1.086
 3914SOL    HW212642   6.008   1.515   0.925
 3915SOL     OW12643   4.132   5.969   0.333
 3915SOL    HW112644   4.183   5.919   0.402
 3915SOL    HW212645   4.173   5.954   0.243
 3916SOL     OW12646   2.726   0.851   3.203
 3916SOL    HW112647   2.674   0.925   3.160
 3916SOL    HW212648   2.823   0.861   3.183
 3917SOL     OW12649   2.445   5.310   0.682
 3917SOL    HW112650   2.441   5.307   0.781
 3917SOL    HW212651   2.429   5.218   0.645
 3918SOL     OW12652   5.339   1.055   0.312
 3918SOL    HW112653   5.379   0.977   0.359
 3918SOL    HW212654   5.379   1.140   0.348
 3919SOL     OW12655   4.616   1.542   1.385
 3919SOL    HW112656   4.528   1.582   1.362
 3919SOL    HW212657   4.650   1.581   1.470
 3920SOL     OW12658   2.972   1.653   6.284
 3920SOL    HW112659   2.997   1.749   6.275
 3920SOL    HW212660   2.892   1.634   6.227
 3921SOL     OW12661   0.397   2.364   6.352
 3921SOL    HW112662   0.431   2.450   6.390
 3921SOL    HW212663   0.305   2.346   6.387
 3922SOL     OW12664   4.710   4.907   1.784
 3922SOL    HW112665   4.687   4.851   1.864
 3922SOL    HW212666   4.729   4.848   1.706
 3923SOL     OW12667   6.020   0.770   1.937
 3923SOL    HW112668   6.110   0.812   1.923
 3923SOL    HW212669   5.950   0.827   1.894
 3924SOL     OW12670   0.166   4.496   4.030
 3924SOL    HW112671   0.118   4.572   4.073
 3924SOL    HW212672   0.176   4.515   3.932
 3925SOL     OW12673   4.938   3.835   0.353
 3925SOL    HW112674   5.035   3.858   0.358
 3925SOL    HW212675   4.895   3.885   0.278
 3926SOL     OW12676   1.521   0.817   6.031
 3926SOL    HW112677   1.452   0.785   5.967
 3926SOL    HW212678   1.540   0.914   6.014
 3927SOL     OW12679   0.376   2.433   4.488
 3927SOL    HW112680   0.404   2.386   4.572
 3927SOL    HW212681   0.315   2.509   4.511
 3928SOL     OW12682   2.042   6.724   3.703
 3928SOL    HW112683   2.066   6.785   3.779
 3928SOL    HW212684   2.097   6.747   3.623
 3929SOL     OW12685   7.006   2.142   5.325
 3929SOL    HW112686   6.954   2.057   5.316
 3929SOL    HW212687   0.072   2.132   5.282
 3930SOL     OW12688   1.385   2.541   3.885
 3930SOL    HW112689   1.406   2.489   3.803
 3930SOL    HW212690   1.468   2.585   3.920
 3931SOL     OW12691   1.456   2.706   1.689
 3931SOL    HW112692   1.503   2.794   1.701
 3931SOL    HW212693   1.357   2.722   1.690
 3932SOL     OW12694   2.089   5.637   3.870
 3932SOL    HW112695   2.064   5.605   3.961
 3932SOL    HW212696   2.176   5.687   3.875
 3933SOL     OW12697   2.056   5.077   0.564
 3933SOL    HW112698   1.962   5.042   0.559
 3933SOL    HW212699   2.097   5.075   0.473
 3934SOL     OW12700   1.017   1.520   2.648
 3934SOL    HW112701   1.091   1.456   2.670
 3934SOL    HW212702   1.040   1.611   2.684
 3935SOL     OW12703   6.123   3.404   6.511
 3935SOL    HW112704   6.184   3.411   6.433
 3935SOL    HW212705   6.068   3.488   6.519
 3936SOL     OW12706   6.519   5.357   5.164
 3936SOL    HW112707   6.486   5.277   5.114
 3936SOL    HW212708   6.534   5.334   5.259
 3937SOL     OW12709   6.933   5.438   2.442
 3937SOL    HW112710   7.015   5.463   2.392
 3937SOL    HW212711   6.927   5.338   2.449
 3938SOL     OW12712   6.996   3.641   3.676
 3938SOL    HW112713   6.942   3.631   3.759
 3938SOL    HW212714   6.937   3.668   3.600
 3939SOL     OW12715   0.631   1.385   2.104
 3939SOL    HW112716   0.680   1.299   2.094
 3939SOL    HW212717   0.562   1.394   2.032
 3940SOL     OW12718   3.050   4.774   1.896
 3940SOL    HW112719   3.093   4.750   1.809
 3940SOL    HW212720   2.974   4.712   1.913
 3941SOL     OW12721   5.754   6.810   4.170
 3941SOL    HW112722   5.797   6.890   4.210
 3941SOL    HW212723   5.686   6.839   4.103
 3942SOL     OW12724   1.045   6.118   6.292
 3942SOL    HW112725   1.052   6.134   6.391
 3942SOL    HW212726   1.122   6.162   6.246
 3943SOL     OW12727   0.768   3.685   1.722
 3943SOL    HW112728   0.797   3.773   1.683
 3943SOL    HW212729   0.734   3.700   1.815
 3944SOL     OW12730   6.325   2.656   6.737
 3944SOL    HW112731   6.300   2.652   6.834
 3944SOL    HW212732   6.242   2.663   6.681
 3945SOL     OW12733   1.078   1.074   3.266
 3945SOL    HW112734   1.034   1.153   3.224
 3945SOL    HW212735   1.018   1.036   3.336
 3946SOL     OW12736   6.800   3.016   0.403
 3946SOL    HW112737   6.786   3.038   0.306
 3946SOL    HW212738   6.840   3.095   0.450
 3947SOL     OW12739   5.828   5.752   0.880
 3947SOL    HW112740   5.891   5.827   0.859
 3947SOL    HW212741   5.881   5.673   0.912
 3948SOL     OW12742   1.760   2.471   6.289
 3948SOL    HW112743   1.778   2.469   6.387
 3948SOL    HW212744   1.733   2.380   6.258
 3949SOL     OW12745   6.389   6.542   2.504
 3949SOL    HW112746   6.384   6.445   2.529
 3949SOL    HW212747   6.298   6.583   2.512
 3950SOL     OW12748   4.007   4.755   1.269
 3950SOL    HW112749   4.055   4.822   1.213
 3950SOL    HW212750   3.926   4.797   1.310
 3951SOL     OW12751   0.281   1.901   5.519
 3951SOL    HW112752   0.216   1.969   5.555
 3951SOL    HW212753   0.315   1.931   5.430
 3952SOL     OW12754   5.954   2.791   5.293
 3952SOL    HW112755   5.890   2.722   5.257
 3952SOL    HW212756   5.902   2.871   5.324
 3953SOL     OW12757   3.243   4.014   5.984
 3953SOL    HW112758   3.211   4.085   5.921
 3953SOL    HW212759   3.165   3.960   6.015
 3954SOL     OW12760   6.986   3.693   4.664
 3954SOL    HW112761   6.920   3.754   4.707
 3954SOL    HW212762   0.035   3.748   4.622
 3955SOL     OW12763   5.247   5.717   0.117
 3955SOL    HW112764   5.230   5.709   0.019
 3955SOL    HW212765   5.195   5.647   0.166
 3956SOL     OW12766   0.640   3.013   5.700
 3956SOL    HW112767   0.659   2.916   5.682
 3956SOL    HW212768   0.620   3.026   5.797
 3957SOL     OW12769   2.820   0.078   4.108
 3957SOL    HW112770   2.834   0.170   4.143
 3957SOL    HW212771   2.724   0.066   4.082
 3958SOL     OW12772   6.591   5.816   6.569
 3958SOL    HW112773   6.619   5.732   6.525
 3958SOL    HW212774   6.637   5.894   6.526
 3959SOL     OW12775   2.723   5.953   0.190
 3959SOL    HW112776   2.759   5.883   0.128
 3959SOL    HW212777   2.690   5.910   0.274
 3960SOL     OW12778   3.857   3.193   0.020
 3960SOL    HW112779   3.929   3.138   0.062
 3960SOL    HW212780   3.833   3.154   6.954
 3961SOL     OW12781   5.012   1.417   2.143
 3961SOL    HW112782   4.935   1.468   2.182
 3961SOL    HW212783   5.045   1.464   2.062
 3962SOL     OW12784   0.794   6.201   0.086
 3962SOL    HW112785   0.816   6.269   0.016
 3962SOL    HW212786   0.721   6.237   0.145
 3963SOL     OW12787   5.222   5.045   4.366
 3963SOL    HW112788   5.293   5.109   4.392
 3963SOL    HW212789   5.219   4.969   4.431
 3964SOL     OW12790   5.034   6.148   5.408
 3964SOL    HW112791   5.049   6.049   5.408
 3964SOL    HW212792   5.083   6.190   5.485
 3965SOL     OW12793   3.697   4.605   0.076
 3965SOL    HW112794   3.735   4.668   0.008
 3965SOL    HW212795   3.629   4.546   0.032
 3966SOL     OW12796   6.248   4.958   5.525
 3966SOL    HW112797   6.190   4.998   5.595
 3966SOL    HW212798   6.340   4.943   5.563
 3967SOL     OW12799   0.404   6.109   4.783
 3967SOL    HW112800   0.501   6.127   4.769
 3967SOL    HW212801   0.360   6.091   4.695
 3968SOL     OW12802   5.217   0.223   2.317
 3968SOL    HW112803   5.205   0.188   2.225
 3968SOL    HW212804   5.263   0.312   2.313
 3969SOL     OW12805   0.977   4.821   2.678
 3969SOL    HW112806   0.922   4.870   2.746
 3969SOL    HW212807   0.933   4.734   2.657
 3970SOL     OW12808   5.212   5.111   3.666
 3970SOL    HW112809   5.217   5.170   3.747
 3970SOL    HW212810   5.120   5.073   3.659
 3971SOL     OW12811   2.036   5.701   3.140
 3971SOL    HW112812   2.074   5.689   3.232
 3971SOL    HW212813   1.970   5.777   3.141
 3972SOL     OW12814   0.390   6.264   0.559
 3972SOL    HW112815   0.444   6.292   0.638
 3972SOL    HW212816   0.414   6.171   0.532
 3973SOL     OW12817   3.727   3.852   3.842
 3973SOL    HW112818   3.646   3.795   3.836
 3973SOL    HW212819   3.717   3.916   3.919
 3974SOL     OW12820   0.036   1.247   5.995
 3974SOL    HW112821   7.000   1.235   6.074
 3974SOL    HW212822   0.041   1.162   5.943
 3975SOL     OW12823   6.852   1.140   6.209
 3975SOL    HW112824   6.881   1.081   6.285
 3975SOL    HW212825   6.752   1.140   6.204
 3976SOL     OW12826   1.542   4.226   1.074
 3976SOL    HW112827   1.602   4.269   1.006
 3976SOL    HW212828   1.549   4.275   1.160
 3977SOL     OW12829   2.295   6.488   6.280
 3977SOL    HW112830   2.359   6.423   6.240
 3977SOL    HW212831   2.337   6.579   6.282
 3978SOL     OW12832   5.867   1.850   5.682
 3978SOL    HW112833   5.869   1.870   5.584
 3978SOL    HW212834   5.817   1.921   5.730
 3979SOL     OW12835   1.354   6.597   2.189
 3979SOL    HW112836   1.449   6.628   2.187
 3979SOL    HW212837   1.330   6.558   2.100
 3980SOL     OW12838   4.941   3.272   4.447
 3980SOL    HW112839   4.894   3.336   4.508
 3980SOL    HW212840   5.004   3.323   4.388
 3981SOL     OW12841   0.104   1.918   7.019
 3981SOL    HW112842   0.045   1.980   0.047
 3981SOL    HW212843   0.173   1.879   0.057
 3982SOL     OW12844   2.554   1.276   4.052
 3982SOL    HW112845   2.638   1.224   4.069
 3982SOL    HW212846   2.509   1.295   4.140
 3983SOL     OW12847   3.201   6.365   4.162
 3983SOL    HW112848   3.230   6.415   4.244
 3983SOL    HW212849   3.262   6.389   4.086
 3984SOL     OW12850   1.649   6.665   2.073
 3984SOL    HW112851   1.726   6.724   2.099
 3984SOL    HW212852   1.592   6.713   2.005
 3985SOL     OW12853   1.488   3.745   6.844
 3985SOL    HW112854   1.449   3.713   6.930
 3985SOL    HW212855   1.448   3.695   6.768
 3986SOL     OW12856   0.063   1.744   1.320
 3986SOL    HW112857   0.021   1.783   1.238
 3986SOL    HW212858   0.051   1.807   1.397
 3987SOL     OW12859   2.432   5.307   5.766
 3987SOL    HW112860   2.501   5.303   5.693
 3987SOL    HW212861   2.344   5.276   5.729
 3988SOL     OW12862   3.613   1.961   0.080
 3988SOL    HW112863   3.604   1.880   0.137
 3988SOL    HW212864   3.691   1.950   0.018
 3989SOL     OW12865   6.066   0.156   7.019
 3989SOL    HW112866   6.134   0.228   7.008
 3989SOL    HW212867   6.062   0.129   0.092
 3990SOL     OW12868   7.020   2.742   4.489
 3990SOL    HW112869   6.987   2.680   4.560
 3990SOL    HW212870   6.945   2.761   4.424
 3991SOL     OW12871   0.354   2.148   3.481
 3991SOL    HW112872   0.390   2.054   3.479
 3991SOL    HW212873   0.397   2.202   3.409
 3992SOL     OW12874   3.960   3.464   6.608
 3992SOL    HW112875   3.985   3.454   6.704
 3992SOL    HW212876   3.975   3.558   6.578
 3993SOL     OW12877   3.059   2.211   2.688
 3993SOL    HW112878   3.075   2.163   2.601
 3993SOL    HW212879   3.134   2.190   2.751
 3994SOL     OW12880   2.441   2.530   4.529
 3994SOL    HW112881   2.465   2.516   4.433
 3994SOL    HW212882   2.345   2.506   4.543
 3995SOL     OW12883   2.000   4.223   3.400
 3995SOL    HW112884   1.960   4.229   3.492
 3995SOL    HW212885   1.940   4.169   3.341
 3996SOL     OW12886   0.978   1.095   4.502
 3996SOL    HW112887   1.063   1.079   4.452
 3996SOL    HW212888   0.978   1.041   4.586
 3997SOL     OW12889   4.856   3.971   3.248
 3997SOL    HW112890   4.899   4.022   3.174
 3997SOL    HW212891   4.926   3.928   3.304
 3998SOL     OW12892   6.187   2.235   2.512
 3998SOL    HW112893   6.208   2.274   2.602
 3998SOL    HW212894   6.234   2.288   2.441
 3999SOL     OW12895   5.892   3.940   3.162
 3999SOL    HW112896   5.809   3.916   3.113
 3999SOL    HW212897   5.906   3.876   3.237
 4000SOL     OW12898   2.683   5.654   2.423
 4000SOL    HW112899   2.644   5.618   2.508
 4000SOL    HW212900   2.769   5.608   2.404
 4001SOL     OW12901   2.874   3.533   5.714
 4001SOL    HW112902   2.896   3.631   5.720
 4001SOL    HW212903   2.937   3.488   5.651
 4002SOL     OW12904   3.655   3.210   5.332
 4002SOL    HW112905   3.633   3.197   5.236
 4002SOL    HW212906   3.679   3.306   5.349
 4003SOL     OW12907   2.878   1.395   6.697
 4003SOL    HW112908   2.878   1.491   6.669
 4003SOL    HW212909   2.916   1.387   6.789
 4004SOL     OW12910   6.074   3.425   3.103
 4004SOL    HW112911   5.975   3.435   3.104
 4004SOL    HW212912   6.115   3.500   3.050
 4005SOL     OW12913   4.109   4.017   1.303
 4005SOL    HW112914   4.122   4.116   1.295
 4005SOL    HW212915   4.047   3.998   1.379
 4006SOL     OW12916   5.549   5.096   1.970
 4006SOL    HW112917   5.554   5.074   1.872
 4006SOL    HW212918   5.620   5.164   1.992
 4007SOL     OW12919   0.459   1.699   2.943
 4007SOL    HW112920   0.557   1.708   2.921
 4007SOL    HW212921   0.417   1.790   2.944
 4008SOL     OW12922   3.054   6.903   0.480
 4008SOL    HW112923   3.010   6.813   0.483
 4008SOL    HW212924   3.059   6.941   0.573
 4009SOL     OW12925   4.911   2.080   1.667
 4009SOL    HW112926   4.951   2.012   1.728
 4009SOL    HW212927   4.826   2.045   1.629
 4010SOL     OW12928   2.932   4.297   1.435
 4010SOL    HW112929   2.918   4.347   1.349
 4010SOL    HW212930   3.030   4.288   1.452
 4011SOL     OW12931   0.060   5.924   1.399
 4011SOL    HW112932   6.992   5.896   1.370
 4011SOL    HW212933   0.109   5.963   1.321
 4012SOL     OW12934   4.397   6.984   1.960
 4012SOL    HW112935   4.299   6.996   1.951
 4012SOL    HW212936   4.416   6.911   2.026
 4013SOL     OW12937   1.834   6.859   1.330
 4013SOL    HW112938   1.879   6.775   1.299
 4013SOL    HW212939   1.860   6.879   1.424
 4014SOL     OW12940   3.638   6.262   4.104
 4014SOL    HW112941   3.731   6.283   4.074
 4014SOL    HW212942   3.603   6.184   4.053
 4015SOL     OW12943   4.760   4.540   6.442
 4015SOL    HW112944   4.742   4.474   6.515
 4015SOL    HW212945   4.743   4.633   6.476
 4016SOL     OW12946   3.135   5.199   0.519
 4016SOL    HW112947   3.208   5.231   0.578
 4016SOL    HW212948   3.101   5.274   0.462
 4017SOL     OW12949   0.120   4.780   5.250
 4017SOL    HW112950   0.186   4.704   5.253
 4017SOL    HW212951   0.167   4.866   5.272
 4018SOL     OW12952   4.271   0.400   1.815
 4018SOL    HW112953   4.332   0.322   1.801
 4018SOL    HW212954   4.201   0.376   1.882
 4019SOL     OW12955   5.494   3.625   2.361
 4019SOL    HW112956   5.503   3.546   2.301
 4019SOL    HW212957   5.402   3.627   2.401
 4020SOL     OW12958   6.336   3.469   4.907
 4020SOL    HW112959   6.312   3.407   4.981
 4020SOL    HW212960   6.433   3.493   4.913
 4021SOL     OW12961   3.422   3.953   5.104
 4021SOL    HW112962   3.462   4.036   5.063
 4021SOL    HW212963   3.329   3.941   5.069
 4022SOL     OW12964   4.021   6.624   0.262
 4022SOL    HW112965   3.943   6.602   0.320
 4022SOL    HW212966   3.994   6.691   0.193
 4023SOL     OW12967   6.792   0.736   5.560
 4023SOL    HW112968   6.784   0.788   5.646
 4023SOL    HW212969   6.765   0.794   5.484
 4024SOL     OW12970   2.222   5.173   4.837
 4024SOL    HW112971   2.195   5.173   4.934
 4024SOL    HW212972   2.321   5.164   4.830
 4025SOL     OW12973   0.809   6.392   4.534
 4025SOL    HW112974   0.887   6.419   4.478
 4025SOL    HW212975   0.744   6.468   4.540
 4026SOL     OW12976   6.331   6.220   4.511
 4026SOL    HW112977   6.344   6.302   4.567
 4026SOL    HW212978   6.374   6.142   4.556
 4027SOL     OW12979   2.955   1.921   0.198
 4027SOL    HW112980   2.908   1.964   0.121
 4027SOL    HW212981   2.976   1.990   0.268
 4028SOL     OW12982   4.067   1.742   3.381
 4028SOL    HW112983   3.978   1.766   3.419
 4028SOL    HW212984   4.101   1.818   3.325
 4029SOL     OW12985   2.597   4.213   6.099
 4029SOL    HW112986   2.591   4.241   6.003
 4029SOL    HW212987   2.648   4.128   6.107
 4030SOL     OW12988   0.022   1.043   1.297
 4030SOL    HW112989   7.011   0.975   1.233
 4030SOL    HW212990   0.038   1.000   1.386
 4031SOL     OW12991   5.252   6.240   3.490
 4031SOL    HW112992   5.187   6.198   3.553
 4031SOL    HW212993   5.309   6.306   3.540
 4032SOL     OW12994   0.399   6.959   2.079
 4032SOL    HW112995   0.492   6.995   2.075
 4032SOL    HW212996   0.334   0.011   2.067
 4033SOL     OW12997   1.726   2.588   2.090
 4033SOL    HW112998   1.790   2.513   2.104
 4033SOL    HW212999   1.704   2.597   1.993
 4034SOL     OW13000   5.918   1.932   5.424
 4034SOL    HW113001   5.921   2.028   5.394
 4034SOL    HW213002   5.869   1.878   5.356
 4035SOL     OW13003   6.359   0.758   1.344
 4035SOL    HW113004   6.443   0.813   1.339
 4035SOL    HW213005   6.328   0.752   1.438
 4036SOL     OW13006   4.185   5.058   2.512
 4036SOL    HW113007   4.089   5.086   2.515
 4036SOL    HW213008   4.192   4.959   2.518
 4037SOL     OW13009   2.153   1.627   6.286
 4037SOL    HW113010   2.060   1.662   6.276
 4037SOL    HW213011   2.156   1.532   6.253
 4038SOL     OW13012   4.471   2.950   0.526
 4038SOL    HW113013   4.529   2.869   0.539
 4038SOL    HW213014   4.389   2.942   0.583
 4039SOL     OW13015   4.636   5.917   2.341
 4039SOL    HW113016   4.563   5.986   2.340
 4039SOL    HW213017   4.595   5.826   2.346
 4040SOL     OW13018   2.585   6.889   4.835
 4040SOL    HW113019   2.530   6.825   4.781
 4040SOL    HW213020   2.619   6.844   4.917
 4041SOL     OW13021   1.985   5.618   1.113
 4041SOL    HW113022   2.039   5.538   1.137
 4041SOL    HW213023   2.042   5.684   1.064
 4042SOL     OW13024   5.776   6.225   4.425
 4042SOL    HW113025   5.769   6.319   4.459
 4042SOL    HW213026   5.727   6.217   4.338
 4043SOL     OW13027   0.103   2.230   6.302
 4043SOL    HW113028   0.148   2.199   6.385
 4043SOL    HW213029   0.041   2.159   6.268
 4044SOL     OW13030   5.313   5.916   3.366
 4044SOL    HW113031   5.244   5.900   3.437
 4044SOL    HW213032   5.272   5.969   3.291
 4045SOL     OW13033   4.406   6.554   5.935
 4045SOL    HW113034   4.424   6.500   5.852
 4045SOL    HW213035   4.484   6.548   5.996
 4046SOL     OW13036   0.808   2.082   2.893
 4046SOL    HW113037   0.872   2.043   2.959
 4046SOL    HW213038   0.816   2.034   2.806
 4047SOL     OW13039   2.755   2.667   6.923
 4047SOL    HW113040   2.790   2.574   6.915
 4047SOL    HW213041   2.660   2.670   6.890
 4048SOL     OW13042   5.688   1.461   1.557
 4048SOL    HW113043   5.677   1.512   1.642
 4048SOL    HW213044   5.659   1.517   1.479
 4049SOL     OW13045   5.279   5.200   6.510
 4049SOL    HW113046   5.288   5.274   6.576
 4049SOL    HW213047   5.189   5.203   6.468
 4050SOL     OW13048   0.816   6.098   1.847
 4050SOL    HW113049   0.808   6.145   1.935
 4050SOL    HW213050   0.872   6.152   1.785
 4051SOL     OW13051   4.306   1.466   6.287
 4051SOL    HW113052   4.223   1.466   6.344
 4051SOL    HW213053   4.387   1.469   6.346
 4052SOL     OW13054   5.796   1.669   3.419
 4052SOL    HW113055   5.714   1.672   3.475
 4052SOL    HW213056   5.772   1.683   3.322
 4053SOL     OW13057   2.620   6.333   4.877
 4053SOL    HW113058   2.656   6.248   4.916
 4053SOL    HW213059   2.521   6.336   4.891
 4054SOL     OW13060   4.942   4.254   1.085
 4054SOL    HW113061   5.042   4.242   1.087
 4054SOL    HW213062   4.916   4.324   1.151
 4055SOL     OW13063   2.661   4.079   0.601
 4055SOL    HW113064   2.732   4.113   0.539
 4055SOL    HW213065   2.703   4.044   0.685
 4056SOL     OW13066   5.366   4.387   1.118
 4056SOL    HW113067   5.438   4.442   1.160
 4056SOL    HW213068   5.277   4.427   1.139
 4057SOL     OW13069   0.261   2.705   0.697
 4057SOL    HW113070   0.210   2.629   0.658
 4057SOL    HW213071   0.293   2.765   0.624
 4058SOL     OW13072   3.329   6.672   4.830
 4058SOL    HW113073   3.313   6.701   4.924
 4058SOL    HW213074   3.242   6.666   4.781
 4059SOL     OW13075   0.662   1.775   2.476
 4059SOL    HW113076   0.704   1.686   2.460
 4059SOL    HW213077   0.650   1.823   2.389
 4060SOL     OW13078   5.449   4.964   5.585
 4060SOL    HW113079   5.543   4.999   5.596
 4060SOL    HW213080   5.405   4.959   5.675
 4061SOL     OW13081   2.212   5.083   2.199
 4061SOL    HW113082   2.149   5.116   2.269
 4061SOL    HW213083   2.171   5.004   2.153
 4062SOL     OW13084   2.245   0.482   1.945
 4062SOL    HW113085   2.199   0.446   1.865
 4062SOL    HW213086   2.344   0.481   1.930
 4063SOL     OW13087   6.198   6.613   0.262
 4063SOL    HW113088   6.226   6.527   0.304
 4063SOL    HW213089   6.106   6.637   0.291
 4064SOL     OW13090   2.296   0.668   4.238
 4064SOL    HW113091   2.351   0.738   4.193
 4064SOL    HW213092   2.206   0.707   4.261
 4065SOL     OW13093   1.245   6.638   1.451
 4065SOL    HW113094   1.246   6.693   1.368
 4065SOL    HW213095   1.338   6.631   1.487
 4066SOL     OW13096   6.115   4.269   3.221
 4066SOL    HW113097   6.151   4.352   3.264
 4066SOL    HW213098   6.171   4.190   3.248
 4067SOL     OW13099   6.399   3.390   2.758
 4067SOL    HW113100   6.359   3.355   2.843
 4067SOL    HW213101   6.325   3.410   2.693
 4068SOL     OW13102   1.927   1.584   4.617
 4068SOL    HW113103   1.938   1.576   4.518
 4068SOL    HW213104   2.013   1.559   4.662
 4069SOL     OW13105   3.480   5.352   6.359
 4069SOL    HW113106   3.546   5.318   6.427
 4069SOL    HW213107   3.524   5.420   6.300
 4070SOL     OW13108   0.302   2.589   2.917
 4070SOL    HW113109   0.205   2.613   2.911
 4070SOL    HW213110   0.334   2.559   2.827
 4071SOL     OW13111   1.086   1.388   4.973
 4071SOL    HW113112   1.043   1.372   5.062
 4071SOL    HW213113   1.159   1.455   4.983
 4072SOL     OW13114   0.787   5.547   4.251
 4072SOL    HW113115   0.843   5.630   4.250
 4072SOL    HW213116   0.831   5.477   4.307
 4073SOL     OW13117   2.978   6.114   6.658
 4073SOL    HW113118   2.942   6.178   6.590
 4073SOL    HW213119   2.961   6.150   6.750
 4074SOL     OW13120   0.463   4.784   1.293
 4074SOL    HW113121   0.367   4.808   1.277
 4074SOL    HW213122   0.468   4.697   1.341
 4075SOL     OW13123   4.711   1.904   1.511
 4075SOL    HW113124   4.699   1.809   1.539
 4075SOL    HW213125   4.712   1.909   1.411
 4076SOL     OW13126   2.402   3.260   6.261
 4076SOL    HW113127   2.496   3.232   6.244
 4076SOL    HW213128   2.390   3.355   6.234
 4077SOL     OW13129   3.803   1.517   0.108
 4077SOL    HW113130   3.730   1.515   0.176
 4077SOL    HW213131   3.868   1.443   0.126
 4078SOL     OW13132   1.757   5.320   1.627
 4078SOL    HW113133   1.805   5.332   1.540
 4078SOL    HW213134   1.677   5.262   1.613
 4079SOL     OW13135   1.875   0.900   3.446
 4079SOL    HW113136   1.812   0.828   3.475
 4079SOL    HW213137   1.955   0.860   3.403
 4080SOL     OW13138   4.702   3.120   6.022
 4080SOL    HW113139   4.643   3.081   6.092
 4080SOL    HW213140   4.750   3.200   6.059
 4081SOL     OW13141   1.823   2.687   4.046
 4081SOL    HW113142   1.911   2.700   4.000
 4081SOL    HW213143   1.755   2.657   3.979
 4082SOL     OW13144   1.015   4.140   0.072
 4082SOL    HW113145   0.918   4.161   0.084
 4082SOL    HW213146   1.067   4.175   0.149
 4083SOL     OW13147   6.755   3.165   2.740
 4083SOL    HW113148   6.716   3.103   2.808
 4083SOL    HW213149   6.695   3.169   2.660
 4084SOL     OW13150   5.524   2.422   4.047
 4084SOL    HW113151   5.465   2.496   4.080
 4084SOL    HW213152   5.612   2.460   4.019
 4085SOL     OW13153   3.253   5.584   1.558
 4085SOL    HW113154   3.340   5.612   1.599
 4085SOL    HW213155   3.204   5.524   1.621
 4086SOL     OW13156   1.744   6.204   1.679
 4086SOL    HW113157   1.696   6.230   1.763
 4086SOL    HW213158   1.688   6.140   1.627
 4087SOL     OW13159   2.621   2.145   3.747
 4087SOL    HW113160   2.524   2.130   3.728
 4087SOL    HW213161   2.646   2.238   3.722
 4088SOL     OW13162   0.175   1.847   0.459
 4088SOL    HW113163   0.271   1.855   0.433
 4088SOL    HW213164   0.137   1.762   0.424
 4089SOL     OW13165   6.017   6.459   4.165
 4089SOL    HW113166   5.923   6.460   4.131
 4089SOL    HW213167   6.025   6.389   4.237
 4090SOL     OW13168   1.116   4.275   6.268
 4090SOL    HW113169   1.155   4.218   6.195
 4090SOL    HW213170   1.036   4.230   6.307
 4091SOL     OW13171   6.958   6.006   0.258
 4091SOL    HW113172   0.028   6.033   0.233
 4091SOL    HW213173   6.918   5.955   0.182
 4092SOL     OW13174   6.683   2.685   5.524
 4092SOL    HW113175   6.584   2.677   5.517
 4092SOL    HW213176   6.714   2.760   5.466
 4093SOL     OW13177   4.547   0.370   2.664
 4093SOL    HW113178   4.611   0.447   2.663
 4093SOL    HW213179   4.516   0.352   2.571
 4094SOL     OW13180   2.708   5.942   4.325
 4094SOL    HW113181   2.712   6.033   4.367
 4094SOL    HW213182   2.662   5.948   4.236
 4095SOL     OW13183   0.413   3.617   6.789
 4095SOL    HW113184   0.445   3.702   6.748
 4095SOL    HW213185   0.469   3.595   6.869
 4096SOL     OW13186   4.684   5.945   6.154
 4096SOL    HW113187   4.675   5.846   6.159
 4096SOL    HW213188   4.780   5.970   6.151
 4097SOL     OW13189   3.329   4.933   5.649
 4097SOL    HW113190   3.269   4.857   5.671
 4097SOL    HW213191   3.352   4.983   5.733
 4098SOL     OW13192   0.659   2.852   1.687
 4098SOL    HW113193   0.566   2.831   1.657
 4098SOL    HW213194   0.659   2.870   1.785
 4099SOL     OW13195   2.762   5.041   1.276
 4099SOL    HW113196   2.664   5.023   1.280
 4099SOL    HW213197   2.778   5.140   1.284
 4100SOL     OW13198   6.934   5.323   4.822
 4100SOL    HW113199   6.920   5.230   4.854
 4100SOL    HW213200   6.884   5.337   4.736
 4101SOL     OW13201   5.818   1.653   0.212
 4101SOL    HW113202   5.844   1.746   0.183
 4101SOL    HW213203   5.899   1.595   0.212
 4102SOL     OW13204   6.548   0.492   0.986
 4102SOL    HW113205   6.618   0.475   0.916
 4102SOL    HW213206   6.486   0.564   0.954
 4103SOL     OW13207   0.289   0.634   0.694
 4103SOL    HW113208   0.208   0.598   0.648
 4103SOL    HW213209   0.272   0.727   0.725
 4104SOL     OW13210   0.635   4.656   2.333
 4104SOL    HW113211   0.605   4.703   2.415
 4104SOL    HW213212   0.728   4.687   2.309
 4105SOL     OW13213   4.059   6.530   2.012
 4105SOL    HW113214   4.008   6.583   1.945
 4105SOL    HW213215   4.149   6.571   2.026
 4106SOL     OW13216   6.732   2.438   3.966
 4106SOL    HW113217   6.788   2.394   3.896
 4106SOL    HW213218   6.790   2.493   4.025
 4107SOL     OW13219   1.466   6.218   1.141
 4107SOL    HW113220   1.503   6.268   1.219
 4107SOL    HW213221   1.394   6.272   1.097
 4108SOL     OW13222   6.577   4.382   5.864
 4108SOL    HW113223   6.609   4.477   5.863
 4108SOL    HW213224   6.538   4.360   5.774
 4109SOL     OW13225   5.574   6.522   5.228
 4109SOL    HW113226   5.516   6.551   5.152
 4109SOL    HW213227   5.555   6.580   5.308
 4110SOL     OW13228   4.541   3.515   6.293
 4110SOL    HW113229   4.605   3.586   6.322
 4110SOL    HW213230   4.459   3.558   6.256
 4111SOL     OW13231   3.628   3.480   6.655
 4111SOL    HW113232   3.677   3.538   6.721
 4111SOL    HW213233   3.632   3.522   6.564
 4112SOL     OW13234   5.087   0.124   5.528
 4112SOL    HW113235   5.100   0.135   5.626
 4112SOL    HW213236   5.037   0.203   5.492
 4113SOL     OW13237   5.032   6.615   4.407
 4113SOL    HW113238   4.994   6.708   4.401
 4113SOL    HW213239   4.990   6.557   4.337
 4114SOL     OW13240   3.029   2.221   4.456
 4114SOL    HW113241   2.987   2.133   4.475
 4114SOL    HW213242   3.114   2.208   4.404
 4115SOL     OW13243   3.982   5.091   2.271
 4115SOL    HW113244   3.929   5.088   2.355
 4115SOL    HW213245   4.069   5.043   2.284
 4116SOL     OW13246   3.817   2.232   1.703
 4116SOL    HW113247   3.913   2.241   1.728
 4116SOL    HW213248   3.759   2.258   1.780
 4117SOL     OW13249   0.936   4.897   1.977
 4117SOL    HW113250   0.906   4.803   1.967
 4117SOL    HW213251   1.009   4.916   1.911
 4118SOL     OW13252   2.957   6.727   0.210
 4118SOL    HW113253   2.896   6.703   0.286
 4118SOL    HW213254   3.015   6.649   0.188
 4119SOL     OW13255   3.592   1.817   3.665
 4119SOL    HW113256   3.526   1.888   3.644
 4119SOL    HW213257   3.555   1.756   3.735
 4120SOL     OW13258   4.193   0.212   0.621
 4120SOL    HW113259   4.195   0.281   0.548
 4120SOL    HW213260   4.163   0.254   0.706
 4121SOL     OW13261   6.009   0.828   5.054
 4121SOL    HW113262   5.991   0.907   5.113
 4121SOL    HW213263   6.075   0.767   5.100
 4122SOL     OW13264   0.983   5.531   5.314
 4122SOL    HW113265   0.959   5.533   5.217
 4122SOL    HW213266   0.922   5.468   5.362
 4123SOL     OW13267   4.195   4.712   6.012
 4123SOL    HW113268   4.166   4.808   6.005
 4123SOL    HW213269   4.292   4.706   5.991
 4124SOL     OW13270   5.697   5.182   6.216
 4124SOL    HW113271   5.753   5.155   6.294
 4124SOL    HW213272   5.636   5.257   6.243
 4125SOL     OW13273   4.502   1.576   2.490
 4125SOL    HW113274   4.550   1.549   2.574
 4125SOL    HW213275   4.404   1.568   2.504
 4126SOL     OW13276   1.546   3.416   3.239
 4126SOL    HW113277   1.535   3.515   3.249
 4126SOL    HW213278   1.457   3.375   3.218
 4127SOL     OW13279   4.346   4.668   4.582
 4127SOL    HW113280   4.250   4.665   4.610
 4127SOL    HW213281   4.398   4.727   4.643
 4128SOL     OW13282   1.515   3.168   2.302
 4128SOL    HW113283   1.519   3.088   2.242
 4128SOL    HW213284   1.445   3.231   2.268
 4129SOL     OW13285   4.610   1.908   6.667
 4129SOL    HW113286   4.563   1.970   6.729
 4129SOL    HW213287   4.542   1.855   6.616
 4130SOL     OW13288   6.371   2.767   5.693
 4130SOL    HW113289   6.384   2.824   5.774
 4130SOL    HW213290   6.334   2.678   5.721
 4131SOL     OW13291   1.797   6.533   3.464
 4131SOL    HW113292   1.760   6.565   3.377
 4131SOL    HW213293   1.839   6.443   3.451
 4132SOL     OW13294   5.275   4.105   3.733
 4132SOL    HW113295   5.239   4.097   3.640
 4132SOL    HW213296   5.321   4.020   3.759
 4133SOL     OW13297   2.968   0.041   1.608
 4133SOL    HW113298   2.936   7.006   1.683
 4133SOL    HW213299   3.034   0.108   1.643
 4134SOL     OW13300   2.268   2.683   0.339
 4134SOL    HW113301   2.224   2.738   0.268
 4134SOL    HW213302   2.200   2.622   0.380
 4135SOL     OW13303   1.724   1.534   3.241
 4135SOL    HW113304   1.812   1.578   3.223
 4135SOL    HW213305   1.723   1.499   3.335
 4136SOL     OW13306   1.404   2.447   3.019
 4136SOL    HW113307   1.345   2.453   2.939
 4136SOL    HW213308   1.351   2.414   3.097
 4137SOL     OW13309   1.376   4.551   0.777
 4137SOL    HW113310   1.420   4.488   0.714
 4137SOL    HW213311   1.375   4.511   0.869
 4138SOL     OW13312   3.600   4.922   2.902
 4138SOL    HW113313   3.526   4.988   2.915
 4138SOL    HW213314   3.645   4.904   2.989
 4139SOL     OW13315   2.612   2.474   4.756
 4139SOL    HW113316   2.602   2.567   4.791
 4139SOL    HW213317   2.548   2.459   4.681
 4140SOL     OW13318   3.273   0.672   5.629
 4140SOL    HW113319   3.333   0.597   5.601
 4140SOL    HW213320   3.221   0.644   5.710
 4141SOL     OW13321   5.960   6.732   1.307
 4141SOL    HW113322   6.042   6.684   1.275
 4141SOL    HW213323   5.882   6.670   1.304
 4142SOL     OW13324   6.389   5.600   0.615
 4142SOL    HW113325   6.376   5.526   0.681
 4142SOL    HW213326   6.390   5.563   0.523
 4143SOL     OW13327   0.361   2.846   0.485
 4143SOL    HW113328   0.455   2.876   0.473
 4143SOL    HW213329   0.305   2.879   0.409
 4144SOL     OW13330   4.822   3.857   6.481
 4144SOL    HW113331   4.806   3.930   6.548
 4144SOL    HW213332   4.887   3.791   6.519
 4145SOL     OW13333   6.780   5.620   0.944
 4145SOL    HW113334   6.739   5.707   0.970
 4145SOL    HW213335   6.750   5.594   0.853
 4146SOL     OW13336   6.750   1.293   5.363
 4146SOL    HW113337   6.849   1.282   5.352
 4146SOL    HW213338   6.731   1.371   5.423
 4147SOL     OW13339   4.889   3.319   5.593
 4147SOL    HW113340   4.822   3.295   5.664
 4147SOL    HW213341   4.870   3.266   5.510
 4148SOL     OW13342   1.015   0.193   4.748
 4148SOL    HW113343   0.957   0.226   4.823
 4148SOL    HW213344   1.017   0.093   4.749
 4149SOL     OW13345   0.354   2.263   0.623
 4149SOL    HW113346   0.294   2.264   0.543
 4149SOL    HW213347   0.412   2.345   0.621
 4150SOL     OW13348   0.402   1.020   5.339
 4150SOL    HW113349   0.420   1.107   5.294
 4150SOL    HW213350   0.487   0.969   5.348
 4151SOL     OW13351   3.961   6.564   6.100
 4151SOL    HW113352   3.954   6.565   6.199
 4151SOL    HW213353   3.910   6.642   6.062
 4152SOL     OW13354   3.007   6.180   1.297
 4152SOL    HW113355   3.007   6.171   1.198
 4152SOL    HW213356   2.960   6.102   1.338
 4153SOL     OW13357   4.298   4.587   6.834
 4153SOL    HW113358   4.330   4.643   6.910
 4153SOL    HW213359   4.209   4.547   6.857
 4154SOL     OW13360   0.411   4.866   4.586
 4154SOL    HW113361   0.346   4.872   4.511
 4154SOL    HW213362   0.366   4.894   4.671
 4155SOL     OW13363   6.691   1.710   3.002
 4155SOL    HW113364   6.678   1.611   3.004
 4155SOL    HW213365   6.604   1.755   2.981
 4156SOL     OW13366   4.984   6.539   4.811
 4156SOL    HW113367   4.934   6.492   4.738
 4156SOL    HW213368   4.925   6.608   4.852
 4157SOL     OW13369   4.291   6.369   4.142
 4157SOL    HW113370   4.200   6.329   4.151
 4157SOL    HW213371   4.311   6.424   4.222
 4158SOL     OW13372   1.599   5.080   3.347
 4158SOL    HW113373   1.689   5.079   3.391
 4158SOL    HW213374   1.535   5.027   3.402
 4159SOL     OW13375   2.177   2.908   3.834
 4159SOL    HW113376   2.174   2.939   3.929
 4159SOL    HW213377   2.212   2.814   3.831
 4160SOL     OW13378   6.370   0.753   1.015
 4160SOL    HW113379   6.409   0.833   1.060
 4160SOL    HW213380   6.375   0.765   0.915
 4161SOL     OW13381   1.182   0.510   6.616
 4161SOL    HW113382   1.126   0.452   6.675
 4161SOL    HW213383   1.163   0.606   6.636
 4162SOL     OW13384   6.275   6.298   5.777
 4162SOL    HW113385   6.194   6.321   5.831
 4162SOL    HW213386   6.271   6.202   5.750
 4163SOL     OW13387   6.381   0.286   3.332
 4163SOL    HW113388   6.448   0.218   3.359
 4163SOL    HW213389   6.354   0.270   3.237
 4164SOL     OW13390   1.112   6.626   6.292
 4164SOL    HW113391   1.115   6.701   6.358
 4164SOL    HW213392   1.200   6.619   6.245
 4165SOL     OW13393   4.508   0.109   6.997
 4165SOL    HW113394   4.492   0.012   6.978
 4165SOL    HW213395   4.468   0.133   0.062
 4166SOL     OW13396   6.010   4.069   1.089
 4166SOL    HW113397   6.022   3.971   1.106
 4166SOL    HW213398   5.956   4.083   1.006
 4167SOL     OW13399   1.329   4.430   1.019
 4167SOL    HW113400   1.248   4.392   1.063
 4167SOL    HW213401   1.411   4.386   1.057
 4168SOL     OW13402   6.804   4.992   1.427
 4168SOL    HW113403   6.873   5.062   1.413
 4168SOL    HW213404   6.771   4.996   1.522
 4169SOL     OW13405   5.879   3.532   4.016
 4169SOL    HW113406   5.936   3.561   4.093
 4169SOL    HW213407   5.938   3.499   3.942
 4170SOL     OW13408   2.898   3.553   4.928
 4170SOL    HW113409   2.909   3.617   5.004
 4170SOL    HW213410   2.838   3.478   4.955
 4171SOL     OW13411   5.123   4.989   1.379
 4171SOL    HW113412   5.160   5.082   1.371
 4171SOL    HW213413   5.133   4.941   1.292
 4172SOL     OW13414   0.295   1.576   6.149
 4172SOL    HW113415   0.234   1.565   6.070
 4172SOL    HW213416   0.308   1.674   6.166
 4173SOL     OW13417   5.523   3.674   5.247
 4173SOL    HW113418   5.444   3.629   5.205
 4173SOL    HW213419   5.606   3.650   5.197
 4174SOL     OW13420   5.104   0.502   3.787
 4174SOL    HW113421   5.136   0.504   3.882
 4174SOL    HW213422   5.114   0.409   3.751
 4175SOL     OW13423   2.103   5.884   4.639
 4175SOL    HW113424   2.023   5.833   4.605
 4175SOL    HW213425   2.173   5.819   4.669
 4176SOL     OW13426   2.882   6.409   2.029
 4176SOL    HW113427   2.888   6.311   2.012
 4176SOL    HW213428   2.972   6.451   2.015
 4177SOL     OW13429   6.705   4.159   4.327
 4177SOL    HW113430   6.679   4.121   4.239
 4177SOL    HW213431   6.630   4.148   4.392
 4178SOL     OW13432   4.576   1.340   3.947
 4178SOL    HW113433   4.492   1.394   3.938
 4178SOL    HW213434   4.647   1.396   3.989
 4179SOL     OW13435   5.478   2.260   3.331
 4179SOL    HW113436   5.387   2.270   3.291
 4179SOL    HW213437   5.514   2.350   3.355
 4180SOL     OW13438   5.471   3.267   1.555
 4180SOL    HW113439   5.420   3.347   1.586
 4180SOL    HW213440   5.567   3.292   1.541
 4181SOL     OW13441   1.893   2.178   6.102
 4181SOL    HW113442   1.982   2.223   6.095
 4181SOL    HW213443   1.893   2.093   6.049
 4182SOL     OW13444   0.090   6.456   2.800
 4182SOL    HW113445   0.000   6.500   2.791
 4182SOL    HW213446   0.093   6.374   2.743
 4183SOL     OW13447   4.701   0.590   0.748
 4183SOL    HW113448   4.729   0.504   0.705
 4183SOL    HW213449   4.699   0.663   0.679
 4184SOL     OW13450   4.816   5.144   1.413
 4184SOL    HW113451   4.755   5.143   1.334
 4184SOL    HW213452   4.900   5.094   1.390
 4185SOL     OW13453   0.826   5.952   2.282
 4185SOL    HW113454   0.910   5.985   2.326
 4185SOL    HW213455   0.814   5.998   2.195
 4186SOL     OW13456   1.887   4.937   1.311
 4186SOL    HW113457   1.853   4.964   1.401
 4186SOL    HW213458   1.876   4.839   1.299
 4187SOL     OW13459   3.462   4.360   6.052
 4187SOL    HW113460   3.513   4.274   6.059
 4187SOL    HW213461   3.439   4.376   5.956
 4188SOL     OW13462   4.867   6.919   4.069
 4188SOL    HW113463   4.782   6.866   4.071
 4188SOL    HW213464   4.926   6.888   4.143
 4189SOL     OW13465   3.477   1.052   5.183
 4189SOL    HW113466   3.438   0.975   5.133
 4189SOL    HW213467   3.574   1.035   5.200
 4190SOL     OW13468   1.285   0.360   6.986
 4190SOL    HW113469   1.256   0.363   0.058
 4190SOL    HW213470   1.204   0.357   6.927
 4191SOL     OW13471   5.742   3.622   3.015
 4191SOL    HW113472   5.774   3.611   2.921
 4191SOL    HW213473   5.649   3.660   3.014
 4192SOL     OW13474   0.078   0.763   3.354
 4192SOL    HW113475   0.171   0.798   3.339
 4192SOL    HW213476   0.037   0.811   3.432
 4193SOL     OW13477   2.454   6.949   2.125
 4193SOL    HW113478   2.451   6.967   2.223
 4193SOL    HW213479   2.510   6.869   2.107
 4194SOL     OW13480   6.387   1.183   5.500
 4194SOL    HW113481   6.480   1.148   5.508
 4194SOL    HW213482   6.385   1.263   5.440
 4195SOL     OW13483   3.256   0.799   1.258
 4195SOL    HW113484   3.212   0.885   1.286
 4195SOL    HW213485   3.318   0.769   1.330
 4196SOL     OW13486   6.034   1.976   3.833
 4196SOL    HW113487   5.967   2.021   3.891
 4196SOL    HW213488   6.065   1.891   3.876
 4197SOL     OW13489   4.482   5.094   5.524
 4197SOL    HW113490   4.458   5.009   5.571
 4197SOL    HW213491   4.560   5.078   5.463
 4198SOL     OW13492   5.495   3.190   6.463
 4198SOL    HW113493   5.512   3.225   6.371
 4198SOL    HW213494   5.407   3.225   6.495
 4199SOL     OW13495   1.863   3.760   6.234
 4199SOL    HW113496   1.918   3.829   6.186
 4199SOL    HW213497   1.826   3.695   6.168
 4200SOL     OW13498   3.330   6.753   5.075
 4200SOL    HW113499   3.428   6.775   5.075
 4200SOL    HW213500   3.288   6.788   5.158
 4201SOL     OW13501   5.782   6.012   4.095
 4201SOL    HW113502   5.701   5.995   4.040
 4201SOL    HW213503   5.802   5.932   4.152
 4202SOL     OW13504   4.136   5.794   5.722
 4202SOL    HW113505   4.206   5.821   5.788
 4202SOL    HW213506   4.046   5.828   5.752
 4203SOL     OW13507   4.588   5.532   2.191
 4203SOL    HW113508   4.497   5.513   2.155
 4203SOL    HW213509   4.582   5.601   2.263
 4204SOL     OW13510   3.731   3.186   2.083
 4204SOL    HW113511   3.776   3.134   2.155
 4204SOL    HW213512   3.633   3.191   2.102
 4205SOL     OW13513   3.823   5.144   4.386
 4205SOL    HW113514   3.800   5.121   4.291
 4205SOL    HW213515   3.832   5.243   4.395
 4206SOL     OW13516   5.904   0.754   5.707
 4206SOL    HW113517   5.830   0.746   5.640
 4206SOL    HW213518   5.948   0.665   5.718
 4207SOL     OW13519   2.283   1.703   1.380
 4207SOL    HW113520   2.210   1.635   1.385
 4207SOL    HW213521   2.254   1.787   1.427
 4208SOL     OW13522   0.863   2.128   6.395
 4208SOL    HW113523   0.764   2.122   6.412
 4208SOL    HW213524   0.901   2.205   6.445
 4209SOL     OW13525   1.200   1.365   4.717
 4209SOL    HW113526   1.152   1.354   4.805
 4209SOL    HW213527   1.133   1.368   4.643
 4210SOL     OW13528   2.897   3.229   1.879
 4210SOL    HW113529   2.949   3.283   1.812
 4210SOL    HW213530   2.811   3.275   1.899
 4211SOL     OW13531   4.640   6.071   5.344
 4211SOL    HW113532   4.697   6.147   5.313
 4211SOL    HW213533   4.624   6.009   5.268
 4212SOL     OW13534   5.817   1.938   2.116
 4212SOL    HW113535   5.750   1.892   2.174
 4212SOL    HW213536   5.771   2.006   2.059
 4213SOL     OW13537   2.094   1.301   2.976
 4213SOL    HW113538   2.101   1.287   2.877
 4213SOL    HW213539   1.998   1.304   3.003
 4214SOL     OW13540   0.203   4.145   5.710
 4214SOL    HW113541   0.136   4.072   5.721
 4214SOL    HW213542   0.295   4.110   5.727
 4215SOL     OW13543   6.533   5.367   4.489
 4215SOL    HW113544   6.605   5.376   4.558
 4215SOL    HW213545   6.561   5.415   4.406
 4216SOL     OW13546   1.549   1.739   2.488
 4216SOL    HW113547   1.573   1.650   2.527
 4216SOL    HW213548   1.489   1.726   2.409
 4217SOL     OW13549   5.914   6.929   2.887
 4217SOL    HW113550   5.894   6.832   2.876
 4217SOL    HW213551   5.998   6.941   2.939
 4218SOL     OW13552   5.096   7.018   1.211
 4218SOL    HW113553   5.012   0.037   1.176
 4218SOL    HW213554   5.169   0.063   1.214
 4219SOL     OW13555   2.869   5.713   5.001
 4219SOL    HW113556   2.930   5.642   4.965
 4219SOL    HW213557   2.849   5.693   5.097
 4220SOL     OW13558   6.394   2.568   3.697
 4220SOL    HW113559   6.340   2.652   3.702
 4220SOL    HW213560   6.408   2.543   3.601
 4221SOL     OW13561   6.259   5.439   6.608
 4221SOL    HW113562   6.198   5.469   6.534
 4221SOL    HW213563   6.208   5.385   6.674
 4222SOL     OW13564   5.830   2.478   2.560
 4222SOL    HW113565   5.862   2.385   2.578
 4222SOL    HW213566   5.907   2.541   2.569
 4223SOL     OW13567   3.015   3.143   4.336
 4223SOL    HW113568   3.005   3.047   4.311
 4223SOL    HW213569   3.026   3.151   4.435
 4224SOL     OW13570   4.877   3.209   3.658
 4224SOL    HW113571   4.852   3.131   3.600
 4224SOL    HW213572   4.842   3.194   3.751
 4225SOL     OW13573   5.038   0.458   5.493
 4225SOL    HW113574   5.106   0.442   5.422
 4225SOL    HW213575   5.045   0.553   5.525
 4226SOL     OW13576   1.629   0.364   3.259
 4226SOL    HW113577   1.572   0.282   3.268
 4226SOL    HW213578   1.570   0.442   3.238
 4227SOL     OW13579   3.468   4.938   6.861
 4227SOL    HW113580   3.535   4.994   6.909
 4227SOL    HW213581   3.422   4.878   6.926
 4228SOL     OW13582   6.371   4.410   3.003
 4228SOL    HW113583   6.410   4.338   3.060
 4228SOL    HW213584   6.278   4.385   2.976
 4229SOL     OW13585   4.136   4.490   6.151
 4229SOL    HW113586   4.194   4.420   6.194
 4229SOL    HW213587   4.194   4.558   6.106
 4230SOL     OW13588   2.946   0.449   4.392
 4230SOL    HW113589   2.961   0.407   4.482
 4230SOL    HW213590   2.887   0.390   4.338
 4231SOL     OW13591   5.169   6.716   4.761
 4231SOL    HW113592   5.247   6.716   4.824
 4231SOL    HW213593   5.115   6.633   4.775
 4232SOL     OW13594   0.495   5.321   1.645
 4232SOL    HW113595   0.486   5.420   1.659
 4232SOL    HW213596   0.514   5.302   1.549
 4233SOL     OW13597   6.680   0.312   6.922
 4233SOL    HW113598   6.772   0.351   6.915
 4233SOL    HW213599   6.627   0.338   6.841
 4234SOL     OW13600   1.314   0.165   5.663
 4234SOL    HW113601   1.401   0.208   5.685
 4234SOL    HW213602   1.243   0.199   5.725
 4235SOL     OW13603   6.189   4.049   5.095
 4235SOL    HW113604   6.182   3.977   5.025
 4235SOL    HW213605   6.270   4.034   5.151
 4236SOL     OW13606   6.864   2.974   3.070
 4236SOL    HW113607   6.935   3.044   3.083
 4236SOL    HW213608   6.848   2.960   2.972
 4237SOL     OW13609   6.336   4.679   4.044
 4237SOL    HW113610   6.299   4.625   3.969
 4237SOL    HW213611   6.371   4.618   4.115
 4238SOL     OW13612   4.288   4.793   3.970
 4238SOL    HW113613   4.331   4.705   3.991
 4238SOL    HW213614   4.282   4.847   4.054
 4239SOL     OW13615   5.280   0.241   4.092
 4239SOL    HW113616   5.343   0.188   4.036
 4239SOL    HW213617   5.280   0.336   4.061
 4240SOL     OW13618   2.059   6.567   6.741
 4240SOL    HW113619   2.087   6.554   6.646
 4240SOL    HW213620   2.133   6.613   6.791
 4241SOL     OW13621   5.394   0.516   0.971
 4241SOL    HW113622   5.331   0.501   0.895
 4241SOL    HW213623   5.456   0.438   0.980
 4242SOL     OW13624   2.131   6.969   3.320
 4242SOL    HW113625   2.041   6.927   3.309
 4242SOL    HW213626   2.181   6.923   3.393
 4243SOL     OW13627   1.169   3.854   2.856
 4243SOL    HW113628   1.102   3.798   2.807
 4243SOL    HW213629   1.260   3.835   2.820
 4244SOL     OW13630   4.603   5.832   1.163
 4244SOL    HW113631   4.610   5.806   1.067
 4244SOL    HW213632   4.677   5.789   1.215
 4245SOL     OW13633   6.910   2.350   0.114
 4245SOL    HW113634   6.956   2.434   0.084
 4245SOL    HW213635   6.814   2.353   0.087
 4246SOL     OW13636   5.512   3.248   3.236
 4246SOL    HW113637   5.435   3.204   3.283
 4246SOL    HW213638   5.590   3.251   3.298
 4247SOL     OW13639   2.048   5.186   4.440
 4247SOL    HW113640   2.026   5.230   4.527
 4247SOL    HW213641   2.037   5.087   4.449
 4248SOL     OW13642   1.662   1.047   3.283
 4248SOL    HW113643   1.756   1.080   3.288
 4248SOL    HW213644   1.608   1.088   3.356
 4249SOL     OW13645   6.513   1.657   3.256
 4249SOL    HW113646   6.474   1.709   3.333
 4249SOL    HW213647   6.438   1.616   3.204
 4250SOL     OW13648   0.386   6.167   3.684
 4250SOL    HW113649   0.363   6.091   3.744
 4250SOL    HW213650   0.338   6.157   3.597
 4251SOL     OW13651   6.137   2.805   0.108
 4251SOL    HW113652   6.064   2.770   0.166
 4251SOL    HW213653   6.098   2.862   0.036
 4252SOL     OW13654   5.807   5.841   6.124
 4252SOL    HW113655   5.905   5.852   6.144
 4252SOL    HW213656   5.757   5.920   6.159
 4253SOL     OW13657   3.633   6.311   2.417
 4253SOL    HW113658   3.696   6.236   2.398
 4253SOL    HW213659   3.583   6.335   2.334
 4254SOL     OW13660   2.180   4.857   1.737
 4254SOL    HW113661   2.272   4.891   1.716
 4254SOL    HW213662   2.186   4.760   1.761
 4255SOL     OW13663   0.106   3.273   4.178
 4255SOL    HW113664   0.152   3.256   4.091
 4255SOL    HW213665   0.007   3.267   4.165
 4256SOL     OW13666   1.138   5.490   1.901
 4256SOL    HW113667   1.157   5.392   1.895
 4256SOL    HW213668   1.175   5.536   1.821
 4257SOL     OW13669   6.171   0.702   4.578
 4257SOL    HW113670   6.102   0.718   4.507
 4257SOL    HW213671   6.125   0.679   4.664
 4258SOL     OW13672   3.722   5.733   1.244
 4258SOL    HW113673   3.627   5.710   1.220
 4258SOL    HW213674   3.722   5.789   1.326
 4259SOL     OW13675   1.954   6.636   1.231
 4259SOL    HW113676   1.978   6.652   1.135
 4259SOL    HW213677   2.037   6.615   1.283
 4260SOL     OW13678   5.019   0.034   3.880
 4260SOL    HW113679   4.967   7.003   3.946
 4260SOL    HW213680   5.112   7.022   3.874
 4261SOL     OW13681   1.787   0.169   3.396
 4261SOL    HW113682   1.722   0.238   3.427
 4261SOL    HW213683   1.807   0.106   3.472
 4262SOL     OW13684   1.452   4.043   5.740
 4262SOL    HW113685   1.462   4.105   5.819
 4262SOL    HW213686   1.355   4.022   5.728
 4263SOL     OW13687   3.070   1.235   3.366
 4263SOL    HW113688   3.095   1.284   3.450
 4263SOL    HW213689   3.135   1.161   3.351
 4264SOL     OW13690   5.969   1.494   4.320
 4264SOL    HW113691   6.013   1.416   4.364
 4264SOL    HW213692   5.922   1.464   4.237
 4265SOL     OW13693   3.440   0.754   0.865
 4265SOL    HW113694   3.382   0.703   0.928
 4265SOL    HW213695   3.446   0.849   0.895
 4266SOL     OW13696   1.323   6.989   0.046
 4266SOL    HW113697   1.278   0.026   0.112
 4266SOL    HW213698   1.256   6.924   0.010
 4267SOL     OW13699   1.946   3.996   4.089
 4267SOL    HW113700   1.934   3.981   4.187
 4267SOL    HW213701   2.032   4.043   4.072
 4268SOL     OW13702   1.876   5.491   6.821
 4268SOL    HW113703   1.899   5.396   6.843
 4268SOL    HW213704   1.925   5.552   6.884
 4269SOL     OW13705   3.376   1.356   3.939
 4269SOL    HW113706   3.332   1.383   3.853
 4269SOL    HW213707   3.458   1.303   3.919
 4270SOL     OW13708   3.501   3.005   1.698
 4270SOL    HW113709   3.466   3.098   1.705
 4270SOL    HW213710   3.587   2.997   1.748
 4271SOL     OW13711   6.802   0.888   0.152
 4271SOL    HW113712   6.882   0.832   0.171
 4271SOL    HW213713   6.770   0.931   0.237
 4272SOL     OW13714   6.888   3.171   4.915
 4272SOL    HW113715   6.973   3.177   4.968
 4272SOL    HW213716   6.811   3.157   4.977
 4273SOL     OW13717   5.295   6.114   4.916
 4273SOL    HW113718   5.301   6.052   4.994
 4273SOL    HW213719   5.264   6.204   4.947
 4274SOL     OW13720   1.009   6.782   1.598
 4274SOL    HW113721   0.961   6.842   1.533
 4274SOL    HW213722   1.066   6.717   1.548
 4275SOL     OW13723   0.548   1.969   4.576
 4275SOL    HW113724   0.551   2.067   4.553
 4275SOL    HW213725   0.580   1.957   4.670
 4276SOL     OW13726   2.692   5.462   3.411
 4276SOL    HW113727   2.693   5.396   3.486
 4276SOL    HW213728   2.603   5.461   3.366
 4277SOL     OW13729   6.779   4.248   3.127
 4277SOL    HW113730   6.744   4.178   3.189
 4277SOL    HW213731   6.850   4.209   3.068
 4278SOL     OW13732   0.117   6.959   3.299
 4278SOL    HW113733   0.216   6.942   3.295
 4278SOL    HW213734   0.101   0.034   3.307
 4279SOL     OW13735   1.565   1.032   2.176
 4279SOL    HW113736   1.559   0.990   2.085
 4279SOL    HW213737   1.500   0.988   2.238
 4280SOL     OW13738   6.322   6.651   5.824
 4280SOL    HW113739   6.347   6.736   5.871
 4280SOL    HW213740   6.401   6.615   5.776
 4281SOL     OW13741   5.275   4.775   3.906
 4281SOL    HW113742   5.300   4.810   3.996
 4281SOL    HW213743   5.347   4.797   3.840
 4282SOL     OW13744   3.325   4.740   0.979
 4282SOL    HW113745   3.371   4.766   1.063
 4282SOL    HW213746   3.280   4.820   0.939
 4283SOL     OW13747   4.581   1.195   3.296
 4283SOL    HW113748   4.551   1.180   3.390
 4283SOL    HW213749   4.678   1.171   3.288
 4284SOL     OW13750   4.255   5.771   0.103
 4284SOL    HW113751   4.275   5.721   0.018
 4284SOL    HW213752   4.163   5.809   0.098
 4285SOL     OW13753   2.653   1.201   5.951
 4285SOL    HW113754   2.689   1.292   5.970
 4285SOL    HW213755   2.644   1.149   6.036
 4286SOL     OW13756   6.795   0.295   6.364
 4286SOL    HW113757   6.722   0.359   6.342
 4286SOL    HW213758   6.757   0.216   6.412
 4287SOL     OW13759   4.658   1.555   5.923
 4287SOL    HW113760   4.745   1.568   5.969
 4287SOL    HW213761   4.664   1.474   5.864
 4288SOL     OW13762   0.525   6.007   2.767
 4288SOL    HW113763   0.484   6.085   2.814
 4288SOL    HW213764   0.588   5.961   2.830
 4289SOL     OW13765   1.549   2.414   5.797
 4289SOL    HW113766   1.638   2.369   5.800
 4289SOL    HW213767   1.558   2.508   5.830
 4290SOL     OW13768   0.355   6.406   4.740
 4290SOL    HW113769   0.375   6.489   4.791
 4290SOL    HW213770   0.419   6.333   4.767
 4291SOL     OW13771   4.943   3.547   6.346
 4291SOL    HW113772   4.861   3.586   6.305
 4291SOL    HW213773   4.939   3.448   6.340
 4292SOL     OW13774   6.253   3.202   0.046
 4292SOL    HW113775   6.181   3.271   0.058
 4292SOL    HW213776   6.224   3.135   7.001
 4293SOL     OW13777   4.029   4.009   6.674
 4293SOL    HW113778   4.120   4.022   6.714
 4293SOL    HW213779   3.961   4.060   6.726
 4294SOL     OW13780   2.177   2.191   6.073
 4294SOL    HW113781   2.190   2.183   5.974
 4294SOL    HW213782   2.180   2.100   6.114
 4295SOL     OW13783   4.361   6.713   2.839
 4295SOL    HW113784   4.325   6.793   2.887
 4295SOL    HW213785   4.286   6.668   2.791
 4296SOL     OW13786   3.043   0.166   0.925
 4296SOL    HW113787   2.995   0.139   1.008
 4296SOL    HW213788   3.140   0.148   0.934
 4297SOL     OW13789   6.549   6.372   2.148
 4297SOL    HW113790   6.639   6.408   2.170
 4297SOL    HW213791   6.483   6.447   2.140
 4298SOL     OW13792   3.596   6.617   2.168
 4298SOL    HW113793   3.521   6.681   2.153
 4298SOL    HW213794   3.559   6.526   2.188
 4299SOL     OW13795   0.678   3.233   0.236
 4299SOL    HW113796   0.677   3.288   0.153
 4299SOL    HW213797   0.632   3.145   0.219
 4300SOL     OW13798   2.853   0.486   0.558
 4300SOL    HW113799   2.868   0.579   0.591
 4300SOL    HW213800   2.903   0.422   0.615
 4301SOL     OW13801   3.596   0.189   1.511
 4301SOL    HW113802   3.555   0.279   1.524
 4301SOL    HW213803   3.618   0.149   1.600
 4302SOL     OW13804   6.216   0.353   0.101
 4302SOL    HW113805   6.305   0.365   0.145
 4302SOL    HW213806   6.153   0.424   0.134
 4303SOL     OW13807   0.155   4.610   3.450
 4303SOL    HW113808   0.162   4.666   3.532
 4303SOL    HW213809   0.076   4.549   3.459
 4304SOL     OW13810   3.776   4.054   1.904
 4304SOL    HW113811   3.821   3.969   1.877
 4304SOL    HW213812   3.716   4.037   1.982
 4305SOL     OW13813   0.990   6.547   5.113
 4305SOL    HW113814   0.987   6.625   5.175
 4305SOL    HW213815   1.068   6.489   5.137
 4306SOL     OW13816   4.895   4.640   5.036
 4306SOL    HW113817   4.895   4.577   4.959
 4306SOL    HW213818   4.823   4.708   5.024
 4307SOL     OW13819   5.531   3.198   5.494
 4307SOL    HW113820   5.435   3.227   5.485
 4307SOL    HW213821   5.537   3.126   5.563
 4308SOL     OW13822   5.846   5.146   1.727
 4308SOL    HW113823   5.794   5.064   1.704
 4308SOL    HW213824   5.918   5.161   1.659
 4309SOL     OW13825   1.079   3.195   0.501
 4309SOL    HW113826   1.085   3.288   0.465
 4309SOL    HW213827   0.985   3.175   0.528
 4310SOL     OW13828   1.188   2.920   2.200
 4310SOL    HW113829   1.207   2.860   2.123
 4310SOL    HW213830   1.257   2.907   2.271
 4311SOL     OW13831   1.025   6.769   2.186
 4311SOL    HW113832   1.016   6.838   2.257
 4311SOL    HW213833   1.072   6.807   2.107
 4312SOL     OW13834   1.313   5.709   2.537
 4312SOL    HW113835   1.329   5.776   2.465
 4312SOL    HW213836   1.229   5.659   2.517
 4313SOL     OW13837   3.572   2.220   0.163
 4313SOL    HW113838   3.611   2.130   0.142
 4313SOL    HW213839   3.606   2.288   0.098
 4314SOL     OW13840   6.262   1.915   5.357
 4314SOL    HW113841   6.231   1.937   5.449
 4314SOL    HW213842   6.222   1.980   5.292
 4315SOL     OW13843   2.017   1.633   3.951
 4315SOL    HW113844   1.941   1.579   3.916
 4315SOL    HW213845   2.009   1.727   3.918
 4316SOL     OW13846   5.196   6.750   2.838
 4316SOL    HW113847   5.239   6.828   2.793
 4316SOL    HW213848   5.097   6.766   2.847
 4317SOL     OW13849   4.303   0.579   5.524
 4317SOL    HW113850   4.385   0.621   5.486
 4317SOL    HW213851   4.224   0.637   5.506
 4318SOL     OW13852   0.696   0.817   4.408
 4318SOL    HW113853   0.766   0.761   4.451
 4318SOL    HW213854   0.610   0.808   4.459
 4319SOL     OW13855   1.759   2.162   1.242
 4319SOL    HW113856   1.844   2.112   1.232
 4319SOL    HW213857   1.756   2.207   1.331
 4320SOL     OW13858   4.288   6.196   1.023
 4320SOL    HW113859   4.283   6.272   0.958
 4320SOL    HW213860   4.239   6.117   0.986
 4321SOL     OW13861   6.866   5.009   2.962
 4321SOL    HW113862   6.825   4.919   2.978
 4321SOL    HW213863   6.908   5.011   2.871
 4322SOL     OW13864   6.695   3.580   5.317
 4322SOL    HW113865   6.756   3.524   5.260
 4322SOL    HW213866   6.749   3.626   5.387
 4323SOL     OW13867   3.992   5.499   6.966
 4323SOL    HW113868   3.906   5.496   7.017
 4323SOL    HW213869   3.983   5.445   6.883
 4324SOL     OW13870   6.770   3.938   5.589
 4324SOL    HW113871   6.696   3.989   5.633
 4324SOL    HW213872   6.744   3.843   5.578
 4325SOL     OW13873   2.682   1.967   2.138
 4325SOL    HW113874   2.695   1.974   2.237
 4325SOL    HW213875   2.647   1.876   2.116
 4326SOL     OW13876   5.828   3.332   2.394
 4326SOL    HW113877   5.928   3.325   2.402
 4326SOL    HW213878   5.797   3.283   2.312
 4327SOL     OW13879   3.745   5.493   3.315
 4327SOL    HW113880   3.647   5.498   3.332
 4327SOL    HW213881   3.768   5.403   3.279
 4328SOL     OW13882   6.138   4.300   4.678
 4328SOL    HW113883   6.159   4.349   4.594
 4328SOL    HW213884   6.064   4.235   4.662
 4329SOL     OW13885   6.136   3.587   5.371
 4329SOL    HW113886   6.097   3.528   5.300
 4329SOL    HW213887   6.153   3.532   5.453
 4330SOL     OW13888   2.058   6.453   4.574
 4330SOL    HW113889   2.065   6.443   4.475
 4330SOL    HW213890   2.149   6.464   4.614
 4331SOL     OW13891   0.361   0.247   1.245
 4331SOL    HW113892   0.291   0.261   1.315
 4331SOL    HW213893   0.385   0.336   1.205
 4332SOL     OW13894   6.186   3.619   2.553
 4332SOL    HW113895   6.140   3.674   2.623
 4332SOL    HW213896   6.126   3.611   2.473
 4333SOL     OW13897   4.261   2.063   5.038
 4333SOL    HW113898   4.272   2.153   4.995
 4333SOL    HW213899   4.345   2.010   5.027
 4334SOL     OW13900   1.280   2.788   2.746
 4334SOL    HW113901   1.218   2.860   2.716
 4334SOL    HW213902   1.338   2.823   2.820
 4335SOL     OW13903   3.629   3.023   1.367
 4335SOL    HW113904   3.652   2.928   1.347
 4335SOL    HW213905   3.534   3.028   1.398
 4336SOL     OW13906   1.870   4.715   4.938
 4336SOL    HW113907   1.892   4.771   4.858
 4336SOL    HW213908   1.944   4.650   4.954
 4337SOL     OW13909   1.517   6.015   1.903
 4337SOL    HW113910   1.579   5.957   1.956
 4337SOL    HW213911   1.537   6.111   1.921
 4338SOL     OW13912   5.953   0.836   6.276
 4338SOL    HW113913   5.893   0.797   6.346
 4338SOL    HW213914   6.021   0.768   6.249
 4339SOL     OW13915   3.449   2.876   6.262
 4339SOL    HW113916   3.454   2.935   6.342
 4339SOL    HW213917   3.462   2.931   6.179
 4340SOL     OW13918   5.559   2.965   1.214
 4340SOL    HW113919   5.484   2.958   1.148
 4340SOL    HW213920   5.522   2.969   1.307
 4341SOL     OW13921   1.128   4.948   1.795
 4341SOL    HW113922   1.126   4.947   1.695
 4341SOL    HW213923   1.220   4.922   1.826
 4342SOL     OW13924   4.890   3.667   3.157
 4342SOL    HW113925   4.875   3.755   3.203
 4342SOL    HW213926   4.931   3.603   3.222
 4343SOL     OW13927   3.402   6.624   6.208
 4343SOL    HW113928   3.442   6.540   6.245
 4343SOL    HW213929   3.434   6.702   6.262
 4344SOL     OW13930   0.471   2.991   3.235
 4344SOL    HW113931   0.407   2.975   3.159
 4344SOL    HW213932   0.565   2.981   3.202
 4345SOL     OW13933   2.872   3.363   3.093
 4345SOL    HW113934   2.919   3.275   3.103
 4345SOL    HW213935   2.839   3.393   3.183
 4346SOL     OW13936   2.398   2.776   1.983
 4346SOL    HW113937   2.319   2.835   1.997
 4346SOL    HW213938   2.435   2.748   2.072
 4347SOL     OW13939   6.528   5.917   2.374
 4347SOL    HW113940   6.446   5.896   2.427
 4347SOL    HW213941   6.566   6.004   2.405
 4348SOL     OW13942   0.352   5.627   4.493
 4348SOL    HW113943   0.341   5.646   4.396
 4348SOL    HW213944   0.445   5.652   4.522
 4349SOL     OW13945   0.093   3.295   3.633
 4349SOL    HW113946   0.172   3.352   3.609
 4349SOL    HW213947   0.013   3.324   3.580
 4350SOL     OW13948   5.016   2.134   4.625
 4350SOL    HW113949   5.089   2.086   4.577
 4350SOL    HW213950   5.020   2.112   4.722
 4351SOL     OW13951   1.617   6.290   1.348
 4351SOL    HW113952   1.710   6.327   1.352
 4351SOL    HW213953   1.618   6.195   1.379
 4352SOL     OW13954   5.571   3.611   1.518
 4352SOL    HW113955   5.478   3.619   1.554
 4352SOL    HW213956   5.634   3.597   1.594
 4353SOL     OW13957   2.862   3.822   6.924
 4353SOL    HW113958   2.945   3.827   6.868
 4353SOL    HW213959   2.791   3.878   6.883
 4354SOL     OW13960   0.626   1.048   5.986
 4354SOL    HW113961   0.555   0.983   6.014
 4354SOL    HW213962   0.684   1.070   6.065
 4355SOL     OW13963   1.224   6.911   3.192
 4355SOL    HW113964   1.190   6.981   3.255
 4355SOL    HW213965   1.170   6.913   3.108
 4356SOL     OW13966   4.085   3.825   5.569
 4356SOL    HW113967   4.016   3.764   5.532
 4356SOL    HW213968   4.173   3.778   5.573
 4357SOL     OW13969   0.236   1.524   1.239
 4357SOL    HW113970   0.199   1.445   1.289
 4357SOL    HW213971   0.169   1.599   1.242
 4358SOL     OW13972   0.155   0.415   0.271
 4358SOL    HW113973   0.126   0.324   0.300
 4358SOL    HW213974   0.088   0.483   0.300
 4359SOL     OW13975   1.785   0.552   6.796
 4359SOL    HW113976   1.826   0.481   6.854
 4359SOL    HW213977   1.686   0.551   6.808
 4360SOL     OW13978   1.034   2.150   4.149
 4360SOL    HW113979   1.120   2.105   4.127
 4360SOL    HW213980   0.957   2.096   4.113
 4361SOL     OW13981   2.329   2.950   1.359
 4361SOL    HW113982   2.356   2.879   1.294
 4361SOL    HW213983   2.297   2.908   1.444
 4362SOL     OW13984   0.582   6.098   4.513
 4362SOL    HW113985   0.617   6.149   4.591
 4362SOL    HW213986   0.499   6.049   4.539
 4363SOL     OW13987   4.024   1.144   1.646
 4363SOL    HW113988   4.004   1.242   1.641
 4363SOL    HW213989   4.093   1.127   1.716
 4364SOL     OW13990   3.091   3.457   2.729
 4364SOL    HW113991   3.178   3.409   2.739
 4364SOL    HW213992   3.041   3.453   2.815
 4365SOL     OW13993   3.123   1.564   2.037
 4365SOL    HW113994   3.165   1.563   1.947
 4365SOL    HW213995   3.065   1.645   2.046
 4366SOL     OW13996   6.223   6.148   6.128
 4366SOL    HW113997   6.263   6.236   6.157
 4366SOL    HW213998   6.170   6.110   6.204
 4367SOL     OW13999   3.303   5.168   2.738
 4367SOL    HW114000   3.212   5.163   2.779
 4367SOL    HW214001   3.310   5.102   2.663
 4368SOL     OW14002   4.227   5.780   3.012
 4368SOL    HW114003   4.180   5.694   3.032
 4368SOL    HW214004   4.282   5.807   3.091
 4369SOL     OW14005   4.887   5.519   3.546
 4369SOL    HW114006   4.851   5.607   3.576
 4369SOL    HW214007   4.986   5.517   3.559
 4370SOL     OW14008   3.553   4.036   1.694
 4370SOL    HW114009   3.567   3.962   1.629
 4370SOL    HW214010   3.640   4.059   1.738
 4371SOL     OW14011   2.225   1.613   2.379
 4371SOL    HW114012   2.201   1.523   2.414
 4371SOL    HW214013   2.323   1.617   2.361
 4372SOL     OW14014   2.085   3.178   3.767
 4372SOL    HW114015   2.157   3.109   3.767
 4372SOL    HW214016   2.026   3.166   3.847
 4373SOL     OW14017   4.342   1.195   6.224
 4373SOL    HW114018   4.438   1.185   6.198
 4373SOL    HW214019   4.319   1.292   6.233
 4374SOL     OW14020   1.977   2.065   1.502
 4374SOL    HW114021   1.891   2.023   1.530
 4374SOL    HW214022   1.983   2.067   1.403
 4375SOL     OW14023   4.006   6.409   3.228
 4375SOL    HW114024   4.016   6.460   3.313
 4375SOL    HW214025   3.921   6.437   3.182
 4376SOL     OW14026   6.332   0.287   1.646
 4376SOL    HW114027   6.282   0.281   1.559
 4376SOL    HW214028   6.424   0.250   1.634
 4377SOL     OW14029   6.524   5.180   6.974
 4377SOL    HW114030   6.569   5.124   0.020
 4377SOL    HW214031   6.439   5.218   7.011
 4378SOL     OW14032   0.937   4.585   2.321
 4378SOL    HW114033   0.958   4.493   2.288
 4378SOL    HW214034   0.980   4.653   2.261
 4379SOL     OW14035   2.434   0.866   2.472
 4379SOL    HW114036   2.418   0.883   2.375
 4379SOL    HW214037   2.502   0.931   2.506
 4380SOL     OW14038   2.303   5.622   5.084
 4380SOL    HW114039   2.369   5.672   5.140
 4380SOL    HW214040   2.322   5.524   5.089
 4381SOL     OW14041   2.506   4.845   4.654
 4381SOL    HW114042   2.524   4.789   4.735
 4381SOL    HW214043   2.482   4.938   4.683
 4382SOL     OW14044   5.734   4.139   5.639
 4382SOL    HW114045   5.818   4.146   5.585
 4382SOL    HW214046   5.699   4.231   5.657
 4383SOL     OW14047   0.703   1.713   5.647
 4383SOL    HW114048   0.705   1.658   5.563
 4383SOL    HW214049   0.608   1.730   5.673
 4384SOL     OW14050   5.146   0.786   6.663
 4384SOL    HW114051   5.241   0.769   6.685
 4384SOL    HW214052   5.139   0.868   6.606
 4385SOL     OW14053   0.292   2.573   3.934
 4385SOL    HW114054   0.248   2.614   4.015
 4385SOL    HW214055   0.225   2.518   3.884
 4386SOL     OW14056   1.093   3.932   6.193
 4386SOL    HW114057   1.033   3.965   6.265
 4386SOL    HW214058   1.148   3.856   6.226
 4387SOL     OW14059   0.462   2.182   2.006
 4387SOL    HW114060   0.514   2.146   1.929
 4387SOL    HW214061   0.525   2.222   2.072
 4388SOL     OW14062   4.365   1.002   6.475
 4388SOL    HW114063   4.319   0.997   6.387
 4388SOL    HW214064   4.304   1.043   6.543
 4389SOL     OW14065   5.600   2.717   0.851
 4389SOL    HW114066   5.641   2.808   0.854
 4389SOL    HW214067   5.532   2.708   0.924
 4390SOL     OW14068   4.030   2.281   1.855
 4390SOL    HW114069   4.041   2.379   1.837
 4390SOL    HW214070   4.109   2.248   1.906
 4391SOL     OW14071   1.555   6.252   6.398
 4391SOL    HW114072   1.586   6.348   6.395
 4391SOL    HW214073   1.633   6.192   6.385
 4392SOL     OW14074   5.717   4.320   5.038
 4392SOL    HW114075   5.662   4.237   5.046
 4392SOL    HW214076   5.810   4.302   5.071
 4393SOL     OW14077   4.871   6.222   2.674
 4393SOL    HW114078   4.833   6.225   2.766
 4393SOL    HW214079   4.968   6.244   2.677
 4394SOL     OW14080   5.819   5.631   2.597
 4394SOL    HW114081   5.732   5.603   2.637
 4394SOL    HW214082   5.883   5.657   2.670
 4395SOL     OW14083   4.015   2.418   0.928
 4395SOL    HW114084   4.050   2.349   0.991
 4395SOL    HW214085   3.916   2.414   0.925
 4396SOL     OW14086   2.378   1.816   4.212
 4396SOL    HW114087   2.397   1.849   4.120
 4396SOL    HW214088   2.315   1.738   4.207
 4397SOL     OW14089   0.012   1.890   4.066
 4397SOL    HW114090   7.004   1.863   3.975
 4397SOL    HW214091   0.106   1.859   4.079
 4398SOL     OW14092   1.556   4.719   4.483
 4398SOL    HW114093   1.587   4.689   4.573
 4398SOL    HW214094   1.567   4.644   4.417
 4399SOL     OW14095   2.169   0.670   1.419
 4399SOL    HW114096   2.249   0.677   1.479
 4399SOL    HW214097   2.200   0.653   1.326
 4400SOL     OW14098   2.109   6.856   4.945
 4400SOL    HW114099   2.149   6.944   4.919
 4400SOL    HW214100   2.152   6.823   5.029
 4401SOL     OW14101   5.770   5.575   6.035
 4401SOL    HW114102   5.680   5.573   5.992
 4401SOL    HW214103   5.778   5.657   6.091
 4402SOL     OW14104   1.851   6.268   3.155
 4402SOL    HW114105   1.861   6.240   3.250
 4402SOL    HW214106   1.826   6.364   3.150
 4403SOL     OW14107   0.096   0.202   3.443
 4403SOL    HW114108   0.047   0.255   3.374
 4403SOL    HW214109   0.180   0.250   3.468
 4404SOL     OW14110   1.015   3.578   5.023
 4404SOL    HW114111   1.033   3.676   5.025
 4404SOL    HW214112   0.928   3.558   5.066
 4405SOL     OW14113   3.167   4.704   6.684
 4405SOL    HW114114   3.117   4.645   6.747
 4405SOL    HW214115   3.133   4.798   6.692
 4406SOL     OW14116   4.932   4.511   0.896
 4406SOL    HW114117   5.002   4.524   0.825
 4406SOL    HW214118   4.898   4.417   0.891
 4407SOL     OW14119   0.194   5.099   1.084
 4407SOL    HW114120   0.177   5.123   1.180
 4407SOL    HW214121   0.208   5.183   1.031
 4408SOL     OW14122   5.091   1.035   0.500
 4408SOL    HW114123   5.117   1.060   0.407
 4408SOL    HW214124   5.064   0.939   0.502
 4409SOL     OW14125   3.487   0.873   1.853
 4409SOL    HW114126   3.407   0.869   1.794
 4409SOL    HW214127   3.494   0.965   1.893
 4410SOL     OW14128   2.017   4.447   0.234
 4410SOL    HW114129   2.028   4.354   0.269
 4410SOL    HW214130   1.925   4.458   0.197
 4411SOL     OW14131   4.091   3.319   3.238
 4411SOL    HW114132   4.036   3.236   3.229
 4411SOL    HW214133   4.071   3.364   3.325
 4412SOL     OW14134   3.542   1.860   4.594
 4412SOL    HW114135   3.500   1.947   4.570
 4412SOL    HW214136   3.507   1.829   4.683
 4413SOL     OW14137   4.938   5.573   5.219
 4413SOL    HW114138   4.868   5.510   5.252
 4413SOL    HW214139   4.897   5.642   5.160
 4414SOL     OW14140   4.604   4.773   2.019
 4414SOL    HW114141   4.673   4.765   2.091
 4414SOL    HW214142   4.608   4.691   1.961
 4415SOL     OW14143   4.301   3.745   6.883
 4415SOL    HW114144   4.219   3.712   6.929
 4415SOL    HW214145   4.346   3.669   6.835
 4416SOL     OW14146   3.039   1.177   4.272
 4416SOL    HW114147   3.014   1.136   4.360
 4416SOL    HW214148   3.094   1.112   4.220
 4417SOL     OW14149   6.397   4.380   2.227
 4417SOL    HW114150   6.456   4.302   2.244
 4417SOL    HW214151   6.425   4.457   2.285
 4418SOL     OW14152   4.876   6.506   4.215
 4418SOL    HW114153   4.827   6.480   4.132
 4418SOL    HW214154   4.812   6.545   4.281
 4419SOL     OW14155   5.471   5.534   0.726
 4419SOL    HW114156   5.391   5.587   0.699
 4419SOL    HW214157   5.516   5.578   0.803
 4420SOL     OW14158   5.254   1.962   0.791
 4420SOL    HW114159   5.268   1.870   0.828
 4420SOL    HW214160   5.312   1.974   0.710
 4421SOL     OW14161   1.884   1.174   3.259
 4421SOL    HW114162   1.983   1.163   3.272
 4421SOL    HW214163   1.867   1.214   3.169
 4422SOL     OW14164   2.340   3.747   5.715
 4422SOL    HW114165   2.254   3.754   5.665
 4422SOL    HW214166   2.362   3.651   5.730
 4423SOL     OW14167   1.382   2.485   5.437
 4423SOL    HW114168   1.296   2.512   5.394
 4423SOL    HW214169   1.363   2.422   5.512
 4424SOL     OW14170   5.817   6.603   3.617
 4424SOL    HW114171   5.914   6.582   3.633
 4424SOL    HW214172   5.762   6.561   3.689
 4425SOL     OW14173   3.288   5.568   5.753
 4425SOL    HW114174   3.383   5.595   5.767
 4425SOL    HW214175   3.281   5.469   5.753
 4426SOL     OW14176   6.601   1.494   4.605
 4426SOL    HW114177   6.595   1.439   4.688
 4426SOL    HW214178   6.510   1.531   4.582
 4427SOL     OW14179   7.010   0.202   2.283
 4427SOL    HW114180   0.077   0.167   2.307
 4427SOL    HW214181   7.001   0.296   2.316
 4428SOL     OW14182   2.842   5.211   3.121
 4428SOL    HW114183   2.879   5.119   3.129
 4428SOL    HW214184   2.917   5.277   3.121
 4429SOL     OW14185   2.852   0.402   4.012
 4429SOL    HW114186   2.805   0.377   4.097
 4429SOL    HW214187   2.834   0.498   3.991
 4430SOL     OW14188   5.083   2.887   3.574
 4430SOL    HW114189   5.014   2.901   3.503
 4430SOL    HW214190   5.127   2.798   3.560
 4431SOL     OW14191   2.014   1.853   2.017
 4431SOL    HW114192   2.086   1.921   2.010
 4431SOL    HW214193   1.953   1.860   1.938
 4432SOL     OW14194   2.953   3.830   3.796
 4432SOL    HW114195   3.001   3.902   3.846
 4432SOL    HW214196   2.939   3.859   3.701
 4433SOL     OW14197   6.325   0.097   4.397
 4433SOL    HW114198   6.424   0.116   4.397
 4433SOL    HW214199   6.295   0.080   4.490
 4434SOL     OW14200   4.890   1.227   4.139
 4434SOL    HW114201   4.938   1.280   4.069
 4434SOL    HW214202   4.920   1.132   4.135
 4435SOL     OW14203   4.111   3.541   0.859
 4435SOL    HW114204   4.141   3.454   0.821
 4435SOL    HW214205   4.114   3.536   0.959
 4436SOL     OW14206   2.999   2.395   0.563
 4436SOL    HW114207   3.002   2.301   0.597
 4436SOL    HW214208   2.909   2.413   0.523
 4437SOL     OW14209   4.998   1.311   3.625
 4437SOL    HW114210   4.903   1.285   3.641
 4437SOL    HW214211   5.059   1.240   3.662
 4438SOL     OW14212   3.770   1.855   6.612
 4438SOL    HW114213   3.803   1.947   6.588
 4438SOL    HW214214   3.671   1.850   6.597
 4439SOL     OW14215   0.675   5.649   1.402
 4439SOL    HW114216   0.773   5.661   1.418
 4439SOL    HW214217   0.628   5.645   1.490
 4440SOL     OW14218   1.489   5.058   6.854
 4440SOL    HW114219   1.454   5.051   6.760
 4440SOL    HW214220   1.553   4.984   6.872
 4441SOL     OW14221   6.753   1.465   2.267
 4441SOL    HW114222   6.678   1.494   2.208
 4441SOL    HW214223   6.788   1.543   2.318
 4442SOL     OW14224   3.022   5.674   3.933
 4442SOL    HW114225   3.005   5.712   4.024
 4442SOL    HW214226   2.967   5.724   3.866
 4443SOL     OW14227   0.707   2.762   6.700
 4443SOL    HW114228   0.668   2.854   6.694
 4443SOL    HW214229   0.798   2.761   6.657
 4444SOL     OW14230   3.440   5.987   6.532
 4444SOL    HW114231   3.397   6.022   6.449
 4444SOL    HW214232   3.450   5.887   6.525
 4445SOL     OW14233   0.177   0.343   0.590
 4445SOL    HW114234   0.156   0.290   0.508
 4445SOL    HW214235   0.261   0.309   0.632
 4446SOL     OW14236   5.891   1.351   1.384
 4446SOL    HW114237   5.896   1.254   1.361
 4446SOL    HW214238   5.796   1.376   1.402
 4447SOL     OW14239   5.529   3.681   5.993
 4447SOL    HW114240   5.495   3.745   5.925
 4447SOL    HW214241   5.622   3.654   5.969
 4448SOL     OW14242   3.398   3.967   0.691
 4448SOL    HW114243   3.376   4.041   0.626
 4448SOL    HW214244   3.497   3.967   0.708
 4449SOL     OW14245   4.367   0.277   6.239
 4449SOL    HW114246   4.425   0.325   6.173
 4449SOL    HW214247   4.388   0.309   6.331
 4450SOL     OW14248   3.263   3.061   3.716
 4450SOL    HW114249   3.214   3.124   3.776
 4450SOL    HW214250   3.353   3.099   3.693
 4451SOL     OW14251   5.488   4.157   2.779
 4451SOL    HW114252   5.549   4.200   2.845
 4451SOL    HW214253   5.395   4.156   2.816
 4452SOL     OW14254   5.526   6.313   4.932
 4452SOL    HW114255   5.442   6.342   4.977
 4452SOL    HW214256   5.505   6.263   4.849
 4453SOL     OW14257   6.829   2.675   0.166
 4453SOL    HW114258   6.752   2.667   0.103
 4453SOL    HW214259   6.797   2.671   0.260
 4454SOL     OW14260   4.992   2.840   0.451
 4454SOL    HW114261   4.905   2.806   0.415
 4454SOL    HW214262   5.047   2.763   0.484
 4455SOL     OW14263   3.049   6.948   6.856
 4455SOL    HW114264   3.059   6.861   6.905
 4455SOL    HW214265   3.098   7.020   6.906
 4456SOL     OW14266   2.360   5.057   2.416
 4456SOL    HW114267   2.327   5.071   2.322
 4456SOL    HW214268   2.309   5.116   2.478
 4457SOL     OW14269   4.185   2.586   0.181
 4457SOL    HW114270   4.240   2.604   0.263
 4457SOL    HW214271   4.230   2.515   0.127
 4458SOL     OW14272   1.452   4.011   6.725
 4458SOL    HW114273   1.356   3.987   6.711
 4458SOL    HW214274   1.502   3.930   6.756
 4459SOL     OW14275   5.511   6.984   3.679
 4459SOL    HW114276   5.544   6.902   3.632
 4459SOL    HW214277   5.589   0.019   3.704
 4460SOL     OW14278   2.595   2.771   5.788
 4460SOL    HW114279   2.565   2.823   5.868
 4460SOL    HW214280   2.685   2.805   5.758
 4461SOL     OW14281   1.137   0.818   2.273
 4461SOL    HW114282   1.083   0.897   2.242
 4461SOL    HW214283   1.094   0.779   2.355
 4462SOL     OW14284   6.818   3.831   1.230
 4462SOL    HW114285   6.828   3.903   1.162
 4462SOL    HW214286   6.857   3.861   1.317
 4463SOL     OW14287   2.722   2.928   0.045
 4463SOL    HW114288   2.767   2.909   0.132
 4463SOL    HW214289   2.705   2.841   7.021
 4464SOL     OW14290   6.270   5.276   0.039
 4464SOL    HW114291   6.231   5.351   7.009
 4464SOL    HW214292   6.196   5.215   0.070
 4465SOL     OW14293   2.440   5.927   3.509
 4465SOL    HW114294   2.374   5.994   3.542
 4465SOL    HW214295   2.401   5.835   3.517
 4466SOL     OW14296   1.384   0.750   2.610
 4466SOL    HW114297   1.422   0.679   2.551
 4466SOL    HW214298   1.331   0.708   2.684
 4467SOL     OW14299   1.352   6.228   3.643
 4467SOL    HW114300   1.379   6.175   3.723
 4467SOL    HW214301   1.257   6.206   3.619
 4468SOL     OW14302   0.846   1.904   0.344
 4468SOL    HW114303   0.806   1.868   0.428
 4468SOL    HW214304   0.779   1.961   0.297
 4469SOL     OW14305   3.273   0.358   1.168
 4469SOL    HW114306   3.191   0.300   1.177
 4469SOL    HW214307   3.311   0.375   1.259
 4470SOL     OW14308   6.012   3.527   1.371
 4470SOL    HW114309   5.934   3.556   1.315
 4470SOL    HW214310   6.026   3.593   1.445
 4471SOL     OW14311   0.553   2.463   0.606
 4471SOL    HW114312   0.561   2.556   0.568
 4471SOL    HW214313   0.644   2.425   0.620
 4472SOL     OW14314   1.498   3.459   3.629
 4472SOL    HW114315   1.565   3.530   3.611
 4472SOL    HW214316   1.544   3.371   3.639
 4473SOL     OW14317   6.789   1.581   4.312
 4473SOL    HW114318   6.704   1.536   4.287
 4473SOL    HW214319   6.793   1.672   4.270
 4474SOL     OW14320   3.232   1.179   1.863
 4474SOL    HW114321   3.149   1.233   1.877
 4474SOL    HW214322   3.311   1.239   1.865
 4475SOL     OW14323   1.957   4.127   2.277
 4475SOL    HW114324   1.895   4.197   2.312
 4475SOL    HW214325   1.922   4.092   2.191
 4476SOL     OW14326   5.130   6.281   4.250
 4476SOL    HW114327   5.144   6.246   4.157
 4476SOL    HW214328   5.193   6.357   4.266
 4477SOL     OW14329   1.742   0.018   6.506
 4477SOL    HW114330   1.667   0.074   6.541
 4477SOL    HW214331   1.809   0.002   6.579
 4478SOL     OW14332   3.197   6.195   2.679
 4478SOL    HW114333   3.112   6.145   2.668
 4478SOL    HW214334   3.205   6.226   2.774
 4479SOL     OW14335   0.891   0.663   0.310
 4479SOL    HW114336   0.951   0.715   0.248
 4479SOL    HW214337   0.870   0.574   0.269
 4480SOL     OW14338   2.227   4.109   4.717
 4480SOL    HW114339   2.234   4.041   4.790
 4480SOL    HW214340   2.252   4.199   4.753
 4481SOL     OW14341   2.872   0.151   4.836
 4481SOL    HW114342   2.820   0.095   4.771
 4481SOL    HW214343   2.946   0.096   4.876
 4482SOL     OW14344   0.821   3.812   4.414
 4482SOL    HW114345   0.725   3.836   4.422
 4482SOL    HW214346   0.855   3.841   4.324
 4483SOL     OW14347   6.002   3.249   1.341
 4483SOL    HW114348   6.073   3.197   1.389
 4483SOL    HW214349   6.007   3.345   1.368
 4484SOL     OW14350   3.178   2.113   5.249
 4484SOL    HW114351   3.243   2.080   5.180
 4484SOL    HW214352   3.152   2.207   5.227
 4485SOL     OW14353   5.421   2.502   6.122
 4485SOL    HW114354   5.519   2.515   6.104
 4485SOL    HW214355   5.382   2.590   6.151
 4486SOL     OW14356   5.731   3.442   4.367
 4486SOL    HW114357   5.689   3.463   4.279
 4486SOL    HW214358   5.708   3.513   4.433
 4487SOL     OW14359   2.337   3.319   6.824
 4487SOL    HW114360   2.312   3.396   6.765
 4487SOL    HW214361   2.257   3.290   6.877
 4488SOL     OW14362   5.629   2.629   5.571
 4488SOL    HW114363   5.547   2.572   5.564
 4488SOL    HW214364   5.622   2.705   5.506
 4489SOL     OW14365   4.901   6.217   4.363
 4489SOL    HW114366   4.942   6.131   4.392
 4489SOL    HW214367   4.968   6.269   4.309
 4490SOL     OW14368   5.690   2.146   1.973
 4490SOL    HW114369   5.768   2.184   1.923
 4490SOL    HW214370   5.653   2.069   1.922
 4491SOL     OW14371   0.604   2.876   3.474
 4491SOL    HW114372   0.691   2.832   3.452
 4491SOL    HW214373   0.557   2.901   3.390
 4492SOL     OW14374   5.446   4.258   0.889
 4492SOL    HW114375   5.512   4.186   0.912
 4492SOL    HW214376   5.422   4.308   0.972
 4493SOL     OW14377   4.423   5.338   5.650
 4493SOL    HW114378   4.325   5.334   5.630
 4493SOL    HW214379   4.466   5.251   5.625
 4494SOL     OW14380   0.328   1.837   6.138
 4494SOL    HW114381   0.423   1.859   6.161
 4494SOL    HW214382   0.292   1.908   6.078
 4495SOL     OW14383   5.067   6.573   3.591
 4495SOL    HW114384   5.033   6.531   3.506
 4495SOL    HW214385   5.133   6.645   3.568
 4496SOL     OW14386   5.184   5.617   0.814
 4496SOL    HW114387   5.130   5.701   0.813
 4496SOL    HW214388   5.256   5.625   0.883
 4497SOL     OW14389   4.776   0.116   6.986
 4497SOL    HW114390   4.692   0.145   0.008
 4497SOL    HW214391   4.755   0.071   6.900
 4498SOL     OW14392   0.183   3.284   6.141
 4498SOL    HW114393   0.167   3.380   6.115
 4498SOL    HW214394   0.194   3.229   6.059
 4499SOL     OW14395   0.023   3.565   4.090
 4499SOL    HW114396   0.048   3.634   4.157
 4499SOL    HW214397   7.009   3.485   4.138
 4500SOL     OW14398   3.341   3.407   3.890
 4500SOL    HW114399   3.272   3.446   3.951
 4500SOL    HW214400   3.432   3.432   3.921
 4501SOL     OW14401   6.907   3.327   5.579
 4501SOL    HW114402   6.909   3.272   5.496
 4501SOL    HW214403   7.001   3.350   5.606
 4502SOL     OW14404   1.948   2.749   6.620
 4502SOL    HW114405   1.885   2.764   6.543
 4502SOL    HW214406   1.996   2.834   6.640
 4503SOL     OW14407   2.996   0.693   2.621
 4503SOL    HW114408   2.976   0.703   2.523
 4503SOL    HW214409   3.030   0.779   2.657
 4504SOL     OW14410   6.513   1.790   5.308
 4504SOL    HW114411   6.416   1.817   5.315
 4504SOL    HW214412   6.567   1.844   5.372
 4505SOL     OW14413   6.737   5.710   3.909
 4505SOL    HW114414   6.662   5.750   3.856
 4505SOL    HW214415   6.748   5.760   3.994
 4506SOL     OW14416   4.819   2.572   4.849
 4506SOL    HW114417   4.811   2.574   4.749
 4506SOL    HW214418   4.866   2.489   4.877
 4507SOL     OW14419   5.119   3.793   1.405
 4507SOL    HW114420   5.054   3.717   1.412
 4507SOL    HW214421   5.077   3.876   1.442
 4508SOL     OW14422   0.330   5.008   6.331
 4508SOL    HW114423   0.234   4.986   6.342
 4508SOL    HW214424   0.385   4.925   6.339
 4509SOL     OW14425   4.777   2.270   3.673
 4509SOL    HW114426   4.852   2.228   3.726
 4509SOL    HW214427   4.705   2.202   3.658
 4510SOL     OW14428   5.812   6.407   5.338
 4510SOL    HW114429   5.795   6.313   5.368
 4510SOL    HW214430   5.726   6.450   5.310
 4511SOL     OW14431   6.926   3.060   6.488
 4511SOL    HW114432   6.880   2.996   6.426
 4511SOL    HW214433   6.926   3.023   6.581
 4512SOL     OW14434   2.137   6.767   6.170
 4512SOL    HW114435   2.092   6.856   6.164
 4512SOL    HW214436   2.071   6.698   6.200
 4513SOL     OW14437   5.353   6.504   0.560
 4513SOL    HW114438   5.362   6.604   0.564
 4513SOL    HW214439   5.268   6.477   0.606
 4514SOL     OW14440   4.580   0.758   4.731
 4514SOL    HW114441   4.506   0.767   4.664
 4514SOL    HW214442   4.567   0.675   4.784
 4515SOL     OW14443   6.749   4.211   6.254
 4515SOL    HW114444   6.761   4.121   6.211
 4515SOL    HW214445   6.690   4.268   6.196
 4516SOL     OW14446   1.519   1.425   5.958
 4516SOL    HW114447   1.579   1.481   5.902
 4516SOL    HW214448   1.428   1.467   5.962
 4517SOL     OW14449   2.259   0.279   6.842
 4517SOL    HW114450   2.196   0.333   6.787
 4517SOL    HW214451   2.209   0.239   6.920
 4518SOL     OW14452   6.667   1.442   3.295
 4518SOL    HW114453   6.618   1.529   3.304
 4518SOL    HW214454   6.627   1.389   3.220
 4519SOL     OW14455   6.003   0.598   1.632
 4519SOL    HW114456   5.970   0.605   1.726
 4519SOL    HW214457   5.955   0.524   1.585
 4520SOL     OW14458   5.349   5.447   2.947
 4520SOL    HW114459   5.345   5.527   3.006
 4520SOL    HW214460   5.392   5.371   2.996
 4521SOL     OW14461   4.827   2.274   5.230
 4521SOL    HW114462   4.829   2.206   5.156
 4521SOL    HW214463   4.870   2.235   5.312
 4522SOL     OW14464   5.111   0.246   3.742
 4522SOL    HW114465   5.093   0.170   3.804
 4522SOL    HW214466   5.209   0.255   3.727
 4523SOL     OW14467   1.002   4.804   0.212
 4523SOL    HW114468   1.042   4.758   0.133
 4523SOL    HW214469   1.011   4.903   0.201
 4524SOL     OW14470   5.231   2.300   5.431
 4524SOL    HW114471   5.295   2.310   5.506
 4524SOL    HW214472   5.264   2.231   5.366
 4525SOL     OW14473   6.257   1.615   3.171
 4525SOL    HW114474   6.209   1.640   3.255
 4525SOL    HW214475   6.206   1.544   3.123
 4526SOL     OW14476   4.646   0.729   0.484
 4526SOL    HW114477   4.639   0.789   0.404
 4526SOL    HW214478   4.702   0.650   0.462
 4527SOL     OW14479   4.267   1.284   4.137
 4527SOL    HW114480   4.307   1.343   4.208
 4527SOL    HW214481   4.251   1.337   4.054
 4528SOL     OW14482   5.195   6.429   0.354
 4528SOL    HW114483   5.157   6.344   0.388
 4528SOL    HW214484   5.242   6.477   0.428
 4529SOL     OW14485   3.763   1.350   3.752
 4529SOL    HW114486   3.680   1.359   3.807
 4529SOL    HW214487   3.770   1.258   3.716
 4530SOL     OW14488   6.896   3.649   5.567
 4530SOL    HW114489   6.885   3.554   5.541
 4530SOL    HW214490   6.971   3.690   5.513
 4531SOL     OW14491   0.064   2.981   3.363
 4531SOL    HW114492   0.108   2.905   3.315
 4531SOL    HW214493   0.127   3.019   3.430
 4532SOL     OW14494   0.315   1.130   2.258
 4532SOL    HW114495   0.306   1.100   2.163
 4532SOL    HW214496   0.233   1.106   2.309
 4533SOL     OW14497   1.462   0.130   3.230
 4533SOL    HW114498   1.378   0.169   3.193
 4533SOL    HW214499   1.440   0.064   3.302
 4534SOL     OW14500   5.680   3.163   4.172
 4534SOL    HW114501   5.769   3.129   4.142
 4534SOL    HW214502   5.610   3.094   4.154
 4535SOL     OW14503   4.336   1.959   2.765
 4535SOL    HW114504   4.404   2.023   2.800
 4535SOL    HW214505   4.379   1.870   2.750
 4536SOL     OW14506   4.436   2.314   4.427
 4536SOL    HW114507   4.352   2.261   4.417
 4536SOL    HW214508   4.514   2.257   4.403
 4537SOL     OW14509   3.649   3.556   6.026
 4537SOL    HW114510   3.658   3.606   6.112
 4537SOL    HW214511   3.570   3.590   5.975
 4538SOL     OW14512   2.632   1.665   4.131
 4538SOL    HW114513   2.664   1.756   4.106
 4538SOL    HW214514   2.703   1.598   4.111
 4539SOL     OW14515   2.478   1.354   4.356
 4539SOL    HW114516   2.512   1.448   4.351
 4539SOL    HW214517   2.387   1.350   4.314
 4540SOL     OW14518   3.199   3.185   4.109
 4540SOL    HW114519   3.119   3.191   4.168
 4540SOL    HW214520   3.176   3.220   4.019
 4541SOL     OW14521   5.558   1.436   6.822
 4541SOL    HW114522   5.614   1.362   6.858
 4541SOL    HW214523   5.463   1.423   6.848
 4542SOL     OW14524   5.936   6.783   1.744
 4542SOL    HW114525   5.899   6.708   1.799
 4542SOL    HW214526   5.890   6.868   1.769
 4543SOL     OW14527   4.262   1.781   0.209
 4543SOL    HW114528   4.163   1.771   0.199
 4543SOL    HW214529   4.300   1.826   0.128
 4544SOL     OW14530   2.708   6.173   5.664
 4544SOL    HW114531   2.756   6.237   5.604
 4544SOL    HW214532   2.722   6.199   5.760
 4545SOL     OW14533   5.226   2.357   5.057
 4545SOL    HW114534   5.315   2.400   5.042
 4545SOL    HW214535   5.238   2.271   5.105
 4546SOL     OW14536   1.199   0.312   6.396
 4546SOL    HW114537   1.199   0.354   6.306
 4546SOL    HW214538   1.215   0.383   6.466
 4547SOL     OW14539   6.482   2.367   3.064
 4547SOL    HW114540   6.547   2.435   3.097
 4547SOL    HW214541   6.392   2.409   3.054
 4548SOL     OW14542   1.057   4.433   4.609
 4548SOL    HW114543   1.029   4.524   4.579
 4548SOL    HW214544   1.081   4.377   4.530
 4549SOL     OW14545   6.001   3.384   2.725
 4549SOL    HW114546   6.077   3.434   2.766
 4549SOL    HW214547   6.031   3.343   2.639
 4550SOL     OW14548   0.616   6.470   3.012
 4550SOL    HW114549   0.713   6.457   2.992
 4550SOL    HW214550   0.601   6.564   3.042
 4551SOL     OW14551   0.535   2.291   5.312
 4551SOL    HW114552   0.444   2.280   5.272
 4551SOL    HW214553   0.592   2.213   5.285
 4552SOL     OW14554   6.917   2.545   6.161
 4552SOL    HW114555   6.963   2.457   6.144
 4552SOL    HW214556   6.878   2.545   6.253
 4553SOL     OW14557   3.610   4.225   0.697
 4553SOL    HW114558   3.652   4.281   0.769
 4553SOL    HW214559   3.648   4.133   0.699
 4554SOL     OW14560   3.850   0.939   1.671
 4554SOL    HW114561   3.900   1.026   1.670
 4554SOL    HW214562   3.753   0.958   1.686
 4555SOL     OW14563   3.465   2.118   6.070
 4555SOL    HW114564   3.559   2.090   6.084
 4555SOL    HW214565   3.427   2.152   6.157
 4556SOL     OW14566   4.599   2.062   3.756
 4556SOL    HW114567   4.669   2.013   3.809
 4556SOL    HW214568   4.545   2.118   3.818
 4557SOL     OW14569   5.144   6.529   5.260
 4557SOL    HW114570   5.226   6.581   5.236
 4557SOL    HW214571   5.151   6.437   5.219
 4558SOL     OW14572   6.454   4.097   6.002
 4558SOL    HW114573   6.446   4.174   6.065
 4558SOL    HW214574   6.393   4.109   5.925
 4559SOL     OW14575   1.346   5.227   1.433
 4559SOL    HW114576   1.409   5.245   1.357
 4559SOL    HW214577   1.398   5.221   1.518
 4560SOL     OW14578   5.770   4.709   3.427
 4560SOL    HW114579   5.778   4.627   3.371
 4560SOL    HW214580   5.773   4.683   3.524
 4561SOL     OW14581   2.891   0.824   1.341
 4561SOL    HW114582   2.904   0.736   1.296
 4561SOL    HW214583   2.850   0.889   1.277
 4562SOL     OW14584   3.197   5.790   4.899
 4562SOL    HW114585   3.204   5.775   4.997
 4562SOL    HW214586   3.205   5.703   4.851
 4563SOL     OW14587   6.464   3.850   0.077
 4563SOL    HW114588   6.556   3.883   0.097
 4563SOL    HW214589   6.403   3.872   0.153
 4564SOL     OW14590   0.708   6.071   0.764
 4564SOL    HW114591   0.799   6.030   0.765
 4564SOL    HW214592   0.709   6.157   0.816
 4565SOL     OW14593   0.304   1.495   5.370
 4565SOL    HW114594   0.246   1.494   5.451
 4565SOL    HW214595   0.250   1.473   5.289
 4566SOL     OW14596   6.974   0.940   0.991
 4566SOL    HW114597   7.009   0.968   0.902
 4566SOL    HW214598   6.908   1.007   1.024
 4567SOL     OW14599   0.601   0.701   0.144
 4567SOL    HW114600   0.619   0.683   0.241
 4567SOL    HW214601   0.519   0.652   0.115
 4568SOL     OW14602   1.802   4.449   5.171
 4568SOL    HW114603   1.772   4.446   5.076
 4568SOL    HW214604   1.729   4.486   5.228
 4569SOL     OW14605   2.285   1.315   3.661
 4569SOL    HW114606   2.311   1.220   3.674
 4569SOL    HW214607   2.338   1.374   3.723
 4570SOL     OW14608   0.154   4.786   3.048
 4570SOL    HW114609   0.076   4.724   3.055
 4570SOL    HW214610   0.133   4.860   2.984
 4571SOL     OW14611   3.789   3.458   5.399
 4571SOL    HW114612   3.710   3.519   5.391
 4571SOL    HW214613   3.802   3.431   5.494
 4572SOL     OW14614   0.454   6.060   6.606
 4572SOL    HW114615   0.541   6.011   6.614
 4572SOL    HW214616   0.379   5.998   6.631
 4573SOL     OW14617   6.164   6.165   0.581
 4573SOL    HW114618   6.259   6.137   0.569
 4573SOL    HW214619   6.105   6.084   0.576
 4574SOL     OW14620   0.038   4.183   1.293
 4574SOL    HW114621   0.090   4.262   1.261
 4574SOL    HW214622   6.963   4.204   1.290
 4575SOL     OW14623   6.547   2.084   6.982
 4575SOL    HW114624   6.612   2.009   6.970
 4575SOL    HW214625   6.483   2.085   6.904
 4576SOL     OW14626   2.894   6.296   6.496
 4576SOL    HW114627   2.923   6.291   6.400
 4576SOL    HW214628   2.806   6.343   6.502
 4577SOL     OW14629   0.137   2.793   3.181
 4577SOL    HW114630   0.192   2.736   3.242
 4577SOL    HW214631   0.102   2.737   3.106
 4578SOL     OW14632   0.502   3.707   3.478
 4578SOL    HW114633   0.521   3.724   3.381
 4578SOL    HW214634   0.450   3.784   3.515
 4579SOL     OW14635   5.245   1.373   2.945
 4579SOL    HW114636   5.284   1.457   2.984
 4579SOL    HW214637   5.242   1.302   3.015
 4580SOL     OW14638   5.553   5.596   0.220
 4580SOL    HW114639   5.489   5.671   0.237
 4580SOL    HW214640   5.646   5.631   0.218
 4581SOL     OW14641   3.162   5.304   3.048
 4581SOL    HW114642   3.181   5.400   3.025
 4581SOL    HW214643   3.171   5.248   2.965
 4582SOL     OW14644   6.303   6.487   4.629
 4582SOL    HW114645   6.291   6.585   4.646
 4582SOL    HW214646   6.295   6.437   4.715
 4583SOL     OW14647   2.517   1.329   4.829
 4583SOL    HW114648   2.616   1.339   4.840
 4583SOL    HW214649   2.473   1.335   4.919
 4584SOL     OW14650   0.411   5.591   5.472
 4584SOL    HW114651   0.460   5.540   5.542
 4584SOL    HW214652   0.415   5.540   5.385
 4585SOL     OW14653   3.032   6.445   3.089
 4585SOL    HW114654   3.103   6.401   3.144
 4585SOL    HW214655   3.045   6.544   3.090
 4586SOL     OW14656   3.880   5.013   0.854
 4586SOL    HW114657   3.890   5.103   0.896
 4586SOL    HW214658   3.924   5.014   0.764
 4587SOL     OW14659   4.200   3.243   1.827
 4587SOL    HW114660   4.283   3.203   1.789
 4587SOL    HW214661   4.124   3.227   1.764
 4588SOL     OW14662   4.015   3.937   5.100
 4588SOL    HW114663   4.003   3.963   5.005
 4588SOL    HW214664   3.934   3.890   5.133
 4589SOL     OW14665   5.670   1.167   1.990
 4589SOL    HW114666   5.660   1.133   1.897
 4589SOL    HW214667   5.729   1.105   2.042
 4590SOL     OW14668   4.309   6.322   2.278
 4590SOL    HW114669   4.225   6.376   2.283
 4590SOL    HW214670   4.337   6.293   2.369
 4591SOL     OW14671   0.875   6.221   5.038
 4591SOL    HW114672   0.927   6.286   5.094
 4591SOL    HW214673   0.938   6.158   4.992
 4592SOL     OW14674   4.066   2.761   1.609
 4592SOL    HW114675   4.163   2.743   1.591
 4592SOL    HW214676   4.057   2.848   1.657
 4593SOL     OW14677   4.260   5.483   4.102
 4593SOL    HW114678   4.327   5.522   4.038
 4593SOL    HW214679   4.179   5.454   4.051
 4594SOL     OW14680   3.308   2.311   1.260
 4594SOL    HW114681   3.357   2.229   1.233
 4594SOL    HW214682   3.334   2.336   1.353
 4595SOL     OW14683   3.724   2.456   5.787
 4595SOL    HW114684   3.653   2.389   5.765
 4595SOL    HW214685   3.743   2.512   5.707
 4596SOL     OW14686   6.141   6.683   2.151
 4596SOL    HW114687   6.107   6.633   2.071
 4596SOL    HW214688   6.065   6.721   2.202
 4597SOL     OW14689   4.551   4.558   0.217
 4597SOL    HW114690   4.636   4.605   0.240
 4597SOL    HW214691   4.493   4.554   0.298
 4598SOL     OW14692   1.555   5.503   6.866
 4598SOL    HW114693   1.592   5.502   6.774
 4598SOL    HW214694   1.608   5.566   6.923
 4599SOL     OW14695   1.556   4.394   1.311
 4599SOL    HW114696   1.575   4.332   1.386
 4599SOL    HW214697   1.641   4.419   1.265
 4600SOL     OW14698   2.209   6.179   6.049
 4600SOL    HW114699   2.201   6.147   5.955
 4600SOL    HW214700   2.240   6.104   6.108
 4601SOL     OW14701   1.570   1.125   5.146
 4601SOL    HW114702   1.578   1.031   5.180
 4601SOL    HW214703   1.538   1.123   5.051
 4602SOL     OW14704   1.054   5.893   0.727
 4602SOL    HW114705   1.033   5.815   0.668
 4602SOL    HW214706   1.045   5.866   0.823
 4603SOL     OW14707   3.720   0.099   1.727
 4603SOL    HW114708   3.792   0.165   1.748
 4603SOL    HW214709   3.762   0.013   1.698
 4604SOL     OW14710   4.983   0.935   1.273
 4604SOL    HW114711   4.927   0.866   1.320
 4604SOL    HW214712   5.023   0.894   1.191
 4605SOL     OW14713   4.959   1.057   2.902
 4605SOL    HW114714   4.930   1.152   2.900
 4605SOL    HW214715   4.880   0.998   2.917
 4606SOL     OW14716   6.937   0.327   1.997
 4606SOL    HW114717   6.930   0.239   2.044
 4606SOL    HW214718   0.002   0.368   2.017
 4607SOL     OW14719   2.762   3.284   0.799
 4607SOL    HW114720   2.728   3.228   0.875
 4607SOL    HW214721   2.862   3.284   0.799
 4608SOL     OW14722   1.766   5.583   3.762
 4608SOL    HW114723   1.815   5.665   3.733
 4608SOL    HW214724   1.717   5.544   3.684
 4609SOL     OW14725   4.137   5.572   6.067
 4609SOL    HW114726   4.169   5.521   5.988
 4609SOL    HW214727   4.039   5.556   6.080
 4610SOL     OW14728   6.696   2.254   0.457
 4610SOL    HW114729   6.742   2.333   0.416
 4610SOL    HW214730   6.604   2.246   0.419
 4611SOL     OW14731   6.135   5.119   5.733
 4611SOL    HW114732   6.195   5.179   5.786
 4611SOL    HW214733   6.063   5.082   5.792
 4612SOL     OW14734   1.491   6.254   0.424
 4612SOL    HW114735   1.496   6.259   0.324
 4612SOL    HW214736   1.395   6.257   0.453
 4613SOL     OW14737   2.437   5.429   2.494
 4613SOL    HW114738   2.438   5.423   2.394
 4613SOL    HW214739   2.397   5.516   2.522
 4614SOL     OW14740   1.277   4.557   5.354
 4614SOL    HW114741   1.335   4.541   5.434
 4614SOL    HW214742   1.238   4.649   5.358
 4615SOL     OW14743   2.184   0.751   0.595
 4615SOL    HW114744   2.161   0.796   0.681
 4615SOL    HW214745   2.281   0.725   0.596
 4616SOL     OW14746   6.557   0.268   5.827
 4616SOL    HW114747   6.562   0.299   5.733
 4616SOL    HW214748   6.473   0.215   5.841
 4617SOL     OW14749   1.421   2.243   2.737
 4617SOL    HW114750   1.430   2.338   2.705
 4617SOL    HW214751   1.494   2.187   2.699
 4618SOL     OW14752   1.962   2.438   5.276
 4618SOL    HW114753   1.909   2.430   5.192
 4618SOL    HW214754   2.057   2.461   5.254
 4619SOL     OW14755   4.449   6.181   3.521
 4619SOL    HW114756   4.384   6.243   3.564
 4619SOL    HW214757   4.430   6.176   3.422
 4620SOL     OW14758   3.017   4.088   0.021
 4620SOL    HW114759   3.027   4.004   6.991
 4620SOL    HW214760   2.920   4.111   0.029
 4621SOL     OW14761   5.542   1.678   3.546
 4621SOL    HW114762   5.582   1.625   3.621
 4621SOL    HW214763   5.454   1.715   3.575
 4622SOL     OW14764   0.259   3.079   0.744
 4622SOL    HW114765   0.325   3.006   0.724
 4622SOL    HW214766   0.216   3.061   0.832
 4623SOL     OW14767   0.645   5.474   1.202
 4623SOL    HW114768   0.664   5.543   1.272
 4623SOL    HW214769   0.547   5.474   1.182
 4624SOL     OW14770   4.923   6.760   2.916
 4624SOL    HW114771   4.911   6.665   2.945
 4624SOL    HW214772   4.852   6.785   2.851
 4625SOL     OW14773   1.898   4.395   6.726
 4625SOL    HW114774   1.972   4.457   6.751
 4625SOL    HW214775   1.928   4.334   6.653
 4626SOL     OW14776   6.027   5.124   1.260
 4626SOL    HW114777   6.041   5.072   1.345
 4626SOL    HW214778   6.009   5.220   1.282
 4627SOL     OW14779   3.816   6.139   4.396
 4627SOL    HW114780   3.884   6.066   4.399
 4627SOL    HW214781   3.755   6.124   4.318
 4628SOL     OW14782   5.893   3.956   3.641
 4628SOL    HW114783   5.958   4.017   3.686
 4628SOL    HW214784   5.800   3.980   3.669
 4629SOL     OW14785   2.281   4.926   5.922
 4629SOL    HW114786   2.201   4.960   5.872
 4629SOL    HW214787   2.331   4.861   5.865
 4630SOL     OW14788   3.870   5.689   3.061
 4630SOL    HW114789   3.951   5.630   3.056
 4630SOL    HW214790   3.883   5.755   3.135
 4631SOL     OW14791   2.598   6.423   3.522
 4631SOL    HW114792   2.620   6.332   3.485
 4631SOL    HW214793   2.668   6.488   3.493
 4632SOL     OW14794   4.664   4.264   3.212
 4632SOL    HW114795   4.600   4.337   3.233
 4632SOL    HW214796   4.618   4.175   3.224
 4633SOL     OW14797   6.018   1.729   3.619
 4633SOL    HW114798   5.918   1.724   3.624
 4633SOL    HW214799   6.057   1.729   3.711
 4634SOL     OW14800   2.477   4.633   6.649
 4634SOL    HW114801   2.564   4.592   6.622
 4634SOL    HW214802   2.403   4.569   6.630
 4635SOL     OW14803   6.279   3.392   2.399
 4635SOL    HW114804   6.339   3.317   2.427
 4635SOL    HW214805   6.303   3.475   2.449
 4636SOL     OW14806   2.066   5.090   0.244
 4636SOL    HW114807   1.988   5.089   0.181
 4636SOL    HW214808   2.073   5.179   0.288
 4637SOL     OW14809   2.022   0.854   0.404
 4637SOL    HW114810   2.097   0.827   0.464
 4637SOL    HW214811   1.981   0.939   0.439
 4638SOL     OW14812   3.362   3.075   5.965
 4638SOL    HW114813   3.387   3.108   6.056
 4638SOL    HW214814   3.304   3.143   5.920
 4639SOL     OW14815   1.859   4.878   5.170
 4639SOL    HW114816   1.877   4.830   5.084
 4639SOL    HW214817   1.771   4.925   5.164
 4640SOL     OW14818   4.737   5.307   3.467
 4640SOL    HW114819   4.789   5.222   3.465
 4640SOL    HW214820   4.797   5.383   3.490
 4641SOL     OW14821   2.758   5.529   3.765
 4641SOL    HW114822   2.735   5.434   3.742
 4641SOL    HW214823   2.843   5.554   3.720
 4642SOL     OW14824   0.994   6.753   5.298
 4642SOL    HW114825   1.056   6.704   5.359
 4642SOL    HW214826   0.977   6.845   5.334
 4643SOL     OW14827   5.054   2.528   0.803
 4643SOL    HW114828   4.980   2.465   0.782
 4643SOL    HW214829   5.137   2.477   0.822
 4644SOL     OW14830   1.239   4.956   4.315
 4644SOL    HW114831   1.275   5.014   4.389
 4644SOL    HW214832   1.146   4.984   4.292
 4645SOL     OW14833   1.505   0.340   4.394
 4645SOL    HW114834   1.527   0.380   4.483
 4645SOL    HW214835   1.579   0.279   4.365
 4646SOL     OW14836   2.783   6.385   3.130
 4646SOL    HW114837   2.866   6.409   3.081
 4646SOL    HW214838   2.768   6.286   3.124
 4647SOL     OW14839   0.905   6.674   2.965
 4647SOL    HW114840   0.824   6.704   2.914
 4647SOL    HW214841   0.895   6.699   3.061
 4648SOL     OW14842   3.911   0.304   1.489
 4648SOL    HW114843   3.849   0.260   1.554
 4648SOL    HW214844   3.874   0.294   1.397
 4649SOL     OW14845   5.265   6.736   5.929
 4649SOL    HW114846   5.364   6.727   5.943
 4649SOL    HW214847   5.227   6.648   5.901
 4650SOL     OW14848   4.125   5.642   3.718
 4650SOL    HW114849   4.178   5.624   3.635
 4650SOL    HW214850   4.187   5.643   3.797
 4651SOL     OW14851   7.014   1.692   0.776
 4651SOL    HW114852   0.044   1.669   0.695
 4651SOL    HW214853   0.028   1.774   0.818
 4652SOL     OW14854   0.634   0.240   4.004
 4652SOL    HW114855   0.588   0.298   3.936
 4652SOL    HW214856   0.628   0.282   4.094
 4653SOL     OW14857   6.832   5.494   6.732
 4653SOL    HW114858   6.815   5.593   6.735
 4653SOL    HW214859   6.766   5.447   6.791
 4654SOL     OW14860   0.574   0.133   0.242
 4654SOL    HW114861   0.477   0.108   0.251
 4654SOL    HW214862   0.605   0.107   0.150
 4655SOL     OW14863   6.520   5.153   1.808
 4655SOL    HW114864   6.598   5.097   1.778
 4655SOL    HW214865   6.436   5.100   1.797
 4656SOL     OW14866   0.812   6.936   3.365
 4656SOL    HW114867   0.879   7.002   3.400
 4656SOL    HW214868   0.767   6.891   3.442
 4657SOL     OW14869   5.026   0.082   1.469
 4657SOL    HW114870   5.049   0.025   1.390
 4657SOL    HW214871   5.073   0.170   1.461
 4658SOL     OW14872   3.605   1.023   2.403
 4658SOL    HW114873   3.561   1.063   2.483
 4658SOL    HW214874   3.658   1.093   2.356
 4659SOL     OW14875   2.898   3.849   5.743
 4659SOL    HW114876   2.806   3.852   5.703
 4659SOL    HW214877   2.891   3.838   5.842
 4660SOL     OW14878   1.066   2.584   4.833
 4660SOL    HW114879   0.981   2.636   4.840
 4660SOL    HW214880   1.131   2.618   4.900
 4661SOL     OW14881   3.876   4.527   5.427
 4661SOL    HW114882   3.887   4.515   5.525
 4661SOL    HW214883   3.954   4.487   5.379
 4662SOL     OW14884   4.693   0.752   5.074
 4662SOL    HW114885   4.756   0.732   4.999
 4662SOL    HW214886   4.610   0.698   5.063
 4663SOL     OW14887   0.444   1.374   2.312
 4663SOL    HW114888   0.517   1.404   2.251
 4663SOL    HW214889   0.403   1.289   2.277
 4664SOL     OW14890   2.106   2.475   0.166
 4664SOL    HW114891   2.027   2.485   0.228
 4664SOL    HW214892   2.118   2.559   0.114
 4665SOL     OW14893   4.714   6.932   0.424
 4665SOL    HW114894   4.672   6.885   0.347
 4665SOL    HW214895   4.682   0.004   0.427
 4666SOL     OW14896   2.047   1.649   0.161
 4666SOL    HW114897   2.070   1.686   0.071
 4666SOL    HW214898   1.958   1.684   0.190
 4667SOL     OW14899   6.508   4.419   0.968
 4667SOL    HW114900   6.550   4.461   0.887
 4667SOL    HW214901   6.472   4.491   1.028
 4668SOL     OW14902   6.665   2.756   3.753
 4668SOL    HW114903   6.719   2.837   3.773
 4668SOL    HW214904   6.633   2.760   3.659
 4669SOL     OW14905   3.419   6.782   0.754
 4669SOL    HW114906   3.410   6.866   0.700
 4669SOL    HW214907   3.466   6.712   0.700
 4670SOL     OW14908   3.263   1.133   4.827
 4670SOL    HW114909   3.207   1.203   4.871
 4670SOL    HW214910   3.335   1.177   4.773
 4671SOL     OW14911   6.282   2.381   2.300
 4671SOL    HW114912   6.348   2.456   2.291
 4671SOL    HW214913   6.232   2.371   2.214
 4672SOL     OW14914   2.479   4.645   6.081
 4672SOL    HW114915   2.409   4.687   6.139
 4672SOL    HW214916   2.434   4.594   6.007
 4673SOL     OW14917   4.805   0.062   0.911
 4673SOL    HW114918   4.855   7.000   0.895
 4673SOL    HW214919   4.837   0.131   0.846
 4674SOL     OW14920   5.033   6.198   6.646
 4674SOL    HW114921   4.962   6.138   6.608
 4674SOL    HW214922   5.063   6.161   6.734
 4675SOL     OW14923   0.534   3.343   6.912
 4675SOL    HW114924   0.443   3.319   6.879
 4675SOL    HW214925   0.526   3.408   6.988
 4676SOL     OW14926   0.326   6.134   3.958
 4676SOL    HW114927   0.227   6.125   3.947
 4676SOL    HW214928   0.358   6.061   4.020
 4677SOL     OW14929   1.968   1.984   1.203
 4677SOL    HW114930   2.066   1.966   1.190
 4677SOL    HW214931   1.917   1.949   1.125
 4678SOL     OW14932   2.446   4.353   2.822
 4678SOL    HW114933   2.356   4.319   2.793
 4678SOL    HW214934   2.478   4.421   2.756
 4679SOL     OW14935   4.425   0.256   1.482
 4679SOL    HW114936   4.335   0.285   1.515
 4679SOL    HW214937   4.421   0.239   1.384
 4680SOL     OW14938   3.458   1.064   6.638
 4680SOL    HW114939   3.369   1.102   6.610
 4680SOL    HW214940   3.517   1.138   6.669
 4681SOL     OW14941   4.852   4.888   0.519
 4681SOL    HW114942   4.790   4.811   0.506
 4681SOL    HW214943   4.803   4.974   0.505
 4682SOL     OW14944   4.761   3.990   6.037
 4682SOL    HW114945   4.720   4.064   6.090
 4682SOL    HW214946   4.708   3.976   5.953
 4683SOL     OW14947   5.898   5.559   2.349
 4683SOL    HW114948   5.996   5.540   2.348
 4683SOL    HW214949   5.873   5.597   2.437
 4684SOL     OW14950   4.209   6.753   5.786
 4684SOL    HW114951   4.145   6.689   5.744
 4684SOL    HW214952   4.289   6.703   5.820
 4685SOL     OW14953   1.964   4.662   6.526
 4685SOL    HW114954   2.014   4.577   6.513
 4685SOL    HW214955   1.947   4.706   6.438
 4686SOL     OW14956   4.501   5.895   0.197
 4686SOL    HW114957   4.415   5.847   0.180
 4686SOL    HW214958   4.504   5.978   0.142
 4687SOL     OW14959   4.734   2.837   4.165
 4687SOL    HW114960   4.637   2.834   4.141
 4687SOL    HW214961   4.747   2.893   4.247
 4688SOL     OW14962   5.498   2.925   5.627
 4688SOL    HW114963   5.427   2.881   5.681
 4688SOL    HW214964   5.475   2.920   5.530
 4689SOL     OW14965   5.835   1.106   1.312
 4689SOL    HW114966   5.885   1.020   1.308
 4689SOL    HW214967   5.847   1.156   1.227
 4690SOL     OW14968   2.201   0.642   0.918
 4690SOL    HW114969   2.113   0.595   0.908
 4690SOL    HW214970   2.275   0.579   0.892
 4691SOL     OW14971   3.547   3.891   0.446
 4691SOL    HW114972   3.595   3.978   0.444
 4691SOL    HW214973   3.599   3.825   0.500
 4692SOL     OW14974   5.901   5.025   3.013
 4692SOL    HW114975   5.980   5.013   2.953
 4692SOL    HW214976   5.927   5.001   3.107
 4693SOL     OW14977   1.127   0.664   3.620
 4693SOL    HW114978   1.188   0.659   3.699
 4693SOL    HW214979   1.162   0.605   3.547
 4694SOL     OW14980   2.289   2.283   0.231
 4694SOL    HW114981   2.263   2.193   0.197
 4694SOL    HW214982   2.219   2.350   0.205
 4695SOL     OW14983   1.573   5.610   0.905
 4695SOL    HW114984   1.642   5.659   0.853
 4695SOL    HW214985   1.500   5.673   0.931
 4696SOL     OW14986   0.513   5.731   6.366
 4696SOL    HW114987   0.594   5.790   6.363
 4696SOL    HW214988   0.439   5.773   6.314
 4697SOL     OW14989   1.034   3.619   2.247
 4697SOL    HW114990   1.121   3.658   2.279
 4697SOL    HW214991   1.050   3.567   2.163
 4698SOL     OW14992   4.541   6.372   3.145
 4698SOL    HW114993   4.488   6.454   3.125
 4698SOL    HW214994   4.600   6.388   3.223
 4699SOL     OW14995   0.246   6.473   3.026
 4699SOL    HW114996   0.242   6.567   3.061
 4699SOL    HW214997   0.198   6.468   2.938
 4700SOL     OW14998   6.072   1.964   2.166
 4700SOL    HW114999   5.978   1.986   2.138
 4700SOL    HW215000   6.076   1.959   2.265
 4701SOL     OW15001   3.352   1.928   0.571
 4701SOL    HW115002   3.364   1.866   0.649
 4701SOL    HW215003   3.346   1.875   0.486
 4702SOL     OW15004   4.497   4.892   0.623
 4702SOL    HW115005   4.486   4.808   0.677
 4702SOL    HW215006   4.557   4.875   0.545
 4703SOL     OW15007   1.167   6.631   3.028
 4703SOL    HW115008   1.149   6.628   3.126
 4703SOL    HW215009   1.085   6.665   2.981
 4704SOL     OW15010   6.725   6.008   6.389
 4704SOL    HW115011   6.800   5.959   6.433
 4704SOL    HW215012   6.701   5.963   6.303
 4705SOL     OW15013   3.406   2.257   0.770
 4705SOL    HW115014   3.407   2.245   0.670
 4705SOL    HW215015   3.410   2.167   0.814
 4706SOL     OW15016   1.603   0.663   0.307
 4706SOL    HW115017   1.571   0.578   0.264
 4706SOL    HW215018   1.592   0.656   0.406
 4707SOL     OW15019   0.964   6.308   1.693
 4707SOL    HW115020   0.962   6.372   1.770
 4707SOL    HW215021   0.939   6.355   1.609
 4708SOL     OW15022   0.924   2.026   5.818
 4708SOL    HW115023   0.898   2.075   5.735
 4708SOL    HW215024   0.886   1.934   5.816
 4709SOL     OW15025   4.884   5.314   5.027
 4709SOL    HW115026   4.833   5.337   5.110
 4709SOL    HW215027   4.982   5.326   5.044
 4710SOL     OW15028   6.011   6.829   6.025
 4710SOL    HW115029   5.933   6.870   6.071
 4710SOL    HW215030   6.062   6.901   5.976
 4711SOL     OW15031   6.509   1.626   2.646
 4711SOL    HW115032   6.542   1.536   2.621
 4711SOL    HW215033   6.523   1.690   2.571
 4712SOL     OW15034   3.480   4.991   6.374
 4712SOL    HW115035   3.551   4.921   6.366
 4712SOL    HW215036   3.471   5.019   6.469
 4713SOL     OW15037   4.580   5.529   0.677
 4713SOL    HW115038   4.489   5.520   0.719
 4713SOL    HW215039   4.648   5.487   0.737
 4714SOL     OW15040   0.210   1.177   6.231
 4714SOL    HW115041   0.179   1.201   6.139
 4714SOL    HW215042   0.306   1.204   6.241
 4715SOL     OW15043   6.024   3.261   1.694
 4715SOL    HW115044   6.061   3.181   1.647
 4715SOL    HW215045   6.098   3.314   1.734
 4716SOL     OW15046   4.467   6.566   5.628
 4716SOL    HW115047   4.535   6.503   5.664
 4716SOL    HW215048   4.510   6.654   5.607
 4717SOL     OW15049   1.298   5.467   5.256
 4717SOL    HW115050   1.314   5.560   5.223
 4717SOL    HW215051   1.204   5.460   5.291
 4718SOL     OW15052   5.081   2.087   1.255
 4718SOL    HW115053   5.043   2.174   1.285
 4718SOL    HW215054   5.034   2.057   1.172
 4719SOL     OW15055   4.877   3.845   2.588
 4719SOL    HW115056   4.881   3.912   2.663
 4719SOL    HW215057   4.852   3.755   2.625
 4720SOL     OW15058   1.776   4.956   6.076
 4720SOL    HW115059   1.733   4.902   6.148
 4720SOL    HW215060   1.808   5.043   6.115
 4721SOL     OW15061   6.455   2.023   1.476
 4721SOL    HW115062   6.446   2.122   1.487
 4721SOL    HW215063   6.393   1.992   1.404
 4722SOL     OW15064   1.104   6.169   6.553
 4722SOL    HW115065   1.181   6.122   6.595
 4722SOL    HW215066   1.130   6.264   6.532
 4723SOL     OW15067   3.160   3.376   4.837
 4723SOL    HW115068   3.136   3.401   4.931
 4723SOL    HW215069   3.155   3.276   4.828
 4724SOL     OW15070   0.001   0.297   4.169
 4724SOL    HW115071   6.982   0.248   4.246
 4724SOL    HW215072   0.076   0.242   4.133
 4725SOL     OW15073   6.154   5.065   0.413
 4725SOL    HW115074   6.151   5.106   0.322
 4725SOL    HW215075   6.181   5.135   0.480
 4726SOL     OW15076   1.028   3.274   5.963
 4726SOL    HW115077   1.038   3.180   5.930
 4726SOL    HW215078   1.066   3.337   5.896
 4727SOL     OW15079   0.251   5.861   1.177
 4727SOL    HW115080   0.155   5.864   1.150
 4727SOL    HW215081   0.266   5.784   1.240
 4728SOL     OW15082   6.745   1.157   2.729
 4728SOL    HW115083   6.676   1.084   2.731
 4728SOL    HW215084   6.776   1.176   2.822
 4729SOL     OW15085   4.875   0.922   0.190
 4729SOL    HW115086   4.890   1.019   0.212
 4729SOL    HW215087   4.926   0.865   0.254
 4730SOL     OW15088   3.002   6.066   5.496
 4730SOL    HW115089   3.033   6.034   5.585
 4730SOL    HW215090   3.034   6.160   5.482
 4731SOL     OW15091   3.224   1.037   0.904
 4731SOL    HW115092   3.299   1.017   0.966
 4731SOL    HW215093   3.140   0.995   0.939
 4732SOL     OW15094   0.643   3.284   5.038
 4732SOL    HW115095   0.551   3.248   5.019
 4732SOL    HW215096   0.710   3.211   5.031
 4733SOL     OW15097   1.389   4.302   3.308
 4733SOL    HW115098   1.297   4.299   3.269
 4733SOL    HW215099   1.414   4.212   3.344
 4734SOL     OW15100   4.472   3.470   0.345
 4734SOL    HW115101   4.495   3.374   0.363
 4734SOL    HW215102   4.377   3.487   0.371
 4735SOL     OW15103   6.441   5.711   4.159
 4735SOL    HW115104   6.393   5.729   4.073
 4735SOL    HW215105   6.501   5.788   4.180
 4736SOL     OW15106   5.758   1.806   5.195
 4736SOL    HW115107   5.837   1.838   5.142
 4736SOL    HW215108   5.758   1.706   5.198
 4737SOL     OW15109   2.451   4.390   0.286
 4737SOL    HW115110   2.379   4.418   0.221
 4737SOL    HW215111   2.440   4.293   0.306
 4738SOL     OW15112   3.019   6.295   3.435
 4738SOL    HW115113   2.948   6.238   3.394
 4738SOL    HW215114   2.982   6.385   3.457
 4739SOL     OW15115   5.268   1.486   3.351
 4739SOL    HW115116   5.211   1.568   3.344
 4739SOL    HW215117   5.363   1.509   3.332
 4740SOL     OW15118   0.855   0.363   0.569
 4740SOL    HW115119   0.812   0.400   0.651
 4740SOL    HW215120   0.928   0.425   0.538
 4741SOL     OW15121   4.682   3.520   1.377
 4741SOL    HW115122   4.727   3.587   1.437
 4741SOL    HW215123   4.585   3.543   1.368
 4742SOL     OW15124   3.537   6.478   1.787
 4742SOL    HW115125   3.598   6.405   1.755
 4742SOL    HW215126   3.593   6.557   1.816
 4743SOL     OW15127   1.303   2.296   5.768
 4743SOL    HW115128   1.380   2.350   5.802
 4743SOL    HW215129   1.318   2.275   5.671
 4744SOL     OW15130   2.844   3.317   5.488
 4744SOL    HW115131   2.807   3.271   5.407
 4744SOL    HW215132   2.775   3.380   5.524
 4745SOL     OW15133   2.326   5.412   5.478
 4745SOL    HW115134   2.417   5.399   5.518
 4745SOL    HW215135   2.334   5.425   5.380
 4746SOL     OW15136   6.308   6.246   2.468
 4746SOL    HW115137   6.209   6.253   2.477
 4746SOL    HW215138   6.332   6.242   2.371
 4747SOL     OW15139   1.591   3.959   6.045
 4747SOL    HW115140   1.591   3.965   6.145
 4747SOL    HW215141   1.563   4.047   6.007
 4748SOL     OW15142   1.614   5.524   1.336
 4748SOL    HW115143   1.562   5.451   1.292
 4748SOL    HW215144   1.709   5.496   1.347
 4749SOL     OW15145   3.150   6.421   6.066
 4749SOL    HW115146   3.189   6.491   6.126
 4749SOL    HW215147   3.202   6.418   5.980
 4750SOL     OW15148   0.558   3.091   4.000
 4750SOL    HW115149   0.565   3.107   3.902
 4750SOL    HW215150   0.582   2.996   4.020
 4751SOL     OW15151   1.948   3.342   6.950
 4751SOL    HW115152   2.036   3.324   6.994
 4751SOL    HW215153   1.920   3.436   6.969
 4752SOL     OW15154   2.962   0.185   0.448
 4752SOL    HW115155   2.988   0.089   0.456
 4752SOL    HW215156   2.953   0.225   0.539
 4753SOL     OW15157   5.172   6.972   4.200
 4753SOL    HW115158   5.189   0.002   4.116
 4753SOL    HW215159   5.252   6.915   4.219
 4754SOL     OW15160   6.096   0.257   5.633
 4754SOL    HW115161   6.164   0.188   5.658
 4754SOL    HW215162   6.021   0.214   5.583
 4755SOL     OW15163   2.628   0.831   0.485
 4755SOL    HW115164   2.645   0.785   0.398
 4755SOL    HW215165   2.715   0.855   0.528
 4756SOL     OW15166   5.877   2.624   0.801
 4756SOL    HW115167   5.928   2.680   0.735
 4756SOL    HW215168   5.782   2.655   0.803
 4757SOL     OW15169   1.540   2.112   2.205
 4757SOL    HW115170   1.548   2.150   2.297
 4757SOL    HW215171   1.608   2.040   2.192
 4758SOL     OW15172   3.355   6.065   4.803
 4758SOL    HW115173   3.380   6.086   4.898
 4758SOL    HW215174   3.367   5.967   4.787
 4759SOL     OW15175   5.775   5.129   4.993
 4759SOL    HW115176   5.825   5.214   5.011
 4759SOL    HW215177   5.787   5.104   4.897
 4760SOL     OW15178   3.492   2.086   1.155
 4760SOL    HW115179   3.566   2.141   1.195
 4760SOL    HW215180   3.452   2.028   1.225
 4761SOL     OW15181   0.425   6.949   6.547
 4761SOL    HW115182   0.445   6.911   6.638
 4761SOL    HW215183   0.486   0.002   6.529
 4762SOL     OW15184   2.426   5.165   2.867
 4762SOL    HW115185   2.514   5.194   2.829
 4762SOL    HW215186   2.383   5.098   2.806
 4763SOL     OW15187   5.716   6.346   3.543
 4763SOL    HW115188   5.792   6.384   3.596
 4763SOL    HW215189   5.704   6.249   3.565
 4764SOL     OW15190   4.609   3.990   5.779
 4764SOL    HW115191   4.638   4.073   5.731
 4764SOL    HW215192   4.511   3.977   5.767
 4765SOL     OW15193   4.982   6.889   4.407
 4765SOL    HW115194   4.988   6.896   4.506
 4765SOL    HW215195   5.065   6.924   4.365
 4766SOL     OW15196   4.239   0.014   3.787
 4766SOL    HW115197   4.308   6.999   3.848
 4766SOL    HW215198   4.242   0.114   3.791
 4767SOL     OW15199   4.044   5.720   6.312
 4767SOL    HW115200   3.970   5.770   6.267
 4767SOL    HW215201   4.132   5.753   6.277
 4768SOL     OW15202   4.580   2.289   4.990
 4768SOL    HW115203   4.502   2.278   4.928
 4768SOL    HW215204   4.642   2.212   4.980
 4769SOL     OW15205   4.470   5.243   1.059
 4769SOL    HW115206   4.548   5.305   1.046
 4769SOL    HW215207   4.475   5.202   1.150
 4770SOL     OW15208   1.494   6.821   3.675
 4770SOL    HW115209   1.544   6.824   3.589
 4770SOL    HW215210   1.519   6.738   3.726
 4771SOL     OW15211   3.488   5.232   5.495
 4771SOL    HW115212   3.531   5.196   5.577
 4771SOL    HW215213   3.411   5.174   5.470
 4772SOL     OW15214   2.379   5.798   1.674
 4772SOL    HW115215   2.354   5.877   1.617
 4772SOL    HW215216   2.306   5.781   1.740
 4773SOL     OW15217   6.564   5.262   4.791
 4773SOL    HW115218   6.468   5.279   4.769
 4773SOL    HW215219   6.601   5.340   4.841
 4774SOL     OW15220   1.189   2.498   1.584
 4774SOL    HW115221   1.232   2.489   1.494
 4774SOL    HW215222   1.252   2.464   1.654
 4775SOL     OW15223   5.146   0.056   2.978
 4775SOL    HW115224   5.160   6.992   3.023
 4775SOL    HW215225   5.113   0.123   3.045
 4776SOL     OW15226   1.686   6.677   4.436
 4776SOL    HW115227   1.737   6.661   4.520
 4776SOL    HW215228   1.747   6.720   4.368
 4777SOL     OW15229   2.959   4.778   1.168
 4777SOL    HW115230   2.962   4.682   1.141
 4777SOL    HW215231   2.889   4.826   1.116
 4778SOL     OW15232   5.441   2.095   2.218
 4778SOL    HW115233   5.401   2.132   2.134
 4778SOL    HW215234   5.388   2.015   2.247
 4779SOL     OW15235   6.363   6.192   2.192
 4779SOL    HW115236   6.369   6.132   2.113
 4779SOL    HW215237   6.441   6.255   2.192
 4780SOL     OW15238   6.965   0.298   6.915
 4780SOL    HW115239   6.937   0.243   6.836
 4780SOL    HW215240   0.008   0.246   6.969
 4781SOL     OW15241   3.384   6.328   1.391
 4781SOL    HW115242   3.437   6.249   1.361
 4781SOL    HW215243   3.310   6.297   1.451
 4782SOL     OW15244   4.935   6.320   0.635
 4782SOL    HW115245   4.975   6.229   0.644
 4782SOL    HW215246   4.882   6.325   0.551
 4783SOL     OW15247   4.405   4.363   0.069
 4783SOL    HW115248   4.452   4.439   0.115
 4783SOL    HW215249   4.372   4.298   0.137
 4784SOL     OW15250   6.429   3.909   6.404
 4784SOL    HW115251   6.435   3.991   6.460
 4784SOL    HW215252   6.392   3.833   6.458
 4785SOL     OW15253   6.686   5.334   1.384
 4785SOL    HW115254   6.687   5.366   1.289
 4785SOL    HW215255   6.671   5.412   1.445
 4786SOL     OW15256   2.392   2.250   1.665
 4786SOL    HW115257   2.403   2.213   1.573
 4786SOL    HW215258   2.444   2.194   1.730
 4787SOL     OW15259   2.984   2.163   3.475
 4787SOL    HW115260   3.035   2.166   3.561
 4787SOL    HW215261   3.048   2.172   3.399
 4788SOL     OW15262   0.854   5.272   6.158
 4788SOL    HW115263   0.864   5.197   6.224
 4788SOL    HW215264   0.762   5.310   6.164
 4789SOL     OW15265   5.695   0.952   0.304
 4789SOL    HW115266   5.751   0.985   0.228
 4789SOL    HW215267   5.644   0.871   0.275
 4790SOL     OW15268   0.251   2.752   6.261
 4790SOL    HW115269   0.172   2.719   6.313
 4790SOL    HW215270   0.250   2.851   6.258
 4791SOL     OW15271   6.078   2.224   1.524
 4791SOL    HW115272   6.126   2.168   1.457
 4791SOL    HW215273   6.122   2.215   1.613
 4792SOL     OW15274   1.967   3.751   2.688
 4792SOL    HW115275   2.015   3.708   2.612
 4792SOL    HW215276   1.873   3.719   2.691
 4793SOL     OW15277   1.460   2.341   6.108
 4793SOL    HW115278   1.474   2.292   6.022
 4793SOL    HW215279   1.492   2.284   6.184
 4794SOL     OW15280   4.802   1.043   3.334
 4794SOL    HW115281   4.863   1.083   3.266
 4794SOL    HW215282   4.848   1.038   3.422
 4795SOL     OW15283   6.510   1.483   2.905
 4795SOL    HW115284   6.504   1.578   2.875
 4795SOL    HW215285   6.478   1.423   2.832
 4796SOL     OW15286   5.113   2.529   6.258
 4796SOL    HW115287   5.088   2.504   6.165
 4796SOL    HW215288   5.190   2.592   6.256
 4797SOL     OW15289   1.664   6.217   5.470
 4797SOL    HW115290   1.760   6.188   5.475
 4797SOL    HW215291   1.652   6.279   5.393
 4798SOL     OW15292   0.431   2.899   5.262
 4798SOL    HW115293   0.503   2.847   5.216
 4798SOL    HW215294   0.364   2.930   5.195
 4799SOL     OW15295   4.844   2.193   6.495
 4799SOL    HW115296   4.780   2.264   6.524
 4799SOL    HW215297   4.847   2.188   6.396
 4800SOL     OW15298   2.434   3.460   5.716
 4800SOL    HW115299   2.373   3.411   5.654
 4800SOL    HW215300   2.433   3.414   5.805
 4801SOL     OW15301   2.700   2.963   0.715
 4801SOL    HW115302   2.678   2.877   0.761
 4801SOL    HW215303   2.653   2.967   0.627
 4802SOL     OW15304   0.899   6.532   2.189
 4802SOL    HW115305   0.908   6.529   2.089
 4802SOL    HW215306   0.959   6.603   2.225
 4803SOL     OW15307   1.245   6.330   0.520
 4803SOL    HW115308   1.159   6.381   0.518
 4803SOL    HW215309   1.226   6.234   0.543
 4804SOL     OW15310   5.049   5.238   6.375
 4804SOL    HW115311   4.997   5.198   6.298
 4804SOL    HW215312   5.084   5.327   6.348
 4805SOL     OW15313   6.295   7.018   1.102
 4805SOL    HW115314   6.198   0.018   1.095
 4805SOL    HW215315   6.350   0.072   1.070
 4806SOL     OW15316   0.294   4.269   2.612
 4806SOL    HW115317   0.295   4.259   2.712
 4806SOL    HW215318   0.227   4.206   2.573
 4807SOL     OW15319   1.337   4.838   0.727
 4807SOL    HW115320   1.396   4.888   0.790
 4807SOL    HW215321   1.342   4.741   0.747
 4808SOL     OW15322   6.381   3.764   6.794
 4808SOL    HW115323   6.418   3.771   6.887
 4808SOL    HW215324   6.309   3.832   6.782
 4809SOL     OW15325   3.492   4.028   6.593
 4809SOL    HW115326   3.560   3.984   6.652
 4809SOL    HW215327   3.436   4.090   6.648
 4810SOL     OW15328   1.312   5.302   2.062
 4810SOL    HW115329   1.323   5.365   2.139
 4810SOL    HW215330   1.374   5.224   2.074
 4811SOL     OW15331   1.856   4.779   2.025
 4811SOL    HW115332   1.860   4.851   2.093
 4811SOL    HW215333   1.829   4.693   2.068
 4812SOL     OW15334   0.239   5.024   5.230
 4812SOL    HW115335   0.194   5.079   5.161
 4812SOL    HW215336   0.330   4.998   5.198
 4813SOL     OW15337   5.164   2.142   0.986
 4813SOL    HW115338   5.193   2.083   1.061
 4813SOL    HW215339   5.199   2.107   0.900
 4814SOL     OW15340   5.517   4.273   0.571
 4814SOL    HW115341   5.554   4.305   0.484
 4814SOL    HW215342   5.473   4.350   0.619
 4815SOL     OW15343   5.589   4.272   2.987
 4815SOL    HW115344   5.580   4.371   2.981
 4815SOL    HW215345   5.662   4.249   3.052
 4816SOL     OW15346   6.984   5.173   2.651
 4816SOL    HW115347   6.890   5.204   2.637
 4816SOL    HW215348   7.016   5.205   2.741
 4817SOL     OW15349   1.269   1.937   6.574
 4817SOL    HW115350   1.232   2.020   6.531
 4817SOL    HW215351   1.361   1.956   6.608
 4818SOL     OW15352   0.802   0.351   4.832
 4818SOL    HW115353   0.783   0.387   4.924
 4818SOL    HW215354   0.740   0.276   4.812
 4819SOL     OW15355   0.891   2.510   7.004
 4819SOL    HW115356   0.945   2.434   0.015
 4819SOL    HW215357   0.945   2.563   6.939
 4820SOL     OW15358   6.813   2.561   1.275
 4820SOL    HW115359   6.890   2.563   1.338
 4820SOL    HW215360   6.731   2.595   1.322
 4821SOL     OW15361   1.045   6.138   2.316
 4821SOL    HW115362   1.121   6.154   2.379
 4821SOL    HW215363   0.980   6.214   2.323
 4822SOL     OW15364   1.257   3.423   4.641
 4822SOL    HW115365   1.270   3.516   4.674
 4822SOL    HW215366   1.336   3.396   4.586
 4823SOL     OW15367   1.743   1.418   4.108
 4823SOL    HW115368   1.678   1.420   4.031
 4823SOL    HW215369   1.694   1.400   4.193
 4824SOL     OW15370   5.000   2.137   5.387
 4824SOL    HW115371   5.081   2.193   5.370
 4824SOL    HW215372   4.955   2.167   5.471
 4825SOL     OW15373   1.290   2.487   4.488
 4825SOL    HW115374   1.211   2.439   4.449
 4825SOL    HW215375   1.373   2.435   4.469
 4826SOL     OW15376   5.536   0.501   0.479
 4826SOL    HW115377   5.501   0.577   0.534
 4826SOL    HW215378   5.482   0.419   0.497
 4827SOL     OW15379   6.488   2.087   0.741
 4827SOL    HW115380   6.456   2.024   0.812
 4827SOL    HW215381   6.521   2.034   0.662
 4828SOL     OW15382   5.077   1.409   1.338
 4828SOL    HW115383   5.122   1.358   1.411
 4828SOL    HW215384   5.046   1.345   1.267
 4829SOL     OW15385   3.546   0.652   6.159
 4829SOL    HW115386   3.489   0.647   6.241
 4829SOL    HW215387   3.607   0.731   6.166
 4830SOL     OW15388   3.573   5.514   3.961
 4830SOL    HW115389   3.519   5.593   3.991
 4830SOL    HW215390   3.624   5.538   3.879
 4831SOL     OW15391   1.500   4.759   5.316
 4831SOL    HW115392   1.482   4.808   5.401
 4831SOL    HW215393   1.475   4.663   5.326
 4832SOL     OW15394   3.130   4.059   3.795
 4832SOL    HW115395   3.191   4.118   3.848
 4832SOL    HW215396   3.155   4.062   3.699
 4833SOL     OW15397   5.984   1.842   2.759
 4833SOL    HW115398   5.922   1.843   2.680
 4833SOL    HW215399   6.077   1.826   2.728
 4834SOL     OW15400   2.558   5.722   2.200
 4834SOL    HW115401   2.482   5.745   2.260
 4834SOL    HW215402   2.644   5.726   2.252
 4835SOL     OW15403   6.018   3.348   5.872
 4835SOL    HW115404   5.936   3.406   5.876
 4835SOL    HW215405   6.099   3.406   5.863
 4836SOL     OW15406   5.107   1.717   4.674
 4836SOL    HW115407   5.173   1.697   4.747
 4836SOL    HW215408   5.149   1.698   4.585
 4837SOL     OW15409   6.846   3.603   2.769
 4837SOL    HW115410   6.853   3.549   2.685
 4837SOL    HW215411   6.893   3.555   2.844
 4838SOL     OW15412   2.168   5.884   0.201
 4838SOL    HW115413   2.260   5.856   0.228
 4838SOL    HW215414   2.170   5.980   0.172
 4839SOL     OW15415   1.299   3.124   0.162
 4839SOL    HW115416   1.285   3.026   0.143
 4839SOL    HW215417   1.225   3.156   0.221
 4840SOL     OW15418   6.217   4.457   5.777
 4840SOL    HW115419   6.146   4.398   5.816
 4840SOL    HW215420   6.175   4.540   5.740
 4841SOL     OW15421   2.516   4.982   3.025
 4841SOL    HW115422   2.432   4.936   3.055
 4841SOL    HW215423   2.494   5.060   2.967
 4842SOL     OW15424   2.752   5.084   3.450
 4842SOL    HW115425   2.823   5.037   3.398
 4842SOL    HW215426   2.682   5.119   3.388
 4843SOL     OW15427   6.753   2.685   1.831
 4843SOL    HW115428   6.718   2.607   1.883
 4843SOL    HW215429   6.853   2.683   1.832
 4844SOL     OW15430   7.020   4.277   5.517
 4844SOL    HW115431   6.974   4.319   5.439
 4844SOL    HW215432   6.952   4.254   5.587
 4845SOL     OW15433   4.515   5.152   6.214
 4845SOL    HW115434   4.449   5.093   6.261
 4845SOL    HW215435   4.482   5.246   6.214
 4846SOL     OW15436   0.281   1.649   3.679
 4846SOL    HW115437   0.323   1.646   3.589
 4846SOL    HW215438   0.209   1.719   3.680
 4847SOL     OW15439   2.408   1.833   5.535
 4847SOL    HW115440   2.377   1.878   5.452
 4847SOL    HW215441   2.375   1.883   5.615
 4848SOL     OW15442   2.386   1.552   4.678
 4848SOL    HW115443   2.440   1.486   4.731
 4848SOL    HW215444   2.432   1.571   4.591
 4849SOL     OW15445   1.914   6.013   0.839
 4849SOL    HW115446   1.851   5.998   0.915
 4849SOL    HW215447   1.913   6.109   0.812
 4850SOL     OW15448   5.324   1.025   1.058
 4850SOL    HW115449   5.320   0.929   1.030
 4850SOL    HW215450   5.393   1.073   1.003
 4851SOL     OW15451   3.566   5.435   6.077
 4851SOL    HW115452   3.508   5.516   6.087
 4851SOL    HW215453   3.570   5.409   5.981
 4852SOL     OW15454   2.639   5.583   4.935
 4852SOL    HW115455   2.712   5.651   4.930
 4852SOL    HW215456   2.607   5.577   5.030
 4853SOL     OW15457   3.821   1.830   3.507
 4853SOL    HW115458   3.751   1.844   3.576
 4853SOL    HW215459   3.782   1.847   3.416
 4854SOL     OW15460   4.764   0.061   1.562
 4854SOL    HW115461   4.861   0.058   1.535
 4854SOL    HW215462   4.720   0.138   1.516
 4855SOL     OW15463   6.240   3.755   4.993
 4855SOL    HW115464   6.233   3.788   4.899
 4855SOL    HW215465   6.153   3.713   5.019
 4856SOL     OW15466   1.105   3.001   2.801
 4856SOL    HW115467   1.069   2.913   2.831
 4856SOL    HW215468   1.165   3.038   2.872
 4857SOL     OW15469   3.037   1.753   3.259
 4857SOL    HW115470   3.103   1.752   3.184
 4857SOL    HW215471   2.960   1.810   3.235
 4858SOL     OW15472   0.353   6.678   4.843
 4858SOL    HW115473   0.255   6.678   4.820
 4858SOL    HW215474   0.372   6.754   4.905
 4859SOL     OW15475   0.816   5.224   2.072
 4859SOL    HW115476   0.767   5.309   2.051
 4859SOL    HW215477   0.759   5.146   2.046
 4860SOL     OW15478   4.213   4.699   0.262
 4860SOL    HW115479   4.135   4.668   0.206
 4860SOL    HW215480   4.186   4.780   0.314
 4861SOL     OW15481   5.781   5.518   6.339
 4861SOL    HW115482   5.748   5.522   6.244
 4861SOL    HW215483   5.852   5.448   6.346
 4862SOL     OW15484   2.365   4.475   4.707
 4862SOL    HW115485   2.313   4.432   4.781
 4862SOL    HW215486   2.430   4.541   4.745
 4863SOL     OW15487   4.889   3.325   2.758
 4863SOL    HW115488   4.903   3.392   2.685
 4863SOL    HW215489   4.843   3.244   2.721
 4864SOL     OW15490   3.535   1.578   1.761
 4864SOL    HW115491   3.596   1.657   1.764
 4864SOL    HW215492   3.498   1.568   1.669
 4865SOL     OW15493   2.645   5.917   5.121
 4865SOL    HW115494   2.636   5.975   5.202
 4865SOL    HW215495   2.673   5.825   5.149
 4866SOL     OW15496   5.618   4.530   1.202
 4866SOL    HW115497   5.586   4.614   1.245
 4866SOL    HW215498   5.689   4.488   1.259
 4867SOL     OW15499   4.254   5.528   3.521
 4867SOL    HW115500   4.329   5.591   3.502
 4867SOL    HW215501   4.215   5.496   3.435
 4868SOL     OW15502   0.484   5.869   1.793
 4868SOL    HW115503   0.417   5.875   1.866
 4868SOL    HW215504   0.570   5.832   1.829
 4869SOL     OW15505   6.946   2.668   0.955
 4869SOL    HW115506   6.861   2.710   0.985
 4869SOL    HW215507   6.930   2.573   0.930
 4870SOL     OW15508   4.876   5.213   1.663
 4870SOL    HW115509   4.845   5.216   1.568
 4870SOL    HW215510   4.805   5.252   1.722
 4871SOL     OW15511   0.696   0.548   4.681
 4871SOL    HW115512   0.694   0.510   4.588
 4871SOL    HW215513   0.753   0.490   4.739
 4872SOL     OW15514   0.820   6.581   4.203
 4872SOL    HW115515   0.894   6.591   4.137
 4872SOL    HW215516   0.858   6.560   4.293
 4873SOL     OW15517   0.183   4.537   3.772
 4873SOL    HW115518   0.164   4.633   3.752
 4873SOL    HW215519   0.282   4.522   3.777
 4874SOL     OW15520   6.087   3.436   2.195
 4874SOL    HW115521   6.131   3.515   2.154
 4874SOL    HW215522   6.141   3.405   2.274
 4875SOL     OW15523   5.450   3.012   0.862
 4875SOL    HW115524   5.476   3.095   0.910
 4875SOL    HW215525   5.460   3.025   0.764
 4876SOL     OW15526   6.065   0.271   5.198
 4876SOL    HW115527   6.077   0.356   5.249
 4876SOL    HW215528   5.974   0.271   5.155
 4877SOL     OW15529   0.039   1.472   0.959
 4877SOL    HW115530   0.106   1.546   0.972
 4877SOL    HW215531   6.972   1.512   0.944
 4878SOL     OW15532   0.198   1.658   2.559
 4878SOL    HW115533   0.181   1.751   2.592
 4878SOL    HW215534   0.270   1.616   2.615
 4879SOL     OW15535   4.409   4.921   3.326
 4879SOL    HW115536   4.401   5.013   3.287
 4879SOL    HW215537   4.410   4.927   3.426
 4880SOL     OW15538   4.865   2.631   6.650
 4880SOL    HW115539   4.771   2.659   6.669
 4880SOL    HW215540   4.868   2.583   6.562
 4881SOL     OW15541   2.054   5.665   6.944
 4881SOL    HW115542   2.153   5.655   6.939
 4881SOL    HW215543   2.026   5.680   0.015
 4882SOL     OW15544   6.157   1.482   5.186
 4882SOL    HW115545   6.194   1.547   5.120
 4882SOL    HW215546   6.058   1.491   5.189
 4883SOL     OW15547   4.889   5.129   2.562
 4883SOL    HW115548   4.823   5.155   2.632
 4883SOL    HW215549   4.959   5.070   2.601
 4884SOL     OW15550   4.502   0.205   0.835
 4884SOL    HW115551   4.502   0.114   0.876
 4884SOL    HW215552   4.429   0.211   0.767
 4885SOL     OW15553   2.914   6.342   2.687
 4885SOL    HW115554   2.831   6.397   2.674
 4885SOL    HW215555   2.974   6.387   2.753
 4886SOL     OW15556   0.560   6.436   6.104
 4886SOL    HW115557   0.470   6.479   6.109
 4886SOL    HW215558   0.591   6.414   6.196
 4887SOL     OW15559   0.134   1.442   3.046
 4887SOL    HW115560   0.202   1.475   2.981
 4887SOL    HW215561   0.179   1.386   3.116
 4888SOL     OW15562   1.828   6.293   3.768
 4888SOL    HW115563   1.900   6.289   3.838
 4888SOL    HW215564   1.821   6.386   3.733
 4889SOL     OW15565   0.517   1.586   0.147
 4889SOL    HW115566   0.610   1.604   0.115
 4889SOL    HW215567   0.520   1.547   0.239
 4890SOL     OW15568   0.460   1.762   4.415
 4890SOL    HW115569   0.465   1.845   4.470
 4890SOL    HW215570   0.371   1.718   4.429
 4891SOL     OW15571   1.111   5.816   6.885
 4891SOL    HW115572   1.047   5.760   6.832
 4891SOL    HW215573   1.061   5.868   6.954
 4892SOL     OW15574   2.102   5.673   2.185
 4892SOL    HW115575   2.028   5.661   2.118
 4892SOL    HW215576   2.072   5.736   2.257
 4893SOL     OW15577   6.493   4.449   6.356
 4893SOL    HW115578   6.588   4.430   6.381
 4893SOL    HW215579   6.436   4.442   6.438
 4894SOL     OW15580   2.801   0.298   2.424
 4894SOL    HW115581   2.704   0.277   2.409
 4894SOL    HW215582   2.810   0.392   2.455
 4895SOL     OW15583   0.723   4.410   1.395
 4895SOL    HW115584   0.811   4.446   1.364
 4895SOL    HW215585   0.707   4.320   1.352
 4896SOL     OW15586   3.013   5.121   2.862
 4896SOL    HW115587   3.038   5.025   2.856
 4896SOL    HW215588   2.915   5.131   2.846
 4897SOL     OW15589   2.576   5.096   5.944
 4897SOL    HW115590   2.552   5.013   5.993
 4897SOL    HW215591   2.592   5.075   5.848
 4898SOL     OW15592   5.988   1.899   5.087
 4898SOL    HW115593   5.989   1.927   4.991
 4898SOL    HW215594   6.041   1.965   5.141
 4899SOL     OW15595   6.663   4.550   2.568
 4899SOL    HW115596   6.728   4.619   2.597
 4899SOL    HW215597   6.637   4.493   2.646
 4900SOL     OW15598   1.910   6.444   5.891
 4900SOL    HW115599   1.879   6.476   5.802
 4900SOL    HW215600   2.001   6.404   5.883
 4901SOL     OW15601   2.640   6.727   5.043
 4901SOL    HW115602   2.700   6.647   5.043
 4901SOL    HW215603   2.545   6.698   5.030
 4902SOL     OW15604   2.295   2.694   3.983
 4902SOL    HW115605   2.218   2.649   4.029
 4902SOL    HW215606   2.331   2.766   4.043
 4903SOL     OW15607   3.615   6.392   6.899
 4903SOL    HW115608   3.599   6.308   6.951
 4903SOL    HW215609   3.589   6.378   6.804
 4904SOL     OW15610   2.127   6.741   4.053
 4904SOL    HW115611   2.126   6.814   3.984
 4904SOL    HW215612   2.216   6.696   4.053
 4905SOL     OW15613   4.300   2.341   2.319
 4905SOL    HW115614   4.359   2.354   2.239
 4905SOL    HW215615   4.207   2.320   2.288
 4906SOL     OW15616   3.699   0.618   0.092
 4906SOL    HW115617   3.600   0.633   0.090
 4906SOL    HW215618   3.740   0.653   0.008
 4907SOL     OW15619   4.245   6.510   2.640
 4907SOL    HW115620   4.247   6.419   2.597
 4907SOL    HW215621   4.159   6.522   2.689
 4908SOL     OW15622   3.801   5.476   0.125
 4908SOL    HW115623   3.838   5.396   0.172
 4908SOL    HW215624   3.825   5.559   0.175
 4909SOL     OW15625   6.026   0.209   6.605
 4909SOL    HW115626   5.994   0.132   6.660
 4909SOL    HW215627   6.041   0.180   6.511
 4910SOL     OW15628   5.777   6.959   5.368
 4910SOL    HW115629   5.772   6.930   5.272
 4910SOL    HW215630   5.685   6.961   5.407
 4911SOL     OW15631   0.173   2.440   5.478
 4911SOL    HW115632   0.097   2.498   5.508
 4911SOL    HW215633   0.237   2.494   5.424
 4912SOL     OW15634   4.921   1.659   1.532
 4912SOL    HW115635   4.965   1.676   1.444
 4912SOL    HW215636   4.954   1.572   1.569
 4913SOL     OW15637   3.869   3.438   3.995
 4913SOL    HW115638   3.949   3.496   3.982
 4913SOL    HW215639   3.807   3.481   4.061
 4914SOL     OW15640   3.270   0.774   4.797
 4914SOL    HW115641   3.229   0.687   4.771
 4914SOL    HW215642   3.256   0.840   4.723
 4915SOL     OW15643   4.489   0.049   4.410
 4915SOL    HW115644   4.573   0.012   4.370
 4915SOL    HW215645   4.510   0.128   4.467
 4916SOL     OW15646   1.987   1.638   3.177
 4916SOL    HW115647   2.066   1.602   3.227
 4916SOL    HW215648   2.000   1.625   3.079
 4917SOL     OW15649   1.511   3.833   0.373
 4917SOL    HW115650   1.506   3.893   0.293
 4917SOL    HW215651   1.562   3.751   0.349
 4918SOL     OW15652   3.063   0.128   2.808
 4918SOL    HW115653   3.107   0.207   2.851
 4918SOL    HW215654   3.114   0.101   2.726
 4919SOL     OW15655   2.283   2.299   2.521
 4919SOL    HW115656   2.245   2.217   2.565
 4919SOL    HW215657   2.305   2.366   2.591
 4920SOL     OW15658   4.356   0.129   0.219
 4920SOL    HW115659   4.377   0.186   0.299
 4920SOL    HW215660   4.364   0.033   0.243
 4921SOL     OW15661   2.363   4.456   1.490
 4921SOL    HW115662   2.395   4.440   1.397
 4921SOL    HW215663   2.280   4.404   1.506
 4922SOL     OW15664   1.100   3.325   5.097
 4922SOL    HW115665   1.091   3.421   5.071
 4922SOL    HW215666   1.187   3.289   5.063
 4923SOL     OW15667   4.648   1.085   0.936
 4923SOL    HW115668   4.684   1.173   0.968
 4923SOL    HW215669   4.670   1.074   0.839
 4924SOL     OW15670   2.080   3.266   5.178
 4924SOL    HW115671   2.175   3.276   5.207
 4924SOL    HW215672   2.049   3.172   5.194
 4925SOL     OW15673   6.246   6.412   0.441
 4925SOL    HW115674   6.190   6.342   0.486
 4925SOL    HW215675   6.313   6.448   0.505
 4926SOL     OW15676   5.496   2.626   1.435
 4926SOL    HW115677   5.485   2.601   1.339
 4926SOL    HW215678   5.587   2.598   1.467
 4927SOL     OW15679   3.982   3.402   3.523
 4927SOL    HW115680   3.926   3.484   3.507
 4927SOL    HW215681   4.008   3.399   3.620
 4928SOL     OW15682   0.160   0.019   6.677
 4928SOL    HW115683   0.194   0.033   6.584
 4928SOL    HW215684   0.124   6.950   6.685
 4929SOL     OW15685   0.885   4.076   5.001
 4929SOL    HW115686   0.890   4.123   4.912
 4929SOL    HW215687   0.860   4.141   5.072
 4930SOL     OW15688   6.965   0.537   1.012
 4930SOL    HW115689   6.925   0.623   0.982
 4930SOL    HW215690   6.982   0.479   0.932
 4931SOL     OW15691   0.729   6.663   0.112
 4931SOL    HW115692   0.698   6.589   0.052
 4931SOL    HW215693   0.669   6.667   0.192
 4932SOL     OW15694   2.092   3.306   1.790
 4932SOL    HW115695   2.138   3.370   1.852
 4932SOL    HW215696   2.161   3.251   1.742
 4933SOL     OW15697   2.070   0.370   4.294
 4933SOL    HW115698   2.160   0.359   4.337
 4933SOL    HW215699   2.014   0.289   4.311
 4934SOL     OW15700   1.015   5.042   3.856
 4934SOL    HW115701   0.937   5.084   3.904
 4934SOL    HW215702   1.096   5.045   3.915
 4935SOL     OW15703   2.187   0.731   0.131
 4935SOL    HW115704   2.126   0.739   0.052
 4935SOL    HW215705   2.215   0.822   0.162
 4936SOL     OW15706   2.007   5.872   2.368
 4936SOL    HW115707   1.956   5.957   2.382
 4936SOL    HW215708   2.001   5.816   2.450
 4937SOL     OW15709   0.439   3.821   5.921
 4937SOL    HW115710   0.410   3.837   5.827
 4937SOL    HW215711   0.529   3.863   5.936
 4938SOL     OW15712   3.485   4.973   1.879
 4938SOL    HW115713   3.533   4.892   1.914
 4938SOL    HW215714   3.542   5.019   1.812
 4939SOL     OW15715   0.797   1.971   2.632
 4939SOL    HW115716   0.748   1.919   2.562
 4939SOL    HW215717   0.848   2.045   2.589
 4940SOL     OW15718   6.889   1.897   5.308
 4940SOL    HW115719   6.831   1.870   5.385
 4940SOL    HW215720   6.909   1.816   5.252
 4941SOL     OW15721   3.920   2.639   5.355
 4941SOL    HW115722   3.928   2.739   5.351
 4941SOL    HW215723   3.986   2.597   5.293
 4942SOL     OW15724   5.110   3.436   4.333
 4942SOL    HW115725   5.169   3.443   4.253
 4942SOL    HW215726   5.165   3.414   4.414
 4943SOL     OW15727   5.575   3.629   6.497
 4943SOL    HW115728   5.619   3.553   6.546
 4943SOL    HW215729   5.476   3.621   6.506
 4944SOL     OW15730   2.360   4.386   1.213
 4944SOL    HW115731   2.279   4.375   1.155
 4944SOL    HW215732   2.413   4.301   1.212
 4945SOL     OW15733   1.391   0.646   4.443
 4945SOL    HW115734   1.307   0.596   4.463
 4945SOL    HW215735   1.380   0.695   4.356
 4946SOL     OW15736   1.031   5.530   0.177
 4946SOL    HW115737   1.058   5.592   0.251
 4946SOL    HW215738   1.097   5.455   0.172
 4947SOL     OW15739   2.302   1.386   2.116
 4947SOL    HW115740   2.261   1.434   2.039
 4947SOL    HW215741   2.352   1.452   2.173
 4948SOL     OW15742   1.473   2.746   3.293
 4948SOL    HW115743   1.548   2.792   3.246
 4948SOL    HW215744   1.394   2.740   3.232
 4949SOL     OW15745   0.251   3.851   5.440
 4949SOL    HW115746   0.347   3.867   5.460
 4949SOL    HW215747   0.209   3.936   5.408
 4950SOL     OW15748   1.766   4.167   5.212
 4950SOL    HW115749   1.773   4.265   5.193
 4950SOL    HW215750   1.771   4.151   5.310
 4951SOL     OW15751   6.277   6.804   4.507
 4951SOL    HW115752   6.323   6.778   4.422
 4951SOL    HW215753   6.331   6.872   4.555
 4952SOL     OW15754   0.652   6.843   6.266
 4952SOL    HW115755   0.565   6.865   6.310
 4952SOL    HW215756   0.667   6.905   6.189
 4953SOL     OW15757   2.082   0.365   3.827
 4953SOL    HW115758   2.095   0.450   3.777
 4953SOL    HW215759   2.148   0.359   3.902
 4954SOL     OW15760   2.564   3.732   6.364
 4954SOL    HW115761   2.533   3.801   6.300
 4954SOL    HW215762   2.535   3.756   6.456
 4955SOL     OW15763   3.183   5.994   0.053
 4955SOL    HW115764   3.165   6.013   0.149
 4955SOL    HW215765   3.278   6.018   0.031
 4956SOL     OW15766   2.428   0.136   5.441
 4956SOL    HW115767   2.476   0.223   5.430
 4956SOL    HW215768   2.393   0.129   5.534
 4957SOL     OW15769   5.810   3.541   0.757
 4957SOL    HW115770   5.858   3.487   0.826
 4957SOL    HW215771   5.858   3.533   0.669
 4958SOL     OW15772   2.015   5.894   5.991
 4958SOL    HW115773   2.047   5.799   6.000
 4958SOL    HW215774   1.917   5.897   6.006
 4959SOL     OW15775   6.357   1.413   1.662
 4959SOL    HW115776   6.285   1.371   1.607
 4959SOL    HW215777   6.321   1.492   1.711
 4960SOL     OW15778   4.488   4.568   3.762
 4960SOL    HW115779   4.523   4.489   3.713
 4960SOL    HW215780   4.486   4.549   3.860
 4961SOL     OW15781   2.702   0.705   6.171
 4961SOL    HW115782   2.793   0.672   6.145
 4961SOL    HW215783   2.633   0.661   6.114
 4962SOL     OW15784   5.277   2.971   1.074
 4962SOL    HW115785   5.324   2.968   0.986
 4962SOL    HW215786   5.231   2.883   1.089
 4963SOL     OW15787   1.803   5.225   1.186
 4963SOL    HW115788   1.799   5.284   1.106
 4963SOL    HW215789   1.896   5.189   1.197
 4964SOL     OW15790   2.063   0.286   4.761
 4964SOL    HW115791   1.986   0.227   4.738
 4964SOL    HW215792   2.047   0.378   4.726
 4965SOL     OW15793   1.009   6.876   2.744
 4965SOL    HW115794   1.084   6.810   2.742
 4965SOL    HW215795   0.930   6.838   2.696
 4966SOL     OW15796   2.740   6.441   5.101
 4966SOL    HW115797   2.676   6.400   5.166
 4966SOL    HW215798   2.712   6.419   5.007
 4967SOL     OW15799   2.919   5.335   5.934
 4967SOL    HW115800   2.941   5.393   6.012
 4967SOL    HW215801   2.894   5.244   5.966
 4968SOL     OW15802   0.013   1.202   3.663
 4968SOL    HW115803   7.020   1.238   3.571
 4968SOL    HW215804   0.005   1.276   3.730
 4969SOL     OW15805   0.885   6.061   2.720
 4969SOL    HW115806   0.935   5.976   2.739
 4969SOL    HW215807   0.812   6.041   2.655
 4970SOL     OW15808   2.172   1.363   1.526
 4970SOL    HW115809   2.217   1.319   1.448
 4970SOL    HW215810   2.113   1.437   1.494
 4971SOL     OW15811   6.268   5.859   3.038
 4971SOL    HW115812   6.344   5.922   3.026
 4971SOL    HW215813   6.188   5.910   3.072
 4972SOL     OW15814   1.038   3.853   0.621
 4972SOL    HW115815   0.985   3.782   0.573
 4972SOL    HW215816   1.097   3.900   0.555
 4973SOL     OW15817   0.559   0.204   1.549
 4973SOL    HW115818   0.559   0.201   1.649
 4973SOL    HW215819   0.466   0.221   1.517
 4974SOL     OW15820   5.890   5.037   0.439
 4974SOL    HW115821   5.990   5.031   0.440
 4974SOL    HW215822   5.861   5.119   0.391
 4975SOL     OW15823   5.338   4.046   0.576
 4975SOL    HW115824   5.286   4.018   0.657
 4975SOL    HW215825   5.432   4.069   0.604
 4976SOL     OW15826   0.919   0.755   5.111
 4976SOL    HW115827   1.000   0.814   5.104
 4976SOL    HW215828   0.837   0.810   5.093
 4977SOL     OW15829   3.999   5.361   6.736
 4977SOL    HW115830   4.084   5.320   6.769
 4977SOL    HW215831   3.979   5.326   6.644
 4978SOL     OW15832   5.428   4.836   4.161
 4978SOL    HW115833   5.485   4.771   4.112
 4978SOL    HW215834   5.379   4.789   4.234
 4979SOL     OW15835   0.015   6.643   6.497
 4979SOL    HW115836   0.102   6.693   6.489
 4979SOL    HW215837   0.015   6.567   6.432
 4980SOL     OW15838   5.601   5.521   2.711
 4980SOL    HW115839   5.533   5.451   2.729
 4980SOL    HW215840   5.567   5.610   2.742
 4981SOL     OW15841   3.711   5.405   2.545
 4981SOL    HW115842   3.643   5.359   2.602
 4981SOL    HW215843   3.680   5.498   2.524
 4982SOL     OW15844   2.845   2.496   5.878
 4982SOL    HW115845   2.860   2.473   5.782
 4982SOL    HW215846   2.933   2.507   5.924
 4983SOL     OW15847   5.453   4.054   4.524
 4983SOL    HW115848   5.386   3.981   4.510
 4983SOL    HW215849   5.441   4.092   4.616
 4984SOL     OW15850   4.884   4.043   2.792
 4984SOL    HW115851   4.980   4.072   2.797
 4984SOL    HW215852   4.826   4.123   2.780
 4985SOL     OW15853   5.625   6.533   3.308
 4985SOL    HW115854   5.534   6.568   3.334
 4985SOL    HW215855   5.686   6.541   3.387
 4986SOL     OW15856   6.455   5.213   0.311
 4986SOL    HW115857   6.475   5.185   0.405
 4986SOL    HW215858   6.450   5.131   0.252
 4987SOL     OW15859   1.397   6.357   2.275
 4987SOL    HW115860   1.331   6.331   2.346
 4987SOL    HW215861   1.388   6.455   2.256
 4988SOL     OW15862   6.120   0.732   3.033
 4988SOL    HW115863   6.139   0.826   3.004
 4988SOL    HW215864   6.190   0.703   3.098
 4989SOL     OW15865   4.978   6.769   1.559
 4989SOL    HW115866   4.906   6.795   1.623
 4989SOL    HW215867   5.058   6.828   1.573
 4990SOL     OW15868   3.120   2.341   6.575
 4990SOL    HW115869   3.210   2.367   6.538
 4990SOL    HW215870   3.117   2.242   6.587
 4991SOL     OW15871   6.592   5.401   3.634
 4991SOL    HW115872   6.618   5.304   3.631
 4991SOL    HW215873   6.640   5.446   3.708
 4992SOL     OW15874   5.440   0.422   2.392
 4992SOL    HW115875   5.452   0.376   2.304
 4992SOL    HW215876   5.513   0.395   2.454
 4993SOL     OW15877   4.180   6.047   4.896
 4993SOL    HW115878   4.168   5.948   4.889
 4993SOL    HW215879   4.265   6.067   4.944
 4994SOL     OW15880   2.221   5.928   4.408
 4994SOL    HW115881   2.146   5.931   4.474
 4994SOL    HW215882   2.305   5.899   4.454
 4995SOL     OW15883   0.971   0.933   5.464
 4995SOL    HW115884   0.983   0.898   5.371
 4995SOL    HW215885   1.055   0.977   5.495
 4996SOL     OW15886   0.137   0.589   3.168
 4996SOL    HW115887   0.103   0.645   3.244
 4996SOL    HW215888   0.130   0.641   3.083
 4997SOL     OW15889   4.264   2.467   1.657
 4997SOL    HW115890   4.277   2.370   1.673
 4997SOL    HW215891   4.177   2.481   1.607
 4998SOL     OW15892   1.870   3.604   4.600
 4998SOL    HW115893   1.961   3.563   4.592
 4998SOL    HW215894   1.860   3.645   4.691
 4999SOL     OW15895   7.007   3.436   4.623
 4999SOL    HW115896   0.074   3.411   4.586
 4999SOL    HW215897   7.006   3.534   4.644
 5000SOL     OW15898   3.036   0.073   3.143
 5000SOL    HW115899   3.069   0.152   3.194
 5000SOL    HW215900   3.055   7.013   3.195
 5001SOL     OW15901   0.949   5.677   1.975
 5001SOL    HW115902   0.930   5.672   2.073
 5001SOL    HW215903   1.015   5.606   1.950
 5002SOL     OW15904   0.340   4.804   2.203
 5002SOL    HW115905   0.323   4.796   2.104
 5002SOL    HW215906   0.438   4.817   2.219
 5003SOL     OW15907   3.716   6.150   2.958
 5003SOL    HW115908   3.767   6.195   2.885
 5003SOL    HW215909   3.775   6.084   3.005
 5004SOL     OW15910   2.323   4.451   5.912
 5004SOL    HW115911   2.398   4.406   5.864
 5004SOL    HW215912   2.236   4.428   5.868
 5005SOL     OW15913   2.623   3.164   6.126
 5005SOL    HW115914   2.694   3.165   6.056
 5005SOL    HW215915   2.665   3.175   6.216
 5006SOL     OW15916   5.677   0.952   1.552
 5006SOL    HW115917   5.590   0.969   1.504
 5006SOL    HW215918   5.710   1.038   1.592
 5007SOL     OW15919   0.190   0.062   1.101
 5007SOL    HW115920   0.193   0.091   1.006
 5007SOL    HW215921   0.265   0.106   1.151
 5008SOL     OW15922   5.973   5.977   1.593
 5008SOL    HW115923   6.019   6.066   1.602
 5008SOL    HW215924   5.889   5.978   1.647
 5009SOL     OW15925   0.103   2.124   6.837
 5009SOL    HW115926   0.200   2.141   6.854
 5009SOL    HW215927   0.073   2.047   6.893
 5010SOL     OW15928   4.135   2.544   0.608
 5010SOL    HW115929   4.111   2.508   0.699
 5010SOL    HW215930   4.234   2.536   0.594
 5011SOL     OW15931   1.983   4.619   1.809
 5011SOL    HW115932   2.011   4.528   1.842
 5011SOL    HW215933   1.938   4.669   1.884
 5012SOL     OW15934   6.033   2.498   4.841
 5012SOL    HW115935   6.062   2.445   4.761
 5012SOL    HW215936   5.991   2.583   4.811
 5013SOL     OW15937   5.365   1.735   6.290
 5013SOL    HW115938   5.399   1.642   6.275
 5013SOL    HW215939   5.367   1.756   6.387
 5014SOL     OW15940   6.342   4.351   0.517
 5014SOL    HW115941   6.413   4.331   0.584
 5014SOL    HW215942   6.259   4.301   0.540
 5015SOL     OW15943   4.858   1.048   4.932
 5015SOL    HW115944   4.764   1.061   4.901
 5015SOL    HW215945   4.858   1.030   5.031
 5016SOL     OW15946   1.424   3.017   5.140
 5016SOL    HW115947   1.363   3.077   5.087
 5016SOL    HW215948   1.457   2.943   5.082
 5017SOL     OW15949   1.505   2.960   1.182
 5017SOL    HW115950   1.539   2.948   1.275
 5017SOL    HW215951   1.563   2.908   1.119
 5018SOL     OW15952   1.020   5.066   2.597
 5018SOL    HW115953   0.991   4.984   2.646
 5018SOL    HW215954   1.086   5.116   2.652
 5019SOL     OW15955   2.113   6.088   5.813
 5019SOL    HW115956   2.133   6.042   5.726
 5019SOL    HW215957   2.071   6.022   5.876
 5020SOL     OW15958   6.497   7.022   6.323
 5020SOL    HW115959   6.563   6.980   6.260
 5020SOL    HW215960   6.417   6.962   6.332
 5021SOL     OW15961   0.998   1.323   0.784
 5021SOL    HW115962   1.012   1.411   0.740
 5021SOL    HW215963   0.964   1.257   0.716
 5022SOL     OW15964   1.885   2.818   1.403
 5022SOL    HW115965   1.931   2.906   1.391
 5022SOL    HW215966   1.916   2.754   1.332
 5023SOL     OW15967   0.502   3.917   1.895
 5023SOL    HW115968   0.554   3.843   1.937
 5023SOL    HW215969   0.553   3.954   1.817
 5024SOL     OW15970   6.130   5.730   1.228
 5024SOL    HW115971   6.211   5.781   1.254
 5024SOL    HW215972   6.054   5.793   1.210
 5025SOL     OW15973   4.378   2.410   3.672
 5025SOL    HW115974   4.390   2.469   3.592
 5025SOL    HW215975   4.292   2.360   3.663
 5026SOL     OW15976   6.708   6.042   5.662
 5026SOL    HW115977   6.791   5.988   5.649
 5026SOL    HW215978   6.643   6.020   5.589
 5027SOL     OW15979   6.506   6.554   1.153
 5027SOL    HW115980   6.556   6.634   1.186
 5027SOL    HW215981   6.500   6.486   1.225
 5028SOL     OW15982   0.266   1.534   2.814
 5028SOL    HW115983   0.298   1.460   2.756
 5028SOL    HW215984   0.344   1.580   2.856
 5029SOL     OW15985   6.027   2.846   2.355
 5029SOL    HW115986   6.058   2.877   2.445
 5029SOL    HW215987   5.949   2.902   2.327
 5030SOL     OW15988   0.079   6.167   6.979
 5030SOL    HW115989   0.059   6.070   6.971
 5030SOL    HW215990   0.133   6.197   6.900
 5031SOL     OW15991   6.810   1.480   5.961
 5031SOL    HW115992   6.728   1.469   6.015
 5031SOL    HW215993   6.876   1.408   5.983
 5032SOL     OW15994   2.707   1.989   5.847
 5032SOL    HW115995   2.734   2.046   5.770
 5032SOL    HW215996   2.639   2.037   5.903
 5033SOL     OW15997   2.089   0.028   6.427
 5033SOL    HW115998   2.047   0.118   6.414
 5033SOL    HW215999   2.067   6.993   6.349
 5034SOL     OW16000   6.194   0.084   3.568
 5034SOL    HW116001   6.143   7.021   3.561
 5034SOL    HW216002   6.274   0.070   3.627
 5035SOL     OW16003   6.845   4.187   5.742
 5035SOL    HW116004   6.920   4.122   5.737
 5035SOL    HW216005   6.779   4.158   5.811
 5036SOL     OW16006   0.157   5.016   6.786
 5036SOL    HW116007   0.086   5.061   6.731
 5036SOL    HW216008   0.118   4.987   6.874
 5037SOL     OW16009   5.334   4.365   1.865
 5037SOL    HW116010   5.291   4.344   1.953
 5037SOL    HW216011   5.379   4.454   1.870
 5038SOL     OW16012   3.275   3.223   5.207
 5038SOL    HW116013   3.269   3.303   5.147
 5038SOL    HW216014   3.278   3.253   5.302
 5039SOL     OW16015   1.932   3.820   5.706
 5039SOL    HW116016   2.015   3.810   5.651
 5039SOL    HW216017   1.873   3.741   5.692
 5040SOL     OW16018   1.350   6.179   6.193
 5040SOL    HW116019   1.390   6.212   6.278
 5040SOL    HW216020   1.399   6.219   6.115
 5041SOL     OW16021   1.281   2.039   2.247
 5041SOL    HW116022   1.350   2.060   2.178
 5041SOL    HW216023   1.325   2.015   2.333
 5042SOL     OW16024   6.207   3.350   0.445
 5042SOL    HW116025   6.229   3.269   0.390
 5042SOL    HW216026   6.130   3.398   0.404
 5043SOL     OW16027   3.862   0.123   0.127
 5043SOL    HW116028   3.773   0.097   0.162
 5043SOL    HW216029   3.874   0.222   0.135
 5044SOL     OW16030   0.180   6.114   0.829
 5044SOL    HW116031   0.088   6.104   0.866
 5044SOL    HW216032   0.181   6.192   0.765
 5045SOL     OW16033   6.091   6.474   6.467
 5045SOL    HW116034   6.157   6.541   6.501
 5045SOL    HW216035   6.013   6.523   6.426
 5046SOL     OW16036   3.404   3.982   2.822
 5046SOL    HW116037   3.376   3.890   2.849
 5046SOL    HW216038   3.369   4.003   2.731
 5047SOL     OW16039   1.215   3.969   2.469
 5047SOL    HW116040   1.196   4.002   2.561
 5047SOL    HW216041   1.130   3.940   2.426
 5048SOL     OW16042   1.186   1.279   2.802
 5048SOL    HW116043   1.251   1.284   2.878
 5048SOL    HW216044   1.234   1.254   2.718
 5049SOL     OW16045   5.113   2.109   7.014
 5049SOL    HW116046   5.136   2.012   7.010
 5049SOL    HW216047   5.033   2.126   6.957
 5050SOL     OW16048   2.005   0.311   1.203
 5050SOL    HW116049   1.994   0.235   1.267
 5050SOL    HW216050   1.920   0.324   1.152
 5051SOL     OW16051   4.447   4.030   1.185
 5051SOL    HW116052   4.537   4.044   1.228
 5051SOL    HW216053   4.406   4.119   1.164
 5052SOL     OW16054   2.532   1.397   5.615
 5052SOL    HW116055   2.529   1.299   5.595
 5052SOL    HW216056   2.471   1.445   5.552
 5053SOL     OW16057   1.825   3.931   3.801
 5053SOL    HW116058   1.729   3.909   3.786
 5053SOL    HW216059   1.851   3.907   3.894
 5054SOL     OW16060   3.377   4.910   3.850
 5054SOL    HW116061   3.362   4.853   3.931
 5054SOL    HW216062   3.310   4.983   3.848
 5055SOL     OW16063   1.236   2.085   5.888
 5055SOL    HW116064   1.158   2.054   5.834
 5055SOL    HW216065   1.273   2.169   5.849
 5056SOL     OW16066   5.608   4.063   7.016
 5056SOL    HW116067   5.621   4.037   6.921
 5056SOL    HW216068   5.592   3.981   0.048
 5057SOL     OW16069   0.682   6.858   3.585
 5057SOL    HW116070   0.616   6.927   3.614
 5057SOL    HW216071   0.679   6.780   3.647
 5058SOL     OW16072   3.059   4.073   5.276
 5058SOL    HW116073   3.087   3.986   5.317
 5058SOL    HW216074   3.052   4.063   5.177
 5059SOL     OW16075   6.678   0.743   3.010
 5059SOL    HW116076   6.688   0.656   2.961
 5059SOL    HW216077   6.676   0.726   3.108
 5060SOL     OW16078   0.307   2.043   5.934
 5060SOL    HW116079   0.366   2.000   5.865
 5060SOL    HW216080   0.354   2.123   5.973
 5061SOL     OW16081   4.563   2.936   0.952
 5061SOL    HW116082   4.508   2.954   1.034
 5061SOL    HW216083   4.652   2.900   0.980
 5062SOL     OW16084   6.548   0.117   3.458
 5062SOL    HW116085   6.588   0.040   3.409
 5062SOL    HW216086   6.516   0.086   3.548
 5063SOL     OW16087   0.995   6.915   2.442
 5063SOL    HW116088   0.924   6.911   2.511
 5063SOL    HW216089   1.058   6.991   2.464
 5064SOL     OW16090   5.231   3.911   0.801
 5064SOL    HW116091   5.290   3.835   0.772
 5064SOL    HW216092   5.203   3.897   0.896
 5065SOL     OW16093   2.796   0.700   5.234
 5065SOL    HW116094   2.830   0.771   5.296
 5065SOL    HW216095   2.855   0.694   5.154
 5066SOL     OW16096   5.165   4.452   2.542
 5066SOL    HW116097   5.076   4.437   2.498
 5066SOL    HW216098   5.214   4.526   2.494
 5067SOL     OW16099   4.510   1.175   1.674
 5067SOL    HW116100   4.566   1.221   1.606
 5067SOL    HW216101   4.470   1.092   1.633
 5068SOL     OW16102   2.777   4.011   0.825
 5068SOL    HW116103   2.755   3.927   0.875
 5068SOL    HW216104   2.840   4.067   0.880
 5069SOL     OW16105   1.851   3.669   5.148
 5069SOL    HW116106   1.813   3.760   5.135
 5069SOL    HW216107   1.909   3.645   5.070
 5070SOL     OW16108   4.872   4.183   4.217
 5070SOL    HW116109   4.889   4.097   4.265
 5070SOL    HW216110   4.799   4.233   4.263
 5071SOL     OW16111   4.714   2.031   4.596
 5071SOL    HW116112   4.784   1.965   4.567
 5071SOL    HW216113   4.758   2.117   4.622
 5072SOL     OW16114   0.824   6.518   0.591
 5072SOL    HW116115   0.887   6.452   0.633
 5072SOL    HW216116   0.765   6.470   0.526
 5073SOL     OW16117   0.259   6.631   2.590
 5073SOL    HW116118   0.299   6.560   2.531
 5073SOL    HW216119   0.168   6.602   2.619
 5074SOL     OW16120   2.952   3.437   0.186
 5074SOL    HW116121   2.893   3.509   0.148
 5074SOL    HW216122   2.918   3.348   0.157
 5075SOL     OW16123   1.000   1.696   6.541
 5075SOL    HW116124   1.094   1.671   6.563
 5075SOL    HW216125   0.999   1.777   6.483
 5076SOL     OW16126   3.832   0.634   0.586
 5076SOL    HW116127   3.885   0.674   0.660
 5076SOL    HW216128   3.742   0.608   0.619
 5077SOL     OW16129   0.326   3.465   4.804
 5077SOL    HW116130   0.329   3.564   4.813
 5077SOL    HW216131   0.412   3.432   4.765
 5078SOL     OW16132   1.147   1.883   3.406
 5078SOL    HW116133   1.077   1.868   3.475
 5078SOL    HW216134   1.105   1.887   3.315
 5079SOL     OW16135   2.105   4.097   5.764
 5079SOL    HW116136   2.010   4.088   5.793
 5079SOL    HW216137   2.166   4.073   5.839
 5080SOL     OW16138   6.522   6.368   5.977
 5080SOL    HW116139   6.477   6.370   5.888
 5080SOL    HW216140   6.616   6.334   5.966
 5081SOL     OW16141   3.683   2.983   4.605
 5081SOL    HW116142   3.627   2.943   4.532
 5081SOL    HW216143   3.671   2.929   4.689
 5082SOL     OW16144   5.473   5.486   5.937
 5082SOL    HW116145   5.375   5.480   5.956
 5082SOL    HW216146   5.510   5.395   5.921
 5083SOL     OW16147   2.694   0.223   2.950
 5083SOL    HW116148   2.733   0.131   2.939
 5083SOL    HW216149   2.708   0.276   2.867
 5084SOL     OW16150   0.971   5.072   4.255
 5084SOL    HW116151   0.889   5.079   4.197
 5084SOL    HW216152   0.998   5.164   4.283
 5085SOL     OW16153   5.109   3.153   6.776
 5085SOL    HW116154   5.029   3.106   6.740
 5085SOL    HW216155   5.160   3.091   6.836
 5086SOL     OW16156   7.005   5.737   3.350
 5086SOL    HW116157   0.080   5.725   3.342
 5086SOL    HW216158   6.980   5.828   3.318
 5087SOL     OW16159   0.076   5.451   3.509
 5087SOL    HW116160   0.102   5.542   3.541
 5087SOL    HW216161   7.004   5.451   3.480
 5088SOL     OW16162   5.294   1.331   4.822
 5088SOL    HW116163   5.218   1.288   4.870
 5088SOL    HW216164   5.341   1.263   4.765
 5089SOL     OW16165   5.324   2.775   3.335
 5089SOL    HW116166   5.381   2.747   3.413
 5089SOL    HW216167   5.307   2.873   3.339
 5090SOL     OW16168   1.897   3.112   3.143
 5090SOL    HW116169   1.828   3.180   3.120
 5090SOL    HW216170   1.916   3.056   3.062
 5091SOL     OW16171   2.065   6.036   2.680
 5091SOL    HW116172   2.104   6.112   2.733
 5091SOL    HW216173   2.001   6.071   2.613
 5092SOL     OW16174   2.929   3.087   1.472
 5092SOL    HW116175   2.869   3.081   1.552
 5092SOL    HW216176   2.940   3.183   1.445
 5093SOL     OW16177   3.242   1.644   1.327
 5093SOL    HW116178   3.158   1.685   1.362
 5093SOL    HW216179   3.219   1.579   1.254
 5094SOL     OW16180   1.205   6.456   4.792
 5094SOL    HW116181   1.144   6.410   4.856
 5094SOL    HW216182   1.226   6.548   4.825
 5095SOL     OW16183   0.351   2.353   4.767
 5095SOL    HW116184   0.323   2.440   4.728
 5095SOL    HW216185   0.389   2.367   4.858
 5096SOL     OW16186   4.044   3.738   0.696
 5096SOL    HW116187   4.068   3.662   0.756
 5096SOL    HW216188   4.087   3.822   0.729
 5097SOL     OW16189   1.834   0.431   0.145
 5097SOL    HW116190   1.835   0.526   0.176
 5097SOL    HW216191   1.805   0.428   0.049
 5098SOL     OW16192   1.205   0.666   1.334
 5098SOL    HW116193   1.177   0.631   1.423
 5098SOL    HW216194   1.262   0.598   1.288
 5099SOL     OW16195   0.317   0.141   5.930
 5099SOL    HW116196   0.219   0.159   5.937
 5099SOL    HW216197   0.332   0.044   5.912
 5100SOL     OW16198   4.338   6.822   5.284
 5100SOL    HW116199   4.345   6.730   5.322
 5100SOL    HW216200   4.338   6.818   5.184
 5101SOL     OW16201   4.562   6.696   0.345
 5101SOL    HW116202   4.564   6.664   0.440
 5101SOL    HW216203   4.615   6.634   0.288
 5102SOL     OW16204   5.739   0.305   5.183
 5102SOL    HW116205   5.643   0.279   5.177
 5102SOL    HW216206   5.769   0.302   5.278
 5103SOL     OW16207   0.658   0.960   4.004
 5103SOL    HW116208   0.678   0.959   3.906
 5103SOL    HW216209   0.738   0.926   4.055
 5104SOL     OW16210   2.453   6.557   2.257
 5104SOL    HW116211   2.403   6.599   2.181
 5104SOL    HW216212   2.484   6.466   2.230
 5105SOL     OW16213   4.118   3.083   0.094
 5105SOL    HW116214   4.143   3.118   0.185
 5105SOL    HW216215   4.119   2.983   0.096
 5106SOL     OW16216   3.733   0.531   1.645
 5106SOL    HW116217   3.810   0.501   1.590
 5106SOL    HW216218   3.767   0.583   1.724
 5107SOL     OW16219   4.113   0.701   0.453
 5107SOL    HW116220   4.186   0.735   0.513
 5107SOL    HW216221   4.132   0.729   0.359
 5108SOL     OW16222   2.900   3.727   3.509
 5108SOL    HW116223   2.813   3.679   3.524
 5108SOL    HW216224   2.938   3.699   3.421
 5109SOL     OW16225   0.964   0.920   0.957
 5109SOL    HW116226   0.869   0.927   0.925
 5109SOL    HW216227   0.977   0.833   1.002
 5110SOL     OW16228   0.819   0.376   6.611
 5110SOL    HW116229   0.837   0.317   6.532
 5110SOL    HW216230   0.833   0.471   6.584
 5111SOL     OW16231   1.241   0.963   6.119
 5111SOL    HW116232   1.301   1.027   6.167
 5111SOL    HW216233   1.236   0.877   6.169
 5112SOL     OW16234   0.766   0.616   2.533
 5112SOL    HW116235   0.761   0.530   2.583
 5112SOL    HW216236   0.751   0.599   2.436
 5113SOL     OW16237   2.130   0.051   2.076
 5113SOL    HW116238   2.136   6.992   2.131
 5113SOL    HW216239   2.076   0.032   1.993
 5114SOL     OW16240   3.471   3.029   0.286
 5114SOL    HW116241   3.493   3.064   0.377
 5114SOL    HW216242   3.424   3.099   0.233
 5115SOL     OW16243   2.263   4.653   5.085
 5115SOL    HW116244   2.309   4.566   5.097
 5115SOL    HW216245   2.239   4.665   4.988
 5116SOL     OW16246   5.444   6.067   6.292
 5116SOL    HW116247   5.390   6.039   6.371
 5116SOL    HW216248   5.541   6.063   6.315
 5117SOL     OW16249   1.603   4.940   4.221
 5117SOL    HW116250   1.542   5.019   4.215
 5117SOL    HW216251   1.560   4.869   4.277
 5118SOL     OW16252   4.697   6.387   1.033
 5118SOL    HW116253   4.694   6.288   1.047
 5118SOL    HW216254   4.782   6.423   1.070
 5119SOL     OW16255   5.100   0.561   1.375
 5119SOL    HW116256   5.037   0.639   1.381
 5119SOL    HW216257   5.071   0.490   1.439
 5120SOL     OW16258   5.283   1.108   3.589
 5120SOL    HW116259   5.242   1.056   3.664
 5120SOL    HW216260   5.217   1.115   3.514
 5121SOL     OW16261   2.447   2.433   0.031
 5121SOL    HW116262   2.476   2.390   6.969
 5121SOL    HW216263   2.372   2.381   0.071
 5122SOL     OW16264   3.327   0.870   3.946
 5122SOL    HW116265   3.297   0.784   3.905
 5122SOL    HW216266   3.425   0.882   3.932
 5123SOL     OW16267   5.803   3.254   4.803
 5123SOL    HW116268   5.895   3.245   4.765
 5123SOL    HW216269   5.736   3.224   4.734
 5124SOL     OW16270   2.602   5.326   5.551
 5124SOL    HW116271   2.664   5.402   5.532
 5124SOL    HW216272   2.654   5.241   5.555
 5125SOL     OW16273   6.271   3.114   4.597
 5125SOL    HW116274   6.354   3.117   4.653
 5125SOL    HW216275   6.289   3.158   4.509
 5126SOL     OW16276   6.300   5.175   6.224
 5126SOL    HW116277   6.347   5.235   6.160
 5126SOL    HW216278   6.215   5.142   6.182
 5127SOL     OW16279   6.798   3.903   0.127
 5127SOL    HW116280   6.847   3.827   0.169
 5127SOL    HW216281   6.815   3.987   0.178
 5128SOL     OW16282   7.004   6.962   0.398
 5128SOL    HW116283   6.971   6.895   0.465
 5128SOL    HW216284   6.936   6.973   0.326
 5129SOL     OW16285   4.891   0.435   2.267
 5129SOL    HW116286   4.949   0.435   2.186
 5129SOL    HW216287   4.934   0.489   2.340
 5130SOL     OW16288   1.368   5.867   4.245
 5130SOL    HW116289   1.287   5.917   4.275
 5130SOL    HW216290   1.448   5.927   4.251
 5131SOL     OW16291   2.930   4.971   3.260
 5131SOL    HW116292   2.893   4.879   3.271
 5131SOL    HW216293   3.030   4.967   3.267
 5132SOL     OW16294   3.420   1.484   6.014
 5132SOL    HW116295   3.470   1.571   6.017
 5132SOL    HW216296   3.330   1.498   5.973
 5133SOL     OW16297   2.689   5.792   6.066
 5133SOL    HW116298   2.702   5.891   6.069
 5133SOL    HW216299   2.673   5.757   6.158
 5134SOL     OW16300   6.858   0.077   2.105
 5134SOL    HW116301   6.902   7.016   2.073
 5134SOL    HW216302   6.911   0.117   2.179
 5135SOL     OW16303   6.324   3.781   3.486
 5135SOL    HW116304   6.312   3.789   3.585
 5135SOL    HW216305   6.353   3.687   3.464
 5136SOL     OW16306   5.938   0.967   5.873
 5136SOL    HW116307   5.904   0.891   5.817
 5136SOL    HW216308   5.876   1.044   5.866
 5137SOL     OW16309   5.225   3.298   5.336
 5137SOL    HW116310   5.233   3.381   5.282
 5137SOL    HW216311   5.249   3.219   5.279
 5138SOL     OW16312   4.004   3.793   3.872
 5138SOL    HW116313   3.907   3.793   3.847
 5138SOL    HW216314   4.058   3.808   3.790
 5139SOL     OW16315   1.302   6.906   4.512
 5139SOL    HW116316   1.242   6.986   4.509
 5139SOL    HW216317   1.318   6.880   4.608
 5140SOL     OW16318   3.228   2.088   5.503
 5140SOL    HW116319   3.207   2.176   5.546
 5140SOL    HW216320   3.234   2.101   5.404
 5141SOL     OW16321   6.538   3.332   1.241
 5141SOL    HW116322   6.633   3.329   1.210
 5141SOL    HW216323   6.479   3.284   1.176
 5142SOL     OW16324   6.011   6.770   5.252
 5142SOL    HW116325   5.989   6.678   5.218
 5142SOL    HW216326   5.958   6.838   5.203
 5143SOL     OW16327   0.864   4.117   5.428
 5143SOL    HW116328   0.774   4.141   5.464
 5143SOL    HW216329   0.872   4.018   5.421
 5144SOL     OW16330   1.586   3.735   5.918
 5144SOL    HW116331   1.588   3.831   5.946
 5144SOL    HW216332   1.536   3.727   5.832
 5145SOL     OW16333   4.104   6.540   6.780
 5145SOL    HW116334   4.190   6.532   6.729
 5145SOL    HW216335   4.123   6.564   6.875
 5146SOL     OW16336   3.534   4.024   4.795
 5146SOL    HW116337   3.561   4.070   4.880
 5146SOL    HW216338   3.554   3.926   4.802
 5147SOL     OW16339   5.999   4.996   3.550
 5147SOL    HW116340   6.088   5.031   3.579
 5147SOL    HW216341   5.988   5.012   3.452
 5148SOL     OW16342   0.409   0.578   2.005
 5148SOL    HW116343   0.498   0.564   1.963
 5148SOL    HW216344   0.339   0.585   1.934
 5149SOL     OW16345   6.117   5.223   4.191
 5149SOL    HW116346   6.131   5.124   4.195
 5149SOL    HW216347   6.088   5.249   4.099
 5150SOL     OW16348   2.357   4.322   4.146
 5150SOL    HW116349   2.395   4.255   4.082
 5150SOL    HW216350   2.431   4.375   4.187
 5151SOL     OW16351   6.319   3.819   1.469
 5151SOL    HW116352   6.224   3.841   1.493
 5151SOL    HW216353   6.371   3.904   1.462
 5152SOL     OW16354   1.265   5.910   6.185
 5152SOL    HW116355   1.205   5.863   6.121
 5152SOL    HW216356   1.268   6.008   6.163
 5153SOL     OW16357   1.090   1.985   0.778
 5153SOL    HW116358   1.127   2.073   0.751
 5153SOL    HW216359   0.990   1.989   0.779
 5154SOL     OW16360   1.580   2.908   6.553
 5154SOL    HW116361   1.566   2.811   6.577
 5154SOL    HW216362   1.519   2.932   6.477
 5155SOL     OW16363   4.105   1.099   0.719
 5155SOL    HW116364   4.072   1.005   0.710
 5155SOL    HW216365   4.192   1.108   0.670
 5156SOL     OW16366   5.461   4.816   4.688
 5156SOL    HW116367   5.548   4.817   4.638
 5156SOL    HW216368   5.461   4.888   4.757
 5157SOL     OW16369   3.383   2.138   2.488
 5157SOL    HW116370   3.410   2.120   2.393
 5157SOL    HW216371   3.284   2.136   2.495
 5158SOL     OW16372   3.010   2.102   0.679
 5158SOL    HW116373   3.044   2.069   0.768
 5158SOL    HW216374   2.910   2.104   0.681
 5159SOL     OW16375   6.150   3.968   6.723
 5159SOL    HW116376   6.152   4.060   6.685
 5159SOL    HW216377   6.099   3.908   6.661
 5160SOL     OW16378   6.777   5.854   3.508
 5160SOL    HW116379   6.697   5.816   3.555
 5160SOL    HW216380   6.835   5.779   3.478
 5161SOL     OW16381   1.093   3.001   0.303
 5161SOL    HW116382   1.099   3.082   0.361
 5161SOL    HW216383   1.007   3.002   0.252
 5162SOL     OW16384   0.652   5.498   2.329
 5162SOL    HW116385   0.668   5.467   2.423
 5162SOL    HW216386   0.711   5.576   2.310
 5163SOL     OW16387   3.723   0.059   0.655
 5163SOL    HW116388   3.788   0.051   0.730
 5163SOL    HW216389   3.732   0.149   0.612
 5164SOL     OW16390   2.816   3.295   6.596
 5164SOL    HW116391   2.833   3.276   6.693
 5164SOL    HW216392   2.797   3.393   6.585
 5165SOL     OW16393   1.280   4.468   6.659
 5165SOL    HW116394   1.268   4.383   6.710
 5165SOL    HW216395   1.348   4.454   6.586
 5166SOL     OW16396   1.517   4.863   2.806
 5166SOL    HW116397   1.561   4.911   2.730
 5166SOL    HW216398   1.586   4.818   2.862
 5167SOL     OW16399   6.462   4.604   4.915
 5167SOL    HW116400   6.367   4.614   4.886
 5167SOL    HW216401   6.465   4.571   5.009
 5168SOL     OW16402   5.072   2.248   3.093
 5168SOL    HW116403   5.105   2.318   3.030
 5168SOL    HW216404   5.104   2.158   3.063
 5169SOL     OW16405   4.961   1.804   3.575
 5169SOL    HW116406   5.020   1.876   3.614
 5169SOL    HW216407   5.018   1.738   3.526
 5170SOL     OW16408   1.134   3.406   5.404
 5170SOL    HW116409   1.164   3.460   5.326
 5170SOL    HW216410   1.202   3.335   5.423
 5171SOL     OW16411   0.348   4.625   5.297
 5171SOL    HW116412   0.388   4.535   5.282
 5171SOL    HW216413   0.414   4.683   5.344
 5172SOL     OW16414   1.553   4.500   3.342
 5172SOL    HW116415   1.489   4.431   3.307
 5172SOL    HW216416   1.609   4.459   3.414
 5173SOL     OW16417   3.960   4.303   6.053
 5173SOL    HW116418   3.878   4.336   6.100
 5173SOL    HW216419   4.034   4.369   6.064
 5174SOL     OW16420   2.259   6.307   4.135
 5174SOL    HW116421   2.280   6.210   4.148
 5174SOL    HW216422   2.341   6.355   4.104
 5175SOL     OW16423   2.458   3.780   6.630
 5175SOL    HW116424   2.419   3.711   6.690
 5175SOL    HW216425   2.475   3.864   6.681
 5176SOL     OW16426   4.826   5.032   6.689
 5176SOL    HW116427   4.891   5.107   6.693
 5176SOL    HW216428   4.739   5.065   6.652
 5177SOL     OW16429   4.600   6.427   1.511
 5177SOL    HW116430   4.510   6.439   1.471
 5177SOL    HW216431   4.669   6.467   1.450
 5178SOL     OW16432   1.247   4.393   1.507
 5178SOL    HW116433   1.225   4.464   1.573
 5178SOL    HW216434   1.310   4.430   1.438
 5179SOL     OW16435   5.042   4.639   3.741
 5179SOL    HW116436   5.131   4.682   3.724
 5179SOL    HW216437   4.993   4.628   3.654
 5180SOL     OW16438   3.552   0.582   1.410
 5180SOL    HW116439   3.510   0.529   1.483
 5180SOL    HW216440   3.554   0.679   1.435
 5181SOL     OW16441   6.789   0.249   0.567
 5181SOL    HW116442   6.780   0.154   0.596
 5181SOL    HW216443   6.883   0.280   0.582
 5182SOL     OW16444   4.666   4.489   1.901
 5182SOL    HW116445   4.597   4.536   1.845
 5182SOL    HW216446   4.625   4.408   1.943
 5183SOL     OW16447   4.018   1.701   2.843
 5183SOL    HW116448   4.103   1.695   2.895
 5183SOL    HW216449   4.008   1.620   2.786
 5184SOL     OW16450   2.208   1.666   2.915
 5184SOL    HW116451   2.289   1.676   2.857
 5184SOL    HW216452   2.152   1.749   2.909
 5185SOL     OW16453   5.236   0.356   2.868
 5185SOL    HW116454   5.216   0.296   2.790
 5185SOL    HW216455   5.334   0.369   2.876
 5186SOL     OW16456   6.392   2.906   5.937
 5186SOL    HW116457   6.476   2.852   5.929
 5186SOL    HW216458   6.415   3.003   5.945
 5187SOL     OW16459   1.510   5.336   4.904
 5187SOL    HW116460   1.538   5.256   4.850
 5187SOL    HW216461   1.419   5.366   4.875
 5188SOL     OW16462   6.202   5.794   1.649
 5188SOL    HW116463   6.229   5.772   1.743
 5188SOL    HW216464   6.122   5.854   1.650
 5189SOL     OW16465   5.111   6.168   0.387
 5189SOL    HW116466   5.017   6.135   0.377
 5189SOL    HW216467   5.156   6.171   0.298
 5190SOL     OW16468   1.730   3.320   3.034
 5190SOL    HW116469   1.642   3.317   3.083
 5190SOL    HW216470   1.782   3.400   3.064
 5191SOL     OW16471   3.497   5.747   2.951
 5191SOL    HW116472   3.411   5.788   2.920
 5191SOL    HW216473   3.565   5.754   2.878
 5192SOL     OW16474   1.893   6.273   1.223
 5192SOL    HW116475   1.913   6.293   1.319
 5192SOL    HW216476   1.862   6.178   1.214
 5193SOL     OW16477   4.673   5.898   5.842
 5193SOL    HW116478   4.691   5.809   5.883
 5193SOL    HW216479   4.755   5.930   5.794
 5194SOL     OW16480   3.267   2.545   6.921
 5194SOL    HW116481   3.232   2.523   7.012
 5194SOL    HW216482   3.206   2.609   6.875
 5195SOL     OW16483   0.235   0.653   4.344
 5195SOL    HW116484   0.197   0.714   4.274
 5195SOL    HW216485   0.311   0.602   4.306
 5196SOL     OW16486   4.249   6.827   2.356
 5196SOL    HW116487   4.213   6.837   2.449
 5196SOL    HW216488   4.323   6.893   2.341
 5197SOL     OW16489   1.179   3.959   6.639
 5197SOL    HW116490   1.226   3.943   6.552
 5197SOL    HW216491   1.144   3.872   6.673
 5198SOL     OW16492   4.314   5.192   3.304
 5198SOL    HW116493   4.377   5.200   3.381
 5198SOL    HW216494   4.224   5.166   3.338
 5199SOL     OW16495   0.258   5.718   0.487
 5199SOL    HW116496   0.278   5.793   0.550
 5199SOL    HW216497   0.289   5.632   0.527
 5200SOL     OW16498   6.811   3.933   5.299
 5200SOL    HW116499   6.807   3.960   5.395
 5200SOL    HW216500   6.755   3.995   5.245
 5201SOL     OW16501   0.579   6.724   3.119
 5201SOL    HW116502   0.580   6.822   3.098
 5201SOL    HW216503   0.536   6.709   3.207
 5202SOL     OW16504   5.953   2.910   6.675
 5202SOL    HW116505   5.863   2.880   6.707
 5202SOL    HW216506   6.021   2.895   6.748
 5203SOL     OW16507   1.897   2.274   6.884
 5203SOL    HW116508   1.868   2.201   6.946
 5203SOL    HW216509   1.842   2.356   6.899
 5204SOL     OW16510   4.175   5.490   0.174
 5204SOL    HW116511   4.117   5.531   0.104
 5204SOL    HW216512   4.271   5.503   0.149
 5205SOL     OW16513   2.230   7.023   0.863
 5205SOL    HW116514   2.250   6.941   0.809
 5205SOL    HW216515   2.141   0.036   0.836
 5206SOL     OW16516   0.281   3.774   5.690
 5206SOL    HW116517   0.197   3.735   5.728
 5206SOL    HW216518   0.266   3.796   5.594
 5207SOL     OW16519   0.809   5.922   4.024
 5207SOL    HW116520   0.811   5.958   4.118
 5207SOL    HW216521   0.894   5.947   3.977
 5208SOL     OW16522   3.632   1.503   0.322
 5208SOL    HW116523   3.579   1.418   0.313
 5208SOL    HW216524   3.653   1.518   0.418
 5209SOL     OW16525   6.107   6.087   3.896
 5209SOL    HW116526   6.012   6.119   3.897
 5209SOL    HW216527   6.149   6.107   3.984
 5210SOL     OW16528   5.867   2.936   5.577
 5210SOL    HW116529   5.926   2.856   5.569
 5210SOL    HW216530   5.818   2.933   5.664
 5211SOL     OW16531   4.065   3.323   4.320
 5211SOL    HW116532   4.077   3.305   4.223
 5211SOL    HW216533   3.967   3.324   4.342
 5212SOL     OW16534   6.784   1.592   0.960
 5212SOL    HW116535   6.720   1.515   0.966
 5212SOL    HW216536   6.774   1.650   1.041
 5213SOL     OW16537   5.138   3.621   6.695
 5213SOL    HW116538   5.183   3.644   6.609
 5213SOL    HW216539   5.106   3.705   6.739
 5214SOL     OW16540   5.315   1.764   6.569
 5214SOL    HW116541   5.220   1.758   6.599
 5214SOL    HW216542   5.356   1.848   6.604
 5215SOL     OW16543   5.254   5.465   3.262
 5215SOL    HW116544   5.223   5.393   3.325
 5215SOL    HW216545   5.181   5.532   3.250
 5216SOL     OW16546   4.175   6.070   1.875
 5216SOL    HW116547   4.195   5.987   1.822
 5216SOL    HW216548   4.076   6.084   1.878
 5217SOL     OW16549   4.026   5.362   4.022
 5217SOL    HW116550   4.000   5.272   4.058
 5217SOL    HW216551   3.990   5.433   4.083
 5218SOL     OW16552   1.423   0.581   3.265
 5218SOL    HW116553   1.463   0.669   3.291
 5218SOL    HW216554   1.335   0.596   3.220
 5219SOL     OW16555   3.847   0.573   6.352
 5219SOL    HW116556   3.918   0.597   6.286
 5219SOL    HW216557   3.806   0.485   6.328
 5220SOL     OW16558   1.719   5.419   2.848
 5220SOL    HW116559   1.680   5.399   2.758
 5220SOL    HW216560   1.798   5.479   2.838
 5221SOL     OW16561   5.535   2.352   4.365
 5221SOL    HW116562   5.620   2.363   4.314
 5221SOL    HW216563   5.529   2.258   4.400
 5222SOL     OW16564   2.248   0.085   4.067
 5222SOL    HW116565   2.268   0.061   4.162
 5222SOL    HW216566   2.313   0.154   4.036
 5223SOL     OW16567   5.317   0.459   1.253
 5223SOL    HW116568   5.337   0.491   1.161
 5223SOL    HW216569   5.233   0.501   1.286
 5224SOL     OW16570   0.915   1.558   3.222
 5224SOL    HW116571   0.870   1.639   3.185
 5224SOL    HW216572   1.014   1.563   3.203
 5225SOL     OW16573   6.319   0.527   2.838
 5225SOL    HW116574   6.353   0.611   2.882
 5225SOL    HW216575   6.252   0.550   2.768
 5226SOL     OW16576   0.926   5.377   5.081
 5226SOL    HW116577   0.862   5.359   5.007
 5226SOL    HW216578   0.936   5.294   5.137
 5227SOL     OW16579   1.696   4.401   3.545
 5227SOL    HW116580   1.774   4.352   3.582
 5227SOL    HW216581   1.615   4.380   3.600
 5228SOL     OW16582   6.421   3.003   1.420
 5228SOL    HW116583   6.456   2.958   1.338
 5228SOL    HW216584   6.488   3.068   1.454
 5229SOL     OW16585   1.413   4.294   0.239
 5229SOL    HW116586   1.462   4.285   0.153
 5229SOL    HW216587   1.406   4.391   0.264
 5230SOL     OW16588   0.026   6.305   1.066
 5230SOL    HW116589   0.088   6.252   1.125
 5230SOL    HW216590   0.077   6.378   1.021
 5231SOL     OW16591   3.572   4.189   4.174
 5231SOL    HW116592   3.606   4.281   4.194
 5231SOL    HW216593   3.523   4.154   4.253
 5232SOL     OW16594   3.402   2.397   5.994
 5232SOL    HW116595   3.436   2.454   6.068
 5232SOL    HW216596   3.425   2.301   6.012
 5233SOL     OW16597   6.201   0.011   1.569
 5233SOL    HW116598   6.210   0.037   1.472
 5233SOL    HW216599   6.174   6.938   1.575
 5234SOL     OW16600   3.087   0.406   6.541
 5234SOL    HW116601   3.081   0.464   6.460
 5234SOL    HW216602   3.058   0.313   6.518
 5235SOL     OW16603   1.656   3.225   1.126
 5235SOL    HW116604   1.606   3.197   1.208
 5235SOL    HW216605   1.593   3.266   1.061
 5236SOL     OW16606   5.741   3.595   2.474
 5236SOL    HW116607   5.662   3.639   2.431
 5236SOL    HW216608   5.763   3.511   2.426
 5237SOL     OW16609   2.897   0.929   5.373
 5237SOL    HW116610   2.843   1.006   5.339
 5237SOL    HW216611   2.994   0.949   5.363
 5238SOL     OW16612   1.840   4.745   0.639
 5238SOL    HW116613   1.861   4.657   0.597
 5238SOL    HW216614   1.823   4.813   0.568
 5239SOL     OW16615   4.101   3.600   4.033
 5239SOL    HW116616   4.056   3.671   3.979
 5239SOL    HW216617   4.093   3.622   4.130
 5240SOL     OW16618   2.874   1.499   5.878
 5240SOL    HW116619   2.778   1.514   5.857
 5240SOL    HW216620   2.883   1.462   5.971
 5241SOL     OW16621   0.941   5.854   6.346
 5241SOL    HW116622   0.935   5.806   6.259
 5241SOL    HW216623   0.997   5.936   6.334
 5242SOL     OW16624   6.884   6.182   6.099
 5242SOL    HW116625   6.916   6.090   6.078
 5242SOL    HW216626   6.921   6.246   6.031
 5243SOL     OW16627   1.055   6.427   1.430
 5243SOL    HW116628   1.116   6.352   1.406
 5243SOL    HW216629   1.109   6.511   1.443
 5244SOL     OW16630   3.899   4.174   6.380
 5244SOL    HW116631   3.868   4.269   6.376
 5244SOL    HW216632   3.998   4.172   6.391
 5245SOL     OW16633   4.266   4.469   0.369
 5245SOL    HW116634   4.207   4.413   0.311
 5245SOL    HW216635   4.253   4.566   0.346
 5246SOL     OW16636   5.582   4.532   2.847
 5246SOL    HW116637   5.626   4.478   2.776
 5246SOL    HW216638   5.648   4.597   2.885
 5247SOL     OW16639   1.035   5.672   0.440
 5247SOL    HW116640   0.973   5.747   0.463
 5247SOL    HW216641   1.068   5.629   0.524
 5248SOL     OW16642   6.211   0.676   5.151
 5248SOL    HW116643   6.235   0.664   5.247
 5248SOL    HW216644   6.262   0.753   5.114
 5249SOL     OW16645   0.709   5.414   5.327
 5249SOL    HW116646   0.673   5.320   5.332
 5249SOL    HW216647   0.684   5.454   5.239
 5250SOL     OW16648   0.310   0.795   6.100
 5250SOL    HW116649   0.257   0.722   6.058
 5250SOL    HW216650   0.309   0.875   6.040
 5251SOL     OW16651   0.489   2.823   1.370
 5251SOL    HW116652   0.586   2.846   1.361
 5251SOL    HW216653   0.470   2.740   1.318
 5252SOL     OW16654   2.160   5.935   0.924
 5252SOL    HW116655   2.141   5.948   1.021
 5252SOL    HW216656   2.079   5.958   0.870
 5253SOL     OW16657   5.529   4.062   5.415
 5253SOL    HW116658   5.579   4.110   5.487
 5253SOL    HW216659   5.496   3.974   5.450
 5254SOL     OW16660   6.076   1.272   3.721
 5254SOL    HW116661   6.126   1.310   3.643
 5254SOL    HW216662   6.094   1.174   3.728
 5255SOL     OW16663   4.601   0.234   5.592
 5255SOL    HW116664   4.511   0.274   5.575
 5255SOL    HW216665   4.668   0.276   5.529
 5256SOL     OW16666   4.516   1.298   2.853
 5256SOL    HW116667   4.578   1.224   2.880
 5256SOL    HW216668   4.446   1.309   2.923
 5257SOL     OW16669   4.397   0.581   1.994
 5257SOL    HW116670   4.374   0.505   1.934
 5257SOL    HW216671   4.318   0.643   2.001
 5258SOL     OW16672   5.630   4.168   2.144
 5258SOL    HW116673   5.700   4.110   2.183
 5258SOL    HW216674   5.539   4.137   2.174
 5259SOL     OW16675   4.567   6.138   1.039
 5259SOL    HW116676   4.473   6.167   1.019
 5259SOL    HW216677   4.566   6.073   1.116
 5260SOL     OW16678   5.633   3.767   1.082
 5260SOL    HW116679   5.602   3.672   1.077
 5260SOL    HW216680   5.594   3.811   1.163
 5261SOL     OW16681   1.332   3.029   5.828
 5261SOL    HW116682   1.376   2.957   5.775
 5261SOL    HW216683   1.236   3.004   5.844
 5262SOL     OW16684   3.189   0.364   2.286
 5262SOL    HW116685   3.154   0.273   2.264
 5262SOL    HW216686   3.188   0.377   2.385
 5263SOL     OW16687   0.875   0.580   5.673
 5263SOL    HW116688   0.864   0.500   5.613
 5263SOL    HW216689   0.814   0.653   5.642
 5264SOL     OW16690   6.019   0.363   2.028
 5264SOL    HW116691   5.992   0.440   2.087
 5264SOL    HW216692   6.119   0.365   2.016
 5265SOL     OW16693   5.255   4.456   3.009
 5265SOL    HW116694   5.278   4.507   3.092
 5265SOL    HW216695   5.274   4.512   2.929
 5266SOL     OW16696   2.643   0.791   2.212
 5266SOL    HW116697   2.574   0.863   2.216
 5266SOL    HW216698   2.604   0.705   2.244
 5267SOL     OW16699   4.740   4.582   5.868
 5267SOL    HW116700   4.657   4.639   5.873
 5267SOL    HW216701   4.749   4.530   5.953
 5268SOL     OW16702   6.173   5.605   6.222
 5268SOL    HW116703   6.149   5.519   6.176
 5268SOL    HW216704   6.272   5.620   6.216
 5269SOL     OW16705   2.557   6.222   4.202
 5269SOL    HW116706   2.474   6.167   4.209
 5269SOL    HW216707   2.612   6.209   4.284
 5270SOL     OW16708   4.155   1.534   1.804
 5270SOL    HW116709   4.177   1.488   1.890
 5270SOL    HW216710   4.225   1.602   1.784
 5271SOL     OW16711   4.357   5.081   4.879
 5271SOL    HW116712   4.267   5.108   4.846
 5271SOL    HW216713   4.348   5.039   4.970
 5272SOL     OW16714   1.606   5.353   3.280
 5272SOL    HW116715   1.645   5.386   3.195
 5272SOL    HW216716   1.595   5.254   3.276
 5273SOL     OW16717   0.407   3.365   3.182
 5273SOL    HW116718   0.377   3.309   3.259
 5273SOL    HW216719   0.481   3.319   3.134
 5274SOL     OW16720   5.984   5.016   2.469
 5274SOL    HW116721   5.963   5.077   2.546
 5274SOL    HW216722   6.029   5.067   2.397
 5275SOL     OW16723   3.449   1.401   6.305
 5275SOL    HW116724   3.425   1.449   6.221
 5275SOL    HW216725   3.474   1.307   6.284
 5276SOL     OW16726   0.964   6.167   0.956
 5276SOL    HW116727   0.922   6.207   1.037
 5276SOL    HW216728   1.044   6.113   0.984
 5277SOL     OW16729   1.027   2.301   3.070
 5277SOL    HW116730   0.946   2.248   3.096
 5277SOL    HW216731   0.999   2.390   3.034
 5278SOL     OW16732   5.311   6.578   4.458
 5278SOL    HW116733   5.312   6.482   4.488
 5278SOL    HW216734   5.217   6.606   4.441
 5279SOL     OW16735   1.649   5.732   7.002
 5279SOL    HW116736   1.590   5.797   0.028
 5279SOL    HW216737   1.744   5.746   0.005
 5280SOL     OW16738   3.118   5.558   5.498
 5280SOL    HW116739   3.056   5.531   5.571
 5280SOL    HW216740   3.085   5.642   5.455
 5281SOL     OW16741   1.297   0.658   3.824
 5281SOL    HW116742   1.267   0.720   3.897
 5281SOL    HW216743   1.309   0.566   3.861
 5282SOL     OW16744   1.912   1.196   2.506
 5282SOL    HW116745   1.942   1.148   2.588
 5282SOL    HW216746   1.823   1.162   2.477
 5283SOL     OW16747   2.886   0.608   2.321
 5283SOL    HW116748   2.832   0.665   2.259
 5283SOL    HW216749   2.945   0.548   2.267
 5284SOL     OW16750   4.824   3.076   2.675
 5284SOL    HW116751   4.808   2.985   2.714
 5284SOL    HW216752   4.842   3.067   2.577
 5285SOL     OW16753   1.181   3.723   4.017
 5285SOL    HW116754   1.163   3.715   4.116
 5285SOL    HW216755   1.195   3.819   3.993
 5286SOL     OW16756   6.163   3.593   0.988
 5286SOL    HW116757   6.194   3.557   1.076
 5286SOL    HW216758   6.217   3.673   0.964
 5287SOL     OW16759   2.227   6.003   1.526
 5287SOL    HW116760   2.142   6.051   1.547
 5287SOL    HW216761   2.263   6.036   1.438
 5288SOL     OW16762   3.821   0.779   2.700
 5288SOL    HW116763   3.837   0.870   2.661
 5288SOL    HW216764   3.801   0.714   2.627
 5289SOL     OW16765   1.854   6.177   6.073
 5289SOL    HW116766   1.887   6.229   5.994
 5289SOL    HW216767   1.872   6.080   6.059
 5290SOL     OW16768   0.969   4.757   5.870
 5290SOL    HW116769   1.016   4.799   5.948
 5290SOL    HW216770   1.028   4.762   5.789
 5291SOL     OW16771   2.939   5.076   6.049
 5291SOL    HW116772   2.988   5.081   6.136
 5291SOL    HW216773   2.958   4.987   6.006
 5292SOL     OW16774   5.948   4.660   6.776
 5292SOL    HW116775   5.859   4.637   6.737
 5292SOL    HW216776   5.999   4.717   6.711
 5293SOL     OW16777   1.880   0.101   4.699
 5293SOL    HW116778   1.797   0.099   4.644
 5293SOL    HW216779   1.915   0.008   4.711
 5294SOL     OW16780   5.777   2.604   5.150
 5294SOL    HW116781   5.677   2.615   5.150
 5294SOL    HW216782   5.814   2.638   5.063
 5295SOL     OW16783   4.216   1.062   2.929
 5295SOL    HW116784   4.243   0.966   2.914
 5295SOL    HW216785   4.288   1.108   2.982
 5296SOL     OW16786   3.081   4.952   6.714
 5296SOL    HW116787   3.117   5.043   6.692
 5296SOL    HW216788   2.985   4.959   6.741
 5297SOL     OW16789   1.818   3.345   0.663
 5297SOL    HW116790   1.872   3.427   0.682
 5297SOL    HW216791   1.744   3.337   0.730
 5298SOL     OW16792   0.972   5.968   0.052
 5298SOL    HW116793   0.907   6.039   0.026
 5298SOL    HW216794   1.023   5.998   0.133
 5299SOL     OW16795   2.455   3.158   0.457
 5299SOL    HW116796   2.357   3.157   0.475
 5299SOL    HW216797   2.497   3.076   0.496
 5300SOL     OW16798   1.087   5.999   1.175
 5300SOL    HW116799   1.172   6.002   1.228
 5300SOL    HW216800   1.009   6.004   1.236
 5301SOL     OW16801   3.313   2.220   6.274
 5301SOL    HW116802   3.238   2.285   6.259
 5301SOL    HW216803   3.364   2.246   6.356
 5302SOL     OW16804   5.856   5.853   3.780
 5302SOL    HW116805   5.877   5.827   3.874
 5302SOL    HW216806   5.942   5.875   3.732
 5303SOL     OW16807   6.937   5.139   4.121
 5303SOL    HW116808   6.904   5.178   4.035
 5303SOL    HW216809   7.013   5.193   4.156
 5304SOL     OW16810   5.437   0.841   0.439
 5304SOL    HW116811   5.420   0.784   0.520
 5304SOL    HW216812   5.469   0.783   0.364
 5305SOL     OW16813   1.010   4.382   2.849
 5305SOL    HW116814   0.998   4.361   2.752
 5305SOL    HW216815   0.921   4.374   2.896
 5306SOL     OW16816   1.222   4.316   4.805
 5306SOL    HW116817   1.149   4.362   4.756
 5306SOL    HW216818   1.307   4.323   4.753
 5307SOL     OW16819   4.372   1.776   0.496
 5307SOL    HW116820   4.346   1.789   0.401
 5307SOL    HW216821   4.446   1.709   0.502
 5308SOL     OW16822   0.926   4.729   3.700
 5308SOL    HW116823   0.901   4.819   3.663
 5308SOL    HW216824   0.990   4.742   3.776
 5309SOL     OW16825   4.034   4.710   1.593
 5309SOL    HW116826   3.943   4.691   1.556
 5309SOL    HW216827   4.070   4.628   1.638
 5310SOL     OW16828   6.201   3.425   1.805
 5310SOL    HW116829   6.213   3.470   1.894
 5310SOL    HW216830   6.255   3.473   1.736
 5311SOL     OW16831   6.875   6.510   6.829
 5311SOL    HW116832   6.850   6.437   6.891
 5311SOL    HW216833   6.955   6.559   6.865
 5312SOL     OW16834   0.156   5.547   1.754
 5312SOL    HW116835   0.094   5.597   1.814
 5312SOL    HW216836   0.225   5.609   1.717
 5313SOL     OW16837   1.421   3.291   5.762
 5313SOL    HW116838   1.412   3.200   5.802
 5313SOL    HW216839   1.431   3.359   5.835
 5314SOL     OW16840   3.183   6.605   0.490
 5314SOL    HW116841   3.090   6.593   0.454
 5314SOL    HW216842   3.249   6.593   0.417
 5315SOL     OW16843   4.854   3.753   1.847
 5315SOL    HW116844   4.764   3.715   1.824
 5315SOL    HW216845   4.924   3.705   1.794
 5316SOL     OW16846   0.837   3.665   4.626
 5316SOL    HW116847   0.847   3.716   4.541
 5316SOL    HW216848   0.825   3.730   4.702
 5317SOL     OW16849   5.818   0.244   4.667
 5317SOL    HW116850   5.834   0.227   4.570
 5317SOL    HW216851   5.897   0.292   4.706
 5318SOL     OW16852   0.661   3.048   6.665
 5318SOL    HW116853   0.561   3.047   6.656
 5318SOL    HW216854   0.702   3.080   6.580
 5319SOL     OW16855   3.368   6.488   0.301
 5319SOL    HW116856   3.458   6.529   0.318
 5319SOL    HW216857   3.379   6.392   0.275
 5320SOL     OW16858   5.112   4.967   0.370
 5320SOL    HW116859   5.035   4.975   0.433
 5320SOL    HW216860   5.186   5.027   0.399
 5321SOL     OW16861   1.431   5.311   4.415
 5321SOL    HW116862   1.490   5.383   4.453
 5321SOL    HW216863   1.470   5.279   4.329
 5322SOL     OW16864   5.442   6.301   6.084
 5322SOL    HW116865   5.460   6.203   6.090
 5322SOL    HW216866   5.487   6.338   6.003
 5323SOL     OW16867   3.828   1.886   6.932
 5323SOL    HW116868   3.843   1.855   6.838
 5323SOL    HW216869   3.884   1.831   6.994
 5324SOL     OW16870   3.356   2.196   0.497
 5324SOL    HW116871   3.451   2.192   0.466
 5324SOL    HW216872   3.325   2.103   0.519
 5325SOL     OW16873   4.662   0.711   4.437
 5325SOL    HW116874   4.683   0.764   4.518
 5325SOL    HW216875   4.578   0.745   4.395
 5326SOL     OW16876   6.479   5.021   2.946
 5326SOL    HW116877   6.429   5.076   2.879
 5326SOL    HW216878   6.498   4.931   2.908
 5327SOL     OW16879   5.929   3.137   5.183
 5327SOL    HW116880   5.860   3.189   5.133
 5327SOL    HW216881   5.884   3.071   5.243
 5328SOL     OW16882   4.161   3.032   5.384
 5328SOL    HW116883   4.115   3.117   5.358
 5328SOL    HW216884   4.254   3.051   5.414
 5329SOL     OW16885   0.395   4.745   0.513
 5329SOL    HW116886   0.395   4.759   0.612
 5329SOL    HW216887   0.361   4.654   0.491
 5330SOL     OW16888   3.639   4.433   5.558
 5330SOL    HW116889   3.599   4.518   5.594
 5330SOL    HW216890   3.698   4.454   5.480
 5331SOL     OW16891   5.358   1.264   0.510
 5331SOL    HW116892   5.449   1.277   0.549
 5331SOL    HW216893   5.311   1.192   0.561
 5332SOL     OW16894   0.509   3.127   1.240
 5332SOL    HW116895   0.538   3.060   1.172
 5332SOL    HW216896   0.589   3.159   1.291
 5333SOL     OW16897   0.867   0.781   3.872
 5333SOL    HW116898   0.834   0.796   3.966
 5333SOL    HW216899   0.938   0.848   3.851
 5334SOL     OW16900   3.504   0.417   4.322
 5334SOL    HW116901   3.476   0.505   4.284
 5334SOL    HW216902   3.489   0.418   4.421
 5335SOL     OW16903   6.676   5.663   2.411
 5335SOL    HW116904   6.622   5.746   2.395
 5335SOL    HW216905   6.757   5.665   2.353
 5336SOL     OW16906   2.343   1.965   3.071
 5336SOL    HW116907   2.262   1.945   3.016
 5336SOL    HW216908   2.343   2.062   3.096
 5337SOL     OW16909   5.253   4.150   1.684
 5337SOL    HW116910   5.286   4.217   1.751
 5337SOL    HW216911   5.330   4.097   1.650
 5338SOL     OW16912   5.885   2.101   6.412
 5338SOL    HW116913   5.833   2.083   6.328
 5338SOL    HW216914   5.824   2.095   6.491
 5339SOL     OW16915   6.598   2.242   4.355
 5339SOL    HW116916   6.654   2.162   4.333
 5339SOL    HW216917   6.657   2.319   4.378
 5340SOL     OW16918   5.310   3.376   1.315
 5340SOL    HW116919   5.360   3.343   1.395
 5340SOL    HW216920   5.305   3.304   1.247
 5341SOL     OW16921   3.425   3.805   6.425
 5341SOL    HW116922   3.338   3.844   6.396
 5341SOL    HW216923   3.482   3.876   6.466
 5342SOL     OW16924   2.943   6.895   3.988
 5342SOL    HW116925   3.006   6.846   4.048
 5342SOL    HW216926   2.913   6.979   4.032
 5343SOL     OW16927   3.768   3.626   4.230
 5343SOL    HW116928   3.775   3.552   4.297
 5343SOL    HW216929   3.845   3.689   4.241
 5344SOL     OW16930   2.399   2.538   2.646
 5344SOL    HW116931   2.475   2.519   2.584
 5344SOL    HW216932   2.435   2.572   2.733
 5345SOL     OW16933   3.817   6.893   1.482
 5345SOL    HW116934   3.718   6.899   1.493
 5345SOL    HW216935   3.844   6.934   1.395
 5346SOL     OW16936   3.168   5.947   4.308
 5346SOL    HW116937   3.101   5.886   4.267
 5346SOL    HW216938   3.122   6.028   4.345
 5347SOL     OW16939   0.529   2.530   2.136
 5347SOL    HW116940   0.622   2.502   2.113
 5347SOL    HW216941   0.506   2.614   2.088
 5348SOL     OW16942   6.912   2.371   1.004
 5348SOL    HW116943   6.822   2.379   1.048
 5348SOL    HW216944   6.981   2.412   1.064
 5349SOL     OW16945   1.974   3.076   0.419
 5349SOL    HW116946   1.973   2.983   0.381
 5349SOL    HW216947   1.881   3.101   0.446
 5350SOL     OW16948   1.700   6.974   5.471
 5350SOL    HW116949   1.794   6.954   5.444
 5350SOL    HW216950   1.687   6.953   5.568
 5351SOL     OW16951   6.653   5.094   2.493
 5351SOL    HW116952   6.689   5.084   2.400
 5351SOL    HW216953   6.705   5.165   2.541
 5352SOL     OW16954   2.812   4.696   3.296
 5352SOL    HW116955   2.725   4.648   3.308
 5352SOL    HW216956   2.846   4.680   3.204
 5353SOL     OW16957   4.223   4.722   3.698
 5353SOL    HW116958   4.288   4.650   3.676
 5353SOL    HW216959   4.237   4.752   3.792
 5354SOL     OW16960   2.683   5.525   1.809
 5354SOL    HW116961   2.631   5.610   1.819
 5354SOL    HW216962   2.705   5.489   1.900
 5355SOL     OW16963   6.587   3.830   3.709
 5355SOL    HW116964   6.588   3.753   3.773
 5355SOL    HW216965   6.494   3.867   3.703
 5356SOL     OW16966   5.764   4.529   1.736
 5356SOL    HW116967   5.837   4.502   1.673
 5356SOL    HW216968   5.688   4.465   1.729
 5357SOL     OW16969   4.111   6.417   0.921
 5357SOL    HW116970   4.046   6.463   0.982
 5357SOL    HW216971   4.195   6.471   0.915
 5358SOL     OW16972   4.800   1.558   0.349
 5358SOL    HW116973   4.888   1.597   0.375
 5358SOL    HW216974   4.787   1.567   0.251
 5359SOL     OW16975   0.773   1.171   5.794
 5359SOL    HW116976   0.828   1.089   5.776
 5359SOL    HW216977   0.732   1.164   5.885
 5360SOL     OW16978   3.582   6.445   5.442
 5360SOL    HW116979   3.575   6.349   5.416
 5360SOL    HW216980   3.617   6.452   5.535
 5361SOL     OW16981   2.565   1.143   5.557
 5361SOL    HW116982   2.591   1.183   5.470
 5361SOL    HW216983   2.646   1.114   5.607
 5362SOL     OW16984   6.579   5.613   3.120
 5362SOL    HW116985   6.642   5.568   3.184
 5362SOL    HW216986   6.498   5.644   3.169
 5363SOL     OW16987   0.110   1.024   6.951
 5363SOL    HW116988   0.147   1.074   6.873
 5363SOL    HW216989   0.177   0.958   6.984
 5364SOL     OW16990   6.583   6.943   2.010
 5364SOL    HW116991   6.513   6.882   1.972
 5364SOL    HW216992   6.550   0.014   2.008
 5365SOL     OW16993   3.505   3.654   0.136
 5365SOL    HW116994   3.453   3.737   0.157
 5365SOL    HW216995   3.467   3.611   0.054
 5366SOL     OW16996   5.200   5.828   2.054
 5366SOL    HW116997   5.252   5.749   2.087
 5366SOL    HW216998   5.251   5.912   2.073
 5367SOL     OW16999   0.756   6.599   0.869
 5367SOL    HW117000   0.751   6.575   0.772
 5367SOL    HW217001   0.799   6.688   0.879
 5368SOL     OW17002   5.369   0.065   2.489
 5368SOL    HW117003   5.304   0.051   2.563
 5368SOL    HW217004   5.328   0.122   2.418
 5369SOL     OW17005   2.696   6.625   1.941
 5369SOL    HW117006   2.694   6.685   2.021
 5369SOL    HW217007   2.754   6.546   1.959
 5370SOL     OW17008   4.418   3.129   1.692
 5370SOL    HW117009   4.394   3.035   1.668
 5370SOL    HW217010   4.496   3.129   1.755
 5371SOL     OW17011   0.743   3.721   5.003
 5371SOL    HW117012   0.701   3.782   5.070
 5371SOL    HW217013   0.788   3.776   4.932
 5372SOL     OW17014   2.042   6.350   3.923
 5372SOL    HW117015   2.117   6.390   3.870
 5372SOL    HW217016   2.076   6.323   4.013
 5373SOL     OW17017   3.606   0.140   4.515
 5373SOL    HW117018   3.620   0.233   4.549
 5373SOL    HW217019   3.508   0.120   4.513
 5374SOL     OW17020   1.448   4.262   6.972
 5374SOL    HW117021   1.457   4.351   6.928
 5374SOL    HW217022   1.358   4.223   6.953
 5375SOL     OW17023   1.314   5.020   4.979
 5375SOL    HW117024   1.268   4.935   4.952
 5375SOL    HW217025   1.319   5.081   4.900
 5376SOL     OW17026   1.303   3.183   1.185
 5376SOL    HW117027   1.227   3.147   1.240
 5376SOL    HW217028   1.373   3.112   1.176
 5377SOL     OW17029   0.290   0.105   2.290
 5377SOL    HW117030   0.301   0.039   2.365
 5377SOL    HW217031   0.365   0.170   2.292
 5378SOL     OW17032   6.705   0.675   1.589
 5378SOL    HW117033   6.615   0.637   1.564
 5378SOL    HW217034   6.774   0.604   1.579
 5379SOL     OW17035   1.482   4.421   5.223
 5379SOL    HW117036   1.505   4.489   5.154
 5379SOL    HW217037   1.385   4.427   5.246
 5380SOL     OW17038   2.267   1.465   3.116
 5380SOL    HW117039   2.265   1.530   3.040
 5380SOL    HW217040   2.190   1.401   3.107
 5381SOL     OW17041   6.505   4.762   1.726
 5381SOL    HW117042   6.414   4.741   1.692
 5381SOL    HW217043   6.498   4.797   1.820
 5382SOL     OW17044   3.134   1.313   2.452
 5382SOL    HW117045   3.173   1.222   2.465
 5382SOL    HW217046   3.057   1.325   2.515
 5383SOL     OW17047   2.517   2.239   5.305
 5383SOL    HW117048   2.580   2.162   5.298
 5383SOL    HW217049   2.491   2.251   5.401
 5384SOL     OW17050   5.939   6.774   4.778
 5384SOL    HW117051   5.965   6.831   4.699
 5384SOL    HW217052   6.000   6.695   4.783
 5385SOL     OW17053   3.196   3.708   4.385
 5385SOL    HW117054   3.251   3.669   4.311
 5385SOL    HW217055   3.206   3.652   4.467
 5386SOL     OW17056   4.805   0.553   4.008
 5386SOL    HW117057   4.881   0.561   4.073
 5386SOL    HW217058   4.719   0.551   4.057
 5387SOL     OW17059   2.448   6.636   3.633
 5387SOL    HW117060   2.508   6.698   3.684
 5387SOL    HW217061   2.500   6.555   3.606
 5388SOL     OW17062   0.159   0.944   3.915
 5388SOL    HW117063   0.181   1.036   3.882
 5388SOL    HW217064   0.215   0.876   3.867
 5389SOL     OW17065   4.718   1.215   2.613
 5389SOL    HW117066   4.667   1.133   2.638
 5389SOL    HW217067   4.763   1.252   2.694
 5390SOL     OW17068   4.643   4.377   2.964
 5390SOL    HW117069   4.688   4.396   3.052
 5390SOL    HW217070   4.548   4.407   2.968
 5391SOL     OW17071   1.994   2.664   0.857
 5391SOL    HW117072   1.998   2.752   0.811
 5391SOL    HW217073   2.043   2.669   0.944
 5392SOL     OW17074   5.214   3.222   1.119
 5392SOL    HW117075   5.231   3.126   1.098
 5392SOL    HW217076   5.191   3.271   1.035
 5393SOL     OW17077   4.967   6.692   6.758
 5393SOL    HW117078   5.059   6.684   6.718
 5393SOL    HW217079   4.970   6.757   6.834
 5394SOL     OW17080   6.867   4.859   6.890
 5394SOL    HW117081   6.802   4.933   6.874
 5394SOL    HW217082   6.929   4.885   6.964
 5395SOL     OW17083   5.318   1.259   1.478
 5395SOL    HW117084   5.274   1.211   1.402
 5395SOL    HW217085   5.328   1.196   1.555
 5396SOL     OW17086   4.391   4.518   1.844
 5396SOL    HW117087   4.372   4.560   1.933
 5396SOL    HW217088   4.404   4.420   1.855
 5397SOL     OW17089   0.491   2.477   1.704
 5397SOL    HW117090   0.486   2.428   1.617
 5397SOL    HW217091   0.543   2.423   1.770
 5398SOL     OW17092   3.416   2.075   3.707
 5398SOL    HW117093   3.493   2.074   3.643
 5398SOL    HW217094   3.333   2.104   3.659
 5399SOL     OW17095   2.869   5.872   0.678
 5399SOL    HW117096   2.923   5.901   0.758
 5399SOL    HW217097   2.827   5.952   0.636
 5400SOL     OW17098   2.401   4.116   0.342
 5400SOL    HW117099   2.459   4.100   0.423
 5400SOL    HW217100   2.429   4.056   0.268
 5401SOL     OW17101   5.552   3.837   1.344
 5401SOL    HW117102   5.649   3.861   1.348
 5401SOL    HW217103   5.521   3.805   1.434
 5402SOL     OW17104   2.648   5.030   1.849
 5402SOL    HW117105   2.646   5.100   1.777
 5402SOL    HW217106   2.740   4.989   1.853
 5403SOL     OW17107   5.775   2.685   6.422
 5403SOL    HW117108   5.797   2.781   6.406
 5403SOL    HW217109   5.683   2.678   6.460
 5404SOL     OW17110   0.689   0.799   1.881
 5404SOL    HW117111   0.603   0.790   1.831
 5404SOL    HW217112   0.671   0.830   1.974
 5405SOL     OW17113   5.745   5.954   0.172
 5405SOL    HW117114   5.811   6.025   0.148
 5405SOL    HW217115   5.771   5.868   0.128
 5406SOL     OW17116   2.943   0.171   6.463
 5406SOL    HW117117   2.911   0.170   6.558
 5406SOL    HW217118   2.897   0.098   6.412
 5407SOL     OW17119   4.559   2.609   1.366
 5407SOL    HW117120   4.650   2.629   1.330
 5407SOL    HW217121   4.563   2.606   1.466
 5408SOL     OW17122   3.130   1.257   5.888
 5408SOL    HW117123   3.146   1.356   5.887
 5408SOL    HW217124   3.042   1.238   5.933
 5409SOL     OW17125   6.159   1.683   4.208
 5409SOL    HW117126   6.086   1.630   4.252
 5409SOL    HW217127   6.243   1.628   4.205
 5410SOL     OW17128   1.535   3.281   0.578
 5410SOL    HW117129   1.573   3.291   0.670
 5410SOL    HW217130   1.603   3.240   0.518
 5411SOL     OW17131   6.555   4.674   5.837
 5411SOL    HW117132   6.492   4.747   5.862
 5411SOL    HW217133   6.523   4.628   5.754
 5412SOL     OW17134   4.544   0.846   6.988
 5412SOL    HW117135   4.539   0.934   6.941
 5412SOL    HW217136   4.547   0.772   6.921
 5413SOL     OW17137   0.801   0.119   0.753
 5413SOL    HW117138   0.705   0.093   0.760
 5413SOL    HW217139   0.808   0.217   0.735
 5414SOL     OW17140   5.874   2.736   4.934
 5414SOL    HW117141   5.857   2.832   4.956
 5414SOL    HW217142   5.862   2.722   4.835
 5415SOL     OW17143   1.522   6.564   1.192
 5415SOL    HW117144   1.491   6.521   1.107
 5415SOL    HW217145   1.490   6.659   1.195
 5416SOL     OW17146   3.495   4.654   6.141
 5416SOL    HW117147   3.468   4.558   6.145
 5416SOL    HW217148   3.430   4.705   6.084
 5417SOL     OW17149   3.602   6.686   5.025
 5417SOL    HW117150   3.626   6.731   4.939
 5417SOL    HW217151   3.658   6.603   5.036
 5418SOL     OW17152   4.237   6.945   4.443
 5418SOL    HW117153   4.247   6.884   4.521
 5418SOL    HW217154   4.323   6.994   4.426
 5419SOL     OW17155   2.966   5.694   0.376
 5419SOL    HW117156   3.012   5.700   0.464
 5419SOL    HW217157   2.938   5.599   0.359
 5420SOL     OW17158   1.607   2.951   1.693
 5420SOL    HW117159   1.689   2.996   1.729
 5420SOL    HW217160   1.534   3.019   1.682
 5421SOL     OW17161   2.169   4.301   2.794
 5421SOL    HW117162   2.163   4.321   2.892
 5421SOL    HW217163   2.086   4.252   2.765
 5422SOL     OW17164   0.792   5.781   5.880
 5422SOL    HW117165   0.744   5.820   5.958
 5422SOL    HW217166   0.757   5.821   5.795
 5423SOL     OW17167   5.518   3.296   6.949
 5423SOL    HW117168   5.440   3.332   7.000
 5423SOL    HW217169   5.513   3.329   6.854
 5424SOL     OW17170   5.408   2.941   4.343
 5424SOL    HW117171   5.381   3.037   4.335
 5424SOL    HW217172   5.327   2.884   4.352
 5425SOL     OW17173   4.726   1.558   4.086
 5425SOL    HW117174   4.803   1.587   4.143
 5425SOL    HW217175   4.755   1.556   3.990
 5426SOL     OW17176   6.977   5.573   3.861
 5426SOL    HW117177   6.885   5.609   3.846
 5426SOL    HW217178   0.002   5.568   3.774
 5427SOL     OW17179   5.247   5.174   0.747
 5427SOL    HW117180   5.261   5.245   0.816
 5427SOL    HW217181   5.158   5.130   0.762
 5428SOL     OW17182   0.002   0.785   1.908
 5428SOL    HW117183   6.969   0.826   1.837
 5428SOL    HW217184   0.019   0.852   1.980
 5429SOL     OW17185   1.247   1.449   5.766
 5429SOL    HW117186   1.209   1.538   5.791
 5429SOL    HW217187   1.174   1.382   5.756
 5430SOL     OW17188   1.014   3.073   5.211
 5430SOL    HW117189   1.047   3.159   5.172
 5430SOL    HW217190   1.071   2.997   5.180
 5431SOL     OW17191   3.484   5.707   6.528
 5431SOL    HW117192   3.508   5.683   6.622
 5431SOL    HW217193   3.561   5.684   6.468
 5432SOL     OW17194   4.171   6.497   6.359
 5432SOL    HW117195   4.154   6.595   6.368
 5432SOL    HW217196   4.208   6.478   6.268
 5433SOL     OW17197   0.155   1.816   3.364
 5433SOL    HW117198   0.122   1.825   3.270
 5433SOL    HW217199   0.246   1.775   3.364
 5434SOL     OW17200   3.641   0.946   4.828
 5434SOL    HW117201   3.583   0.871   4.859
 5434SOL    HW217202   3.730   0.940   4.873
 5435SOL     OW17203   5.914   1.574   1.210
 5435SOL    HW117204   5.966   1.640   1.264
 5435SOL    HW217205   5.884   1.499   1.268
 5436SOL     OW17206   5.277   4.375   4.713
 5436SOL    HW117207   5.258   4.382   4.615
 5436SOL    HW217208   5.213   4.311   4.755
 5437SOL     OW17209   2.498   5.064   5.232
 5437SOL    HW117210   2.441   4.983   5.215
 5437SOL    HW217211   2.551   5.050   5.315
 5438SOL     OW17212   5.753   3.495   2.726
 5438SOL    HW117213   5.835   3.439   2.733
 5438SOL    HW217214   5.739   3.522   2.630
 5439SOL     OW17215   0.179   2.269   0.426
 5439SOL    HW117216   0.088   2.230   0.418
 5439SOL    HW217217   0.228   2.259   0.340
 5440SOL     OW17218   0.595   0.298   2.277
 5440SOL    HW117219   0.664   0.369   2.259
 5440SOL    HW217220   0.628   0.239   2.351
 5441SOL     OW17221   5.068   2.964   3.091
 5441SOL    HW117222   5.135   2.954   3.018
 5441SOL    HW217223   5.001   2.890   3.085
 5442SOL     OW17224   3.475   6.495   3.134
 5442SOL    HW117225   3.443   6.511   3.227
 5442SOL    HW217226   3.462   6.399   3.110
 5443SOL     OW17227   2.542   0.059   4.044
 5443SOL    HW117228   2.512   0.009   3.963
 5443SOL    HW217229   2.541   0.157   4.024
 5444SOL     OW17230   0.887   0.729   3.537
 5444SOL    HW117231   0.856   0.636   3.516
 5444SOL    HW217232   0.979   0.725   3.577
 5445SOL     OW17233   6.153   4.448   4.455
 5445SOL    HW117234   6.189   4.541   4.452
 5445SOL    HW217235   6.058   4.447   4.421
 5446SOL     OW17236   5.918   5.337   5.103
 5446SOL    HW117237   5.891   5.349   5.199
 5446SOL    HW217238   6.005   5.383   5.087
 5447SOL     OW17239   1.604   2.083   0.551
 5447SOL    HW117240   1.595   2.102   0.649
 5447SOL    HW217241   1.597   1.985   0.536
 5448SOL     OW17242   5.569   3.681   4.782
 5448SOL    HW117243   5.585   3.613   4.854
 5448SOL    HW217244   5.600   3.644   4.694
 5449SOL     OW17245   1.529   1.949   6.696
 5449SOL    HW117246   1.477   2.016   6.750
 5449SOL    HW217247   1.611   1.993   6.660
 5450SOL     OW17248   2.059   0.599   2.103
 5450SOL    HW117249   2.125   0.546   2.048
 5450SOL    HW217250   2.019   0.670   2.046
 5451SOL     OW17251   1.304   5.696   3.298
 5451SOL    HW117252   1.316   5.600   3.324
 5451SOL    HW217253   1.391   5.734   3.269
 5452SOL     OW17254   2.057   3.963   0.168
 5452SOL    HW117255   2.101   3.978   0.080
 5452SOL    HW217256   2.038   3.865   0.180
 5453SOL     OW17257   5.168   4.210   1.403
 5453SOL    HW117258   5.229   4.166   1.337
 5453SOL    HW217259   5.222   4.244   1.481
 5454SOL     OW17260   6.272   4.111   5.759
 5454SOL    HW117261   6.236   4.052   5.687
 5454SOL    HW217262   6.252   4.207   5.737
 5455SOL     OW17263   5.999   2.534   1.668
 5455SOL    HW117264   6.089   2.572   1.691
 5455SOL    HW217265   6.010   2.451   1.614
 5456SOL     OW17266   2.427   0.113   6.718
 5456SOL    HW117267   2.362   0.182   6.750
 5456SOL    HW217268   2.465   0.065   6.797
 5457SOL     OW17269   6.827   2.474   0.704
 5457SOL    HW117270   6.798   2.393   0.754
 5457SOL    HW217271   6.860   2.447   0.613
 5458SOL     OW17272   0.350   3.965   0.245
 5458SOL    HW117273   0.307   4.025   0.314
 5458SOL    HW217274   0.431   3.922   0.285
 5459SOL     OW17275   2.399   4.053   6.724
 5459SOL    HW117276   2.314   4.028   6.771
 5459SOL    HW217277   2.383   4.057   6.625
 5460SOL     OW17278   4.034   0.214   3.068
 5460SOL    HW117279   4.128   0.204   3.099
 5460SOL    HW217280   3.980   0.135   3.100
 5461SOL     OW17281   0.082   0.402   5.434
 5461SOL    HW117282   0.010   0.406   5.364
 5461SOL    HW217283   0.144   0.327   5.413
 5462SOL     OW17284   0.357   6.434   1.068
 5462SOL    HW117285   0.337   6.402   1.160
 5462SOL    HW217286   0.272   6.445   1.016
 5463SOL     OW17287   6.992   1.368   0.432
 5463SOL    HW117288   6.946   1.293   0.384
 5463SOL    HW217289   6.939   1.452   0.422
 5464SOL     OW17290   0.733   0.812   4.747
 5464SOL    HW117291   0.825   0.847   4.730
 5464SOL    HW217292   0.730   0.715   4.724
 5465SOL     OW17293   4.334   0.159   4.141
 5465SOL    HW117294   4.321   0.258   4.134
 5465SOL    HW217295   4.327   0.131   4.237
 5466SOL     OW17296   5.180   2.831   4.910
 5466SOL    HW117297   5.150   2.926   4.902
 5466SOL    HW217298   5.222   2.817   5.000
 5467SOL     OW17299   5.054   3.863   3.420
 5467SOL    HW117300   5.144   3.888   3.454
 5467SOL    HW217301   5.036   3.766   3.439
 5468SOL     OW17302   6.422   2.762   4.073
 5468SOL    HW117303   6.439   2.747   4.170
 5468SOL    HW217304   6.453   2.682   4.022
 5469SOL     OW17305   3.065   5.948   6.142
 5469SOL    HW117306   3.051   5.891   6.223
 5469SOL    HW217307   2.981   6.000   6.124
 5470SOL     OW17308   3.632   5.520   3.028
 5470SOL    HW117309   3.713   5.577   3.021
 5470SOL    HW217310   3.551   5.571   3.000
 5471SOL     OW17311   5.608   6.772   2.673
 5471SOL    HW117312   5.603   6.864   2.635
 5471SOL    HW217313   5.701   6.754   2.705
 5472SOL     OW17314   3.635   4.040   5.730
 5472SOL    HW117315   3.709   3.974   5.743
 5472SOL    HW217316   3.550   3.992   5.711
 5473SOL     OW17317   0.348   3.025   2.333
 5473SOL    HW117318   0.377   3.053   2.424
 5473SOL    HW217319   0.428   3.008   2.276
 5474SOL     OW17320   0.854   4.749   4.048
 5474SOL    HW117321   0.925   4.818   4.039
 5474SOL    HW217322   0.889   4.660   4.017
 5475SOL     OW17323   2.414   3.377   1.194
 5475SOL    HW117324   2.406   3.420   1.284
 5475SOL    HW217325   2.496   3.320   1.192
 5476SOL     OW17326   2.098   4.404   5.792
 5476SOL    HW117327   2.080   4.332   5.724
 5476SOL    HW217328   2.043   4.484   5.770
 5477SOL     OW17329   2.093   4.852   2.919
 5477SOL    HW117330   2.146   4.823   2.999
 5477SOL    HW217331   2.086   4.775   2.855
 5478SOL     OW17332   3.617   5.461   4.877
 5478SOL    HW117333   3.551   5.447   4.803
 5478SOL    HW217334   3.590   5.406   4.956
 5479SOL     OW17335   5.317   1.661   5.725
 5479SOL    HW117336   5.390   1.597   5.749
 5479SOL    HW217337   5.356   1.738   5.674
 5480SOL     OW17338   6.106   4.345   2.936
 5480SOL    HW117339   6.104   4.319   3.032
 5480SOL    HW217340   6.049   4.282   2.883
 5481SOL     OW17341   4.391   1.950   4.218
 5481SOL    HW117342   4.310   1.962   4.275
 5481SOL    HW217343   4.380   2.002   4.133
 5482SOL     OW17344   3.614   4.374   1.722
 5482SOL    HW117345   3.602   4.469   1.753
 5482SOL    HW217346   3.525   4.328   1.722
 5483SOL     OW17347   0.449   1.696   5.685
 5483SOL    HW117348   0.408   1.607   5.668
 5483SOL    HW217349   0.378   1.766   5.685
 5484SOL     OW17350   4.346   1.424   4.344
 5484SOL    HW117351   4.381   1.515   4.323
 5484SOL    HW217352   4.413   1.374   4.400
 5485SOL     OW17353   3.727   0.207   5.642
 5485SOL    HW117354   3.801   0.267   5.672
 5485SOL    HW217355   3.683   0.165   5.722
 5486SOL     OW17356   2.685   6.080   5.342
 5486SOL    HW117357   2.773   6.103   5.385
 5486SOL    HW217358   2.621   6.048   5.411
 5487SOL     OW17359   4.323   2.483   6.848
 5487SOL    HW117360   4.303   2.433   6.932
 5487SOL    HW217361   4.395   2.551   6.865
 5488SOL     OW17362   6.493   0.212   1.051
 5488SOL    HW117363   6.500   0.300   1.005
 5488SOL    HW217364   6.523   0.221   1.146
 5489SOL     OW17365   0.894   4.862   1.529
 5489SOL    HW117366   0.809   4.901   1.491
 5489SOL    HW217367   0.931   4.926   1.597
 5490SOL     OW17368   3.308   0.309   2.706
 5490SOL    HW117369   3.378   0.335   2.773
 5490SOL    HW217370   3.231   0.373   2.711
 5491SOL     OW17371   0.600   2.655   0.365
 5491SOL    HW117372   0.519   2.644   0.308
 5491SOL    HW217373   0.682   2.651   0.308
 5492SOL     OW17374   0.361   4.251   6.658
 5492SOL    HW117375   0.340   4.342   6.622
 5492SOL    HW217376   0.309   4.235   6.741
 5493SOL     OW17377   2.925   3.770   4.096
 5493SOL    HW117378   2.999   3.835   4.115
 5493SOL    HW217379   2.888   3.787   4.005
 5494SOL     OW17380   0.785   3.758   5.830
 5494SOL    HW117381   0.754   3.795   5.742
 5494SOL    HW217382   0.870   3.707   5.817
 5495SOL     OW17383   6.107   1.009   0.824
 5495SOL    HW117384   6.050   0.953   0.764
 5495SOL    HW217385   6.099   0.975   0.918
 5496SOL     OW17386   4.120   0.938   3.597
 5496SOL    HW117387   4.036   0.946   3.650
 5496SOL    HW217388   4.199   0.940   3.658
 5497SOL     OW17389   0.461   0.569   4.844
 5497SOL    HW117390   0.553   0.561   4.806
 5497SOL    HW217391   0.396   0.519   4.786
 5498SOL     OW17392   6.930   5.221   1.440
 5498SOL    HW117393   6.993   5.263   1.505
 5498SOL    HW217394   6.836   5.252   1.459
 5499SOL     OW17395   1.175   0.744   4.807
 5499SOL    HW117396   1.244   0.803   4.766
 5499SOL    HW217397   1.174   0.656   4.761
 5500SOL     OW17398   0.704   0.346   6.966
 5500SOL    HW117399   0.627   0.382   6.914
 5500SOL    HW217400   0.686   0.252   6.993
 5501SOL     OW17401   3.982   1.685   6.752
 5501SOL    HW117402   3.894   1.688   6.705
 5501SOL    HW217403   4.056   1.690   6.686
 5502SOL     OW17404   5.463   4.063   6.663
 5502SOL    HW117405   5.403   4.023   6.594
 5502SOL    HW217406   5.422   4.050   6.754
 5503SOL     OW17407   6.784   4.410   1.048
 5503SOL    HW117408   6.697   4.371   1.017
 5503SOL    HW217409   6.824   4.466   0.975
 5504SOL     OW17410   4.437   1.174   5.050
 5504SOL    HW117411   4.452   1.095   5.109
 5504SOL    HW217412   4.467   1.257   5.097
 5505SOL     OW17413   2.257   5.348   3.990
 5505SOL    HW117414   2.259   5.401   4.074
 5505SOL    HW217415   2.212   5.260   4.007
 5506SOL     OW17416   0.325   3.690   0.963
 5506SOL    HW117417   0.252   3.733   1.018
 5506SOL    HW217418   0.355   3.754   0.893
 5507SOL     OW17419   3.841   1.401   5.028
 5507SOL    HW117420   3.779   1.343   4.974
 5507SOL    HW217421   3.895   1.343   5.089
 5508SOL     OW17422   1.184   1.236   0.145
 5508SOL    HW117423   1.220   1.325   0.173
 5508SOL    HW217424   1.084   1.238   0.146
 5509SOL     OW17425   0.429   6.244   6.350
 5509SOL    HW117426   0.520   6.285   6.343
 5509SOL    HW217427   0.432   6.167   6.413
 5510SOL     OW17428   4.309   5.643   6.571
 5510SOL    HW117429   4.380   5.589   6.616
 5510SOL    HW217430   4.227   5.587   6.558
 5511SOL     OW17431   1.262   6.780   4.251
 5511SOL    HW117432   1.253   6.862   4.194
 5511SOL    HW217433   1.242   6.803   4.346
 5512SOL     OW17434   4.657   1.969   0.898
 5512SOL    HW117435   4.717   1.917   0.959
 5512SOL    HW217436   4.702   1.979   0.809
 5513SOL     OW17437   3.921   5.363   5.889
 5513SOL    HW117438   3.874   5.416   5.818
 5513SOL    HW217439   3.908   5.407   5.978
 5514SOL     OW17440   3.530   0.404   4.599
 5514SOL    HW117441   3.570   0.465   4.667
 5514SOL    HW217442   3.456   0.352   4.641
 5515SOL     OW17443   0.935   5.536   1.647
 5515SOL    HW117444   0.983   5.598   1.586
 5515SOL    HW217445   0.920   5.581   1.735
 5516SOL     OW17446   1.874   2.409   5.037
 5516SOL    HW117447   1.860   2.373   4.945
 5516SOL    HW217448   1.866   2.509   5.036
 5517SOL     OW17449   2.114   3.644   2.143
 5517SOL    HW117450   2.014   3.636   2.141
 5517SOL    HW217451   2.154   3.573   2.085
 5518SOL     OW17452   5.874   5.502   6.669
 5518SOL    HW117453   5.948   5.435   6.671
 5518SOL    HW217454   5.813   5.482   6.592
 5519SOL     OW17455   5.203   2.973   2.762
 5519SOL    HW117456   5.279   3.033   2.738
 5519SOL    HW217457   5.234   2.878   2.758
 5520SOL     OW17458   5.692   6.879   2.194
 5520SOL    HW117459   5.692   6.809   2.123
 5520SOL    HW217460   5.598   6.901   2.220
 5521SOL     OW17461   4.577   6.638   1.686
 5521SOL    HW117462   4.607   6.563   1.627
 5521SOL    HW217463   4.633   6.719   1.668
 5522SOL     OW17464   6.418   5.143   0.687
 5522SOL    HW117465   6.339   5.093   0.723
 5522SOL    HW217466   6.401   5.241   0.692
 5523SOL     OW17467   4.270   1.069   1.528
 5523SOL    HW117468   4.240   0.976   1.550
 5523SOL    HW217469   4.232   1.134   1.594
 5524SOL     OW17470   3.798   6.973   4.623
 5524SOL    HW117471   3.741   0.026   4.592
 5524SOL    HW217472   3.842   6.930   4.544
 5525SOL     OW17473   0.985   2.203   0.413
 5525SOL    HW117474   1.022   2.262   0.341
 5525SOL    HW217475   1.004   2.107   0.390
 5526SOL     OW17476   5.075   5.099   2.862
 5526SOL    HW117477   5.037   5.017   2.819
 5526SOL    HW217478   5.166   5.117   2.825
 5527SOL     OW17479   4.898   3.650   3.718
 5527SOL    HW117480   4.895   3.584   3.793
 5527SOL    HW217481   4.870   3.740   3.751
 5528SOL     OW17482   1.628   0.915   0.879
 5528SOL    HW117483   1.720   0.908   0.840
 5528SOL    HW217484   1.594   0.824   0.901
 5529SOL     OW17485   3.470   6.846   4.672
 5529SOL    HW117486   3.551   6.789   4.657
 5529SOL    HW217487   3.403   6.794   4.725
 5530SOL     OW17488   6.182   2.045   0.882
 5530SOL    HW117489   6.189   2.142   0.907
 5530SOL    HW217490   6.247   1.992   0.937
 5531SOL     OW17491   3.803   3.467   1.322
 5531SOL    HW117492   3.724   3.525   1.338
 5531SOL    HW217493   3.886   3.522   1.319
 5532SOL     OW17494   0.990   2.743   1.288
 5532SOL    HW117495   1.061   2.743   1.359
 5532SOL    HW217496   0.972   2.649   1.259
 5533SOL     OW17497   4.520   1.696   3.500
 5533SOL    HW117498   4.483   1.691   3.407
 5533SOL    HW217499   4.562   1.785   3.514
 5534SOL     OW17500   0.990   1.385   0.404
 5534SOL    HW117501   1.038   1.447   0.342
 5534SOL    HW217502   0.939   1.317   0.351
 5535SOL     OW17503   1.321   1.312   3.046
 5535SOL    HW117504   1.414   1.346   3.028
 5535SOL    HW217505   1.326   1.236   3.111
 5536SOL     OW17506   3.741   0.341   3.982
 5536SOL    HW117507   3.673   0.310   4.048
 5536SOL    HW217508   3.799   0.411   4.024
 5537SOL     OW17509   3.395   1.637   2.506
 5537SOL    HW117510   3.321   1.587   2.461
 5537SOL    HW217511   3.456   1.572   2.551
 5538SOL     OW17512   4.350   5.839   5.211
 5538SOL    HW117513   4.337   5.864   5.307
 5538SOL    HW217514   4.366   5.922   5.157
 5539SOL     OW17515   1.270   3.989   1.693
 5539SOL    HW117516   1.343   4.026   1.634
 5539SOL    HW217517   1.181   4.006   1.649
 5540SOL     OW17518   4.675   4.825   3.876
 5540SOL    HW117519   4.605   4.787   3.937
 5540SOL    HW217520   4.766   4.811   3.917
 5541SOL     OW17521   5.131   6.911   6.481
 5541SOL    HW117522   5.177   6.903   6.393
 5541SOL    HW217523   5.192   6.879   6.554
 5542SOL     OW17524   4.233   3.527   6.241
 5542SOL    HW117525   4.266   3.491   6.154
 5542SOL    HW217526   4.193   3.454   6.295
 5543SOL     OW17527   4.693   4.068   6.637
 5543SOL    HW117528   4.662   4.028   6.723
 5543SOL    HW217529   4.766   4.134   6.655
 5544SOL     OW17530   4.992   5.584   6.925
 5544SOL    HW117531   4.893   5.593   6.914
 5544SOL    HW217532   5.020   5.492   6.900
 5545SOL     OW17533   4.962   0.186   2.682
 5545SOL    HW117534   4.881   0.213   2.735
 5545SOL    HW217535   4.954   0.221   2.589
 5546SOL     OW17536   0.582   4.379   4.398
 5546SOL    HW117537   0.539   4.330   4.323
 5546SOL    HW217538   0.512   4.431   4.448
 5547SOL     OW17539   2.946   6.313   5.249
 5547SOL    HW117540   2.961   6.236   5.187
 5547SOL    HW217541   2.870   6.368   5.215
 5548SOL     OW17542   6.495   3.175   5.769
 5548SOL    HW117543   6.508   3.256   5.826
 5548SOL    HW217544   6.447   3.200   5.685
 5549SOL     OW17545   4.088   4.949   0.327
 5549SOL    HW117546   4.064   4.981   0.235
 5549SOL    HW217547   4.174   4.991   0.355
 5550SOL     OW17548   2.916   5.523   2.333
 5550SOL    HW117549   2.998   5.507   2.279
 5550SOL    HW217550   2.854   5.445   2.325
 5551SOL     OW17551   1.520   0.676   2.954
 5551SOL    HW117552   1.611   0.691   2.993
 5551SOL    HW217553   1.473   0.605   3.005
 5552SOL     OW17554   6.963   1.237   6.981
 5552SOL    HW117555   0.005   1.165   6.957
 5552SOL    HW217556   6.990   1.323   6.939
 5553SOL     OW17557   3.600   6.630   0.307
 5553SOL    HW117558   3.552   6.708   0.346
 5553SOL    HW217559   3.688   6.618   0.353
 5554SOL     OW17560   2.688   1.769   5.660
 5554SOL    HW117561   2.686   1.834   5.736
 5554SOL    HW217562   2.610   1.788   5.599
 5555SOL     OW17563   1.019   5.182   3.621
 5555SOL    HW117564   1.063   5.267   3.649
 5555SOL    HW217565   1.005   5.123   3.701
 5556SOL     OW17566   0.543   2.543   4.312
 5556SOL    HW117567   0.474   2.505   4.374
 5556SOL    HW217568   0.497   2.592   4.238
 5557SOL     OW17569   3.169   5.015   3.951
 5557SOL    HW117570   3.163   4.981   4.045
 5557SOL    HW217571   3.085   4.991   3.902
 5558SOL     OW17572   4.848   3.187   5.246
 5558SOL    HW117573   4.871   3.226   5.156
 5558SOL    HW217574   4.758   3.145   5.241
 5559SOL     OW17575   2.523   6.823   2.383
 5559SOL    HW117576   2.611   6.872   2.385
 5559SOL    HW217577   2.533   6.739   2.330
 5560SOL     OW17578   0.134   6.926   2.921
 5560SOL    HW117579   0.098   7.019   2.930
 5560SOL    HW217580   0.190   6.920   2.839
 5561SOL     OW17581   1.735   2.451   4.164
 5561SOL    HW117582   1.693   2.387   4.099
 5561SOL    HW217583   1.781   2.523   4.113
 5562SOL     OW17584   1.870   2.384   6.538
 5562SOL    HW117585   1.948   2.363   6.480
 5562SOL    HW217586   1.898   2.448   6.610
 5563SOL     OW17587   4.502   6.493   2.522
 5563SOL    HW117588   4.530   6.565   2.458
 5563SOL    HW217589   4.406   6.507   2.548
 5564SOL     OW17590   5.070   2.813   1.552
 5564SOL    HW117591   5.045   2.902   1.513
 5564SOL    HW217592   5.107   2.754   1.481
 5565SOL     OW17593   4.644   2.398   6.056
 5565SOL    HW117594   4.694   2.482   6.036
 5565SOL    HW217595   4.546   2.415   6.050
 5566SOL     OW17596   1.202   5.949   1.427
 5566SOL    HW117597   1.262   5.921   1.502
 5566SOL    HW217598   1.135   6.015   1.461
 5567SOL     OW17599   0.896   4.813   0.634
 5567SOL    HW117600   0.867   4.817   0.729
 5567SOL    HW217601   0.842   4.744   0.585
 5568SOL     OW17602   4.668   2.590   0.946
 5568SOL    HW117603   4.736   2.528   0.986
 5568SOL    HW217604   4.678   2.680   0.987
 5569SOL     OW17605   3.687   1.784   1.766
 5569SOL    HW117606   3.667   1.859   1.829
 5569SOL    HW217607   3.785   1.770   1.761
 5570SOL     OW17608   6.273   4.874   4.855
 5570SOL    HW117609   6.255   4.881   4.953
 5570SOL    HW217610   6.359   4.921   4.833
 5571SOL     OW17611   6.976   6.195   0.462
 5571SOL    HW117612   6.988   6.143   0.377
 5571SOL    HW217613   6.914   6.145   0.522
 5572SOL     OW17614   3.175   2.700   6.401
 5572SOL    HW117615   3.098   2.671   6.458
 5572SOL    HW217616   3.236   2.758   6.455
 5573SOL     OW17617   0.998   2.836   0.543
 5573SOL    HW117618   1.062   2.782   0.598
 5573SOL    HW217619   1.049   2.898   0.483
 5574SOL     OW17620   0.120   0.443   4.474
 5574SOL    HW117621   0.036   0.424   4.423
 5574SOL    HW217622   0.167   0.521   4.432
 5575SOL     OW17623   1.783   0.920   1.570
 5575SOL    HW117624   1.753   1.014   1.587
 5575SOL    HW217625   1.712   0.871   1.518
 5576SOL     OW17626   6.063   4.964   1.516
 5576SOL    HW117627   6.017   4.876   1.529
 5576SOL    HW217628   6.147   4.950   1.465
 5577SOL     OW17629   2.192   3.589   5.180
 5577SOL    HW117630   2.201   3.496   5.215
 5577SOL    HW217631   2.256   3.649   5.228
 5578SOL     OW17632   3.167   2.518   0.145
 5578SOL    HW117633   3.210   2.504   0.234
 5578SOL    HW217634   3.069   2.499   0.152
 5579SOL     OW17635   5.316   3.926   6.466
 5579SOL    HW117636   5.257   3.851   6.434
 5579SOL    HW217637   5.350   3.977   6.387
 5580SOL     OW17638   4.739   2.070   0.551
 5580SOL    HW117639   4.796   2.150   0.531
 5580SOL    HW217640   4.666   2.063   0.484
 5581SOL     OW17641   2.423   0.149   0.073
 5581SOL    HW117642   2.402   0.080   0.004
 5581SOL    HW217643   2.361   0.139   0.151
 5582SOL     OW17644   3.661   3.851   4.126
 5582SOL    HW117645   3.748   3.897   4.112
 5582SOL    HW217646   3.678   3.756   4.152
 5583SOL     OW17647   4.143   6.840   2.603
 5583SOL    HW117648   4.115   6.752   2.642
 5583SOL    HW217649   4.106   6.914   2.658
 5584SOL     OW17650   5.535   3.868   3.417
 5584SOL    HW117651   5.568   3.937   3.482
 5584SOL    HW217652   5.613   3.825   3.372
 5585SOL     OW17653   5.390   0.259   3.713
 5585SOL    HW117654   5.446   0.314   3.652
 5585SOL    HW217655   5.449   0.206   3.775
 5586SOL     OW17656   1.715   1.510   6.433
 5586SOL    HW117657   1.693   1.456   6.351
 5586SOL    HW217658   1.688   1.459   6.514
 5587SOL     OW17659   3.372   0.274   3.273
 5587SOL    HW117660   3.421   0.323   3.345
 5587SOL    HW217661   3.392   0.177   3.280
 5588SOL     OW17662   2.336   6.649   5.075
 5588SOL    HW117663   2.302   6.733   5.117
 5588SOL    HW217664   2.260   6.602   5.030
 5589SOL     OW17665   5.078   3.187   5.866
 5589SOL    HW117666   5.143   3.170   5.791
 5589SOL    HW217667   5.048   3.282   5.863
 5590SOL     OW17668   6.544   5.801   3.657
 5590SOL    HW117669   6.518   5.876   3.718
 5590SOL    HW217670   6.473   5.730   3.659
 5591SOL     OW17671   5.925   0.593   0.451
 5591SOL    HW117672   5.889   0.594   0.357
 5591SOL    HW217673   5.869   0.533   0.507
 5592SOL     OW17674   1.747   3.622   3.782
 5592SOL    HW117675   1.843   3.600   3.801
 5592SOL    HW217676   1.688   3.572   3.845
 5593SOL     OW17677   0.469   2.519   5.611
 5593SOL    HW117678   0.497   2.615   5.602
 5593SOL    HW217679   0.369   2.515   5.618
 5594SOL     OW17680   2.211   0.982   0.249
 5594SOL    HW117681   2.123   0.941   0.275
 5594SOL    HW217682   2.195   1.055   0.184
 5595SOL     OW17683   6.498   0.920   6.084
 5595SOL    HW117684   6.549   1.001   6.113
 5595SOL    HW217685   6.400   0.936   6.094
 5596SOL     OW17686   5.929   0.261   2.440
 5596SOL    HW117687   5.953   0.192   2.508
 5596SOL    HW217688   6.011   0.315   2.417
 5597SOL     OW17689   5.376   2.273   6.304
 5597SOL    HW117690   5.410   2.311   6.390
 5597SOL    HW217691   5.382   2.343   6.232
 5598SOL     OW17692   5.463   1.859   4.027
 5598SOL    HW117693   5.509   1.897   3.947
 5598SOL    HW217694   5.369   1.892   4.031
 5599SOL     OW17695   5.791   3.935   1.700
 5599SOL    HW117696   5.719   3.869   1.723
 5599SOL    HW217697   5.847   3.953   1.781
 5600SOL     OW17698   2.421   0.234   3.030
 5600SOL    HW117699   2.399   0.159   3.093
 5600SOL    HW217700   2.520   0.242   3.022
 5601SOL     OW17701   5.402   3.418   5.667
 5601SOL    HW117702   5.340   3.407   5.589
 5601SOL    HW217703   5.368   3.364   5.744
 5602SOL     OW17704   0.387   1.702   3.443
 5602SOL    HW117705   0.444   1.779   3.472
 5602SOL    HW217706   0.422   1.665   3.358
 5603SOL     OW17707   4.566   2.806   5.172
 5603SOL    HW117708   4.547   2.748   5.093
 5603SOL    HW217709   4.657   2.846   5.163
 5604SOL     OW17710   1.001   6.914   4.694
 5604SOL    HW117711   1.019   6.866   4.779
 5604SOL    HW217712   1.045   6.866   4.618
 5605SOL     OW17713   1.535   6.917   4.401
 5605SOL    HW117714   1.449   6.886   4.442
 5605SOL    HW217715   1.601   6.842   4.401
 5606SOL     OW17716   4.937   1.458   0.048
 5606SOL    HW117717   4.920   1.556   0.060
 5606SOL    HW217718   5.014   1.431   0.106
 5607SOL     OW17719   6.065   2.328   3.496
 5607SOL    HW117720   6.135   2.322   3.426
 5607SOL    HW217721   6.109   2.342   3.585
 5608SOL     OW17722   5.673   0.608   3.132
 5608SOL    HW117723   5.703   0.547   3.058
 5608SOL    HW217724   5.752   0.638   3.185
 5609SOL     OW17725   4.893   6.695   0.123
 5609SOL    HW117726   4.964   6.625   0.119
 5609SOL    HW217727   4.804   6.652   0.140
 5610SOL     OW17728   5.590   3.776   0.131
 5610SOL    HW117729   5.495   3.773   0.163
 5610SOL    HW217730   5.602   3.713   0.054
 5611SOL     OW17731   0.656   4.936   1.403
 5611SOL    HW117732   0.585   4.884   1.355
 5611SOL    HW217733   0.629   5.033   1.407
 5612SOL     OW17734   2.791   2.651   0.183
 5612SOL    HW117735   2.805   2.664   0.085
 5612SOL    HW217736   2.694   2.644   0.202
 5613SOL     OW17737   0.173   5.257   4.799
 5613SOL    HW117738   0.077   5.286   4.793
 5613SOL    HW217739   0.229   5.315   4.739
 5614SOL     OW17740   5.989   1.902   4.787
 5614SOL    HW117741   6.057   1.954   4.736
 5614SOL    HW217742   6.002   1.805   4.770
 5615SOL     OW17743   0.350   2.281   2.707
 5615SOL    HW117744   0.406   2.224   2.647
 5615SOL    HW217745   0.361   2.377   2.681
 5616SOL     OW17746   1.915   2.387   4.344
 5616SOL    HW117747   1.959   2.476   4.349
 5616SOL    HW217748   1.840   2.391   4.278
 5617SOL     OW17749   1.895   5.262   5.611
 5617SOL    HW117750   1.869   5.331   5.678
 5617SOL    HW217751   1.993   5.244   5.617
 5618SOL     OW17752   6.651   5.142   3.644
 5618SOL    HW117753   6.680   5.085   3.567
 5618SOL    HW217754   6.699   5.114   3.727
 5619SOL     OW17755   3.181   3.009   3.361
 5619SOL    HW117756   3.270   2.997   3.405
 5619SOL    HW217757   3.116   2.941   3.398
 5620SOL     OW17758   4.193   4.018   6.090
 5620SOL    HW117759   4.097   4.023   6.063
 5620SOL    HW217760   4.230   4.111   6.098
 5621SOL     OW17761   1.573   2.911   5.643
 5621SOL    HW117762   1.635   2.838   5.613
 5621SOL    HW217763   1.624   2.997   5.647
 5622SOL     OW17764   4.674   5.733   4.783
 5622SOL    HW117765   4.630   5.670   4.847
 5622SOL    HW217766   4.605   5.778   4.727
 5623SOL     OW17767   4.652   6.287   4.425
 5623SOL    HW117768   4.578   6.249   4.370
 5623SOL    HW217769   4.740   6.266   4.381
 5624SOL     OW17770   0.182   5.250   3.673
 5624SOL    HW117771   0.140   5.322   3.619
 5624SOL    HW217772   0.131   5.165   3.661
 5625SOL     OW17773   1.339   5.683   4.494
 5625SOL    HW117774   1.415   5.621   4.473
 5625SOL    HW217775   1.373   5.761   4.546
 5626SOL     OW17776   2.177   4.563   4.141
 5626SOL    HW117777   2.117   4.596   4.214
 5626SOL    HW217778   2.233   4.488   4.175
 5627SOL     OW17779   1.036   5.688   6.551
 5627SOL    HW117780   1.005   5.762   6.491
 5627SOL    HW217781   0.992   5.697   6.640
 5628SOL     OW17782   3.146   3.423   0.974
 5628SOL    HW117783   3.083   3.354   1.008
 5628SOL    HW217784   3.097   3.509   0.960
 5629SOL     OW17785   4.217   3.504   1.112
 5629SOL    HW117786   4.205   3.599   1.141
 5629SOL    HW217787   4.183   3.443   1.183
 5630SOL     OW17788   1.639   4.452   6.683
 5630SOL    HW117789   1.736   4.428   6.674
 5630SOL    HW217790   1.624   4.545   6.650
 5631SOL     OW17791   5.053   0.786   1.667
 5631SOL    HW117792   5.006   0.864   1.707
 5631SOL    HW217793   4.995   0.743   1.598
 5632SOL     OW17794   4.833   1.176   5.506
 5632SOL    HW117795   4.796   1.250   5.451
 5632SOL    HW217796   4.930   1.192   5.523
 5633SOL     OW17797   0.277   4.643   4.885
 5633SOL    HW117798   0.230   4.555   4.880
 5633SOL    HW217799   0.215   4.713   4.920
 5634SOL     OW17800   2.749   5.111   5.667
 5634SOL    HW117801   2.814   5.035   5.679
 5634SOL    HW217802   2.783   5.192   5.715
 5635SOL     OW17803   2.859   0.103   6.749
 5635SOL    HW117804   2.822   0.158   6.824
 5635SOL    HW217805   2.919   0.033   6.786
 5636SOL     OW17806   5.826   1.207   5.607
 5636SOL    HW117807   5.778   1.234   5.523
 5636SOL    HW217808   5.914   1.255   5.611
 5637SOL     OW17809   5.672   6.029   4.589
 5637SOL    HW117810   5.636   5.952   4.536
 5637SOL    HW217811   5.740   6.079   4.535
 5638SOL     OW17812   4.992   6.146   1.537
 5638SOL    HW117813   4.982   6.146   1.438
 5638SOL    HW217814   4.904   6.163   1.580
 5639SOL     OW17815   1.945   0.383   2.300
 5639SOL    HW117816   1.948   0.483   2.294
 5639SOL    HW217817   2.029   0.344   2.262
 5640SOL     OW17818   2.613   6.889   3.012
 5640SOL    HW117819   2.536   6.925   2.959
 5640SOL    HW217820   2.699   6.928   2.978
 5641SOL     OW17821   0.986   4.513   5.621
 5641SOL    HW117822   0.968   4.508   5.720
 5641SOL    HW217823   1.034   4.430   5.592
 5642SOL     OW17824   0.454   5.211   6.183
 5642SOL    HW117825   0.382   5.241   6.121
 5642SOL    HW217826   0.415   5.150   6.253
 5643SOL     OW17827   3.527   1.803   4.865
 5643SOL    HW117828   3.428   1.815   4.875
 5643SOL    HW217829   3.559   1.737   4.932
 5644SOL     OW17830   5.066   1.416   4.316
 5644SOL    HW117831   5.026   1.382   4.402
 5644SOL    HW217832   5.110   1.340   4.268
 5645SOL     OW17833   5.171   4.198   2.663
 5645SOL    HW117834   5.172   4.282   2.610
 5645SOL    HW217835   5.179   4.119   2.602
 5646SOL     OW17836   1.138   5.435   3.702
 5646SOL    HW117837   1.139   5.428   3.802
 5646SOL    HW217838   1.216   5.385   3.664
 5647SOL     OW17839   6.973   6.314   6.617
 5647SOL    HW117840   6.993   6.405   6.653
 5647SOL    HW217841   6.935   6.321   6.525
 5648SOL     OW17842   1.744   1.422   3.509
 5648SOL    HW117843   1.719   1.325   3.509
 5648SOL    HW217844   1.842   1.432   3.527
 5649SOL     OW17845   1.537   0.541   4.806
 5649SOL    HW117846   1.487   0.461   4.773
 5649SOL    HW217847   1.634   0.520   4.811
 5650SOL     OW17848   0.046   4.717   1.037
 5650SOL    HW117849   0.109   4.772   0.982
 5650SOL    HW217850   7.018   4.656   0.977
 5651SOL     OW17851   0.211   2.095   1.626
 5651SOL    HW117852   0.295   2.043   1.642
 5651SOL    HW217853   0.212   2.133   1.533
 5652SOL     OW17854   4.904   5.903   2.215
 5652SOL    HW117855   4.950   5.992   2.209
 5652SOL    HW217856   4.807   5.917   2.236
 5653SOL     OW17857   6.996   6.394   5.927
 5653SOL    HW117858   6.967   6.407   5.833
 5653SOL    HW217859   0.067   6.359   5.929
 5654SOL     OW17860   0.744   6.983   5.982
 5654SOL    HW117861   0.700   6.928   5.912
 5654SOL    HW217862   0.695   0.046   5.992
 5655SOL     OW17863   1.268   2.759   4.432
 5655SOL    HW117864   1.271   2.659   4.428
 5655SOL    HW217865   1.275   2.790   4.527
 5656SOL     OW17866   3.150   4.526   1.049
 5656SOL    HW117867   3.179   4.614   1.010
 5656SOL    HW217868   3.051   4.516   1.040
 5657SOL     OW17869   4.925   6.726   1.232
 5657SOL    HW117870   4.906   6.798   1.166
 5657SOL    HW217871   4.952   6.768   1.319
 5658SOL     OW17872   2.891   6.955   5.913
 5658SOL    HW117873   2.865   6.859   5.908
 5658SOL    HW217874   2.929   6.975   6.004
 5659SOL     OW17875   2.943   3.199   2.811
 5659SOL    HW117876   2.882   3.239   2.879
 5659SOL    HW217877   2.970   3.269   2.745
 5660SOL     OW17878   5.457   0.797   6.998
 5660SOL    HW117879   5.518   0.767   0.048
 5660SOL    HW217880   5.366   0.815   0.013
 5661SOL     OW17881   0.079   5.337   5.394
 5661SOL    HW117882   0.116   5.368   5.481
 5661SOL    HW217883   0.095   5.408   5.324
 5662SOL     OW17884   2.523   5.138   4.523
 5662SOL    HW117885   2.461   5.085   4.465
 5662SOL    HW217886   2.503   5.235   4.514
 5663SOL     OW17887   1.311   3.900   0.102
 5663SOL    HW117888   1.282   3.984   0.148
 5663SOL    HW217889   1.237   3.866   0.044
 5664SOL     OW17890   0.578   4.066   3.248
 5664SOL    HW117891   0.571   3.998   3.175
 5664SOL    HW217892   0.654   4.042   3.308
 5665SOL     OW17893   1.781   1.730   6.752
 5665SOL    HW117894   1.851   1.720   6.681
 5665SOL    HW217895   1.729   1.814   6.737
 5666SOL     OW17896   4.757   5.727   1.403
 5666SOL    HW117897   4.824   5.652   1.393
 5666SOL    HW217898   4.675   5.692   1.448
 5667SOL     OW17899   0.623   4.509   3.228
 5667SOL    HW117900   0.541   4.474   3.274
 5667SOL    HW217901   0.629   4.608   3.242
 5668SOL     OW17902   5.652   1.858   6.454
 5668SOL    HW117903   5.669   1.797   6.532
 5668SOL    HW217904   5.566   1.906   6.468
 5669SOL     OW17905   0.304   4.068   6.229
 5669SOL    HW117906   0.251   3.995   6.273
 5669SOL    HW217907   0.255   4.155   6.239
 5670SOL     OW17908   0.029   3.129   3.857
 5670SOL    HW117909   0.101   3.126   3.926
 5670SOL    HW217910   0.050   3.201   3.790
 5671SOL     OW17911   1.436   6.856   6.220
 5671SOL    HW117912   1.397   6.923   6.284
 5671SOL    HW217913   1.469   6.904   6.139
 5672SOL     OW17914   4.455   4.576   6.091
 5672SOL    HW117915   4.519   4.505   6.121
 5672SOL    HW217916   4.504   4.642   6.034
 5673SOL     OW17917   0.473   6.920   1.715
 5673SOL    HW117918   0.438   6.994   1.773
 5673SOL    HW217919   0.439   6.932   1.622
 5674SOL     OW17920   6.951   3.877   2.185
 5674SOL    HW117921   6.879   3.812   2.161
 5674SOL    HW217922   0.005   3.866   2.123
 5675SOL     OW17923   4.249   2.399   5.536
 5675SOL    HW117924   4.163   2.349   5.525
 5675SOL    HW217925   4.234   2.480   5.592
 5676SOL     OW17926   2.067   1.264   1.759
 5676SOL    HW117927   1.968   1.257   1.750
 5676SOL    HW217928   2.107   1.285   1.669
 5677SOL     OW17929   0.903   1.490   3.471
 5677SOL    HW117930   0.885   1.578   3.515
 5677SOL    HW217931   0.902   1.502   3.372
 5678SOL     OW17932   3.389   6.469   2.837
 5678SOL    HW117933   3.390   6.455   2.936
 5678SOL    HW217934   3.449   6.401   2.793
 5679SOL     OW17935   1.954   6.857   4.721
 5679SOL    HW117936   2.004   6.858   4.808
 5679SOL    HW217937   1.892   6.778   4.719
 5680SOL     OW17938   1.619   5.528   0.553
 5680SOL    HW117939   1.598   5.624   0.536
 5680SOL    HW217940   1.682   5.520   0.630
 5681SOL     OW17941   1.405   3.532   6.663
 5681SOL    HW117942   1.311   3.501   6.649
 5681SOL    HW217943   1.440   3.574   6.580
 5682SOL     OW17944   2.242   4.021   5.981
 5682SOL    HW117945   2.273   4.079   6.056
 5682SOL    HW217946   2.255   3.925   6.005
 5683SOL     OW17947   4.362   2.187   6.311
 5683SOL    HW117948   4.406   2.100   6.334
 5683SOL    HW217949   4.432   2.255   6.291
 5684SOL     OW17950   4.129   3.513   4.705
 5684SOL    HW117951   4.051   3.543   4.759
 5684SOL    HW217952   4.214   3.532   4.755
 5685SOL     OW17953   1.027   4.620   1.600
 5685SOL    HW117954   0.999   4.551   1.667
 5685SOL    HW217955   0.977   4.705   1.615
 5686SOL     OW17956   3.097   0.713   0.227
 5686SOL    HW117957   3.166   0.674   0.287
 5686SOL    HW217958   3.012   0.660   0.235
 5687SOL     OW17959   5.922   4.132   4.618
 5687SOL    HW117960   5.844   4.177   4.574
 5687SOL    HW217961   5.891   4.049   4.665
 5688SOL     OW17962   6.426   1.868   0.905
 5688SOL    HW117963   6.484   1.832   0.977
 5688SOL    HW217964   6.391   1.793   0.849
 5689SOL     OW17965   3.943   1.068   0.431
 5689SOL    HW117966   3.909   0.992   0.375
 5689SOL    HW217967   3.867   1.128   0.454
 5690SOL     OW17968   3.014   6.414   1.066
 5690SOL    HW117969   3.003   6.324   1.022
 5690SOL    HW217970   3.108   6.423   1.099
 5691SOL     OW17971   3.249   6.261   2.120
 5691SOL    HW117972   3.242   6.213   2.033
 5691SOL    HW217973   3.160   6.262   2.165
 5692SOL     OW17974   6.634   2.406   6.003
 5692SOL    HW117975   6.650   2.308   6.013
 5692SOL    HW217976   6.676   2.438   5.918
 5693SOL     OW17977   5.270   2.665   2.102
 5693SOL    HW117978   5.193   2.675   2.040
 5693SOL    HW217979   5.270   2.572   2.139
 5694SOL     OW17980   0.510   1.208   3.991
 5694SOL    HW117981   0.542   1.114   4.000
 5694SOL    HW217982   0.588   1.268   3.970
 5695SOL     OW17983   1.132   2.047   2.984
 5695SOL    HW117984   1.121   2.146   2.990
 5695SOL    HW217985   1.176   2.024   2.897
 5696SOL     OW17986   2.334   0.851   3.174
 5696SOL    HW117987   2.292   0.942   3.167
 5696SOL    HW217988   2.413   0.847   3.113
 5697SOL     OW17989   6.265   1.941   1.323
 5697SOL    HW117990   6.269   1.967   1.226
 5697SOL    HW217991   6.264   1.841   1.330
 5698SOL     OW17992   0.451   2.158   2.510
 5698SOL    HW117993   0.521   2.087   2.504
 5698SOL    HW217994   0.473   2.232   2.447
 5699SOL     OW17995   6.458   1.561   3.681
 5699SOL    HW117996   6.527   1.491   3.696
 5699SOL    HW217997   6.391   1.557   3.755
 5700SOL     OW17998   6.662   5.792   4.613
 5700SOL    HW117999   6.608   5.768   4.693
 5700SOL    HW218000   6.746   5.738   4.611
 5701SOL     OW18001   0.832   5.553   3.467
 5701SOL    HW118002   0.754   5.491   3.459
 5701SOL    HW218003   0.872   5.545   3.558
 5702SOL     OW18004   2.238   7.006   5.701
 5702SOL    HW118005   2.210   6.930   5.759
 5702SOL    HW218006   2.178   7.011   5.621
 5703SOL     OW18007   4.714   4.662   0.455
 5703SOL    HW118008   4.643   4.603   0.493
 5703SOL    HW218009   4.801   4.612   0.453
 5704SOL     OW18010   4.316   5.761   2.761
 5704SOL    HW118011   4.283   5.848   2.724
 5704SOL    HW218012   4.290   5.753   2.857
 5705SOL     OW18013   6.245   1.413   0.110
 5705SOL    HW118014   6.340   1.381   0.102
 5705SOL    HW218015   6.232   1.493   0.051
 5706SOL     OW18016   1.379   1.534   0.513
 5706SOL    HW118017   1.333   1.598   0.574
 5706SOL    HW218018   1.369   1.441   0.548
 5707SOL     OW18019   1.112   6.810   7.021
 5707SOL    HW118020   1.103   6.770   6.929
 5707SOL    HW218021   1.020   6.823   0.037
 5708SOL     OW18022   5.504   6.701   1.639
 5708SOL    HW118023   5.510   6.611   1.683
 5708SOL    HW218024   5.457   6.692   1.552
 5709SOL     OW18025   1.104   6.338   3.468
 5709SOL    HW118026   1.117   6.260   3.407
 5709SOL    HW218027   1.075   6.418   3.416
 5710SOL     OW18028   2.479   3.489   5.339
 5710SOL    HW118029   2.560   3.465   5.392
 5710SOL    HW218030   2.468   3.589   5.338
 5711SOL     OW18031   5.311   0.370   3.343
 5711SOL    HW118032   5.395   0.317   3.334
 5711SOL    HW218033   5.323   0.459   3.299
 5712SOL     OW18034   0.923   6.448   5.531
 5712SOL    HW118035   0.847   6.499   5.572
 5712SOL    HW218036   1.007   6.502   5.539
 5713SOL     OW18037   0.810   2.530   1.370
 5713SOL    HW118038   0.823   2.556   1.466
 5713SOL    HW218039   0.733   2.466   1.364
 5714SOL     OW18040   1.348   6.736   6.872
 5714SOL    HW118041   1.448   6.737   6.873
 5714SOL    HW218042   1.316   6.647   6.838
 5715SOL     OW18043   0.937   5.869   3.040
 5715SOL    HW118044   0.962   5.954   3.086
 5715SOL    HW218045   0.838   5.858   3.040
 5716SOL     OW18046   0.541   3.859   5.389
 5716SOL    HW118047   0.564   3.762   5.386
 5716SOL    HW218048   0.613   3.911   5.343
 5717SOL     OW18049   1.624   5.091   0.124
 5717SOL    HW118050   1.535   5.048   0.113
 5717SOL    HW218051   1.612   5.183   0.163
 5718SOL     OW18052   1.617   4.554   6.294
 5718SOL    HW118053   1.653   4.609   6.368
 5718SOL    HW218054   1.548   4.490   6.330
 5719SOL     OW18055   2.543   1.492   6.085
 5719SOL    HW118056   2.464   1.548   6.111
 5719SOL    HW218057   2.557   1.499   5.986
 5720SOL     OW18058   0.566   4.926   4.892
 5720SOL    HW118059   0.469   4.920   4.869
 5720SOL    HW218060   0.620   4.883   4.820
 5721SOL     OW18061   0.889   3.688   0.462
 5721SOL    HW118062   0.946   3.697   0.380
 5721SOL    HW218063   0.813   3.627   0.443
 5722SOL     OW18064   5.825   1.512   5.176
 5722SOL    HW118065   5.824   1.490   5.079
 5722SOL    HW218066   5.870   1.438   5.226
 5723SOL     OW18067   4.283   4.276   0.751
 5723SOL    HW118068   4.382   4.285   0.759
 5723SOL    HW218069   4.243   4.259   0.841
 5724SOL     OW18070   3.896   2.342   5.246
 5724SOL    HW118071   3.961   2.405   5.289
 5724SOL    HW218072   3.822   2.322   5.310
 5725SOL     OW18073   5.242   6.307   3.219
 5725SOL    HW118074   5.330   6.331   3.178
 5725SOL    HW218075   5.257   6.271   3.312
 5726SOL     OW18076   6.361   2.977   3.895
 5726SOL    HW118077   6.376   2.929   3.981
 5726SOL    HW218078   6.437   3.040   3.878
 5727SOL     OW18079   6.133   3.478   3.349
 5727SOL    HW118080   6.114   3.469   3.252
 5727SOL    HW218081   6.047   3.473   3.401
 5728SOL     OW18082   4.539   1.981   6.364
 5728SOL    HW118083   4.603   2.027   6.425
 5728SOL    HW218084   4.485   1.915   6.416
 5729SOL     OW18085   1.271   1.649   0.755
 5729SOL    HW118086   1.309   1.618   0.842
 5729SOL    HW218087   1.185   1.601   0.737
 5730SOL     OW18088   4.592   5.579   5.451
 5730SOL    HW118089   4.496   5.554   5.437
 5730SOL    HW218090   4.598   5.675   5.477
 5731SOL     OW18091   1.786   6.596   3.746
 5731SOL    HW118092   1.746   6.578   3.656
 5731SOL    HW218093   1.868   6.652   3.735
 5732SOL     OW18094   6.164   4.839   5.178
 5732SOL    HW118095   6.155   4.937   5.195
 5732SOL    HW218096   6.233   4.800   5.239
 5733SOL     OW18097   3.408   1.001   6.047
 5733SOL    HW118098   3.500   0.995   6.008
 5733SOL    HW218099   3.382   0.912   6.086
 5734SOL     OW18100   0.610   6.726   6.009
 5734SOL    HW118101   0.606   6.628   6.028
 5734SOL    HW218102   0.656   6.773   6.085
 5735SOL     OW18103   3.480   1.441   2.234
 5735SOL    HW118104   3.524   1.423   2.322
 5735SOL    HW218105   3.389   1.480   2.249
 5736SOL     OW18106   5.121   4.682   0.301
 5736SOL    HW118107   5.207   4.653   0.260
 5736SOL    HW218108   5.121   4.781   0.311
 5737SOL     OW18109   5.564   6.102   0.972
 5737SOL    HW118110   5.542   6.183   0.917
 5737SOL    HW218111   5.482   6.046   0.985
 5738SOL     OW18112   3.757   1.441   6.883
 5738SOL    HW118113   3.725   1.508   6.817
 5738SOL    HW218114   3.751   1.479   6.976
 5739SOL     OW18115   1.609   6.927   5.718
 5739SOL    HW118116   1.532   6.873   5.750
 5739SOL    HW218117   1.688   6.910   5.776
 5740SOL     OW18118   4.355   3.309   0.967
 5740SOL    HW118119   4.321   3.381   1.027
 5740SOL    HW218120   4.279   3.249   0.940
 5741SOL     OW18121   6.857   3.371   4.188
 5741SOL    HW118122   6.788   3.300   4.173
 5741SOL    HW218123   6.812   3.460   4.196
 5742SOL     OW18124   4.513   6.589   3.391
 5742SOL    HW118125   4.470   6.669   3.433
 5742SOL    HW218126   4.502   6.593   3.292
 5743SOL     OW18127   3.421   5.481   5.434
 5743SOL    HW118128   3.461   5.395   5.465
 5743SOL    HW218129   3.324   5.482   5.455
 5744SOL     OW18130   5.565   1.024   2.551
 5744SOL    HW118131   5.571   1.023   2.650
 5744SOL    HW218132   5.470   1.033   2.523
 5745SOL     OW18133   2.444   0.887   4.149
 5745SOL    HW118134   2.458   0.946   4.069
 5745SOL    HW218135   2.505   0.915   4.223
 5746SOL     OW18136   4.912   6.917   2.156
 5746SOL    HW118137   4.942   7.008   2.129
 5746SOL    HW218138   4.841   6.924   2.227
 5747SOL     OW18139   0.601   6.084   1.656
 5747SOL    HW118140   0.651   6.115   1.737
 5747SOL    HW218141   0.545   6.004   1.679
 5748SOL     OW18142   1.601   0.064   0.956
 5748SOL    HW118143   1.684   0.017   0.987
 5748SOL    HW218144   1.602   0.071   0.856
 5749SOL     OW18145   1.752   6.363   4.847
 5749SOL    HW118146   1.806   6.279   4.843
 5749SOL    HW218147   1.656   6.340   4.868
 5750SOL     OW18148   6.223   5.508   5.754
 5750SOL    HW118149   6.270   5.568   5.819
 5750SOL    HW218150   6.124   5.516   5.767
 5751SOL     OW18151   2.014   2.884   5.006
 5751SOL    HW118152   2.107   2.893   4.969
 5751SOL    HW218153   1.952   2.944   4.955
 5752SOL     OW18154   5.480   0.268   1.006
 5752SOL    HW118155   5.424   0.217   1.072
 5752SOL    HW218156   5.572   0.279   1.042
 5753SOL     OW18157   2.917   3.446   4.652
 5753SOL    HW118158   2.861   3.492   4.721
 5753SOL    HW218159   3.013   3.448   4.681
 5754SOL     OW18160   1.247   5.603   1.656
 5754SOL    HW118161   1.261   5.613   1.557
 5754SOL    HW218162   1.195   5.681   1.690
 5755SOL     OW18163   1.778   2.067   5.567
 5755SOL    HW118164   1.845   2.010   5.519
 5755SOL    HW218165   1.716   2.109   5.501
 5756SOL     OW18166   0.594   0.378   2.608
 5756SOL    HW118167   0.496   0.401   2.603
 5756SOL    HW218168   0.608   0.286   2.570
 5757SOL     OW18169   0.109   5.317   4.156
 5757SOL    HW118170   0.109   5.417   4.156
 5757SOL    HW218171   0.201   5.284   4.135
 5758SOL     OW18172   2.598   1.493   2.856
 5758SOL    HW118173   2.672   1.448   2.907
 5758SOL    HW218174   2.533   1.424   2.826
 5759SOL     OW18175   4.805   1.221   0.544
 5759SOL    HW118176   4.841   1.282   0.615
 5759SOL    HW218177   4.879   1.191   0.485
 5760SOL     OW18178   6.477   2.489   1.218
 5760SOL    HW118179   6.386   2.459   1.245
 5760SOL    HW218180   6.513   2.552   1.286
 5761SOL     OW18181   5.660   5.379   5.570
 5761SOL    HW118182   5.729   5.339   5.630
 5761SOL    HW218183   5.569   5.352   5.601
 5762SOL     OW18184   4.500   3.982   0.909
 5762SOL    HW118185   4.502   3.968   1.008
 5762SOL    HW218186   4.524   4.077   0.888
 5763SOL     OW18187   5.772   6.486   0.901
 5763SOL    HW118188   5.720   6.443   0.974
 5763SOL    HW218189   5.818   6.568   0.935
 5764SOL     OW18190   4.350   5.321   4.490
 5764SOL    HW118191   4.334   5.222   4.501
 5764SOL    HW218192   4.278   5.359   4.432
 5765SOL     OW18193   6.246   3.538   0.683
 5765SOL    HW118194   6.280   3.478   0.756
 5765SOL    HW218195   6.274   3.502   0.594
 5766SOL     OW18196   1.849   1.768   5.008
 5766SOL    HW118197   1.898   1.855   5.011
 5766SOL    HW218198   1.755   1.782   5.040
 5767SOL     OW18199   2.643   0.298   0.520
 5767SOL    HW118200   2.639   0.261   0.427
 5767SOL    HW218201   2.717   0.365   0.526
 5768SOL     OW18202   0.742   0.309   3.615
 5768SOL    HW118203   0.668   0.355   3.664
 5768SOL    HW218204   0.762   0.222   3.660
 5769SOL     OW18205   2.956   5.863   4.789
 5769SOL    HW118206   2.891   5.825   4.855
 5769SOL    HW218207   3.049   5.850   4.823
 5770SOL     OW18208   6.684   0.087   6.490
 5770SOL    HW118209   6.607   0.055   6.435
 5770SOL    HW218210   6.729   0.009   6.534
 5771SOL     OW18211   1.842   7.013   4.062
 5771SOL    HW118212   1.784   6.945   4.016
 5771SOL    HW218213   1.870   0.059   3.996
 5772SOL     OW18214   5.546   1.156   0.976
 5772SOL    HW118215   5.634   1.194   0.949
 5772SOL    HW218216   5.551   1.123   1.070
 5773SOL     OW18217   4.294   1.142   3.349
 5773SOL    HW118218   4.242   1.056   3.346
 5773SOL    HW218219   4.367   1.134   3.416
 5774SOL     OW18220   2.961   0.305   4.617
 5774SOL    HW118221   2.957   0.271   4.711
 5774SOL    HW218222   2.969   0.228   4.554
 5775SOL     OW18223   0.931   0.185   2.640
 5775SOL    HW118224   0.977   0.274   2.643
 5775SOL    HW218225   0.999   0.112   2.648
 5776SOL     OW18226   0.913   0.113   3.676
 5776SOL    HW118227   0.966   0.183   3.723
 5776SOL    HW218228   0.859   0.061   3.743
 5777SOL     OW18229   0.902   0.210   4.241
 5777SOL    HW118230   0.807   0.228   4.265
 5777SOL    HW218231   0.912   0.212   4.141
 5778SOL     OW18232   1.567   0.188   0.285
 5778SOL    HW118233   1.477   0.175   0.243
 5778SOL    HW218234   1.568   0.145   0.375
 5779SOL     OW18235   4.387   2.599   0.348
 5779SOL    HW118236   4.400   2.606   0.447
 5779SOL    HW218237   4.443   2.667   0.301
 5780SOL     OW18238   6.251   6.061   4.159
 5780SOL    HW118239   6.160   6.074   4.200
 5780SOL    HW218240   6.292   6.150   4.140
 5781SOL     OW18241   0.069   4.693   4.184
 5781SOL    HW118242   0.095   4.790   4.181
 5781SOL    HW218243   0.030   4.672   4.274
 5782SOL     OW18244   2.014   1.824   0.726
 5782SOL    HW118245   1.994   1.729   0.703
 5782SOL    HW218246   2.073   1.864   0.655
 5783SOL     OW18247   1.190   0.835   1.840
 5783SOL    HW118248   1.273   0.785   1.865
 5783SOL    HW218249   1.109   0.783   1.868
 5784SOL     OW18250   0.643   6.463   5.329
 5784SOL    HW118251   0.670   6.559   5.338
 5784SOL    HW218252   0.724   6.408   5.308
 5785SOL     OW18253   1.879   2.837   0.291
 5785SOL    HW118254   1.784   2.824   0.263
 5785SOL    HW218255   1.895   2.791   0.378
 5786SOL     OW18256   0.321   3.590   0.261
 5786SOL    HW118257   0.347   3.647   0.339
 5786SOL    HW218258   0.232   3.619   0.226
 5787SOL     OW18259   2.341   1.969   4.984
 5787SOL    HW118260   2.294   2.016   4.909
 5787SOL    HW218261   2.414   1.912   4.947
 5788SOL     OW18262   2.959   1.322   1.855
 5788SOL    HW118263   2.974   1.389   1.928
 5788SOL    HW218264   2.864   1.329   1.824
 5789SOL     OW18265   3.480   5.007   0.233
 5789SOL    HW118266   3.454   5.092   0.278
 5789SOL    HW218267   3.523   4.945   0.299
 5790SOL     OW18268   1.495   4.340   4.691
 5790SOL    HW118269   1.520   4.436   4.681
 5790SOL    HW218270   1.458   4.306   4.605
 5791SOL     OW18271   3.768   1.095   2.194
 5791SOL    HW118272   3.829   1.054   2.126
 5791SOL    HW218273   3.745   1.188   2.165
 5792SOL     OW18274   6.290   3.066   2.657
 5792SOL    HW118275   6.334   3.084   2.744
 5792SOL    HW218276   6.350   3.097   2.582
 5793SOL     OW18277   5.283   1.008   3.870
 5793SOL    HW118278   5.285   0.915   3.835
 5793SOL    HW218279   5.199   1.053   3.840
 5794SOL     OW18280   2.796   1.353   0.591
 5794SOL    HW118281   2.818   1.382   0.684
 5794SOL    HW218282   2.775   1.433   0.535
 5795SOL     OW18283   6.762   6.692   0.521
 5795SOL    HW118284   6.796   6.678   0.613
 5795SOL    HW218285   6.801   6.624   0.459
 5796SOL     OW18286   4.084   1.442   6.869
 5796SOL    HW118287   4.038   1.525   6.838
 5796SOL    HW218288   4.117   1.456   6.962
 5797SOL     OW18289   4.671   2.092   5.980
 5797SOL    HW118290   4.758   2.076   5.934
 5797SOL    HW218291   4.656   2.190   5.992
 5798SOL     OW18292   0.817   4.306   5.123
 5798SOL    HW118293   0.860   4.333   5.210
 5798SOL    HW218294   0.726   4.348   5.117
 5799SOL     OW18295   6.450   0.774   2.858
 5799SOL    HW118296   6.467   0.812   2.767
 5799SOL    HW218297   6.535   0.769   2.909
 5800SOL     OW18298   6.291   6.627   1.616
 5800SOL    HW118299   6.240   6.546   1.586
 5800SOL    HW218300   6.238   6.709   1.595
 5801SOL     OW18301   1.962   2.023   3.170
 5801SOL    HW118302   1.889   1.982   3.224
 5801SOL    HW218303   2.008   2.093   3.225
 5802SOL     OW18304   1.463   4.654   1.301
 5802SOL    HW118305   1.506   4.679   1.214
 5802SOL    HW218306   1.502   4.569   1.335
 5803SOL     OW18307   1.931   5.024   2.696
 5803SOL    HW118308   1.843   5.058   2.662
 5803SOL    HW218309   1.983   4.986   2.619
 5804SOL     OW18310   0.309   4.977   3.939
 5804SOL    HW118311   0.403   4.956   3.967
 5804SOL    HW218312   0.311   5.026   3.852
 5805SOL     OW18313   2.476   3.925   6.175
 5805SOL    HW118314   2.418   3.883   6.105
 5805SOL    HW218315   2.432   4.009   6.208
 5806SOL     OW18316   0.008   5.741   5.372
 5806SOL    HW118317   6.933   5.761   5.373
 5806SOL    HW218318   0.032   5.687   5.453
 5807SOL     OW18319   0.431   3.655   2.035
 5807SOL    HW118320   0.401   3.564   2.066
 5807SOL    HW218321   0.364   3.692   1.970
 5808SOL     OW18322   5.382   5.430   4.963
 5808SOL    HW118323   5.414   5.335   4.958
 5808SOL    HW218324   5.420   5.474   5.044
 5809SOL     OW18325   5.728   1.967   4.823
 5809SOL    HW118326   5.824   1.982   4.846
 5809SOL    HW218327   5.676   2.051   4.838
 5810SOL     OW18328   3.929   1.865   4.411
 5810SOL    HW118329   3.965   1.772   4.417
 5810SOL    HW218330   3.878   1.886   4.494
 5811SOL     OW18331   3.027   0.247   5.826
 5811SOL    HW118332   3.083   0.326   5.851
 5811SOL    HW218333   2.956   0.275   5.762
 5812SOL     OW18334   6.364   2.021   4.427
 5812SOL    HW118335   6.367   1.936   4.375
 5812SOL    HW218336   6.410   2.094   4.376
 5813SOL     OW18337   1.886   1.821   0.991
 5813SOL    HW118338   1.904   1.843   0.896
 5813SOL    HW218339   1.787   1.820   1.007
 5814SOL     OW18340   6.183   4.528   1.121
 5814SOL    HW118341   6.195   4.552   1.025
 5814SOL    HW218342   6.201   4.430   1.134
 5815SOL     OW18343   3.707   2.053   4.352
 5815SOL    HW118344   3.726   2.091   4.262
 5815SOL    HW218345   3.768   1.975   4.368
 5816SOL     OW18346   4.560   5.830   6.741
 5816SOL    HW118347   4.572   5.904   6.676
 5816SOL    HW218348   4.464   5.822   6.767
 5817SOL     OW18349   5.998   3.587   6.386
 5817SOL    HW118350   5.907   3.595   6.346
 5817SOL    HW218351   6.066   3.624   6.322
 5818SOL     OW18352   6.536   5.674   4.811
 5818SOL    HW118353   6.519   5.726   4.894
 5818SOL    HW218354   6.585   5.590   4.833
 5819SOL     OW18355   4.221   6.423   0.047
 5819SOL    HW118356   4.193   6.328   0.039
 5819SOL    HW218357   4.267   6.437   0.135
 5820SOL     OW18358   3.916   5.805   3.809
 5820SOL    HW118359   3.902   5.796   3.908
 5820SOL    HW218360   3.995   5.752   3.781
 5821SOL     OW18361   0.437   6.966   1.374
 5821SOL    HW118362   0.342   6.961   1.405
 5821SOL    HW218363   0.449   0.021   1.313
 5822SOL     OW18364   0.776   2.576   2.308
 5822SOL    HW118365   0.809   2.533   2.224
 5822SOL    HW218366   0.854   2.608   2.362
 5823SOL     OW18367   1.171   1.294   5.452
 5823SOL    HW118368   1.239   1.310   5.524
 5823SOL    HW218369   1.082   1.275   5.494
 5824SOL     OW18370   6.348   5.133   2.726
 5824SOL    HW118371   6.351   5.226   2.688
 5824SOL    HW218372   6.380   5.068   2.657
 5825SOL     OW18373   2.409   1.936   5.250
 5825SOL    HW118374   2.381   1.983   5.166
 5825SOL    HW218375   2.506   1.954   5.267
 5826SOL     OW18376   0.058   5.162   5.660
 5826SOL    HW118377   0.059   5.085   5.724
 5826SOL    HW218378   0.041   5.128   5.567
 5827SOL     OW18379   1.912   4.815   4.690
 5827SOL    HW118380   1.837   4.874   4.660
 5827SOL    HW218381   1.974   4.798   4.612
 5828SOL     OW18382   6.616   2.826   1.627
 5828SOL    HW118383   6.545   2.880   1.671
 5828SOL    HW218384   6.662   2.770   1.695
 5829SOL     OW18385   2.221   1.125   3.119
 5829SOL    HW118386   2.179   1.194   3.059
 5829SOL    HW218387   2.231   1.162   3.211
 5830SOL     OW18388   4.883   0.043   5.275
 5830SOL    HW118389   4.837   0.125   5.308
 5830SOL    HW218390   4.932   7.023   5.351
 5831SOL     OW18391   0.039   0.734   4.767
 5831SOL    HW118392   7.021   0.777   4.687
 5831SOL    HW218393   6.996   0.734   4.842
 5832SOL     OW18394   3.606   4.912   5.883
 5832SOL    HW118395   3.577   4.942   5.974
 5832SOL    HW218396   3.696   4.950   5.862
 5833SOL     OW18397   4.232   3.805   5.276
 5833SOL    HW118398   4.161   3.848   5.220
 5833SOL    HW218399   4.279   3.875   5.330
 5834SOL     OW18400   6.746   3.308   6.834
 5834SOL    HW118401   6.681   3.374   6.873
 5834SOL    HW218402   6.800   3.353   6.763
 5835SOL     OW18403   4.929   3.233   4.057
 5835SOL    HW118404   4.852   3.188   4.012
 5835SOL    HW218405   4.977   3.167   4.115
 5836SOL     OW18406   3.123   6.477   2.792
 5836SOL    HW118407   3.096   6.555   2.847
 5836SOL    HW218408   3.223   6.475   2.784
 5837SOL     OW18409   4.123   4.727   6.415
 5837SOL    HW118410   4.223   4.733   6.410
 5837SOL    HW218411   4.090   4.668   6.342
 5838SOL     OW18412   3.120   2.753   6.808
 5838SOL    HW118413   3.153   2.798   6.725
 5838SOL    HW218414   3.023   2.732   6.797
 5839SOL     OW18415   0.522   1.821   2.122
 5839SOL    HW118416   0.575   1.871   2.190
 5839SOL    HW218417   0.456   1.762   2.169
 5840SOL     OW18418   1.141   5.445   6.176
 5840SOL    HW118419   1.152   5.374   6.245
 5840SOL    HW218420   1.043   5.461   6.161
 5841SOL     OW18421   4.635   1.866   2.527
 5841SOL    HW118422   4.608   1.812   2.606
 5841SOL    HW218423   4.644   1.806   2.447
 5842SOL     OW18424   4.771   3.153   1.341
 5842SOL    HW118425   4.722   3.193   1.264
 5842SOL    HW218426   4.712   3.087   1.387
 5843SOL     OW18427   2.181   3.934   2.654
 5843SOL    HW118428   2.250   3.861   2.656
 5843SOL    HW218429   2.090   3.893   2.658
 5844SOL     OW18430   1.559   6.281   6.001
 5844SOL    HW118431   1.600   6.258   5.913
 5844SOL    HW218432   1.609   6.357   6.043
 5845SOL     OW18433   0.733   0.553   2.230
 5845SOL    HW118434   0.693   0.645   2.232
 5845SOL    HW218435   0.742   0.523   2.135
 5846SOL     OW18436   0.194   2.087   3.690
 5846SOL    HW118437   0.248   2.132   3.619
 5846SOL    HW218438   0.127   2.152   3.727
 5847SOL     OW18439   2.107   2.255   1.643
 5847SOL    HW118440   2.061   2.196   1.577
 5847SOL    HW218441   2.200   2.275   1.611
 5848SOL     OW18442   2.240   5.155   3.090
 5848SOL    HW118443   2.282   5.162   2.999
 5848SOL    HW218444   2.167   5.223   3.098
 5849SOL     OW18445   0.396   0.052   6.827
 5849SOL    HW118446   0.478   0.073   6.775
 5849SOL    HW218447   0.315   0.081   6.775
 5850SOL     OW18448   0.122   3.760   2.022
 5850SOL    HW118449   0.180   3.839   2.040
 5850SOL    HW218450   0.126   3.697   2.100
 5851SOL     OW18451   5.774   3.727   3.364
 5851SOL    HW118452   5.741   3.633   3.375
 5851SOL    HW218453   5.871   3.730   3.389
 5852SOL     OW18454   6.284   6.265   3.488
 5852SOL    HW118455   6.357   6.315   3.533
 5852SOL    HW218456   6.197   6.285   3.533
 5853SOL     OW18457   3.771   5.598   4.655
 5853SOL    HW118458   3.725   5.684   4.632
 5853SOL    HW218459   3.712   5.543   4.714
 5854SOL     OW18460   5.898   5.051   5.901
 5854SOL    HW118461   5.825   5.117   5.917
 5854SOL    HW218462   5.885   5.009   5.812
 5855SOL     OW18463   0.206   1.082   4.596
 5855SOL    HW118464   0.119   1.109   4.638
 5855SOL    HW218465   0.192   1.061   4.500
 5856SOL     OW18466   1.979   5.638   4.144
 5856SOL    HW118467   1.903   5.699   4.168
 5856SOL    HW218468   2.065   5.679   4.176
 5857SOL     OW18469   6.036   2.729   5.603
 5857SOL    HW118470   6.056   2.634   5.628
 5857SOL    HW218471   6.121   2.781   5.601
 5858SOL     OW18472   1.913   2.389   2.062
 5858SOL    HW118473   1.877   2.296   2.059
 5858SOL    HW218474   1.985   2.396   2.131
 5859SOL     OW18475   5.697   6.291   1.692
 5859SOL    HW118476   5.706   6.191   1.697
 5859SOL    HW218477   5.754   6.326   1.619
 5860SOL     OW18478   1.587   4.019   1.972
 5860SOL    HW118479   1.674   4.059   2.001
 5860SOL    HW218480   1.601   3.924   1.945
 5861SOL     OW18481   4.662   1.027   4.505
 5861SOL    HW118482   4.729   1.052   4.436
 5861SOL    HW218483   4.605   1.107   4.527
 5862SOL     OW18484   4.999   5.303   2.373
 5862SOL    HW118485   4.957   5.240   2.439
 5862SOL    HW218486   5.098   5.302   2.384
 5863SOL     OW18487   3.158   0.554   4.725
 5863SOL    HW118488   3.176   0.534   4.628
 5863SOL    HW218489   3.176   0.473   4.779
 5864SOL     OW18490   4.071   3.578   1.357
 5864SOL    HW118491   4.083   3.488   1.399
 5864SOL    HW218492   4.103   3.649   1.420
 5865SOL     OW18493   6.105   0.465   5.407
 5865SOL    HW118494   6.140   0.553   5.437
 5865SOL    HW218495   6.115   0.398   5.481
 5866SOL     OW18496   4.200   5.150   0.975
 5866SOL    HW118497   4.282   5.184   1.021
 5866SOL    HW218498   4.221   5.130   0.880
 5867SOL     OW18499   0.588   3.904   0.874
 5867SOL    HW118500   0.572   4.001   0.893
 5867SOL    HW218501   0.515   3.868   0.817
 5868SOL     OW18502   0.111   1.394   4.848
 5868SOL    HW118503   0.158   1.397   4.936
 5868SOL    HW218504   0.169   1.437   4.778
 5869SOL     OW18505   3.027   6.060   3.800
 5869SOL    HW118506   3.060   6.087   3.891
 5869SOL    HW218507   3.092   6.090   3.731
 5870SOL     OW18508   5.302   6.059   4.649
 5870SOL    HW118509   5.292   6.083   4.746
 5870SOL    HW218510   5.324   5.961   4.641
 5871SOL     OW18511   4.141   3.111   0.915
 5871SOL    HW118512   4.152   3.016   0.885
 5871SOL    HW218513   4.084   3.114   0.997
 5872SOL     OW18514   4.317   5.466   0.724
 5872SOL    HW118515   4.254   5.402   0.768
 5872SOL    HW218516   4.311   5.456   0.625
 5873SOL     OW18517   2.747   2.134   1.162
 5873SOL    HW118518   2.736   2.035   1.155
 5873SOL    HW218519   2.833   2.162   1.119
 5874SOL     OW18520   3.167   4.076   0.263
 5874SOL    HW118521   3.113   4.112   0.187
 5874SOL    HW218522   3.252   4.128   0.271
 5875SOL     OW18523   4.155   1.494   0.092
 5875SOL    HW118524   4.110   1.424   0.146
 5875SOL    HW218525   4.121   1.584   0.120
 5876SOL     OW18526   3.329   3.204   6.827
 5876SOL    HW118527   3.280   3.194   6.740
 5876SOL    HW218528   3.284   3.274   6.883
 5877SOL     OW18529   0.298   6.708   0.705
 5877SOL    HW118530   0.331   6.668   0.620
 5877SOL    HW218531   0.365   6.692   0.778
 5878SOL     OW18532   5.454   4.962   3.547
 5878SOL    HW118533   5.552   4.971   3.560
 5878SOL    HW218534   5.406   5.023   3.611
 5879SOL     OW18535   1.716   2.977   5.912
 5879SOL    HW118536   1.796   3.022   5.873
 5879SOL    HW218537   1.713   2.882   5.883
 5880SOL     OW18538   4.692   4.680   6.996
 5880SOL    HW118539   4.732   4.704   6.908
 5880SOL    HW218540   4.765   4.672   0.041
 5881SOL     OW18541   1.395   7.022   2.120
 5881SOL    HW118542   1.417   6.976   2.207
 5881SOL    HW218543   1.425   0.094   2.125
 5882SOL     OW18544   1.128   6.772   5.939
 5882SOL    HW118545   1.070   6.703   5.984
 5882SOL    HW218546   1.091   6.863   5.958
 5883SOL     OW18547   0.923   1.233   0.196
 5883SOL    HW118548   0.854   1.299   0.168
 5883SOL    HW218549   0.880   1.145   0.216
 5884SOL     OW18550   4.923   0.648   4.905
 5884SOL    HW118551   4.992   0.714   4.877
 5884SOL    HW218552   4.919   0.573   4.839
 5885SOL     OW18553   0.321   5.830   2.012
 5885SOL    HW118554   0.224   5.826   2.036
 5885SOL    HW218555   0.371   5.762   2.065
 5886SOL     OW18556   1.339   1.999   3.847
 5886SOL    HW118557   1.403   1.931   3.813
 5886SOL    HW218558   1.367   2.090   3.818
 5887SOL     OW18559   2.236   2.493   1.900
 5887SOL    HW118560   2.313   2.550   1.931
 5887SOL    HW218561   2.271   2.412   1.854
 5888SOL     OW18562   2.549   6.650   1.705
 5888SOL    HW118563   2.605   6.606   1.775
 5888SOL    HW218564   2.559   6.749   1.710
 5889SOL     OW18565   5.926   1.770   6.418
 5889SOL    HW118566   5.830   1.796   6.428
 5889SOL    HW218567   5.983   1.851   6.426
 5890SOL     OW18568   2.054   6.990   3.031
 5890SOL    HW118569   1.969   0.013   3.058
 5890SOL    HW218570   2.129   0.032   3.034
 5891SOL     OW18571   2.451   4.288   0.661
 5891SOL    HW118572   2.487   4.344   0.587
 5891SOL    HW218573   2.504   4.203   0.667
 5892SOL     OW18574   6.721   5.203   2.207
 5892SOL    HW118575   6.805   5.235   2.163
 5892SOL    HW218576   6.666   5.282   2.236
 5893SOL     OW18577   2.529   4.684   1.480
 5893SOL    HW118578   2.457   4.616   1.483
 5893SOL    HW218579   2.574   4.690   1.569
 5894SOL     OW18580   1.074   5.781   5.390
 5894SOL    HW118581   1.044   5.690   5.364
 5894SOL    HW218582   1.154   5.774   5.450
 5895SOL     OW18583   6.023   3.800   3.451
 5895SOL    HW118584   5.993   3.873   3.513
 5895SOL    HW218585   6.123   3.801   3.444
 5896SOL     OW18586   4.874   1.819   0.591
 5896SOL    HW118587   4.806   1.890   0.568
 5896SOL    HW218588   4.908   1.836   0.684
 5897SOL     OW18589   3.968   1.458   1.007
 5897SOL    HW118590   4.055   1.470   0.960
 5897SOL    HW218591   3.901   1.418   0.944
 5898SOL     OW18592   2.283   1.416   5.286
 5898SOL    HW118593   2.273   1.326   5.243
 5898SOL    HW218594   2.359   1.465   5.242
 5899SOL     OW18595   6.050   6.271   6.653
 5899SOL    HW118596   6.130   6.296   6.708
 5899SOL    HW218597   6.060   6.310   6.562
 5900SOL     OW18598   6.565   4.788   2.865
 5900SOL    HW118599   6.503   4.712   2.848
 5900SOL    HW218600   6.636   4.760   2.929
 5901SOL     OW18601   2.553   1.671   0.463
 5901SOL    HW118602   2.482   1.613   0.423
 5901SOL    HW218603   2.575   1.744   0.398
 5902SOL     OW18604   5.476   3.878   5.765
 5902SOL    HW118605   5.474   3.886   5.666
 5902SOL    HW218606   5.385   3.898   5.802
 5903SOL     OW18607   4.429   3.502   6.774
 5903SOL    HW118608   4.482   3.585   6.756
 5903SOL    HW218609   4.465   3.427   6.720
 5904SOL     OW18610   1.082   4.586   0.932
 5904SOL    HW118611   1.143   4.523   0.980
 5904SOL    HW218612   1.011   4.534   0.884
 5905SOL     OW18613   6.443   0.956   3.758
 5905SOL    HW118614   6.538   0.925   3.756
 5905SOL    HW218615   6.430   1.027   3.690
 5906SOL     OW18616   4.755   2.086   4.956
 5906SOL    HW118617   4.692   2.009   4.944
 5906SOL    HW218618   4.843   2.064   4.915
 5907SOL     OW18619   1.592   6.727   0.424
 5907SOL    HW118620   1.614   6.681   0.338
 5907SOL    HW218621   1.527   6.671   0.476
 5908SOL     OW18622   6.644   4.252   6.929
 5908SOL    HW118623   6.654   4.180   6.860
 5908SOL    HW218624   6.655   4.342   6.886
 5909SOL     OW18625   6.380   5.022   6.620
 5909SOL    HW118626   6.438   5.022   6.702
 5909SOL    HW218627   6.438   5.017   6.539
 5910SOL     OW18628   0.661   4.702   1.093
 5910SOL    HW118629   0.591   4.709   1.164
 5910SOL    HW218630   0.717   4.785   1.094
 5911SOL     OW18631   6.506   5.332   6.567
 5911SOL    HW118632   6.423   5.370   6.606
 5911SOL    HW218633   6.500   5.233   6.564
 5912SOL     OW18634   6.000   3.421   6.931
 5912SOL    HW118635   5.984   3.361   7.009
 5912SOL    HW218636   6.028   3.366   6.852
 5913SOL     OW18637   2.885   2.855   6.154
 5913SOL    HW118638   2.831   2.886   6.232
 5913SOL    HW218639   2.859   2.907   6.072
 5914SOL     OW18640   2.719   5.592   6.317
 5914SOL    HW118641   2.757   5.678   6.350
 5914SOL    HW218642   2.623   5.586   6.342
 5915SOL     OW18643   6.522   3.860   2.220
 5915SOL    HW118644   6.480   3.770   2.206
 5915SOL    HW218645   6.510   3.916   2.139
 5916SOL     OW18646   4.679   6.445   5.765
 5916SOL    HW118647   4.629   6.358   5.761
 5916SOL    HW218648   4.770   6.429   5.801
 5917SOL     OW18649   3.891   3.049   4.202
 5917SOL    HW118650   3.941   3.001   4.274
 5917SOL    HW218651   3.800   3.073   4.234
 5918SOL     OW18652   2.356   3.776   5.333
 5918SOL    HW118653   2.369   3.821   5.422
 5918SOL    HW218654   2.388   3.837   5.260
 5919SOL     OW18655   2.736   2.501   0.495
 5919SOL    HW118656   2.693   2.481   0.583
 5919SOL    HW218657   2.719   2.596   0.471
 5920SOL     OW18658   3.548   6.950   0.209
 5920SOL    HW118659   3.552   0.025   0.228
 5920SOL    HW218660   3.512   6.902   0.288
 5921SOL     OW18661   3.657   5.648   5.427
 5921SOL    HW118662   3.682   5.687   5.339
 5921SOL    HW218663   3.561   5.621   5.425
 5922SOL     OW18664   6.456   5.125   4.083
 5922SOL    HW118665   6.423   5.217   4.064
 5922SOL    HW218666   6.477   5.116   4.180
 5923SOL     OW18667   5.417   0.627   1.786
 5923SOL    HW118668   5.462   0.676   1.861
 5923SOL    HW218669   5.486   0.576   1.734
 5924SOL     OW18670   6.162   2.123   5.199
 5924SOL    HW118671   6.101   2.175   5.140
 5924SOL    HW218672   6.252   2.168   5.202
 5925SOL     OW18673   4.041   5.806   3.490
 5925SOL    HW118674   4.102   5.884   3.483
 5925SOL    HW218675   4.065   5.752   3.571
 5926SOL     OW18676   4.067   5.173   2.007
 5926SOL    HW118677   4.029   5.259   1.972
 5926SOL    HW218678   4.027   5.154   2.097
 5927SOL     OW18679   1.455   4.333   3.669
 5927SOL    HW118680   1.402   4.335   3.584
 5927SOL    HW218681   1.455   4.239   3.705
 5928SOL     OW18682   3.128   0.704   1.907
 5928SOL    HW118683   3.169   0.758   1.834
 5928SOL    HW218684   3.079   0.764   1.970
 5929SOL     OW18685   1.029   6.210   5.647
 5929SOL    HW118686   0.975   6.171   5.721
 5929SOL    HW218687   0.981   6.289   5.608
 5930SOL     OW18688   6.980   1.308   3.406
 5930SOL    HW118689   6.892   1.335   3.366
 5930SOL    HW218690   0.018   1.387   3.406
 5931SOL     OW18691   5.486   5.230   3.235
 5931SOL    HW118692   5.417   5.164   3.205
 5931SOL    HW218693   5.446   5.322   3.234
 5932SOL     OW18694   2.913   6.149   1.020
 5932SOL    HW118695   2.902   6.053   1.047
 5932SOL    HW218696   2.824   6.186   0.993
 5933SOL     OW18697   0.242   5.500   3.132
 5933SOL    HW118698   0.232   5.599   3.129
 5933SOL    HW218699   0.295   5.468   3.053
 5934SOL     OW18700   4.026   3.745   4.263
 5934SOL    HW118701   4.069   3.686   4.332
 5934SOL    HW218702   3.998   3.831   4.305
 5935SOL     OW18703   4.195   3.476   4.959
 5935SOL    HW118704   4.222   3.494   5.054
 5935SOL    HW218705   4.216   3.381   4.936
 5936SOL     OW18706   4.012   3.412   0.230
 5936SOL    HW118707   4.105   3.378   0.246
 5936SOL    HW218708   3.946   3.343   0.258
 5937SOL     OW18709   0.662   4.989   2.018
 5937SOL    HW118710   0.748   4.967   1.972
 5937SOL    HW218711   0.589   4.997   1.950
 5938SOL     OW18712   1.330   5.617   4.088
 5938SOL    HW118713   1.407   5.610   4.024
 5938SOL    HW218714   1.341   5.700   4.143
 5939SOL     OW18715   3.210   0.396   3.586
 5939SOL    HW118716   3.248   0.307   3.612
 5939SOL    HW218717   3.110   0.392   3.588
 5940SOL     OW18718   4.192   5.680   2.238
 5940SOL    HW118719   4.109   5.633   2.206
 5940SOL    HW218720   4.222   5.745   2.168
 5941SOL     OW18721   6.473   3.567   2.186
 5941SOL    HW118722   6.455   3.564   2.285
 5941SOL    HW218723   6.524   3.485   2.160
 5942SOL     OW18724   4.609   2.679   6.646
 5942SOL    HW118725   4.578   2.601   6.592
 5942SOL    HW218726   4.544   2.697   6.720
 5943SOL     OW18727   3.549   5.578   0.890
 5943SOL    HW118728   3.639   5.621   0.900
 5943SOL    HW218729   3.547   5.492   0.942
 5944SOL     OW18730   5.231   1.918   1.393
 5944SOL    HW118731   5.198   1.823   1.391
 5944SOL    HW218732   5.168   1.976   1.341
 5945SOL     OW18733   6.783   5.239   5.391
 5945SOL    HW118734   6.743   5.295   5.464
 5945SOL    HW218735   6.817   5.299   5.319
 5946SOL     OW18736   3.440   3.042   5.419
 5946SOL    HW118737   3.474   2.970   5.480
 5946SOL    HW218738   3.518   3.086   5.374
 5947SOL     OW18739   4.007   2.949   1.865
 5947SOL    HW118740   4.006   2.918   1.960
 5947SOL    HW218741   4.058   3.034   1.857
 5948SOL     OW18742   3.552   5.013   3.505
 5948SOL    HW118743   3.601   4.926   3.515
 5948SOL    HW218744   3.593   5.082   3.565
 5949SOL     OW18745   3.836   3.199   1.291
 5949SOL    HW118746   3.834   3.297   1.311
 5949SOL    HW218747   3.745   3.160   1.304
 5950SOL     OW18748   6.121   3.415   5.594
 5950SOL    HW118749   6.219   3.417   5.614
 5950SOL    HW218750   6.078   3.340   5.645
 5951SOL     OW18751   0.596   5.497   5.097
 5951SOL    HW118752   0.646   5.447   5.025
 5951SOL    HW218753   0.520   5.441   5.130
 5952SOL     OW18754   5.345   5.411   4.148
 5952SOL    HW118755   5.286   5.339   4.184
 5952SOL    HW218756   5.434   5.408   4.195
 5953SOL     OW18757   6.735   3.025   5.822
 5953SOL    HW118758   6.662   3.087   5.794
 5953SOL    HW218759   6.768   3.051   5.912
 5954SOL     OW18760   0.201   4.584   5.790
 5954SOL    HW118761   0.227   4.678   5.812
 5954SOL    HW218762   0.282   4.531   5.769
 5955SOL     OW18763   5.400   5.511   2.358
 5955SOL    HW118764   5.413   5.538   2.454
 5955SOL    HW218765   5.394   5.412   2.352
 5956SOL     OW18766   3.551   1.742   0.216
 5956SOL    HW118767   3.471   1.764   0.272
 5956SOL    HW218768   3.589   1.654   0.247
 5957SOL     OW18769   4.801   0.318   5.403
 5957SOL    HW118770   4.874   0.376   5.439
 5957SOL    HW218771   4.739   0.373   5.347
 5958SOL     OW18772   6.649   6.157   2.774
 5958SOL    HW118773   6.710   6.090   2.731
 5958SOL    HW218774   6.677   6.249   2.748
 5959SOL     OW18775   3.528   1.669   5.522
 5959SOL    HW118776   3.573   1.584   5.550
 5959SOL    HW218777   3.522   1.731   5.601
 5960SOL     OW18778   3.976   6.529   4.739
 5960SOL    HW118779   3.890   6.558   4.781
 5960SOL    HW218780   4.029   6.475   4.805
 5961SOL     OW18781   5.039   1.082   3.775
 5961SOL    HW118782   4.968   1.039   3.719
 5961SOL    HW218783   5.020   1.065   3.872
 5962SOL     OW18784   5.127   5.508   2.027
 5962SOL    HW118785   5.168   5.437   2.084
 5962SOL    HW218786   5.109   5.472   1.936
 5963SOL     OW18787   3.209   3.040   4.865
 5963SOL    HW118788   3.221   2.952   4.819
 5963SOL    HW218789   3.156   3.027   4.949
 5964SOL     OW18790   0.497   5.417   5.685
 5964SOL    HW118791   0.511   5.497   5.743
 5964SOL    HW218792   0.579   5.361   5.684
 5965SOL     OW18793   1.745   1.866   6.134
 5965SOL    HW118794   1.761   1.873   6.035
 5965SOL    HW218795   1.648   1.848   6.151
 5966SOL     OW18796   3.184   5.681   5.222
 5966SOL    HW118797   3.273   5.641   5.199
 5966SOL    HW218798   3.188   5.780   5.212
 5967SOL     OW18799   4.297   6.518   1.447
 5967SOL    HW118800   4.288   6.501   1.545
 5967SOL    HW218801   4.297   6.432   1.397
 5968SOL     OW18802   4.932   0.893   2.529
 5968SOL    HW118803   4.916   0.866   2.434
 5968SOL    HW218804   4.974   0.983   2.532
 5969SOL     OW18805   6.750   0.895   5.766
 5969SOL    HW118806   6.775   0.874   5.861
 5969SOL    HW218807   6.683   0.969   5.764
 5970SOL     OW18808   0.595   4.670   2.624
 5970SOL    HW118809   0.593   4.754   2.678
 5970SOL    HW218810   0.508   4.621   2.636
 5971SOL     OW18811   1.819   0.837   3.056
 5971SOL    HW118812   1.822   0.927   3.012
 5971SOL    HW218813   1.854   0.845   3.150
 5972SOL     OW18814   5.748   6.325   0.281
 5972SOL    HW118815   5.775   6.265   0.357
 5972SOL    HW218816   5.654   6.357   0.296
 5973SOL     OW18817   1.719   5.186   2.556
 5973SOL    HW118818   1.711   5.202   2.458
 5973SOL    HW218819   1.629   5.168   2.596
 5974SOL     OW18820   5.390   4.653   6.752
 5974SOL    HW118821   5.362   4.729   6.810
 5974SOL    HW218822   5.373   4.567   6.800
 5975SOL     OW18823   3.316   2.097   0.163
 5975SOL    HW118824   3.413   2.118   0.167
 5975SOL    HW218825   3.267   2.154   0.230
 5976SOL     OW18826   3.190   3.989   4.432
 5976SOL    HW118827   3.209   3.902   4.387
 5976SOL    HW218828   3.093   3.995   4.454
 5977SOL     OW18829   1.673   4.894   1.821
 5977SOL    HW118830   1.745   4.859   1.881
 5977SOL    HW218831   1.607   4.822   1.802
 5978SOL     OW18832   5.140   5.258   3.418
 5978SOL    HW118833   5.185   5.266   3.507
 5978SOL    HW218834   5.049   5.217   3.430
 5979SOL     OW18835   6.154   0.223   2.935
 5979SOL    HW118836   6.236   0.250   2.986
 5979SOL    HW218837   6.148   0.123   2.931
 5980SOL     OW18838   3.855   3.811   0.207
 5980SOL    HW118839   3.830   3.734   0.148
 5980SOL    HW218840   3.906   3.778   0.286
 5981SOL     OW18841   6.436   0.727   2.343
 5981SOL    HW118842   6.392   0.817   2.337
 5981SOL    HW218843   6.502   0.717   2.269
 5982SOL     OW18844   6.452   2.345   0.302
 5982SOL    HW118845   6.448   2.438   0.337
 5982SOL    HW218846   6.393   2.286   0.357
 5983SOL     OW18847   1.973   1.300   4.928
 5983SOL    HW118848   2.001   1.297   4.832
 5983SOL    HW218849   1.915   1.379   4.944
 5984SOL     OW18850   6.405   6.669   5.060
 5984SOL    HW118851   6.430   6.572   5.069
 5984SOL    HW218852   6.413   6.713   5.149
 5985SOL     OW18853   5.883   2.993   4.087
 5985SOL    HW118854   5.809   2.928   4.068
 5985SOL    HW218855   5.940   3.003   4.006
 5986SOL     OW18856   3.180   3.752   3.589
 5986SOL    HW118857   3.229   3.821   3.537
 5986SOL    HW218858   3.083   3.757   3.569
 5987SOL     OW18859   4.190   1.205   4.956
 5987SOL    HW118860   4.279   1.182   4.993
 5987SOL    HW218861   4.121   1.201   5.029
 5988SOL     OW18862   4.395   6.923   5.025
 5988SOL    HW118863   4.482   6.900   5.068
 5988SOL    HW218864   4.406   6.926   4.925
 5989SOL     OW18865   2.679   5.860   6.734
 5989SOL    HW118866   2.777   5.860   6.751
 5989SOL    HW218867   2.638   5.943   6.772
 5990SOL     OW18868   3.749   4.672   0.560
 5990SOL    HW118869   3.676   4.637   0.619
 5990SOL    HW218870   3.823   4.605   0.554
 5991SOL     OW18871   4.147   5.344   5.639
 5991SOL    HW118872   4.116   5.436   5.615
 5991SOL    HW218873   4.069   5.283   5.644
 5992SOL     OW18874   3.584   0.860   3.671
 5992SOL    HW118875   3.537   0.788   3.620
 5992SOL    HW218876   3.671   0.825   3.706
 5993SOL     OW18877   3.215   6.734   6.052
 5993SOL    HW118878   3.180   6.808   6.109
 5993SOL    HW218879   3.282   6.681   6.104
 5994SOL     OW18880   6.191   1.610   1.771
 5994SOL    HW118881   6.173   1.534   1.833
 5994SOL    HW218882   6.109   1.666   1.762
 5995SOL     OW18883   6.325   4.033   2.915
 5995SOL    HW118884   6.376   4.102   2.967
 5995SOL    HW218885   6.279   4.077   2.838
 5996SOL     OW18886   0.599   5.864   0.911
 5996SOL    HW118887   0.507   5.884   0.944
 5996SOL    HW218888   0.645   5.950   0.887
 5997SOL     OW18889   0.837   6.318   2.352
 5997SOL    HW118890   0.759   6.342   2.411
 5997SOL    HW218891   0.879   6.401   2.317
 5998SOL     OW18892   5.803   2.508   1.894
 5998SOL    HW118893   5.849   2.512   1.805
 5998SOL    HW218894   5.704   2.502   1.880
 5999SOL     OW18895   1.050   1.864   2.620
 5999SOL    HW118896   1.101   1.941   2.661
 5999SOL    HW218897   0.959   1.859   2.662
 6000SOL     OW18898   4.111   6.960   1.955
 6000SOL    HW118899   4.027   6.947   2.008
 6000SOL    HW218900   4.087   6.981   1.860
 6001SOL     OW18901   0.403   4.011   6.520
 6001SOL    HW118902   0.393   4.108   6.544
 6001SOL    HW218903   0.390   3.999   6.422
 6002SOL     OW18904   0.556   0.334   0.988
 6002SOL    HW118905   0.511   0.415   1.026
 6002SOL    HW218906   0.628   0.362   0.925
 6003SOL     OW18907   6.966   1.960   4.526
 6003SOL    HW118908   0.035   1.933   4.496
 6003SOL    HW218909   6.917   1.880   4.558
 6004SOL     OW18910   6.665   4.468   2.822
 6004SOL    HW118911   6.572   4.439   2.800
 6004SOL    HW218912   6.725   4.389   2.824
 6005SOL     OW18913   4.683   4.826   5.022
 6005SOL    HW118914   4.617   4.769   5.072
 6005SOL    HW218915   4.657   4.922   5.030
 6006SOL     OW18916   3.391   6.864   7.001
 6006SOL    HW118917   3.453   6.875   0.055
 6006SOL    HW218918   3.395   6.945   6.943
 6007SOL     OW18919   5.120   3.728   4.664
 6007SOL    HW118920   5.096   3.631   4.677
 6007SOL    HW218921   5.036   3.783   4.669
 6008SOL     OW18922   2.026   5.662   6.257
 6008SOL    HW118923   2.083   5.682   6.338
 6008SOL    HW218924   2.075   5.599   6.197
 6009SOL     OW18925   3.516   0.731   4.924
 6009SOL    HW118926   3.505   0.737   5.024
 6009SOL    HW218927   3.428   0.746   4.880
 6010SOL     OW18928   1.500   4.074   2.411
 6010SOL    HW118929   1.518   4.158   2.462
 6010SOL    HW218930   1.422   4.027   2.452
 6011SOL     OW18931   4.464   2.458   2.620
 6011SOL    HW118932   4.395   2.387   2.632
 6011SOL    HW218933   4.548   2.418   2.582
 6012SOL     OW18934   6.342   1.662   0.696
 6012SOL    HW118935   6.408   1.607   0.644
 6012SOL    HW218936   6.252   1.618   0.693
 6013SOL     OW18937   5.389   1.825   3.022
 6013SOL    HW118938   5.454   1.846   3.094
 6013SOL    HW218939   5.430   1.844   2.933
 6014SOL     OW18940   4.268   2.038   0.807
 6014SOL    HW118941   4.332   2.095   0.858
 6014SOL    HW218942   4.193   2.093   0.773
 6015SOL     OW18943   5.488   2.086   5.631
 6015SOL    HW118944   5.500   2.142   5.550
 6015SOL    HW218945   5.398   2.043   5.629
 6016SOL     OW18946   0.287   1.688   6.555
 6016SOL    HW118947   0.297   1.593   6.585
 6016SOL    HW218948   0.229   1.738   6.619
 6017SOL     OW18949   6.193   4.776   2.733
 6017SOL    HW118950   6.270   4.714   2.750
 6017SOL    HW218951   6.185   4.792   2.635
 6018SOL     OW18952   3.192   1.280   6.866
 6018SOL    HW118953   3.266   1.215   6.883
 6018SOL    HW218954   3.230   1.373   6.863
 6019SOL     OW18955   5.635   1.543   4.688
 6019SOL    HW118956   5.572   1.466   4.675
 6019SOL    HW218957   5.704   1.543   4.617
 6020SOL     OW18958   1.954   6.124   2.086
 6020SOL    HW118959   1.958   6.185   2.165
 6020SOL    HW218960   1.866   6.076   2.085
 6021SOL     OW18961   3.962   0.545   2.194
 6021SOL    HW118962   3.954   0.477   2.267
 6021SOL    HW218963   3.872   0.586   2.177
 6022SOL     OW18964   4.726   0.843   5.312
 6022SOL    HW118965   4.743   0.942   5.310
 6022SOL    HW218966   4.712   0.810   5.219
 6023SOL     OW18967   6.041   1.620   2.473
 6023SOL    HW118968   6.066   1.542   2.532
 6023SOL    HW218969   5.972   1.591   2.407
 6024SOL     OW18970   0.792   4.094   2.963
 6024SOL    HW118971   0.701   4.072   2.930
 6024SOL    HW218972   0.792   4.186   3.002
 6025SOL     OW18973   3.700   1.104   1.846
 6025SOL    HW118974   3.616   1.092   1.899
 6025SOL    HW218975   3.719   1.201   1.835
 6026SOL     OW18976   7.008   3.925   3.976
 6026SOL    HW118977   0.069   3.894   3.931
 6026SOL    HW218978   6.989   4.020   3.950
 6027SOL     OW18979   1.817   4.433   5.565
 6027SOL    HW118980   1.865   4.495   5.504
 6027SOL    HW218981   1.835   4.339   5.538
 6028SOL     OW18982   1.093   3.482   0.485
 6028SOL    HW118983   1.025   3.554   0.502
 6028SOL    HW218984   1.184   3.516   0.510
 6029SOL     OW18985   1.918   6.129   5.455
 6029SOL    HW118986   1.971   6.056   5.411
 6029SOL    HW218987   1.971   6.214   5.456
 6030SOL     OW18988   3.467   6.808   3.097
 6030SOL    HW118989   3.520   6.846   3.021
 6030SOL    HW218990   3.477   6.708   3.097
 6031SOL     OW18991   4.000   5.100   4.126
 6031SOL    HW118992   3.932   5.033   4.157
 6031SOL    HW218993   4.046   5.065   4.045
 6032SOL     OW18994   2.109   3.266   2.884
 6032SOL    HW118995   2.131   3.362   2.864
 6032SOL    HW218996   2.017   3.246   2.852
 6033SOL     OW18997   2.709   2.006   2.407
 6033SOL    HW118998   2.767   1.954   2.471
 6033SOL    HW218999   2.620   2.024   2.449
 6034SOL     OW19000   1.344   5.804   4.904
 6034SOL    HW119001   1.245   5.819   4.904
 6034SOL    HW219002   1.385   5.850   4.825
 6035SOL     OW19003   6.784   0.744   3.298
 6035SOL    HW119004   6.875   0.784   3.288
 6035SOL    HW219005   6.765   0.730   3.395
 6036SOL     OW19006   0.015   6.212   4.030
 6036SOL    HW119007   6.958   6.242   3.979
 6036SOL    HW219008   0.026   6.269   4.111
 6037SOL     OW19009   4.383   4.642   6.365
 6037SOL    HW119010   4.411   4.667   6.273
 6037SOL    HW219011   4.373   4.543   6.371
 6038SOL     OW19012   1.132   3.459   6.600
 6038SOL    HW119013   1.116   3.498   6.510
 6038SOL    HW219014   1.063   3.387   6.618
 6039SOL     OW19015   3.154   2.997   2.808
 6039SOL    HW119016   3.186   3.042   2.725
 6039SOL    HW219017   3.063   3.031   2.831
 6040SOL     OW19018   1.028   1.884   6.353
 6040SOL    HW119019   1.032   1.908   6.256
 6040SOL    HW219020   1.005   1.966   6.406
 6041SOL     OW19021   2.091   1.186   5.187
 6041SOL    HW119022   2.069   1.142   5.274
 6041SOL    HW219023   2.010   1.230   5.150
 6042SOL     OW19024   5.254   5.257   2.114
 6042SOL    HW119025   5.265   5.189   2.042
 6042SOL    HW219026   5.287   5.221   2.201
 6043SOL     OW19027   1.000   4.331   5.323
 6043SOL    HW119028   1.008   4.249   5.380
 6043SOL    HW219029   1.091   4.370   5.309
 6044SOL     OW19030   1.023   2.496   0.785
 6044SOL    HW119031   1.102   2.490   0.845
 6044SOL    HW219032   0.940   2.501   0.840
 6045SOL     OW19033   5.890   5.765   1.445
 6045SOL    HW119034   5.914   5.850   1.491
 6045SOL    HW219035   5.933   5.688   1.494
 6046SOL     OW19036   2.839   1.627   0.481
 6046SOL    HW119037   2.905   1.702   0.484
 6046SOL    HW219038   2.751   1.658   0.517
 6047SOL     OW19039   6.197   1.663   2.132
 6047SOL    HW119040   6.163   1.757   2.133
 6047SOL    HW219041   6.121   1.599   2.125
 6048SOL     OW19042   4.729   6.545   3.539
 6048SOL    HW119043   4.637   6.557   3.502
 6048SOL    HW219044   4.782   6.628   3.527
 6049SOL     OW19045   5.148   3.797   5.816
 6049SOL    HW119046   5.181   3.746   5.895
 6049SOL    HW219047   5.158   3.895   5.833
 6050SOL     OW19048   3.064   4.323   5.412
 6050SOL    HW119049   3.065   4.232   5.372
 6050SOL    HW219050   2.993   4.328   5.482
 6051SOL     OW19051   2.530   1.354   3.780
 6051SOL    HW119052   2.517   1.338   3.878
 6051SOL    HW219053   2.586   1.435   3.766
 6052SOL     OW19054   6.479   6.506   0.212
 6052SOL    HW119055   6.449   6.510   0.117
 6052SOL    HW219056   6.468   6.596   0.254
 6053SOL     OW19057   3.921   0.679   6.628
 6053SOL    HW119058   4.019   0.688   6.613
 6053SOL    HW219059   3.878   0.639   6.547
 6054SOL     OW19060   2.892   4.245   0.480
 6054SOL    HW119061   2.979   4.274   0.519
 6054SOL    HW219062   2.870   4.303   0.401
 6055SOL     OW19063   5.125   1.110   5.352
 6055SOL    HW119064   5.193   1.048   5.313
 6055SOL    HW219065   5.164   1.155   5.433
 6056SOL     OW19066   5.177   3.345   4.943
 6056SOL    HW119067   5.222   3.417   4.995
 6056SOL    HW219068   5.243   3.298   4.885
 6057SOL     OW19069   5.174   2.500   4.613
 6057SOL    HW119070   5.211   2.589   4.642
 6057SOL    HW219071   5.114   2.464   4.684
 6058SOL     OW19072   4.961   2.750   2.561
 6058SOL    HW119073   4.948   2.791   2.651
 6058SOL    HW219074   4.935   2.815   2.490
 6059SOL     OW19075   4.582   5.849   5.500
 6059SOL    HW119076   4.611   5.926   5.443
 6059SOL    HW219077   4.589   5.875   5.596
 6060SOL     OW19078   2.819   3.995   6.136
 6060SOL    HW119079   2.902   4.049   6.140
 6060SOL    HW219080   2.837   3.909   6.088
 6061SOL     OW19081   4.360   2.180   0.579
 6061SOL    HW119082   4.297   2.161   0.503
 6061SOL    HW219083   4.340   2.117   0.654
 6062SOL     OW19084   1.934   0.524   4.493
 6062SOL    HW119085   1.835   0.506   4.499
 6062SOL    HW219086   1.971   0.476   4.414
 6063SOL     OW19087   3.879   1.202   6.819
 6063SOL    HW119088   3.971   1.229   6.846
 6063SOL    HW219089   3.819   1.282   6.821
 6064SOL     OW19090   3.021   6.162   2.284
 6064SOL    HW119091   3.031   6.067   2.314
 6064SOL    HW219092   2.942   6.170   2.224
 6065SOL     OW19093   5.736   0.148   2.252
 6065SOL    HW119094   5.711   0.055   2.226
 6065SOL    HW219095   5.826   0.149   2.295
 6066SOL     OW19096   4.541   1.574   0.478
 6066SOL    HW119097   4.548   1.478   0.507
 6066SOL    HW219098   4.631   1.606   0.449
 6067SOL     OW19099   5.130   2.458   6.551
 6067SOL    HW119100   5.099   2.373   6.592
 6067SOL    HW219101   5.100   2.463   6.455
 6068SOL     OW19102   5.619   2.641   4.889
 6068SOL    HW119103   5.712   2.677   4.899
 6068SOL    HW219104   5.587   2.658   4.795
 6069SOL     OW19105   0.334   3.602   5.182
 6069SOL    HW119106   0.413   3.585   5.123
 6069SOL    HW219107   0.327   3.700   5.202
 6070SOL     OW19108   2.135   1.887   6.089
 6070SOL    HW119109   2.101   1.867   5.998
 6070SOL    HW219110   2.235   1.886   6.088
 6071SOL     OW19111   4.946   5.253   4.725
 6071SOL    HW119112   4.959   5.227   4.820
 6071SOL    HW219113   4.868   5.315   4.717
 6072SOL     OW19114   0.199   1.046   1.726
 6072SOL    HW119115   0.159   0.961   1.691
 6072SOL    HW219116   0.286   1.063   1.681
 6073SOL     OW19117   6.721   3.914   0.485
 6073SOL    HW119118   6.668   3.842   0.442
 6073SOL    HW219119   6.683   4.004   0.461
 6074SOL     OW19120   1.047   6.727   4.431
 6074SOL    HW119121   1.011   6.794   4.366
 6074SOL    HW219122   1.033   6.635   4.395
 6075SOL     OW19123   0.176   2.441   6.558
 6075SOL    HW119124   0.157   2.343   6.565
 6075SOL    HW219125   0.253   2.464   6.617
 6076SOL     OW19126   2.906   5.650   5.268
 6076SOL    HW119127   3.000   5.630   5.240
 6076SOL    HW219128   2.908   5.705   5.351
 6077SOL     OW19129   4.632   5.627   1.911
 6077SOL    HW119130   4.629   5.604   2.009
 6077SOL    HW219131   4.721   5.666   1.889
 6078SOL     OW19132   3.872   4.785   1.851
 6078SOL    HW119133   3.774   4.786   1.871
 6078SOL    HW219134   3.886   4.759   1.756
 6079SOL     OW19135   3.470   3.874   5.972
 6079SOL    HW119136   3.404   3.949   5.972
 6079SOL    HW219137   3.425   3.789   6.000
 6080SOL     OW19138   0.152   1.338   1.411
 6080SOL    HW119139   0.053   1.345   1.418
 6080SOL    HW219140   0.189   1.295   1.493
 6081SOL     OW19141   6.122   3.506   4.740
 6081SOL    HW119142   6.057   3.576   4.770
 6081SOL    HW219143   6.204   3.510   4.798
 6082SOL     OW19144   3.729   1.522   3.524
 6082SOL    HW119145   3.748   1.619   3.540
 6082SOL    HW219146   3.772   1.468   3.596
 6083SOL     OW19147   0.503   6.089   6.103
 6083SOL    HW119148   0.502   6.150   6.182
 6083SOL    HW219149   0.442   6.011   6.121
 6084SOL     OW19150   0.389   5.593   4.080
 6084SOL    HW119151   0.465   5.534   4.108
 6084SOL    HW219152   0.346   5.632   4.162
 6085SOL     OW19153   0.170   4.610   0.106
 6085SOL    HW119154   0.071   4.616   0.119
 6085SOL    HW219155   0.206   4.535   0.161
 6086SOL     OW19156   3.131   1.313   5.023
 6086SOL    HW119157   3.114   1.411   5.030
 6086SOL    HW219158   3.049   1.267   4.989
 6087SOL     OW19159   5.074   6.028   6.864
 6087SOL    HW119160   4.976   6.046   6.876
 6087SOL    HW219161   5.118   6.025   6.954
 6088SOL     OW19162   6.339   5.993   4.852
 6088SOL    HW119163   6.292   5.919   4.802
 6088SOL    HW219164   6.400   6.041   4.790
 6089SOL     OW19165   0.836   3.456   1.072
 6089SOL    HW119166   0.809   3.499   1.158
 6089SOL    HW219167   0.902   3.383   1.091
 6090SOL     OW19168   1.778   6.128   6.316
 6090SOL    HW119169   1.793   6.162   6.223
 6090SOL    HW219170   1.764   6.029   6.313
 6091SOL     OW19171   1.108   1.752   2.329
 6091SOL    HW119172   1.093   1.831   2.270
 6091SOL    HW219173   1.074   1.771   2.421
 6092SOL     OW19174   2.745   0.240   3.245
 6092SOL    HW119175   2.726   0.237   3.147
 6092SOL    HW219176   2.843   0.258   3.259
 6093SOL     OW19177   1.304   2.775   3.060
 6093SOL    HW119178   1.394   2.750   3.024
 6093SOL    HW219179   1.233   2.724   3.011
 6094SOL     OW19180   3.965   0.834   1.079
 6094SOL    HW119181   4.031   0.793   1.142
 6094SOL    HW219182   3.965   0.934   1.090
 6095SOL     OW19183   4.832   3.020   6.728
 6095SOL    HW119184   4.781   2.952   6.781
 6095SOL    HW219185   4.870   2.977   6.646
 6096SOL     OW19186   5.824   0.742   3.535
 6096SOL    HW119187   5.740   0.767   3.487
 6096SOL    HW219188   5.903   0.785   3.491
 6097SOL     OW19189   1.763   0.393   1.977
 6097SOL    HW119190   1.710   0.344   2.047
 6097SOL    HW219191   1.797   0.328   1.910
 6098SOL     OW19192   1.645   2.020   6.379
 6098SOL    HW119193   1.709   2.036   6.304
 6098SOL    HW219194   1.650   1.924   6.407
 6099SOL     OW19195   6.778   5.850   0.091
 6099SOL    HW119196   6.730   5.928   0.051
 6099SOL    HW219197   6.761   5.768   0.037
 6100SOL     OW19198   5.376   2.898   6.795
 6100SOL    HW119199   5.316   2.923   6.872
 6100SOL    HW219200   5.321   2.854   6.724
 6101SOL     OW19201   6.142   1.953   5.594
 6101SOL    HW119202   6.059   1.912   5.556
 6101SOL    HW219203   6.121   1.996   5.682
 6102SOL     OW19204   4.007   0.890   4.013
 6102SOL    HW119205   4.056   0.941   4.084
 6102SOL    HW219206   3.961   0.954   3.952
 6103SOL     OW19207   0.270   1.254   3.181
 6103SOL    HW119208   0.291   1.252   3.279
 6103SOL    HW219209   0.347   1.216   3.130
 6104SOL     OW19210   6.429   2.777   6.250
 6104SOL    HW119211   6.519   2.741   6.230
 6104SOL    HW219212   6.428   2.816   6.342
 6105SOL     OW19213   2.746   0.170   5.992
 6105SOL    HW119214   2.740   0.234   5.915
 6105SOL    HW219215   2.774   0.080   5.959
 6106SOL     OW19216   1.394   4.700   5.985
 6106SOL    HW119217   1.347   4.645   6.054
 6106SOL    HW219218   1.344   4.785   5.970
 6107SOL     OW19219   2.337   4.966   4.369
 6107SOL    HW119220   2.269   4.927   4.430
 6107SOL    HW219221   2.342   4.912   4.285
 6108SOL     OW19222   0.508   2.318   3.361
 6108SOL    HW119223   0.571   2.334   3.437
 6108SOL    HW219224   0.549   2.349   3.276
 6109SOL     OW19225   5.396   3.555   6.252
 6109SOL    HW119226   5.444   3.468   6.261
 6109SOL    HW219227   5.451   3.618   6.196
 6110SOL     OW19228   3.832   3.572   0.096
 6110SOL    HW119229   3.904   3.511   0.130
 6110SOL    HW219230   3.745   3.544   0.136
 6111SOL     OW19231   1.773   4.769   2.808
 6111SOL    HW119232   1.857   4.718   2.824
 6111SOL    HW219233   1.745   4.759   2.713
 6112SOL     OW19234   3.524   1.439   3.382
 6112SOL    HW119235   3.525   1.339   3.373
 6112SOL    HW219236   3.607   1.469   3.428
 6113SOL     OW19237   7.022   0.531   6.069
 6113SOL    HW119238   0.061   0.512   5.993
 6113SOL    HW219239   7.022   0.454   6.132
 6114SOL     OW19240   4.892   4.466   1.268
 6114SOL    HW119241   4.826   4.529   1.227
 6114SOL    HW219242   4.863   4.444   1.361
 6115SOL     OW19243   5.681   6.056   3.021
 6115SOL    HW119244   5.746   6.038   3.095
 6115SOL    HW219245   5.730   6.093   2.942
 6116SOL     OW19246   2.752   1.032   1.221
 6116SOL    HW119247   2.782   1.109   1.165
 6116SOL    HW219248   2.654   1.042   1.241
 6117SOL     OW19249   6.792   0.154   5.953
 6117SOL    HW119250   6.743   0.228   5.906
 6117SOL    HW219251   6.772   0.067   5.908
 6118SOL     OW19252   6.869   0.895   1.695
 6118SOL    HW119253   6.804   0.826   1.663
 6118SOL    HW219254   6.824   0.984   1.700
 6119SOL     OW19255   0.968   3.407   3.791
 6119SOL    HW119256   0.907   3.348   3.737
 6119SOL    HW219257   0.976   3.370   3.884
 6120SOL     OW19258   3.878   6.756   3.659
 6120SOL    HW119259   3.955   6.788   3.714
 6120SOL    HW219260   3.794   6.764   3.712
 6121SOL     OW19261   0.364   2.995   4.335
 6121SOL    HW119262   0.296   3.005   4.407
 6121SOL    HW219263   0.449   3.040   4.363
 6122SOL     OW19264   3.533   6.834   1.519
 6122SOL    HW119265   3.532   6.734   1.523
 6122SOL    HW219266   3.467   6.871   1.583
 6123SOL     OW19267   6.506   0.386   0.133
 6123SOL    HW119268   6.529   0.311   0.194
 6123SOL    HW219269   6.548   0.371   0.043
 6124SOL     OW19270   3.481   0.405   5.707
 6124SOL    HW119271   3.535   0.456   5.774
 6124SOL    HW219272   3.514   0.311   5.702
 6125SOL     OW19273   2.956   5.807   0.954
 6125SOL    HW119274   2.914   5.717   0.941
 6125SOL    HW219275   2.914   5.851   1.034
 6126SOL     OW19276   6.031   6.915   4.553
 6126SOL    HW119277   6.107   6.851   4.542
 6126SOL    HW219278   6.067   7.005   4.577
 6127SOL     OW19279   2.429   0.610   2.514
 6127SOL    HW119280   2.511   0.564   2.479
 6127SOL    HW219281   2.434   0.707   2.493
 6128SOL     OW19282   6.819   3.246   0.543
 6128SOL    HW119283   6.830   3.204   0.633
 6128SOL    HW219284   6.781   3.338   0.553
 6129SOL     OW19285   6.048   4.417   3.521
 6129SOL    HW119286   6.092   4.440   3.607
 6129SOL    HW219287   6.102   4.453   3.445
 6130SOL     OW19288   6.072   1.742   3.936
 6130SOL    HW119289   5.983   1.697   3.928
 6130SOL    HW219290   6.102   1.741   4.031
 6131SOL     OW19291   6.603   1.562   5.413
 6131SOL    HW119292   6.689   1.600   5.446
 6131SOL    HW219293   6.552   1.632   5.363
 6132SOL     OW19294   4.921   1.203   0.287
 6132SOL    HW119295   4.990   1.275   0.284
 6132SOL    HW219296   4.835   1.238   0.249
 6133SOL     OW19297   1.015   2.767   2.934
 6133SOL    HW119298   1.064   2.692   2.889
 6133SOL    HW219299   0.921   2.739   2.953
 6134SOL     OW19300   3.624   4.397   0.341
 6134SOL    HW119301   3.561   4.474   0.352
 6134SOL    HW219302   3.718   4.427   0.357
 6135SOL     OW19303   0.222   6.785   1.904
 6135SOL    HW119304   0.224   6.803   1.806
 6135SOL    HW219305   0.299   6.830   1.949
 6136SOL     OW19306   0.704   2.237   2.312
 6136SOL    HW119307   0.787   2.233   2.367
 6136SOL    HW219308   0.684   2.332   2.288
 6137SOL     OW19309   4.508   1.928   4.985
 6137SOL    HW119310   4.488   1.839   4.943
 6137SOL    HW219311   4.543   1.914   5.078
 6138SOL     OW19312   3.813   6.875   2.836
 6138SOL    HW119313   3.729   6.824   2.818
 6138SOL    HW219314   3.854   6.843   2.922
 6139SOL     OW19315   1.809   2.673   4.669
 6139SOL    HW119316   1.883   2.702   4.608
 6139SOL    HW219317   1.744   2.617   4.617
 6140SOL     OW19318   0.359   6.215   1.574
 6140SOL    HW119319   0.339   6.151   1.499
 6140SOL    HW219320   0.432   6.177   1.631
 6141SOL     OW19321   6.084   5.876   5.135
 6141SOL    HW119322   6.109   5.784   5.104
 6141SOL    HW219323   6.166   5.932   5.141
 6142SOL     OW19324   6.911   5.153   0.985
 6142SOL    HW119325   7.003   5.187   0.965
 6142SOL    HW219326   6.917   5.071   1.041
 6143SOL     OW19327   6.048   4.646   0.228
 6143SOL    HW119328   6.131   4.664   0.280
 6143SOL    HW219329   6.063   4.671   0.132
 6144SOL     OW19330   6.148   4.789   2.469
 6144SOL    HW119331   6.075   4.857   2.465
 6144SOL    HW219332   6.223   4.817   2.408
 6145SOL     OW19333   4.743   5.886   4.182
 6145SOL    HW119334   4.796   5.868   4.265
 6145SOL    HW219335   4.676   5.814   4.168
 6146SOL     OW19336   4.199   1.188   3.747
 6146SOL    HW119337   4.126   1.170   3.814
 6146SOL    HW219338   4.162   1.242   3.672
 6147SOL     OW19339   1.713   4.337   4.130
 6147SOL    HW119340   1.723   4.424   4.082
 6147SOL    HW219341   1.768   4.338   4.214
 6148SOL     OW19342   6.787   0.298   4.629
 6148SOL    HW119343   6.767   0.261   4.720
 6148SOL    HW219344   6.808   0.396   4.638
 6149SOL     OW19345   3.069   4.872   2.807
 6149SOL    HW119346   3.134   4.849   2.734
 6149SOL    HW219347   3.118   4.877   2.894
 6150SOL     OW19348   3.728   4.796   6.898
 6150SOL    HW119349   3.824   4.811   6.878
 6150SOL    HW219350   3.693   4.873   6.953
 6151SOL     OW19351   5.680   4.192   4.498
 6151SOL    HW119352   5.643   4.281   4.526
 6151SOL    HW219353   5.611   4.122   4.510
 6152SOL     OW19354   5.693   5.108   5.485
 6152SOL    HW119355   5.767   5.174   5.470
 6152SOL    HW219356   5.700   5.035   5.417
 6153SOL     OW19357   4.646   3.975   1.522
 6153SOL    HW119358   4.658   3.990   1.620
 6153SOL    HW219359   4.697   4.044   1.471
 6154SOL     OW19360   5.140   1.672   2.632
 6154SOL    HW119361   5.232   1.682   2.669
 6154SOL    HW219362   5.145   1.628   2.542
 6155SOL     OW19363   1.774   1.933   4.397
 6155SOL    HW119364   1.845   1.876   4.356
 6155SOL    HW219365   1.811   1.980   4.478
 6156SOL     OW19366   4.626   4.889   2.607
 6156SOL    HW119367   4.697   4.951   2.641
 6156SOL    HW219368   4.659   4.844   2.524
 6157SOL     OW19369   1.251   1.634   4.386
 6157SOL    HW119370   1.156   1.656   4.361
 6157SOL    HW219371   1.261   1.642   4.485
 6158SOL     OW19372   4.482   0.800   6.631
 6158SOL    HW119373   4.445   0.869   6.569
 6158SOL    HW219374   4.459   0.709   6.598
 6159SOL     OW19375   4.715   2.753   0.671
 6159SOL    HW119376   4.799   2.741   0.724
 6159SOL    HW219377   4.636   2.751   0.732
 6160SOL     OW19378   5.544   6.091   0.317
 6160SOL    HW119379   5.516   6.187   0.315
 6160SOL    HW219380   5.643   6.084   0.302
 6161SOL     OW19381   5.966   2.299   5.686
 6161SOL    HW119382   5.930   2.379   5.733
 6161SOL    HW219383   5.996   2.231   5.754
 6162SOL     OW19384   0.855   5.626   3.995
 6162SOL    HW119385   0.815   5.595   4.081
 6162SOL    HW219386   0.837   5.724   3.984
 6163SOL     OW19387   5.114   6.167   1.807
 6163SOL    HW119388   5.144   6.252   1.850
 6163SOL    HW219389   5.076   6.187   1.717
 6164SOL     OW19390   1.837   3.212   1.796
 6164SOL    HW119391   1.925   3.257   1.810
 6164SOL    HW219392   1.766   3.282   1.783
 6165SOL     OW19393   3.838   6.706   6.338
 6165SOL    HW119394   3.935   6.719   6.319
 6165SOL    HW219395   3.820   6.724   6.434
 6166SOL     OW19396   3.991   0.942   5.370
 6166SOL    HW119397   4.017   1.035   5.394
 6166SOL    HW219398   4.026   0.879   5.439
 6167SOL     OW19399   0.209   4.594   2.330
 6167SOL    HW119400   0.268   4.664   2.291
 6167SOL    HW219401   0.115   4.607   2.297
 6168SOL     OW19402   0.666   3.432   0.446
 6168SOL    HW119403   0.663   3.345   0.397
 6168SOL    HW219404   0.664   3.414   0.545
 6169SOL     OW19405   0.804   3.624   2.456
 6169SOL    HW119406   0.737   3.682   2.409
 6169SOL    HW219407   0.867   3.585   2.389
 6170SOL     OW19408   0.838   3.447   4.807
 6170SOL    HW119409   0.834   3.532   4.755
 6170SOL    HW219410   0.835   3.467   4.905
 6171SOL     OW19411   0.742   1.515   0.342
 6171SOL    HW119412   0.748   1.522   0.242
 6171SOL    HW219413   0.834   1.521   0.381
 6172SOL     OW19414   1.253   3.068   3.008
 6172SOL    HW119415   1.217   2.995   3.066
 6172SOL    HW219416   1.353   3.060   3.002
 6173SOL     OW19417   6.824   5.339   3.418
 6173SOL    HW119418   6.853   5.289   3.336
 6173SOL    HW219419   6.739   5.388   3.399
 6174SOL     OW19420   4.484   5.177   4.146
 6174SOL    HW119421   4.541   5.258   4.139
 6174SOL    HW219422   4.483   5.144   4.240
 6175SOL     OW19423   3.513   0.713   4.180
 6175SOL    HW119424   3.599   0.761   4.196
 6175SOL    HW219425   3.437   0.776   4.195
 6176SOL     OW19426   4.760   3.843   5.234
 6176SOL    HW119427   4.851   3.848   5.193
 6176SOL    HW219428   4.724   3.750   5.223
 6177SOL     OW19429   5.142   1.731   2.189
 6177SOL    HW119430   5.043   1.742   2.184
 6177SOL    HW219431   5.176   1.697   2.101
 6178SOL     OW19432   5.186   3.720   2.228
 6178SOL    HW119433   5.193   3.686   2.322
 6178SOL    HW219434   5.108   3.783   2.221
 6179SOL     OW19435   6.651   4.729   1.974
 6179SOL    HW119436   6.732   4.672   1.992
 6179SOL    HW219437   6.569   4.674   1.982
 6180SOL     OW19438   3.199   4.969   0.873
 6180SOL    HW119439   3.135   5.038   0.840
 6180SOL    HW219440   3.288   5.012   0.892
 6181SOL     OW19441   5.172   6.228   6.091
 6181SOL    HW119442   5.265   6.264   6.083
 6181SOL    HW219443   5.116   6.291   6.145
 6182SOL     OW19444   4.532   3.011   6.228
 6182SOL    HW119445   4.547   2.919   6.263
 6182SOL    HW219446   4.520   3.074   6.305
 6183SOL     OW19447   1.862   2.115   2.048
 6183SOL    HW119448   1.845   2.054   2.124
 6183SOL    HW219449   1.958   2.108   2.020
 6184SOL     OW19450   3.353   0.265   6.275
 6184SOL    HW119451   3.422   0.320   6.228
 6184SOL    HW219452   3.361   0.278   6.374
 6185SOL     OW19453   1.682   4.793   5.873
 6185SOL    HW119454   1.718   4.841   5.953
 6185SOL    HW219455   1.754   4.738   5.830
 6186SOL     OW19456   6.489   1.206   1.722
 6186SOL    HW119457   6.439   1.290   1.700
 6186SOL    HW219458   6.427   1.128   1.716
 6187SOL     OW19459   5.047   3.053   4.908
 6187SOL    HW119460   5.053   3.118   4.832
 6187SOL    HW219461   4.951   3.046   4.938
 6188SOL     OW19462   1.675   1.851   5.713
 6188SOL    HW119463   1.718   1.916   5.650
 6188SOL    HW219464   1.642   1.772   5.661
 6189SOL     OW19465   3.548   4.979   2.644
 6189SOL    HW119466   3.590   4.945   2.728
 6189SOL    HW219467   3.591   4.934   2.565
 6190SOL     OW19468   6.629   3.220   5.154
 6190SOL    HW119469   6.665   3.128   5.141
 6190SOL    HW219470   6.583   3.226   5.243
 6191SOL     OW19471   2.420   3.294   5.933
 6191SOL    HW119472   2.323   3.301   5.954
 6191SOL    HW219473   2.464   3.235   6.001
 6192SOL     OW19474   2.617   2.037   6.844
 6192SOL    HW119475   2.654   2.042   6.751
 6192SOL    HW219476   2.549   2.109   6.858
 6193SOL     OW19477   4.786   6.007   1.326
 6193SOL    HW119478   4.688   6.024   1.334
 6193SOL    HW219479   4.809   5.920   1.370
 6194SOL     OW19480   6.318   0.668   6.364
 6194SOL    HW119481   6.239   0.650   6.305
 6194SOL    HW219482   6.315   0.606   6.443
 6195SOL     OW19483   5.558   6.254   4.659
 6195SOL    HW119484   5.580   6.158   4.638
 6195SOL    HW219485   5.633   6.313   4.628
 6196SOL     OW19486   4.595   4.454   2.542
 6196SOL    HW119487   4.545   4.444   2.456
 6196SOL    HW219488   4.564   4.536   2.590
 6197SOL     OW19489   2.451   5.458   2.220
 6197SOL    HW119490   2.497   5.540   2.187
 6197SOL    HW219491   2.374   5.436   2.160
 6198SOL     OW19492   4.853   6.362   0.370
 6198SOL    HW119493   4.817   6.447   0.331
 6198SOL    HW219494   4.920   6.322   0.307
 6199SOL     OW19495   0.791   0.992   0.232
 6199SOL    HW119496   0.863   0.967   0.168
 6199SOL    HW219497   0.757   0.909   0.277
 6200SOL     OW19498   0.460   1.683   4.065
 6200SOL    HW119499   0.481   1.669   3.969
 6200SOL    HW219500   0.468   1.597   4.115
 6201SOL     OW19501   0.944   3.284   4.410
 6201SOL    HW119502   1.001   3.363   4.429
 6201SOL    HW219503   0.852   3.315   4.384
 6202SOL     OW19504   5.705   1.399   2.128
 6202SOL    HW119505   5.660   1.380   2.215
 6202SOL    HW219506   5.690   1.323   2.065
 6203SOL     OW19507   5.803   5.188   2.009
 6203SOL    HW119508   5.829   5.275   2.050
 6203SOL    HW219509   5.825   5.189   1.912
 6204SOL     OW19510   1.053   6.051   4.915
 6204SOL    HW119511   1.089   6.052   5.008
 6204SOL    HW219512   1.029   5.957   4.890
 6205SOL     OW19513   5.488   4.294   1.438
 6205SOL    HW119514   5.473   4.203   1.398
 6205SOL    HW219515   5.578   4.328   1.409
 6206SOL     OW19516   5.545   1.250   3.236
 6206SOL    HW119517   5.601   1.322   3.195
 6206SOL    HW219518   5.585   1.224   3.324
 6207SOL     OW19519   1.870   6.073   4.778
 6207SOL    HW119520   1.849   5.976   4.775
 6207SOL    HW219521   1.911   6.102   4.691
 6208SOL     OW19522   3.150   2.357   5.612
 6208SOL    HW119523   3.123   2.410   5.692
 6208SOL    HW219524   3.146   2.415   5.531
 6209SOL     OW19525   3.376   5.370   0.592
 6209SOL    HW119526   3.447   5.316   0.638
 6209SOL    HW219527   3.350   5.447   0.650
 6210SOL     OW19528   5.223   3.754   3.181
 6210SOL    HW119529   5.199   3.667   3.224
 6210SOL    HW219530   5.157   3.824   3.209
 6211SOL     OW19531   3.824   6.105   5.602
 6211SOL    HW119532   3.732   6.108   5.641
 6211SOL    HW219533   3.865   6.196   5.606
 6212SOL     OW19534   2.343   4.792   4.155
 6212SOL    HW119535   2.285   4.710   4.146
 6212SOL    HW219536   2.428   4.778   4.105
 6213SOL     OW19537   4.654   6.647   6.916
 6213SOL    HW119538   4.591   6.570   6.906
 6213SOL    HW219539   4.632   6.717   6.848
 6214SOL     OW19540   5.700   5.655   5.533
 6214SOL    HW119541   5.686   5.662   5.632
 6214SOL    HW219542   5.711   5.559   5.507
 6215SOL     OW19543   4.127   3.007   6.128
 6215SOL    HW119544   4.123   3.107   6.136
 6215SOL    HW219545   4.127   2.982   6.031
 6216SOL     OW19546   5.917   2.461   3.075
 6216SOL    HW119547   5.914   2.380   3.017
 6216SOL    HW219548   5.829   2.509   3.070
 6217SOL     OW19549   1.190   5.392   2.527
 6217SOL    HW119550   1.177   5.349   2.617
 6217SOL    HW219551   1.177   5.323   2.455
 6218SOL     OW19552   3.770   6.348   0.156
 6218SOL    HW119553   3.853   6.323   0.205
 6218SOL    HW219554   3.780   6.439   0.116
 6219SOL     OW19555   1.790   0.798   5.030
 6219SOL    HW119556   1.766   0.717   4.975
 6219SOL    HW219557   1.841   0.862   4.973
 6220SOL     OW19558   3.470   0.611   6.629
 6220SOL    HW119559   3.380   0.581   6.663
 6220SOL    HW219560   3.503   0.687   6.684
 6221SOL     OW19561   6.425   6.406   6.557
 6221SOL    HW119562   6.479   6.362   6.628
 6221SOL    HW219563   6.387   6.337   6.496
 6222SOL     OW19564   6.127   0.435   2.371
 6222SOL    HW119565   6.146   0.520   2.421
 6222SOL    HW219566   6.142   0.451   2.273
 6223SOL     OW19567   1.212   5.561   3.024
 6223SOL    HW119568   1.256   5.471   3.027
 6223SOL    HW219569   1.217   5.604   3.114
 6224SOL     OW19570   3.977   1.542   5.562
 6224SOL    HW119571   3.878   1.527   5.559
 6224SOL    HW219572   4.021   1.471   5.617
 6225SOL     OW19573   3.986   2.301   6.616
 6225SOL    HW119574   3.956   2.262   6.703
 6225SOL    HW219575   3.930   2.263   6.542
 6226SOL     OW19576   1.174   1.333   3.543
 6226SOL    HW119577   1.081   1.359   3.514
 6226SOL    HW219578   1.238   1.406   3.518
 6227SOL     OW19579   3.140   4.573   5.297
 6227SOL    HW119580   3.122   4.488   5.346
 6227SOL    HW219581   3.064   4.592   5.234
 6228SOL     OW19582   0.618   2.213   3.794
 6228SOL    HW119583   0.665   2.125   3.804
 6228SOL    HW219584   0.557   2.227   3.872
 6229SOL     OW19585   6.903   2.814   5.336
 6229SOL    HW119586   6.979   2.760   5.297
 6229SOL    HW219587   6.935   2.861   5.418
 6230SOL     OW19588   1.292   2.131   3.401
 6230SOL    HW119589   1.345   2.072   3.341
 6230SOL    HW219590   1.213   2.081   3.436
 6231SOL     OW19591   5.574   5.685   0.920
 6231SOL    HW119592   5.525   5.733   0.993
 6231SOL    HW219593   5.665   5.726   0.909
 6232SOL     OW19594   5.788   1.218   0.756
 6232SOL    HW119595   5.751   1.149   0.693
 6232SOL    HW219596   5.871   1.257   0.718
 6233SOL     OW19597   6.916   3.539   1.865
 6233SOL    HW119598   6.991   3.524   1.929
 6233SOL    HW219599   6.912   3.635   1.840
 6234SOL     OW19600   7.004   0.182   5.213
 6234SOL    HW119601   0.003   0.085   5.220
 6234SOL    HW219602   6.904   0.193   5.211
 6235SOL     OW19603   0.044   0.885   1.503
 6235SOL    HW119604   0.017   0.808   1.446
 6235SOL    HW219605   7.008   0.889   1.584
 6236SOL     OW19606   6.922   4.329   0.502
 6236SOL    HW119607   6.863   4.304   0.425
 6236SOL    HW219608   6.922   4.254   0.569
 6237SOL     OW19609   3.143   6.546   0.125
 6237SOL    HW119610   3.153   6.464   0.069
 6237SOL    HW219611   3.215   6.549   0.194
 6238SOL     OW19612   3.982   6.605   3.436
 6238SOL    HW119613   3.925   6.642   3.509
 6238SOL    HW219614   4.048   6.674   3.406
 6239SOL     OW19615   3.482   0.422   1.621
 6239SOL    HW119616   3.579   0.446   1.627
 6239SOL    HW219617   3.459   0.360   1.695
 6240SOL     OW19618   3.375   3.607   4.928
 6240SOL    HW119619   3.353   3.520   4.971
 6240SOL    HW219620   3.292   3.649   4.893
 6241SOL     OW19621   3.974   0.408   4.149
 6241SOL    HW119622   4.049   0.448   4.200
 6241SOL    HW219623   3.961   0.312   4.176
 6242SOL     OW19624   2.328   0.809   3.811
 6242SOL    HW119625   2.405   0.869   3.830
 6242SOL    HW219626   2.287   0.834   3.723
 6243SOL     OW19627   6.837   0.906   5.323
 6243SOL    HW119628   6.802   0.987   5.371
 6243SOL    HW219629   6.929   0.924   5.289
 6244SOL     OW19630   5.085   4.234   3.575
 6244SOL    HW119631   5.075   4.239   3.476
 6244SOL    HW219632   5.002   4.195   3.615
 6245SOL     OW19633   0.823   5.067   1.747
 6245SOL    HW119634   0.889   5.019   1.805
 6245SOL    HW219635   0.871   5.132   1.688
 6246SOL     OW19636   0.925   0.633   4.456
 6246SOL    HW119637   1.025   0.629   4.462
 6246SOL    HW219638   0.887   0.542   4.466
 6247SOL     OW19639   1.185   6.031   3.408
 6247SOL    HW119640   1.282   6.015   3.425
 6247SOL    HW219641   1.134   5.946   3.420
 6248SOL     OW19642   3.412   3.916   0.200
 6248SOL    HW119643   3.466   3.917   0.284
 6248SOL    HW219644   3.330   3.972   0.212
 6249SOL     OW19645   6.987   2.644   1.483
 6249SOL    HW119646   7.003   2.740   1.461
 6249SOL    HW219647   6.971   2.635   1.581
 6250SOL     OW19648   6.694   6.541   0.887
 6250SOL    HW119649   6.726   6.565   0.979
 6250SOL    HW219650   6.693   6.441   0.878
 6251SOL     OW19651   3.984   5.802   4.644
 6251SOL    HW119652   3.909   5.736   4.640
 6251SOL    HW219653   3.966   5.868   4.717
 6252SOL     OW19654   2.759   5.051   0.347
 6252SOL    HW119655   2.830   5.089   0.288
 6252SOL    HW219656   2.778   5.077   0.442
 6253SOL     OW19657   2.478   5.100   4.809
 6253SOL    HW119658   2.543   5.151   4.865
 6253SOL    HW219659   2.502   5.111   4.712
 6254SOL     OW19660   0.809   6.205   1.201
 6254SOL    HW119661   0.815   6.293   1.154
 6254SOL    HW219662   0.742   6.147   1.156
 6255SOL     OW19663   1.631   2.577   0.886
 6255SOL    HW119664   1.584   2.513   0.946
 6255SOL    HW219665   1.697   2.526   0.830
 6256SOL     OW19666   4.740   5.178   2.827
 6256SOL    HW119667   4.798   5.224   2.895
 6256SOL    HW219668   4.650   5.222   2.824
 6257SOL     OW19669   4.185   3.212   0.363
 6257SOL    HW119670   4.101   3.198   0.415
 6257SOL    HW219671   4.240   3.284   0.406
 6258SOL     OW19672   3.517   6.958   5.430
 6258SOL    HW119673   3.479   6.889   5.492
 6258SOL    HW219674   3.595   6.919   5.382
 6259SOL     OW19675   1.901   1.403   6.084
 6259SOL    HW119676   1.916   1.338   6.158
 6259SOL    HW219677   1.887   1.494   6.122
 6260SOL     OW19678   1.969   0.488   0.909
 6260SOL    HW119679   1.898   0.428   0.946
 6260SOL    HW219680   2.023   0.438   0.841
 6261SOL     OW19681   5.465   6.670   0.867
 6261SOL    HW119682   5.446   6.577   0.836
 6261SOL    HW219683   5.380   6.722   0.871
 6262SOL     OW19684   0.594   6.320   2.609
 6262SOL    HW119685   0.564   6.412   2.632
 6262SOL    HW219686   0.654   6.285   2.681
 6263SOL     OW19687   0.102   6.567   4.761
 6263SOL    HW119688   0.083   6.529   4.670
 6263SOL    HW219689   0.057   6.511   4.830
 6264SOL     OW19690   1.271   0.074   0.985
 6264SOL    HW119691   1.171   0.061   0.982
 6264SOL    HW219692   1.300   0.121   0.902
 6265SOL     OW19693   3.886   2.235   0.494
 6265SOL    HW119694   3.919   2.312   0.439
 6265SOL    HW219695   3.792   2.213   0.468
 6266SOL     OW19696   3.758   6.527   3.183
 6266SOL    HW119697   3.738   6.509   3.279
 6266SOL    HW219698   3.675   6.555   3.136
 6267SOL     OW19699   1.383   6.659   5.224
 6267SOL    HW119700   1.405   6.746   5.268
 6267SOL    HW219701   1.326   6.604   5.285
 6268SOL     OW19702   3.490   0.510   2.176
 6268SOL    HW119703   3.465   0.457   2.257
 6268SOL    HW219704   3.524   0.600   2.204
 6269SOL     OW19705   5.701   6.288   1.335
 6269SOL    HW119706   5.611   6.299   1.377
 6269SOL    HW219707   5.708   6.197   1.294
 6270SOL     OW19708   0.584   6.363   0.170
 6270SOL    HW119709   0.501   6.322   0.207
 6270SOL    HW219710   0.580   6.362   0.070
 6271SOL     OW19711   6.020   2.444   6.746
 6271SOL    HW119712   6.034   2.517   6.679
 6271SOL    HW219713   5.967   2.479   6.823
 6272SOL     OW19714   0.363   0.549   0.101
 6272SOL    HW119715   0.272   0.509   0.100
 6272SOL    HW219716   0.423   0.497   0.040
 6273SOL     OW19717   0.749   6.273   3.505
 6273SOL    HW119718   0.768   6.223   3.421
 6273SOL    HW219719   0.800   6.231   3.580
 6274SOL     OW19720   2.382   6.642   4.741
 6274SOL    HW119721   2.348   6.669   4.651
 6274SOL    HW219722   2.376   6.543   4.751
 6275SOL     OW19723   2.203   6.146   0.562
 6275SOL    HW119724   2.204   6.226   0.503
 6275SOL    HW219725   2.129   6.085   0.535
 6276SOL     OW19726   3.311   5.673   3.244
 6276SOL    HW119727   3.376   5.748   3.233
 6276SOL    HW219728   3.273   5.648   3.155
 6277SOL     OW19729   5.069   1.745   1.114
 6277SOL    HW119730   5.099   1.695   1.195
 6277SOL    HW219731   5.134   1.731   1.039
 6278SOL     OW19732   3.647   0.558   5.877
 6278SOL    HW119733   3.585   0.631   5.905
 6278SOL    HW219734   3.724   0.597   5.826
 6279SOL     OW19735   3.632   6.346   0.481
 6279SOL    HW119736   3.677   6.416   0.427
 6279SOL    HW219737   3.699   6.280   0.514
 6280SOL     OW19738   0.228   1.365   6.614
 6280SOL    HW119739   0.130   1.357   6.631
 6280SOL    HW219740   0.244   1.384   6.517
 6281SOL     OW19741   5.886   4.941   3.890
 6281SOL    HW119742   5.884   5.017   3.824
 6281SOL    HW219743   5.980   4.908   3.899
 6282SOL     OW19744   5.911   3.695   4.804
 6282SOL    HW119745   5.928   3.700   4.902
 6282SOL    HW219746   5.883   3.785   4.770
 6283SOL     OW19747   0.824   5.383   4.545
 6283SOL    HW119748   0.748   5.439   4.578
 6283SOL    HW219749   0.825   5.295   4.594
 6284SOL     OW19750   1.290   5.546   6.603
 6284SOL    HW119751   1.199   5.578   6.577
 6284SOL    HW219752   1.296   5.540   6.703
 6285SOL     OW19753   1.639   3.693   3.537
 6285SOL    HW119754   1.700   3.681   3.458
 6285SOL    HW219755   1.686   3.663   3.620
 6286SOL     OW19756   6.376   3.500   4.272
 6286SOL    HW119757   6.467   3.471   4.301
 6286SOL    HW219758   6.383   3.553   4.187
 6287SOL     OW19759   4.144   4.964   5.744
 6287SOL    HW119760   4.210   5.002   5.809
 6287SOL    HW219761   4.066   5.027   5.735
 6288SOL     OW19762   3.918   4.320   1.182
 6288SOL    HW119763   3.887   4.412   1.206
 6288SOL    HW219764   3.839   4.258   1.180
 6289SOL     OW19765   2.568   4.273   6.744
 6289SOL    HW119766   2.626   4.250   6.666
 6289SOL    HW219767   2.481   4.224   6.737
 6290SOL     OW19768   6.515   5.089   6.384
 6290SOL    HW119769   6.585   5.159   6.372
 6290SOL    HW219770   6.450   5.092   6.308
 6291SOL     OW19771   4.002   3.051   2.926
 6291SOL    HW119772   4.098   3.073   2.909
 6291SOL    HW219773   3.988   3.037   3.024
 6292SOL     OW19774   2.179   2.493   4.615
 6292SOL    HW119775   2.097   2.441   4.590
 6292SOL    HW219776   2.216   2.456   4.701
 6293SOL     OW19777   4.224   1.479   0.559
 6293SOL    HW119778   4.317   1.448   0.574
 6293SOL    HW219779   4.224   1.574   0.528
 6294SOL     OW19780   4.170   0.492   3.244
 6294SOL    HW119781   4.266   0.516   3.262
 6294SOL    HW219782   4.122   0.570   3.205
 6295SOL     OW19783   5.495   5.186   5.018
 6295SOL    HW119784   5.593   5.171   5.010
 6295SOL    HW219785   5.461   5.140   5.100
 6296SOL     OW19786   0.721   4.256   5.877
 6296SOL    HW119787   0.811   4.227   5.842
 6296SOL    HW219788   0.729   4.347   5.917
 6297SOL     OW19789   6.221   0.072   5.138
 6297SOL    HW119790   6.246   0.017   5.218
 6297SOL    HW219791   6.148   0.136   5.163
 6298SOL     OW19792   6.548   4.806   6.449
 6298SOL    HW119793   6.554   4.900   6.414
 6298SOL    HW219794   6.521   4.745   6.375
 6299SOL     OW19795   5.724   2.752   2.174
 6299SOL    HW119796   5.636   2.735   2.129
 6299SOL    HW219797   5.734   2.689   2.251
 6300SOL     OW19798   4.620   1.072   6.836
 6300SOL    HW119799   4.605   1.082   6.738
 6300SOL    HW219800   4.639   1.161   6.877
 6301SOL     OW19801   3.226   6.817   6.389
 6301SOL    HW119802   3.184   6.890   6.443
 6301SOL    HW219803   3.172   6.733   6.400
 6302SOL     OW19804   2.268   1.713   5.205
 6302SOL    HW119805   2.309   1.665   5.127
 6302SOL    HW219806   2.320   1.797   5.223
 6303SOL     OW19807   1.168   6.713   5.552
 6303SOL    HW119808   1.088   6.721   5.610
 6303SOL    HW219809   1.231   6.789   5.571
 6304SOL     OW19810   3.726   1.875   3.255
 6304SOL    HW119811   3.743   1.973   3.243
 6304SOL    HW219812   3.784   1.823   3.191
 6305SOL     OW19813   6.272   6.002   6.863
 6305SOL    HW119814   6.198   5.968   6.804
 6305SOL    HW219815   6.278   6.102   6.856
 6306SOL     OW19816   0.680   3.259   3.721
 6306SOL    HW119817   0.654   3.354   3.702
 6306SOL    HW219818   0.749   3.229   3.656
 6307SOL     OW19819   3.478   3.201   4.126
 6307SOL    HW119820   3.496   3.286   4.076
 6307SOL    HW219821   3.379   3.190   4.136
 6308SOL     OW19822   0.591   1.926   5.909
 6308SOL    HW119823   0.600   2.024   5.926
 6308SOL    HW219824   0.557   1.911   5.817
 6309SOL     OW19825   0.375   0.026   4.361
 6309SOL    HW119826   0.329   0.097   4.415
 6309SOL    HW219827   0.313   7.015   4.291
 6310SOL     OW19828   2.119   6.562   3.102
 6310SOL    HW119829   2.148   6.558   3.197
 6310SOL    HW219830   2.033   6.613   3.095
 6311SOL     OW19831   5.112   1.107   6.865
 6311SOL    HW119832   5.032   1.101   6.924
 6311SOL    HW219833   5.120   1.024   6.810
 6312SOL     OW19834   1.669   6.775   6.657
 6312SOL    HW119835   1.660   6.766   6.558
 6312SOL    HW219836   1.743   6.839   6.679
 6313SOL     OW19837   5.658   6.791   3.541
 6313SOL    HW119838   5.734   6.730   3.564
 6313SOL    HW219839   5.673   6.829   3.450
 6314SOL     OW19840   3.712   0.235   1.250
 6314SOL    HW119841   3.708   0.334   1.256
 6314SOL    HW219842   3.653   0.195   1.321
 6315SOL     OW19843   2.269   2.339   4.843
 6315SOL    HW119844   2.254   2.313   4.938
 6315SOL    HW219845   2.364   2.319   4.818
 6316SOL     OW19846   4.772   1.828   5.809
 6316SOL    HW119847   4.763   1.729   5.796
 6316SOL    HW219848   4.689   1.863   5.853
 6317SOL     OW19849   5.090   4.021   3.068
 6317SOL    HW119850   5.062   3.936   3.023
 6317SOL    HW219851   5.152   4.072   3.009
 6318SOL     OW19852   5.642   0.234   0.131
 6318SOL    HW119853   5.645   0.234   0.231
 6318SOL    HW219854   5.579   0.162   0.101
 6319SOL     OW19855   5.784   1.893   4.527
 6319SOL    HW119856   5.879   1.887   4.495
 6319SOL    HW219857   5.782   1.898   4.627
 6320SOL     OW19858   0.272   0.566   3.627
 6320SOL    HW119859   0.326   0.482   3.626
 6320SOL    HW219860   0.315   0.634   3.568
 6321SOL     OW19861   5.184   3.901   0.407
 6321SOL    HW119862   5.217   3.928   0.316
 6321SOL    HW219863   5.233   3.953   0.477
 6322SOL     OW19864   2.641   1.670   0.732
 6322SOL    HW119865   2.624   1.575   0.759
 6322SOL    HW219866   2.597   1.688   0.643
 6323SOL     OW19867   2.097   3.075   1.392
 6323SOL    HW119868   2.120   3.152   1.333
 6323SOL    HW219869   2.173   3.010   1.392
 6324SOL     OW19870   4.210   1.519   0.873
 6324SOL    HW119871   4.218   1.517   0.773
 6324SOL    HW219872   4.204   1.614   0.904
 6325SOL     OW19873   1.226   2.049   2.697
 6325SOL    HW119874   1.299   2.001   2.648
 6325SOL    HW219875   1.248   2.147   2.701
 6326SOL     OW19876   4.826   5.304   5.714
 6326SOL    HW119877   4.855   5.211   5.738
 6326SOL    HW219878   4.802   5.308   5.617
 6327SOL     OW19879   0.095   1.532   3.416
 6327SOL    HW119880   0.062   1.625   3.403
 6327SOL    HW219881   0.193   1.533   3.432
 6328SOL     OW19882   4.766   3.927   0.164
 6328SOL    HW119883   4.783   3.835   0.130
 6328SOL    HW219884   4.761   3.991   0.088
 6329SOL     OW19885   0.862   2.769   4.811
 6329SOL    HW119886   0.919   2.796   4.733
 6329SOL    HW219887   0.766   2.788   4.790
 6330SOL     OW19888   5.718   0.646   2.574
 6330SOL    HW119889   5.620   0.632   2.591
 6330SOL    HW219890   5.762   0.558   2.558
 6331SOL     OW19891   6.525   2.929   4.808
 6331SOL    HW119892   6.487   2.937   4.900
 6331SOL    HW219893   6.459   2.883   4.748
 6332SOL     OW19894   1.060   1.941   1.387
 6332SOL    HW119895   1.099   2.026   1.421
 6332SOL    HW219896   0.961   1.941   1.401
 6333SOL     OW19897   5.376   0.025   6.768
 6333SOL    HW119898   5.443   0.022   6.694
 6333SOL    HW219899   5.335   0.116   6.772
 6334SOL     OW19900   2.693   1.549   1.838
 6334SOL    HW119901   2.731   1.599   1.760
 6334SOL    HW219902   2.659   1.460   1.807
 6335SOL     OW19903   4.895   1.361   0.778
 6335SOL    HW119904   4.972   1.298   0.788
 6335SOL    HW219905   4.923   1.439   0.723
 6336SOL     OW19906   6.887   4.223   6.496
 6336SOL    HW119907   6.852   4.248   6.406
 6336SOL    HW219908   6.930   4.302   6.538
 6337SOL     OW19909   4.439   6.044   5.059
 6337SOL    HW119910   4.520   5.987   5.048
 6337SOL    HW219911   4.457   6.135   5.022
 6338SOL     OW19912   3.082   1.418   4.190
 6338SOL    HW119913   3.180   1.429   4.174
 6338SOL    HW219914   3.061   1.321   4.202
 6339SOL     OW19915   1.162   3.583   3.096
 6339SOL    HW119916   1.153   3.503   3.037
 6339SOL    HW219917   1.124   3.663   3.049
 6340SOL     OW19918   2.360   3.789   1.248
 6340SOL    HW119919   2.348   3.697   1.284
 6340SOL    HW219920   2.293   3.806   1.176
 6341SOL     OW19921   1.004   3.724   3.537
 6341SOL    HW119922   1.018   3.702   3.634
 6341SOL    HW219923   1.089   3.708   3.487
 6342SOL     OW19924   3.343   1.558   0.920
 6342SOL    HW119925   3.267   1.522   0.974
 6342SOL    HW219926   3.395   1.481   0.881
 6343SOL     OW19927   3.704   6.597   0.057
 6343SOL    HW119928   3.648   6.541   7.019
 6343SOL    HW219929   3.653   6.616   0.141
 6344SOL     OW19930   5.894   2.245   3.814
 6344SOL    HW119931   5.828   2.319   3.801
 6344SOL    HW219932   5.979   2.267   3.766
 6345SOL     OW19933   4.935   3.333   1.933
 6345SOL    HW119934   4.934   3.411   1.995
 6345SOL    HW219935   4.847   3.328   1.884
 6346SOL     OW19936   6.514   4.367   5.095
 6346SOL    HW119937   6.594   4.414   5.133
 6346SOL    HW219938   6.537   4.329   5.005
 6347SOL     OW19939   2.589   1.723   2.046
 6347SOL    HW119940   2.677   1.697   2.087
 6347SOL    HW219941   2.579   1.679   1.957
 6348SOL     OW19942   0.840   1.745   5.900
 6348SOL    HW119943   0.929   1.702   5.910
 6348SOL    HW219944   0.795   1.711   5.818
 6349SOL     OW19945   1.524   0.442   0.203
 6349SOL    HW119946   1.582   0.365   0.228
 6349SOL    HW219947   1.428   0.413   0.202
 6350SOL     OW19948   0.807   4.927   2.852
 6350SOL    HW119949   0.834   5.013   2.897
 6350SOL    HW219950   0.709   4.930   2.831
 6351SOL     OW19951   6.308   3.890   3.734
 6351SOL    HW119952   6.312   3.960   3.663
 6351SOL    HW219953   6.231   3.910   3.796
 6352SOL     OW19954   2.497   0.750   3.419
 6352SOL    HW119955   2.463   0.790   3.334
 6352SOL    HW219956   2.589   0.786   3.438
 6353SOL     OW19957   2.499   5.173   0.186
 6353SOL    HW119958   2.597   5.162   0.198
 6353SOL    HW219959   2.450   5.118   0.253
 6354SOL     OW19960   4.460   5.574   2.628
 6354SOL    HW119961   4.389   5.624   2.677
 6354SOL    HW219962   4.457   5.477   2.654
 6355SOL     OW19963   3.096   5.674   0.648
 6355SOL    HW119964   3.024   5.706   0.710
 6355SOL    HW219965   3.175   5.645   0.702
 6356SOL     OW19966   5.341   5.015   0.109
 6356SOL    HW119967   5.435   5.038   0.134
 6356SOL    HW219968   5.283   5.017   0.190
 6357SOL     OW19969   5.731   3.069   1.772
 6357SOL    HW119970   5.765   2.976   1.787
 6357SOL    HW219971   5.751   3.097   1.678
 6358SOL     OW19972   0.899   2.002   6.796
 6358SOL    HW119973   0.840   1.931   6.757
 6358SOL    HW219974   0.890   2.001   6.896
 6359SOL     OW19975   5.960   6.453   0.704
 6359SOL    HW119976   5.895   6.474   0.777
 6359SOL    HW219977   5.959   6.527   0.637
 6360SOL     OW19978   0.636   3.408   3.975
 6360SOL    HW119979   0.695   3.418   3.895
 6360SOL    HW219980   0.680   3.348   4.042
 6361SOL     OW19981   0.651   0.977   0.566
 6361SOL    HW119982   0.686   0.886   0.543
 6361SOL    HW219983   0.557   0.986   0.535
 6362SOL     OW19984   1.585   6.401   6.803
 6362SOL    HW119985   1.582   6.303   6.783
 6362SOL    HW219986   1.668   6.441   6.764
 6363SOL     OW19987   2.564   4.664   4.017
 6363SOL    HW119988   2.533   4.616   3.935
 6363SOL    HW219989   2.651   4.708   4.000
 6364SOL     OW19990   2.042   1.983   5.030
 6364SOL    HW119991   2.135   1.956   5.054
 6364SOL    HW219992   2.016   2.064   5.082
 6365SOL     OW19993   5.895   6.097   4.995
 6365SOL    HW119994   5.951   6.016   5.013
 6365SOL    HW219995   5.809   6.068   4.953
 6366SOL     OW19996   6.744   6.869   4.931
 6366SOL    HW119997   6.711   6.893   5.022
 6366SOL    HW219998   6.669   6.828   4.878
 6367SOL     OW19999   3.352   1.850   2.689
 6367SOL    HW120000   3.438   1.889   2.722
 6367SOL    HW220001   3.372   1.784   2.617
 6368SOL     OW20002   4.323   4.640   4.311
 6368SOL    HW120003   4.325   4.653   4.411
 6368SOL    HW220004   4.232   4.659   4.277
 6369SOL     OW20005   2.092   6.578   4.900
 6369SOL    HW120006   2.090   6.678   4.905
 6369SOL    HW220007   2.132   6.549   4.813
 6370SOL     OW20008   5.165   3.759   3.771
 6370SOL    HW120009   5.078   3.719   3.741
 6370SOL    HW220010   5.148   3.830   3.839
 6371SOL     OW20011   5.560   3.811   1.814
 6371SOL    HW120012   5.463   3.832   1.801
 6371SOL    HW220013   5.580   3.802   1.911
 6372SOL     OW20014   0.286   0.894   2.495
 6372SOL    HW120015   0.386   0.903   2.496
 6372SOL    HW220016   0.258   0.838   2.417
 6373SOL     OW20017   5.759   3.839   2.128
 6373SOL    HW120018   5.816   3.819   2.048
 6373SOL    HW220019   5.807   3.905   2.187
 6374SOL     OW20020   4.096   2.821   0.068
 6374SOL    HW120021   4.165   2.832   7.019
 6374SOL    HW220022   4.111   2.735   0.116
 6375SOL     OW20023   1.280   2.693   2.503
 6375SOL    HW120024   1.337   2.756   2.451
 6375SOL    HW220025   1.274   2.725   2.598
 6376SOL     OW20026   4.026   1.576   5.921
 6376SOL    HW120027   3.974   1.607   5.841
 6376SOL    HW220028   4.112   1.626   5.927
 6377SOL     OW20029   6.906   1.178   5.630
 6377SOL    HW120030   6.876   1.088   5.662
 6377SOL    HW220031   6.998   1.170   5.591
 6378SOL     OW20032   4.812   5.769   3.631
 6378SOL    HW120033   4.852   5.806   3.715
 6378SOL    HW220034   4.749   5.837   3.591
 6379SOL     OW20035   1.282   4.343   5.598
 6379SOL    HW120036   1.233   4.289   5.529
 6379SOL    HW220037   1.380   4.343   5.578
 6380SOL     OW20038   0.662   3.248   4.205
 6380SOL    HW120039   0.670   3.191   4.287
 6380SOL    HW220040   0.627   3.193   4.130
 6381SOL     OW20041   4.035   2.443   0.363
 6381SOL    HW120042   4.076   2.491   0.441
 6381SOL    HW220043   4.047   2.498   0.280
 6382SOL     OW20044   2.825   1.476   1.423
 6382SOL    HW120045   2.877   1.531   1.489
 6382SOL    HW220046   2.734   1.516   1.411
 6383SOL     OW20047   1.340   2.470   2.360
 6383SOL    HW120048   1.437   2.495   2.364
 6383SOL    HW220049   1.286   2.535   2.413
 6384SOL     OW20050   5.821   3.004   2.323
 6384SOL    HW120051   5.783   3.051   2.402
 6384SOL    HW220052   5.760   2.929   2.295
 6385SOL     OW20053   6.320   4.097   1.742
 6385SOL    HW120054   6.370   4.102   1.656
 6385SOL    HW220055   6.327   4.184   1.790
 6386SOL     OW20056   1.607   4.167   0.597
 6386SOL    HW120057   1.701   4.181   0.627
 6386SOL    HW220058   1.581   4.072   0.613
 6387SOL     OW20059   6.051   1.518   0.282
 6387SOL    HW120060   6.052   1.454   0.359
 6387SOL    HW220061   6.137   1.513   0.232
 6388SOL     OW20062   6.457   4.576   2.386
 6388SOL    HW120063   6.523   4.576   2.461
 6388SOL    HW220064   6.442   4.670   2.355
 6389SOL     OW20065   1.533   6.858   1.118
 6389SOL    HW120066   1.584   6.882   1.200
 6389SOL    HW220067   1.531   6.936   1.055
 6390SOL     OW20068   5.984   0.573   6.870
 6390SOL    HW120069   6.084   0.581   6.869
 6390SOL    HW220070   5.957   0.500   6.933
 6391SOL     OW20071   1.588   1.341   6.282
 6391SOL    HW120072   1.500   1.388   6.289
 6391SOL    HW220073   1.613   1.331   6.185
 6392SOL     OW20074   3.351   5.933   3.866
 6392SOL    HW120075   3.283   5.970   3.929
 6392SOL    HW220076   3.306   5.907   3.781
 6393SOL     OW20077   5.687   6.017   1.666
 6393SOL    HW120078   5.649   5.942   1.721
 6393SOL    HW220079   5.635   6.025   1.581
 6394SOL     OW20080   1.518   4.730   1.019
 6394SOL    HW120081   1.434   4.684   0.991
 6394SOL    HW220082   1.512   4.827   0.998
 6395SOL     OW20083   7.019   3.650   2.354
 6395SOL    HW120084   0.042   3.716   2.413
 6395SOL    HW220085   6.954   3.697   2.295
 6396SOL     OW20086   6.355   3.810   6.006
 6396SOL    HW120087   6.443   3.771   6.033
 6396SOL    HW220088   6.369   3.898   5.961
 6397SOL     OW20089   6.272   0.921   2.283
 6397SOL    HW120090   6.220   1.002   2.258
 6397SOL    HW220091   6.224   0.839   2.253
 6398SOL     OW20092   1.503   0.042   1.657
 6398SOL    HW120093   1.547   0.001   1.737
 6398SOL    HW220094   1.543   0.005   1.574
 6399SOL     OW20095   1.971   0.072   0.212
 6399SOL    HW120096   1.914   7.021   0.249
 6399SOL    HW220097   2.011   0.124   0.288
 6400SOL     OW20098   2.033   5.375   2.648
 6400SOL    HW120099   2.087   5.440   2.702
 6400SOL    HW220100   1.940   5.409   2.638
 6401SOL     OW20101   4.740   4.927   2.988
 6401SOL    HW120102   4.743   5.023   2.960
 6401SOL    HW220103   4.739   4.922   3.088
 6402SOL     OW20104   1.625   3.207   3.731
 6402SOL    HW120105   1.670   3.220   3.819
 6402SOL    HW220106   1.668   3.131   3.682
 6403SOL     OW20107   5.360   6.586   5.065
 6403SOL    HW120108   5.361   6.675   5.019
 6403SOL    HW220109   5.333   6.515   5.000
 6404SOL     OW20110   3.826   1.505   2.582
 6404SOL    HW120111   3.899   1.441   2.604
 6404SOL    HW220112   3.864   1.597   2.574
 6405SOL     OW20113   4.702   1.860   3.929
 6405SOL    HW120114   4.754   1.782   3.895
 6405SOL    HW220115   4.608   1.857   3.892
 6406SOL     OW20116   1.438   3.306   2.677
 6406SOL    HW120117   1.431   3.334   2.773
 6406SOL    HW220118   1.370   3.235   2.657
 6407SOL     OW20119   1.771   6.546   3.170
 6407SOL    HW120120   1.838   6.614   3.141
 6407SOL    HW220121   1.684   6.592   3.190
 6408SOL     OW20122   6.179   0.539   1.087
 6408SOL    HW120123   6.252   0.599   1.056
 6408SOL    HW220124   6.160   0.557   1.184
 6409SOL     OW20125   6.708   4.773   3.160
 6409SOL    HW120126   6.691   4.675   3.155
 6409SOL    HW220127   6.621   4.822   3.170
 6410SOL     OW20128   2.500   1.377   6.419
 6410SOL    HW120129   2.536   1.470   6.421
 6410SOL    HW220130   2.429   1.371   6.348
 6411SOL     OW20131   0.589   3.118   2.051
 6411SOL    HW120132   0.645   3.046   2.011
 6411SOL    HW220133   0.499   3.118   2.007
 6412SOL     OW20134   3.090   0.619   6.325
 6412SOL    HW120135   3.033   0.674   6.386
 6412SOL    HW220136   3.033   0.581   6.252
 6413SOL     OW20137   4.060   4.847   4.610
 6413SOL    HW120138   3.967   4.871   4.637
 6413SOL    HW220139   4.066   4.842   4.510
 6414SOL     OW20140   6.821   6.890   6.594
 6414SOL    HW120141   6.891   6.926   6.532
 6414SOL    HW220142   6.798   6.796   6.567
 6415SOL     OW20143   1.627   3.229   3.418
 6415SOL    HW120144   1.532   3.217   3.448
 6415SOL    HW220145   1.634   3.314   3.365
 6416SOL     OW20146   2.915   6.765   6.692
 6416SOL    HW120147   2.963   6.682   6.720
 6416SOL    HW220148   2.946   6.842   6.749
 6417SOL     OW20149   5.118   2.383   1.086
 6417SOL    HW120150   5.023   2.406   1.105
 6417SOL    HW220151   5.124   2.288   1.057
 6418SOL     OW20152   5.226   4.207   2.916
 6418SOL    HW120153   5.232   4.302   2.947
 6418SOL    HW220154   5.209   4.204   2.818
 6419SOL     OW20155   0.368   5.417   5.250
 6419SOL    HW120156   0.277   5.449   5.226
 6419SOL    HW220157   0.363   5.324   5.285
 6420SOL     OW20158   1.657   1.798   3.890
 6420SOL    HW120159   1.721   1.874   3.881
 6420SOL    HW220160   1.688   1.721   3.835
 6421SOL     OW20161   4.933   0.565   1.105
 6421SOL    HW120162   4.973   0.584   1.016
 6421SOL    HW220163   4.838   0.596   1.107
 6422SOL     OW20164   6.863   1.659   5.499
 6422SOL    HW120165   6.850   1.597   5.577
 6422SOL    HW220166   6.933   1.727   5.522
 6423SOL     OW20167   4.538   5.563   4.934
 6423SOL    HW120168   4.485   5.585   5.016
 6423SOL    HW220169   4.490   5.494   4.880
 6424SOL     OW20170   1.045   3.247   4.694
 6424SOL    HW120171   1.125   3.295   4.658
 6424SOL    HW220172   0.972   3.312   4.713
 6425SOL     OW20173   0.387   5.492   2.880
 6425SOL    HW120174   0.426   5.434   2.809
 6425SOL    HW220175   0.313   5.548   2.842
 6426SOL     OW20176   5.848   4.759   4.100
 6426SOL    HW120177   5.853   4.823   4.023
 6426SOL    HW220178   5.891   4.800   4.180
 6427SOL     OW20179   3.107   3.993   3.305
 6427SOL    HW120180   3.049   3.938   3.367
 6427SOL    HW220181   3.057   4.010   3.220
 6428SOL     OW20182   5.330   3.079   0.217
 6428SOL    HW120183   5.260   3.060   0.286
 6428SOL    HW220184   5.419   3.091   0.262
 6429SOL     OW20185   1.233   0.486   5.104
 6429SOL    HW120186   1.301   0.550   5.068
 6429SOL    HW220187   1.257   0.460   5.197
 6430SOL     OW20188   6.466   0.694   4.698
 6430SOL    HW120189   6.377   0.672   4.658
 6430SOL    HW220190   6.452   0.729   4.791
 6431SOL     OW20191   4.499   5.341   2.814
 6431SOL    HW120192   4.426   5.280   2.782
 6431SOL    HW220193   4.479   5.369   2.908
 6432SOL     OW20194   3.591   4.097   6.100
 6432SOL    HW120195   3.576   4.005   6.064
 6432SOL    HW220196   3.669   4.096   6.162
 6433SOL     OW20197   3.155   5.337   0.234
 6433SOL    HW120198   3.245   5.299   0.214
 6433SOL    HW220199   3.137   5.414   0.172
 6434SOL     OW20200   2.417   6.752   6.200
 6434SOL    HW120201   2.317   6.752   6.198
 6434SOL    HW220202   2.452   6.736   6.108
 6435SOL     OW20203   6.108   0.089   0.257
 6435SOL    HW120204   6.183   0.029   0.231
 6435SOL    HW220205   6.142   0.160   0.318
 6436SOL     OW20206   0.621   3.337   3.430
 6436SOL    HW120207   0.625   3.428   3.473
 6436SOL    HW220208   0.529   3.299   3.442
 6437SOL     OW20209   0.887   1.853   5.439
 6437SOL    HW120210   0.839   1.856   5.526
 6437SOL    HW220211   0.885   1.760   5.402
 6438SOL     OW20212   1.318   5.070   6.196
 6438SOL    HW120213   1.288   5.045   6.104
 6438SOL    HW220214   1.410   5.110   6.191
 6439SOL     OW20215   6.220   1.199   2.921
 6439SOL    HW120216   6.182   1.125   2.978
 6439SOL    HW220217   6.315   1.179   2.901
 6440SOL     OW20218   2.674   1.131   6.752
 6440SOL    HW120219   2.588   1.165   6.714
 6440SOL    HW220220   2.746   1.134   6.682
 6441SOL     OW20221   0.118   1.049   2.637
 6441SOL    HW120222   0.038   1.073   2.583
 6441SOL    HW220223   0.181   0.994   2.582
 6442SOL     OW20224   2.736   2.014   4.740
 6442SOL    HW120225   2.771   1.985   4.650
 6442SOL    HW220226   2.773   1.954   4.811
 6443SOL     OW20227   3.570   2.395   6.235
 6443SOL    HW120228   3.504   2.466   6.260
 6443SOL    HW220229   3.643   2.435   6.180
 6444SOL     OW20230   0.045   2.846   4.939
 6444SOL    HW120231   6.991   2.867   4.879
 6444SOL    HW220232   0.072   2.751   4.927
 6445SOL     OW20233   3.711   3.128   3.070
 6445SOL    HW120234   3.657   3.063   3.122
 6445SOL    HW220235   3.661   3.215   3.062
 6446SOL     OW20236   0.918   2.042   0.055
 6446SOL    HW120237   0.828   2.052   0.097
 6446SOL    HW220238   0.959   1.956   0.084
 6447SOL     OW20239   6.964   4.298   2.054
 6447SOL    HW120240   6.962   4.336   2.146
 6447SOL    HW220241   6.901   4.221   2.048
 6448SOL     OW20242   4.865   5.455   1.388
 6448SOL    HW120243   4.821   5.405   1.313
 6448SOL    HW220244   4.900   5.390   1.455
 6449SOL     OW20245   2.404   4.932   1.909
 6449SOL    HW120246   2.499   4.954   1.887
 6449SOL    HW220247   2.352   5.017   1.919
 6450SOL     OW20248   1.286   3.951   0.475
 6450SOL    HW120249   1.364   3.889   0.463
 6450SOL    HW220250   1.318   4.036   0.517
 6451SOL     OW20251   3.378   1.897   5.852
 6451SOL    HW120252   3.410   1.983   5.892
 6451SOL    HW220253   3.284   1.906   5.822
 6452SOL     OW20254   4.845   4.167   2.492
 6452SOL    HW120255   4.784   4.173   2.571
 6452SOL    HW220256   4.903   4.085   2.501
 6453SOL     OW20257   3.202   6.773   1.250
 6453SOL    HW120258   3.209   6.804   1.155
 6453SOL    HW220259   3.114   6.801   1.288
 6454SOL     OW20260   0.536   1.645   1.702
 6454SOL    HW120261   0.490   1.661   1.614
 6454SOL    HW220262   0.493   1.700   1.773
 6455SOL     OW20263   6.354   3.510   3.512
 6455SOL    HW120264   6.433   3.468   3.467
 6455SOL    HW220265   6.278   3.516   3.449
 6456SOL     OW20266   1.013   0.550   2.864
 6456SOL    HW120267   1.012   0.490   2.784
 6456SOL    HW220268   0.927   0.539   2.915
 6457SOL     OW20269   4.650   6.679   1.943
 6457SOL    HW120270   4.601   6.673   1.856
 6457SOL    HW220271   4.744   6.648   1.931
 6458SOL     OW20272   1.329   4.813   4.623
 6458SOL    HW120273   1.374   4.900   4.601
 6458SOL    HW220274   1.393   4.738   4.605
 6459SOL     OW20275   6.141   2.064   2.815
 6459SOL    HW120276   6.083   2.000   2.764
 6459SOL    HW220277   6.084   2.115   2.880
 6460SOL     OW20278   5.821   5.814   5.849
 6460SOL    HW120279   5.824   5.826   5.949
 6460SOL    HW220280   5.726   5.808   5.819
 6461SOL     OW20281   3.179   5.026   0.062
 6461SOL    HW120282   3.198   5.124   0.049
 6461SOL    HW220283   3.263   4.974   0.048
 6462SOL     OW20284   0.867   2.910   4.409
 6462SOL    HW120285   0.923   2.911   4.326
 6462SOL    HW220286   0.837   2.817   4.428
 6463SOL     OW20287   5.528   6.889   0.728
 6463SOL    HW120288   5.528   6.795   0.760
 6463SOL    HW220289   5.494   6.949   0.800
 6464SOL     OW20290   1.262   5.441   4.864
 6464SOL    HW120291   1.215   5.478   4.784
 6464SOL    HW220292   1.201   5.446   4.944
 6465SOL     OW20293   6.115   2.400   2.060
 6465SOL    HW120294   6.034   2.402   2.001
 6465SOL    HW220295   6.159   2.310   2.052
 6466SOL     OW20296   6.841   2.277   6.517
 6466SOL    HW120297   6.901   2.213   6.470
 6466SOL    HW220298   6.841   2.364   6.468
 6467SOL     OW20299   4.364   0.763   0.551
 6467SOL    HW120300   4.324   0.835   0.494
 6467SOL    HW220301   4.456   0.741   0.518
 6468SOL     OW20302   3.716   6.275   1.410
 6468SOL    HW120303   3.654   6.237   1.341
 6468SOL    HW220304   3.744   6.367   1.383
 6469SOL     OW20305   3.233   2.180   4.295
 6469SOL    HW120306   3.304   2.214   4.233
 6469SOL    HW220307   3.267   2.100   4.344
 6470SOL     OW20308   5.579   2.364   0.556
 6470SOL    HW120309   5.592   2.397   0.650
 6470SOL    HW220310   5.496   2.307   0.552
 6471SOL     OW20311   0.843   6.300   5.312
 6471SOL    HW120312   0.885   6.211   5.332
 6471SOL    HW220313   0.876   6.368   5.378
 6472SOL     OW20314   6.289   5.856   2.492
 6472SOL    HW120315   6.286   5.770   2.442
 6472SOL    HW220316   6.295   5.838   2.590
 6473SOL     OW20317   1.692   1.751   4.690
 6473SOL    HW120318   1.763   1.693   4.651
 6473SOL    HW220319   1.729   1.843   4.706
 6474SOL     OW20320   3.762   5.524   5.635
 6474SOL    HW120321   3.860   5.529   5.617
 6474SOL    HW220322   3.713   5.574   5.564
 6475SOL     OW20323   5.831   5.140   4.085
 6475SOL    HW120324   5.886   5.107   4.008
 6475SOL    HW220325   5.740   5.164   4.052
 6476SOL     OW20326   4.261   2.821   6.292
 6476SOL    HW120327   4.219   2.901   6.250
 6476SOL    HW220328   4.314   2.848   6.372
 6477SOL     OW20329   6.826   5.301   0.761
 6477SOL    HW120330   6.823   5.244   0.843
 6477SOL    HW220331   6.847   5.245   0.681
 6478SOL     OW20332   2.639   6.124   2.008
 6478SOL    HW120333   2.729   6.162   1.986
 6478SOL    HW220334   2.599   6.176   2.084
 6479SOL     OW20335   3.119   5.198   4.225
 6479SOL    HW120336   3.123   5.099   4.235
 6479SOL    HW220337   3.025   5.229   4.240
 6480SOL     OW20338   2.185   1.494   6.888
 6480SOL    HW120339   2.283   1.503   6.868
 6480SOL    HW220340   2.147   1.583   6.912
 6481SOL     OW20341   3.313   2.575   1.722
 6481SOL    HW120342   3.230   2.533   1.684
 6481SOL    HW220343   3.391   2.516   1.705
 6482SOL     OW20344   6.413   2.388   5.677
 6482SOL    HW120345   6.502   2.428   5.657
 6482SOL    HW220346   6.410   2.294   5.642
 6483SOL     OW20347   0.627   6.400   4.113
 6483SOL    HW120348   0.678   6.478   4.149
 6483SOL    HW220349   0.529   6.417   4.120
 6484SOL     OW20350   2.482   1.725   2.478
 6484SOL    HW120351   2.556   1.658   2.488
 6484SOL    HW220352   2.512   1.813   2.514
 6485SOL     OW20353   2.500   5.741   4.302
 6485SOL    HW120354   2.587   5.784   4.328
 6485SOL    HW220355   2.507   5.642   4.313
 6486SOL     OW20356   0.471   5.117   3.004
 6486SOL    HW120357   0.564   5.154   2.995
 6486SOL    HW220358   0.460   5.077   3.095
 6487SOL     OW20359   1.454   6.535   4.396
 6487SOL    HW120360   1.400   6.589   4.332
 6487SOL    HW220361   1.530   6.589   4.431
 6488SOL     OW20362   4.837   5.869   5.228
 6488SOL    HW120363   4.782   5.894   5.148
 6488SOL    HW220364   4.884   5.950   5.263
 6489SOL     OW20365   3.059   3.522   6.302
 6489SOL    HW120366   2.962   3.539   6.321
 6489SOL    HW220367   3.110   3.522   6.388
 6490SOL     OW20368   2.541   1.820   6.463
 6490SOL    HW120369   2.605   1.744   6.453
 6490SOL    HW220370   2.484   1.805   6.543
 6491SOL     OW20371   2.413   0.729   1.555
 6491SOL    HW120372   2.455   0.655   1.609
 6491SOL    HW220373   2.463   0.814   1.572
 6492SOL     OW20374   4.081   3.815   4.615
 6492SOL    HW120375   4.128   3.744   4.563
 6492SOL    HW220376   4.096   3.800   4.712
 6493SOL     OW20377   1.405   4.746   6.454
 6493SOL    HW120378   1.331   4.813   6.462
 6493SOL    HW220379   1.439   4.723   6.546
 6494SOL     OW20380   6.654   6.627   2.469
 6494SOL    HW120381   6.556   6.623   2.489
 6494SOL    HW220382   6.668   6.643   2.371
 6495SOL     OW20383   0.247   0.222   4.530
 6495SOL    HW120384   0.170   0.201   4.591
 6495SOL    HW220385   0.226   0.304   4.477
 6496SOL     OW20386   5.678   6.665   1.341
 6496SOL    HW120387   5.664   6.733   1.269
 6496SOL    HW220388   5.607   6.674   1.410
 6497SOL     OW20389   1.298   0.837   0.926
 6497SOL    HW120390   1.273   0.924   0.884
 6497SOL    HW220391   1.334   0.775   0.856
 6498SOL     OW20392   1.096   3.690   4.263
 6498SOL    HW120393   1.001   3.720   4.257
 6498SOL    HW220394   1.110   3.640   4.348
 6499SOL     OW20395   5.406   3.638   4.298
 6499SOL    HW120396   5.380   3.721   4.249
 6499SOL    HW220397   5.428   3.566   4.233
 6500SOL     OW20398   0.309   4.259   2.093
 6500SOL    HW120399   0.365   4.310   2.158
 6500SOL    HW220400   0.366   4.227   2.018
 6501SOL     OW20401   0.646   0.953   1.256
 6501SOL    HW120402   0.702   1.028   1.291
 6501SOL    HW220403   0.582   0.989   1.187
 6502SOL     OW20404   6.659   3.627   1.475
 6502SOL    HW120405   6.651   3.563   1.552
 6502SOL    HW220406   6.715   3.584   1.403
 6503SOL     OW20407   5.642   0.659   4.080
 6503SOL    HW120408   5.730   0.642   4.125
 6503SOL    HW220409   5.598   0.571   4.059
 6504SOL     OW20410   4.922   6.442   6.881
 6504SOL    HW120411   4.828   6.410   6.866
 6504SOL    HW220412   4.933   6.531   6.837
 6505SOL     OW20413   5.235   6.780   6.701
 6505SOL    HW120414   5.289   6.849   6.751
 6505SOL    HW220415   5.292   6.738   6.631
 6506SOL     OW20416   6.834   3.084   3.333
 6506SOL    HW120417   6.796   3.055   3.244
 6506SOL    HW220418   6.930   3.058   3.338
 6507SOL     OW20419   2.739   5.848   6.436
 6507SOL    HW120420   2.691   5.915   6.379
 6507SOL    HW220421   2.700   5.850   6.529
 6508SOL     OW20422   1.915   0.209   2.827
 6508SOL    HW120423   2.010   0.186   2.849
 6508SOL    HW220424   1.887   0.289   2.880
 6509SOL     OW20425   5.168   1.331   5.134
 6509SOL    HW120426   5.158   1.257   5.201
 6509SOL    HW220427   5.219   1.406   5.174
 6510SOL     OW20428   4.247   5.587   6.910
 6510SOL    HW120429   4.287   5.518   6.850
 6510SOL    HW220430   4.153   5.561   6.934
 6511SOL     OW20431   4.161   0.762   5.223
 6511SOL    HW120432   4.240   0.823   5.226
 6511SOL    HW220433   4.079   0.811   5.251
 6512SOL     OW20434   2.969   6.753   2.816
 6512SOL    HW120435   3.032   6.816   2.861
 6512SOL    HW220436   2.898   6.724   2.880
 6513SOL     OW20437   2.332   6.042   4.190
 6513SOL    HW120438   2.300   5.988   4.268
 6513SOL    HW220439   2.387   5.984   4.131
 6514SOL     OW20440   5.759   0.509   4.570
 6514SOL    HW120441   5.706   0.488   4.488
 6514SOL    HW220442   5.755   0.431   4.633
 6515SOL     OW20443   1.521   3.745   2.442
 6515SOL    HW120444   1.516   3.675   2.370
 6515SOL    HW220445   1.582   3.819   2.413
 6516SOL     OW20446   6.515   3.404   1.934
 6516SOL    HW120447   6.577   3.328   1.916
 6516SOL    HW220448   6.444   3.375   1.999
 6517SOL     OW20449   0.158   1.951   0.893
 6517SOL    HW120450   0.094   2.027   0.900
 6517SOL    HW220451   0.222   1.968   0.817
 6518SOL     OW20452   6.638   0.406   2.313
 6518SOL    HW120453   6.575   0.344   2.265
 6518SOL    HW220454   6.599   0.431   2.401
 6519SOL     OW20455   0.751   1.044   3.253
 6519SOL    HW120456   0.818   1.116   3.274
 6519SOL    HW220457   0.795   0.973   3.198
 6520SOL     OW20458   0.064   5.440   6.853
 6520SOL    HW120459   0.123   5.437   6.773
 6520SOL    HW220460   6.992   5.453   6.825
 6521SOL     OW20461   1.284   2.896   3.519
 6521SOL    HW120462   1.347   2.821   3.535
 6521SOL    HW220463   1.233   2.879   3.434
 6522SOL     OW20464   2.200   4.396   5.449
 6522SOL    HW120465   2.260   4.317   5.437
 6522SOL    HW220466   2.147   4.412   5.365
 6523SOL     OW20467   4.373   6.906   0.324
 6523SOL    HW120468   4.295   6.888   0.383
 6523SOL    HW220469   4.432   6.825   0.322
 6524SOL     OW20470   2.767   2.437   1.717
 6524SOL    HW120471   2.839   2.438   1.787
 6524SOL    HW220472   2.808   2.451   1.627
 6525SOL     OW20473   2.149   5.305   3.382
 6525SOL    HW120474   2.161   5.237   3.454
 6525SOL    HW220475   2.239   5.336   3.351
 6526SOL     OW20476   0.876   0.490   1.346
 6526SOL    HW120477   0.936   0.532   1.278
 6526SOL    HW220478   0.928   0.467   1.428
 6527SOL     OW20479   0.409   1.973   0.230
 6527SOL    HW120480   0.366   1.885   0.208
 6527SOL    HW220481   0.341   2.046   0.219
 6528SOL     OW20482   6.571   1.435   6.096
 6528SOL    HW120483   6.512   1.495   6.041
 6528SOL    HW220484   6.534   1.430   6.189
 6529SOL     OW20485   1.049   0.456   2.615
 6529SOL    HW120486   1.017   0.518   2.543
 6529SOL    HW220487   1.135   0.414   2.587
 6530SOL     OW20488   0.573   1.607   0.856
 6530SOL    HW120489   0.661   1.565   0.879
 6530SOL    HW220490   0.523   1.629   0.940
 6531SOL     OW20491   4.783   3.596   5.589
 6531SOL    HW120492   4.776   3.623   5.492
 6531SOL    HW220493   4.849   3.521   5.598
 6532SOL     OW20494   2.174   0.959   1.291
 6532SOL    HW120495   2.136   0.938   1.381
 6532SOL    HW220496   2.218   0.878   1.253
 6533SOL     OW20497   4.544   6.240   0.360
 6533SOL    HW120498   4.527   6.170   0.429
 6533SOL    HW220499   4.639   6.270   0.366
 6534SOL     OW20500   4.932   5.221   1.966
 6534SOL    HW120501   4.872   5.192   2.040
 6534SOL    HW220502   5.001   5.284   2.001
 6535SOL     OW20503   5.943   4.674   4.510
 6535SOL    HW120504   6.031   4.691   4.555
 6535SOL    HW220505   5.869   4.677   4.577
 6536SOL     OW20506   0.195   1.663   4.967
 6536SOL    HW120507   0.225   1.745   4.918
 6536SOL    HW220508   0.107   1.633   4.931
 6537SOL     OW20509   0.046   4.742   4.575
 6537SOL    HW120510   0.124   4.784   4.529
 6537SOL    HW220511   7.005   4.707   4.507
 6538SOL     OW20512   1.013   3.885   5.321
 6538SOL    HW120513   1.004   3.791   5.353
 6538SOL    HW220514   1.029   3.886   5.223
 6539SOL     OW20515   4.590   0.318   6.849
 6539SOL    HW120516   4.663   0.267   6.803
 6539SOL    HW220517   4.536   0.256   6.906
 6540SOL     OW20518   2.321   2.636   6.138
 6540SOL    HW120519   2.417   2.613   6.154
 6540SOL    HW220520   2.309   2.736   6.143
 6541SOL     OW20521   5.402   2.442   5.644
 6541SOL    HW120522   5.318   2.495   5.651
 6541SOL    HW220523   5.419   2.394   5.731
 6542SOL     OW20524   1.413   3.044   4.634
 6542SOL    HW120525   1.453   3.112   4.696
 6542SOL    HW220526   1.449   2.954   4.655
 6543SOL     OW20527   4.010   2.417   5.836
 6543SOL    HW120528   3.916   2.452   5.837
 6543SOL    HW220529   4.067   2.475   5.778
 6544SOL     OW20530   0.559   6.880   2.452
 6544SOL    HW120531   0.627   6.900   2.381
 6544SOL    HW220532   0.467   6.897   2.416
 6545SOL     OW20533   3.858   6.859   0.540
 6545SOL    HW120534   3.794   6.930   0.569
 6545SOL    HW220535   3.903   6.886   0.455
 6546SOL     OW20536   4.163   4.072   6.412
 6546SOL    HW120537   4.195   3.996   6.357
 6546SOL    HW220538   4.174   4.050   6.509
 6547SOL     OW20539   4.973   0.754   5.948
 6547SOL    HW120540   4.992   0.763   5.850
 6547SOL    HW220541   4.891   0.805   5.972
 6548SOL     OW20542   1.282   2.774   0.291
 6548SOL    HW120543   1.360   2.766   0.353
 6548SOL    HW220544   1.234   2.860   0.309
 6549SOL     OW20545   4.798   0.133   1.852
 6549SOL    HW120546   4.746   0.142   1.767
 6549SOL    HW220547   4.735   0.106   1.926
 6550SOL     OW20548   0.101   0.069   3.842
 6550SOL    HW120549   0.014   0.082   3.795
 6550SOL    HW220550   0.155   7.023   3.795
 6551SOL     OW20551   2.681   3.376   1.825
 6551SOL    HW120552   2.724   3.395   1.737
 6551SOL    HW220553   2.583   3.399   1.820
 6552SOL     OW20554   2.475   0.103   0.885
 6552SOL    HW120555   2.384   0.061   0.885
 6552SOL    HW220556   2.541   0.040   0.845
 6553SOL     OW20557   0.703   1.741   3.156
 6553SOL    HW120558   0.624   1.687   3.183
 6553SOL    HW220559   0.677   1.838   3.154
 6554SOL     OW20560   2.508   0.922   4.638
 6554SOL    HW120561   2.468   1.013   4.651
 6554SOL    HW220562   2.556   0.895   4.721
 6555SOL     OW20563   5.809   1.649   3.779
 6555SOL    HW120564   5.806   1.551   3.764
 6555SOL    HW220565   5.736   1.675   3.842
 6556SOL     OW20566   5.798   3.190   3.005
 6556SOL    HW120567   5.817   3.259   3.075
 6556SOL    HW220568   5.727   3.223   2.944
 6557SOL     OW20569   2.680   0.820   2.661
 6557SOL    HW120570   2.688   0.915   2.632
 6557SOL    HW220571   2.608   0.813   2.731
 6558SOL     OW20572   5.807   5.597   0.315
 6558SOL    HW120573   5.901   5.609   0.346
 6558SOL    HW220574   5.761   5.530   0.374
 6559SOL     OW20575   0.059   3.670   5.783
 6559SOL    HW120576   0.074   3.600   5.853
 6559SOL    HW220577   6.996   3.652   5.736
 6560SOL     OW20578   3.705   4.951   1.047
 6560SOL    HW120579   3.692   4.856   1.021
 6560SOL    HW220580   3.763   4.997   0.981
 6561SOL     OW20581   3.808   4.592   1.168
 6561SOL    HW120582   3.819   4.577   1.070
 6561SOL    HW220583   3.871   4.663   1.199
 6562SOL     OW20584   5.488   2.238   1.141
 6562SOL    HW120585   5.415   2.298   1.173
 6562SOL    HW220586   5.576   2.285   1.146
 6563SOL     OW20587   5.532   0.079   5.748
 6563SOL    HW120588   5.443   0.039   5.771
 6563SOL    HW220589   5.568   0.127   5.828
 6564SOL     OW20590   6.552   2.968   1.861
 6564SOL    HW120591   6.597   3.056   1.841
 6564SOL    HW220592   6.458   2.971   1.828
 6565SOL     OW20593   6.177   6.228   2.903
 6565SOL    HW120594   6.261   6.280   2.917
 6565SOL    HW220595   6.191   6.162   2.829
 6566SOL     OW20596   3.243   5.514   2.268
 6566SOL    HW120597   3.276   5.606   2.288
 6566SOL    HW220598   3.281   5.449   2.334
 6567SOL     OW20599   4.949   1.039   1.740
 6567SOL    HW120600   4.869   1.035   1.800
 6567SOL    HW220601   5.017   1.102   1.778
 6568SOL     OW20602   3.859   2.170   3.182
 6568SOL    HW120603   3.782   2.198   3.125
 6568SOL    HW220604   3.862   2.227   3.264
 6569SOL     OW20605   1.648   3.345   6.356
 6569SOL    HW120606   1.698   3.418   6.403
 6569SOL    HW220607   1.703   3.261   6.358
 6570SOL     OW20608   3.378   1.019   2.846
 6570SOL    HW120609   3.313   0.948   2.818
 6570SOL    HW220610   3.350   1.057   2.934
 6571SOL     OW20611   2.663   5.051   2.429
 6571SOL    HW120612   2.563   5.043   2.437
 6571SOL    HW220613   2.706   4.973   2.475
 6572SOL     OW20614   0.094   4.344   4.241
 6572SOL    HW120615   0.135   4.387   4.161
 6572SOL    HW220616   7.019   4.361   4.242
 6573SOL     OW20617   1.211   0.854   3.359
 6573SOL    HW120618   1.163   0.938   3.333
 6573SOL    HW220619   1.214   0.792   3.281
 6574SOL     OW20620   2.541   5.809   3.186
 6574SOL    HW120621   2.508   5.837   3.276
 6574SOL    HW220622   2.641   5.810   3.186
 6575SOL     OW20623   0.503   6.678   3.381
 6575SOL    HW120624   0.559   6.717   3.454
 6575SOL    HW220625   0.416   6.646   3.420
 6576SOL     OW20626   3.151   6.004   0.654
 6576SOL    HW120627   3.069   6.033   0.604
 6576SOL    HW220628   3.228   5.999   0.590
 6577SOL     OW20629   1.374   1.772   3.497
 6577SOL    HW120630   1.452   1.834   3.499
 6577SOL    HW220631   1.292   1.822   3.472
 6578SOL     OW20632   1.101   5.819   1.740
 6578SOL    HW120633   1.071   5.903   1.694
 6578SOL    HW220634   1.084   5.828   1.838
 6579SOL     OW20635   7.019   2.980   4.205
 6579SOL    HW120636   6.931   3.021   4.229
 6579SOL    HW220637   0.069   3.046   4.223
 6580SOL     OW20638   0.470   1.853   0.465
 6580SOL    HW120639   0.560   1.820   0.494
 6580SOL    HW220640   0.481   1.920   0.391
 6581SOL     OW20641   1.961   0.962   1.075
 6581SOL    HW120642   1.906   0.879   1.076
 6581SOL    HW220643   2.018   0.963   0.993
 6582SOL     OW20644   0.225   0.304   2.580
 6582SOL    HW120645   0.261   0.397   2.584
 6582SOL    HW220646   0.129   0.306   2.555
 6583SOL     OW20647   5.197   6.261   5.190
 6583SOL    HW120648   5.143   6.179   5.169
 6583SOL    HW220649   5.264   6.240   5.260
 6584SOL     OW20650   3.382   2.040   0.919
 6584SOL    HW120651   3.437   2.043   1.002
 6584SOL    HW220652   3.414   1.964   0.862
 6585SOL     OW20653   6.624   6.365   6.734
 6585SOL    HW120654   6.640   6.267   6.722
 6585SOL    HW220655   6.684   6.417   6.672
 6586SOL     OW20656   6.548   1.865   6.144
 6586SOL    HW120657   6.571   1.869   6.242
 6586SOL    HW220658   6.500   1.779   6.125
 6587SOL     OW20659   1.437   4.729   6.772
 6587SOL    HW120660   1.348   4.767   6.799
 6587SOL    HW220661   1.447   4.638   6.812
 6588SOL     OW20662   0.551   3.616   1.528
 6588SOL    HW120663   0.588   3.593   1.438
 6588SOL    HW220664   0.626   3.643   1.589
 6589SOL     OW20665   4.406   0.914   2.058
 6589SOL    HW120666   4.316   0.906   2.101
 6589SOL    HW220667   4.477   0.888   2.124
 6590SOL     OW20668   0.675   0.095   5.567
 6590SOL    HW120669   0.752   0.045   5.528
 6590SOL    HW220670   0.624   0.034   5.629
 6591SOL     OW20671   5.565   6.093   3.933
 6591SOL    HW120672   5.480   6.068   3.888
 6591SOL    HW220673   5.547   6.160   4.005
 6592SOL     OW20674   4.955   6.958   2.576
 6592SOL    HW120675   4.939   6.975   2.479
 6592SOL    HW220676   4.934   0.017   2.628
 6593SOL     OW20677   2.914   2.154   2.279
 6593SOL    HW120678   2.832   2.106   2.308
 6593SOL    HW220679   2.901   2.193   2.188
 6594SOL     OW20680   3.209   1.534   5.859
 6594SOL    HW120681   3.146   1.597   5.905
 6594SOL    HW220682   3.227   1.567   5.766
 6595SOL     OW20683   1.424   3.461   5.973
 6595SOL    HW120684   1.451   3.390   6.038
 6595SOL    HW220685   1.461   3.549   6.004
 6596SOL     OW20686   3.441   6.262   3.578
 6596SOL    HW120687   3.489   6.280   3.663
 6596SOL    HW220688   3.467   6.172   3.543
 6597SOL     OW20689   1.765   5.235   1.992
 6597SOL    HW120690   1.794   5.158   1.935
 6597SOL    HW220691   1.677   5.213   2.035
 6598SOL     OW20692   1.937   5.031   3.825
 6598SOL    HW120693   1.892   4.970   3.760
 6598SOL    HW220694   1.870   5.093   3.866
 6599SOL     OW20695   4.520   6.274   6.590
 6599SOL    HW120696   4.566   6.234   6.510
 6599SOL    HW220697   4.442   6.217   6.615
 6600SOL     OW20698   3.943   6.832   4.453
 6600SOL    HW120699   4.003   6.870   4.382
 6600SOL    HW220700   3.994   6.764   4.506
 6601SOL     OW20701   0.569   1.934   3.443
 6601SOL    HW120702   0.557   1.958   3.540
 6601SOL    HW220703   0.661   1.897   3.430
 6602SOL     OW20704   1.860   0.476   1.591
 6602SOL    HW120705   1.883   0.502   1.497
 6602SOL    HW220706   1.817   0.553   1.638
 6603SOL     OW20707   0.701   2.741   3.860
 6603SOL    HW120708   0.677   2.816   3.798
 6603SOL    HW220709   0.752   2.671   3.810
 6604SOL     OW20710   1.902   6.924   1.590
 6604SOL    HW120711   1.970   6.861   1.627
 6604SOL    HW220712   1.811   6.894   1.615
 6605SOL     OW20713   5.687   6.127   2.402
 6605SOL    HW120714   5.720   6.215   2.437
 6605SOL    HW220715   5.717   6.053   2.462
 6606SOL     OW20716   6.418   4.579   2.019
 6606SOL    HW120717   6.413   4.507   2.088
 6606SOL    HW220718   6.325   4.607   1.994
 6607SOL     OW20719   0.008   5.091   3.359
 6607SOL    HW120720   6.998   5.131   3.273
 6607SOL    HW220721   0.096   5.131   3.382
 6608SOL     OW20722   6.756   6.891   0.181
 6608SOL    HW120723   6.752   6.984   0.143
 6608SOL    HW220724   6.677   6.877   0.242
 6609SOL     OW20725   5.451   0.972   6.446
 6609SOL    HW120726   5.423   1.059   6.487
 6609SOL    HW220727   5.380   0.940   6.383
 6610SOL     OW20728   2.274   6.838   0.204
 6610SOL    HW120729   2.366   6.834   0.167
 6610SOL    HW220730   2.269   6.907   0.276
 6611SOL     OW20731   4.803   2.924   3.396
 6611SOL    HW120732   4.736   2.865   3.352
 6611SOL    HW220733   4.842   2.987   3.329
 6612SOL     OW20734   0.067   2.702   6.032
 6612SOL    HW120735   7.007   2.659   6.063
 6612SOL    HW220736   0.143   2.678   6.093
 6613SOL     OW20737   5.905   6.548   5.113
 6613SOL    HW120738   5.851   6.525   5.033
 6613SOL    HW220739   5.887   6.482   5.186
 6614SOL     OW20740   4.686   6.511   0.154
 6614SOL    HW120741   4.647   6.548   0.069
 6614SOL    HW220742   4.712   6.416   0.141
 6615SOL     OW20743   1.496   5.965   1.047
 6615SOL    HW120744   1.496   5.884   1.105
 6615SOL    HW220745   1.470   6.045   1.101
 6616SOL     OW20746   4.972   6.980   6.102
 6616SOL    HW120747   4.877   6.949   6.094
 6616SOL    HW220748   5.005   7.008   6.012
 6617SOL     OW20749   4.249   5.980   3.556
 6617SOL    HW120750   4.266   6.076   3.575
 6617SOL    HW220751   4.291   5.924   3.627
 6618SOL     OW20752   1.038   1.493   2.271
 6618SOL    HW120753   0.973   1.478   2.346
 6618SOL    HW220754   1.073   1.587   2.276
 6619SOL     OW20755   4.453   0.077   3.573
 6619SOL    HW120756   4.368   0.068   3.625
 6619SOL    HW220757   4.530   0.088   3.637
 6620SOL     OW20758   2.099   3.182   4.748
 6620SOL    HW120759   2.093   3.257   4.814
 6620SOL    HW220760   2.166   3.115   4.780
 6621SOL     OW20761   3.660   2.560   5.325
 6621SOL    HW120762   3.759   2.564   5.319
 6621SOL    HW220763   3.621   2.642   5.281
 6622SOL     OW20764   6.376   5.498   1.822
 6622SOL    HW120765   6.338   5.434   1.755
 6622SOL    HW220766   6.424   5.447   1.894
 6623SOL     OW20767   3.606   3.768   4.873
 6623SOL    HW120768   3.680   3.723   4.823
 6623SOL    HW220769   3.536   3.701   4.897
 6624SOL     OW20770   0.711   3.621   5.353
 6624SOL    HW120771   0.673   3.547   5.408
 6624SOL    HW220772   0.756   3.583   5.272
 6625SOL     OW20773   5.149   1.698   5.115
 6625SOL    HW120774   5.177   1.657   5.201
 6625SOL    HW220775   5.197   1.655   5.039
 6626SOL     OW20776   3.409   6.872   5.659
 6626SOL    HW120777   3.432   6.910   5.749
 6626SOL    HW220778   3.384   6.776   5.669
 6627SOL     OW20779   2.482   6.676   4.253
 6627SOL    HW120780   2.577   6.655   4.227
 6627SOL    HW220781   2.421   6.652   4.178
 6628SOL     OW20782   5.381   5.100   4.043
 6628SOL    HW120783   5.373   5.089   4.142
 6628SOL    HW220784   5.315   5.041   3.997
 6629SOL     OW20785   5.203   5.734   6.187
 6629SOL    HW120786   5.275   5.798   6.160
 6629SOL    HW220787   5.142   5.718   6.109
 6630SOL     OW20788   3.683   1.952   1.525
 6630SOL    HW120789   3.649   2.043   1.552
 6630SOL    HW220790   3.665   1.887   1.599
 6631SOL     OW20791   2.232   5.671   4.248
 6631SOL    HW120792   2.259   5.662   4.152
 6631SOL    HW220793   2.301   5.723   4.297
 6632SOL     OW20794   1.367   1.068   0.807
 6632SOL    HW120795   1.431   1.018   0.866
 6632SOL    HW220796   1.403   1.072   0.714
 6633SOL     OW20797   2.438   4.773   5.754
 6633SOL    HW120798   2.376   4.703   5.717
 6633SOL    HW220799   2.524   4.770   5.703
 6634SOL     OW20800   4.595   1.846   5.246
 6634SOL    HW120801   4.552   1.763   5.283
 6634SOL    HW220802   4.689   1.825   5.219
 6635SOL     OW20803   4.880   4.321   3.360
 6635SOL    HW120804   4.815   4.293   3.289
 6635SOL    HW220805   4.831   4.369   3.433
 6636SOL     OW20806   4.111   1.883   0.547
 6636SOL    HW120807   4.074   1.794   0.574
 6636SOL    HW220808   4.209   1.886   0.566
 6637SOL     OW20809   2.537   6.853   6.438
 6637SOL    HW120810   2.536   6.950   6.415
 6637SOL    HW220811   2.511   6.799   6.358
 6638SOL     OW20812   3.343   3.237   3.075
 6638SOL    HW120813   3.291   3.261   3.156
 6638SOL    HW220814   3.340   3.138   3.061
 6639SOL     OW20815   3.360   3.898   6.890
 6639SOL    HW120816   3.428   3.953   6.938
 6639SOL    HW220817   3.401   3.811   6.863
 6640SOL     OW20818   0.187   1.791   4.562
 6640SOL    HW120819   0.226   1.813   4.652
 6640SOL    HW220820   0.220   1.856   4.494
 6641SOL     OW20821   3.525   1.609   6.992
 6641SOL    HW120822   3.571   1.571   0.048
 6641SOL    HW220823   3.473   1.691   7.019
 6642SOL     OW20824   2.592   5.406   5.981
 6642SOL    HW120825   2.548   5.376   5.896
 6642SOL    HW220826   2.605   5.327   6.041
 6643SOL     OW20827   6.486   6.535   6.927
 6643SOL    HW120828   6.546   6.611   6.951
 6643SOL    HW220829   6.537   6.468   6.873
 6644SOL     OW20830   2.293   5.974   2.449
 6644SOL    HW120831   2.201   5.963   2.412
 6644SOL    HW220832   2.287   6.012   2.542
 6645SOL     OW20833   5.564   3.445   0.772
 6645SOL    HW120834   5.499   3.520   0.781
 6645SOL    HW220835   5.657   3.483   0.761
 6646SOL     OW20836   4.091   1.493   5.311
 6646SOL    HW120837   4.031   1.483   5.391
 6646SOL    HW220838   4.160   1.420   5.311
 6647SOL     OW20839   4.569   6.663   0.636
 6647SOL    HW120840   4.625   6.580   0.646
 6647SOL    HW220841   4.602   6.733   0.700
 6648SOL     OW20842   3.058   6.395   4.709
 6648SOL    HW120843   3.078   6.399   4.611
 6648SOL    HW220844   3.069   6.301   4.742
 6649SOL     OW20845   5.905   2.772   5.920
 6649SOL    HW120846   5.982   2.832   5.944
 6649SOL    HW220847   5.833   2.826   5.877
 6650SOL     OW20848   4.110   1.569   4.683
 6650SOL    HW120849   4.205   1.549   4.707
 6650SOL    HW220850   4.108   1.635   4.608
 6651SOL     OW20851   1.897   1.667   6.256
 6651SOL    HW120852   1.837   1.726   6.203
 6651SOL    HW220853   1.852   1.640   6.341
 6652SOL     OW20854   0.511   4.840   6.862
 6652SOL    HW120855   0.516   4.939   6.857
 6652SOL    HW220856   0.468   4.812   6.947
 6653SOL     OW20857   4.141   2.898   0.741
 6653SOL    HW120858   4.088   2.947   0.670
 6653SOL    HW220859   4.081   2.833   0.788
 6654SOL     OW20860   0.906   5.605   2.644
 6654SOL    HW120861   0.979   5.559   2.594
 6654SOL    HW220862   0.945   5.675   2.703
 6655SOL     OW20863   0.280   6.321   2.198
 6655SOL    HW120864   0.294   6.233   2.151
 6655SOL    HW220865   0.284   6.395   2.131
 6656SOL     OW20866   5.514   1.918   2.772
 6656SOL    HW120867   5.607   1.949   2.753
 6656SOL    HW220868   5.451   1.959   2.706
 6657SOL     OW20869   5.974   3.652   5.076
 6657SOL    HW120870   5.984   3.564   5.122
 6657SOL    HW220871   5.918   3.713   5.132
 6658SOL     OW20872   5.881   7.018   5.772
 6658SOL    HW120873   5.830   0.056   5.831
 6658SOL    HW220874   5.831   6.932   5.761
 6659SOL     OW20875   1.368   3.319   1.408
 6659SOL    HW120876   1.466   3.333   1.392
 6659SOL    HW220877   1.336   3.242   1.353
 6660SOL     OW20878   1.894   4.747   1.579
 6660SOL    HW120879   1.818   4.805   1.611
 6660SOL    HW220880   1.942   4.710   1.658
 6661SOL     OW20881   2.511   0.405   5.478
 6661SOL    HW120882   2.492   0.466   5.556
 6661SOL    HW220883   2.442   0.420   5.407
 6662SOL     OW20884   1.847   0.698   0.655
 6662SOL    HW120885   1.919   0.656   0.601
 6662SOL    HW220886   1.884   0.780   0.701
 6663SOL     OW20887   6.915   6.100   5.026
 6663SOL    HW120888   6.988   6.149   5.074
 6663SOL    HW220889   6.941   6.004   5.017
 6664SOL     OW20890   2.507   0.432   1.232
 6664SOL    HW120891   2.416   0.394   1.217
 6664SOL    HW220892   2.576   0.361   1.217
 6665SOL     OW20893   2.034   6.623   5.270
 6665SOL    HW120894   2.048   6.562   5.348
 6665SOL    HW220895   2.090   6.705   5.282
 6666SOL     OW20896   6.338   5.644   5.952
 6666SOL    HW120897   6.387   5.597   6.025
 6666SOL    HW220898   6.346   5.743   5.965
 6667SOL     OW20899   0.173   6.769   5.114
 6667SOL    HW120900   0.259   6.803   5.074
 6667SOL    HW220901   0.106   6.755   5.041
 6668SOL     OW20902   6.545   6.268   1.233
 6668SOL    HW120903   6.640   6.237   1.237
 6668SOL    HW220904   6.520   6.286   1.138
 6669SOL     OW20905   3.114   2.222   1.835
 6669SOL    HW120906   3.055   2.167   1.776
 6669SOL    HW220907   3.058   2.287   1.887
 6670SOL     OW20908   3.255   1.198   6.496
 6670SOL    HW120909   3.254   1.294   6.468
 6670SOL    HW220910   3.161   1.165   6.505
 6671SOL     OW20911   5.635   6.385   0.017
 6671SOL    HW120912   5.702   6.360   0.087
 6671SOL    HW220913   5.618   6.484   0.021
 6672SOL     OW20914   0.550   2.386   0.315
 6672SOL    HW120915   0.583   2.447   0.387
 6672SOL    HW220916   0.470   2.427   0.271
 6673SOL     OW20917   4.691   4.311   3.725
 6673SOL    HW120918   4.705   4.303   3.823
 6673SOL    HW220919   4.726   4.230   3.679
 6674SOL     OW20920   0.742   3.726   0.042
 6674SOL    HW120921   0.760   3.665   6.988
 6674SOL    HW220922   0.828   3.753   0.085
 6675SOL     OW20923   5.795   2.936   0.262
 6675SOL    HW120924   5.878   2.991   0.271
 6675SOL    HW220925   5.755   2.921   0.353
 6676SOL     OW20926   0.799   3.512   4.253
 6676SOL    HW120927   0.759   3.587   4.306
 6676SOL    HW220928   0.730   3.442   4.237
 6677SOL     OW20929   0.851   1.265   6.468
 6677SOL    HW120930   0.903   1.219   6.540
 6677SOL    HW220931   0.791   1.199   6.423
 6678SOL     OW20932   2.827   4.818   0.548
 6678SOL    HW120933   2.905   4.760   0.528
 6678SOL    HW220934   2.857   4.913   0.557
 6679SOL     OW20935   3.819   0.661   4.020
 6679SOL    HW120936   3.888   0.733   4.021
 6679SOL    HW220937   3.788   0.642   4.113
 6680SOL     OW20938   4.441   6.470   6.905
 6680SOL    HW120939   4.358   6.434   6.946
 6680SOL    HW220940   4.430   6.474   6.806
 6681SOL     OW20941   5.004   5.539   1.157
 6681SOL    HW120942   5.023   5.531   1.255
 6681SOL    HW220943   4.990   5.448   1.118
 6682SOL     OW20944   2.560   5.080   6.949
 6682SOL    HW120945   2.518   5.121   6.868
 6682SOL    HW220946   2.509   5.110   0.007
 6683SOL     OW20947   6.395   3.386   5.551
 6683SOL    HW120948   6.349   3.299   5.533
 6683SOL    HW220949   6.411   3.433   5.465
 6684SOL     OW20950   4.311   6.599   2.143
 6684SOL    HW120951   4.277   6.664   2.211
 6684SOL    HW220952   4.336   6.513   2.188
 6685SOL     OW20953   5.111   2.790   6.030
 6685SOL    HW120954   5.090   2.844   5.949
 6685SOL    HW220955   5.123   2.694   6.004
 6686SOL     OW20956   5.636   5.740   3.682
 6686SOL    HW120957   5.709   5.803   3.709
 6686SOL    HW220958   5.674   5.668   3.624
 6687SOL     OW20959   0.940   2.812   2.636
 6687SOL    HW120960   0.933   2.783   2.732
 6687SOL    HW220961   0.942   2.912   2.632
 6688SOL     OW20962   4.097   4.789   0.880
 6688SOL    HW120963   4.099   4.864   0.946
 6688SOL    HW220964   4.021   4.802   0.817
 6689SOL     OW20965   4.318   3.929   5.801
 6689SOL    HW120966   4.302   4.017   5.846
 6689SOL    HW220967   4.231   3.883   5.786
 6690SOL     OW20968   0.517   6.879   1.066
 6690SOL    HW120969   0.589   6.850   1.129
 6690SOL    HW220970   0.477   6.799   1.022
 6691SOL     OW20971   2.132   0.640   2.518
 6691SOL    HW120972   2.225   0.673   2.499
 6691SOL    HW220973   2.138   0.551   2.565
 6692SOL     OW20974   3.989   3.883   2.976
 6692SOL    HW120975   4.079   3.927   2.965
 6692SOL    HW220976   3.928   3.945   3.024
 6693SOL     OW20977   4.519   2.553   5.036
 6693SOL    HW120978   4.566   2.469   5.009
 6693SOL    HW220979   4.420   2.540   5.027
 6694SOL     OW20980   4.473   6.712   1.321
 6694SOL    HW120981   4.418   6.644   1.369
 6694SOL    HW220982   4.450   6.803   1.354
 6695SOL     OW20983   2.962   2.262   6.816
 6695SOL    HW120984   3.012   2.330   6.762
 6695SOL    HW220985   2.915   2.199   6.755
 6696SOL     OW20986   3.825   2.900   3.685
 6696SOL    HW120987   3.877   2.815   3.679
 6696SOL    HW220988   3.805   2.920   3.781
 6697SOL     OW20989   4.836   2.193   3.210
 6697SOL    HW120990   4.868   2.121   3.271
 6697SOL    HW220991   4.905   2.209   3.139
 6698SOL     OW20992   3.143   3.272   1.250
 6698SOL    HW120993   3.168   3.340   1.181
 6698SOL    HW220994   3.187   3.185   1.230
 6699SOL     OW20995   2.084   0.004   5.483
 6699SOL    HW120996   2.113   0.098   5.467
 6699SOL    HW220997   2.025   6.997   5.409
 6700SOL     OW20998   6.913   1.549   1.588
 6700SOL    HW120999   6.939   1.635   1.545
 6700SOL    HW221000   6.943   1.550   1.684
 6701SOL     OW21001   5.595   6.100   2.026
 6701SOL    HW121002   5.643   6.026   2.074
 6701SOL    HW221003   5.558   6.066   1.940
 6702SOL     OW21004   1.980   2.596   1.904
 6702SOL    HW121005   1.924   2.533   1.958
 6702SOL    HW221006   2.075   2.568   1.907
 6703SOL     OW21007   7.015   0.346   0.785
 6703SOL    HW121008   6.996   0.259   0.831
 6703SOL    HW221009   0.067   0.333   0.720
 6704SOL     OW21010   3.965   2.135   3.839
 6704SOL    HW121011   3.987   2.210   3.776
 6704SOL    HW221012   4.035   2.065   3.833
 6705SOL     OW21013   5.960   3.024   0.656
 6705SOL    HW121014   6.018   3.082   0.713
 6705SOL    HW221015   5.878   2.998   0.707
 6706SOL     OW21016   0.812   5.682   0.971
 6706SOL    HW121017   0.717   5.713   0.959
 6706SOL    HW221018   0.816   5.582   0.959
 6707SOL     OW21019   5.470   6.348   3.654
 6707SOL    HW121020   5.485   6.259   3.697
 6707SOL    HW221021   5.540   6.365   3.585
 6708SOL     OW21022   5.644   5.192   1.284
 6708SOL    HW121023   5.715   5.134   1.324
 6708SOL    HW221024   5.686   5.271   1.241
 6709SOL     OW21025   0.737   5.182   2.988
 6709SOL    HW121026   0.730   5.253   2.918
 6709SOL    HW221027   0.817   5.200   3.045
 6710SOL     OW21028   3.743   0.767   6.873
 6710SOL    HW121029   3.798   0.780   6.790
 6710SOL    HW221030   3.651   0.803   6.858
 6711SOL     OW21031   4.909   6.435   5.911
 6711SOL    HW121032   4.913   6.534   5.924
 6711SOL    HW221033   4.954   6.390   5.988
 6712SOL     OW21034   5.557   3.502   1.098
 6712SOL    HW121035   5.473   3.482   1.148
 6712SOL    HW221036   5.575   3.428   1.032
 6713SOL     OW21037   1.170   0.642   3.184
 6713SOL    HW121038   1.081   0.597   3.176
 6713SOL    HW221039   1.196   0.679   3.095
 6714SOL     OW21040   6.431   1.720   6.787
 6714SOL    HW121041   6.387   1.801   6.748
 6714SOL    HW221042   6.400   1.638   6.738
 6715SOL     OW21043   1.660   0.533   1.257
 6715SOL    HW121044   1.624   0.459   1.313
 6715SOL    HW221045   1.752   0.556   1.287
 6716SOL     OW21046   0.551   5.581   1.924
 6716SOL    HW121047   0.521   5.600   2.018
 6716SOL    HW221048   0.639   5.627   1.908
 6717SOL     OW21049   3.064   3.093   6.310
 6717SOL    HW121050   3.078   3.006   6.262
 6717SOL    HW221051   3.003   3.151   6.255
 6718SOL     OW21052   4.955   6.781   0.863
 6718SOL    HW121053   4.858   6.770   0.886
 6718SOL    HW221054   4.963   6.812   0.768
 6719SOL     OW21055   2.282   6.966   0.467
 6719SOL    HW121056   2.229   0.027   0.463
 6719SOL    HW221057   2.380   6.989   0.469
 6720SOL     OW21058   2.162   0.890   3.626
 6720SOL    HW121059   2.092   0.845   3.680
 6720SOL    HW221060   2.135   0.889   3.529
 6721SOL     OW21061   0.056   6.606   0.705
 6721SOL    HW121062   0.059   6.509   0.679
 6721SOL    HW221063   0.149   6.642   0.712
 6722SOL     OW21064   0.032   2.733   0.458
 6722SOL    HW121065   0.049   2.658   0.521
 6722SOL    HW221066   6.960   2.729   0.426
 6723SOL     OW21067   1.563   6.984   5.214
 6723SOL    HW121068   1.600   0.028   5.150
 6723SOL    HW221069   1.638   6.939   5.262
 6724SOL     OW21070   1.875   3.212   6.127
 6724SOL    HW121071   1.872   3.191   6.029
 6724SOL    HW221072   1.792   3.177   6.170
 6725SOL     OW21073   0.059   2.336   2.211
 6725SOL    HW121074   6.991   2.311   2.177
 6725SOL    HW221075   0.125   2.331   2.135
 6726SOL     OW21076   0.112   2.419   3.788
 6726SOL    HW121077   0.096   2.509   3.749
 6726SOL    HW221078   0.181   2.371   3.734
 6727SOL     OW21079   0.356   4.896   5.760
 6727SOL    HW121080   0.390   4.863   5.672
 6727SOL    HW221081   0.369   4.996   5.765
 6728SOL     OW21082   4.201   2.220   2.878
 6728SOL    HW121083   4.231   2.294   2.818
 6728SOL    HW221084   4.256   2.138   2.860
 6729SOL     OW21085   0.188   1.438   0.280
 6729SOL    HW121086   0.109   1.415   0.338
 6729SOL    HW221087   0.272   1.424   0.332
 6730SOL     OW21088   2.165   0.012   1.140
 6730SOL    HW121089   2.193   7.019   1.045
 6730SOL    HW221090   2.080   0.065   1.142
 6731SOL     OW21091   1.707   6.818   0.673
 6731SOL    HW121092   1.699   6.735   0.727
 6731SOL    HW221093   1.681   6.799   0.578
 6732SOL     OW21094   5.646   4.746   4.486
 6732SOL    HW121095   5.619   4.654   4.456
 6732SOL    HW221096   5.669   4.801   4.407
 6733SOL     OW21097   3.700   5.594   6.359
 6733SOL    HW121098   3.720   5.558   6.450
 6733SOL    HW221099   3.783   5.633   6.320
 6734SOL     OW21100   5.772   2.431   5.348
 6734SOL    HW121101   5.772   2.487   5.265
 6734SOL    HW221102   5.776   2.491   5.429
 6735SOL     OW21103   5.799   3.934   4.745
 6735SOL    HW121104   5.751   3.954   4.660
 6735SOL    HW221105   5.733   3.922   4.819
 6736SOL     OW21106   2.787   3.587   6.266
 6736SOL    HW121107   2.785   3.562   6.170
 6736SOL    HW221108   2.702   3.633   6.291
 6737SOL     OW21109   1.409   3.250   0.946
 6737SOL    HW121110   1.372   3.235   1.037
 6737SOL    HW221111   1.352   3.204   0.878
 6738SOL     OW21112   1.715   5.725   4.177
 6738SOL    HW121113   1.648   5.715   4.103
 6738SOL    HW221114   1.678   5.783   4.248
 6739SOL     OW21115   5.851   6.164   3.877
 6739SOL    HW121116   5.841   6.114   3.963
 6739SOL    HW221117   5.801   6.117   3.804
 6740SOL     OW21118   6.786   0.074   5.475
 6740SOL    HW121119   6.727   0.141   5.522
 6740SOL    HW221120   6.797   0.100   5.379
 6741SOL     OW21121   3.443   2.411   5.444
 6741SOL    HW121122   3.513   2.468   5.400
 6741SOL    HW221123   3.447   2.319   5.405
 6742SOL     OW21124   5.950   5.659   3.324
 6742SOL    HW121125   6.008   5.580   3.308
 6742SOL    HW221126   5.855   5.635   3.301
 6743SOL     OW21127   3.658   4.359   6.713
 6743SOL    HW121128   3.607   4.275   6.695
 6743SOL    HW221129   3.676   4.406   6.627
 6744SOL     OW21130   0.353   6.031   5.491
 6744SOL    HW121131   0.444   6.020   5.450
 6744SOL    HW221132   0.346   6.121   5.533
 6745SOL     OW21133   7.004   6.031   3.335
 6745SOL    HW121134   6.990   6.108   3.273
 6745SOL    HW221135   6.960   6.051   3.423
 6746SOL     OW21136   0.762   0.007   3.910
 6746SOL    HW121137   0.718   0.067   3.978
 6746SOL    HW221138   0.693   6.993   3.849
 6747SOL     OW21139   5.744   0.838   6.928
 6747SOL    HW121140   5.795   0.813   6.846
 6747SOL    HW221141   5.677   0.767   6.949
 6748SOL     OW21142   3.904   1.732   3.086
 6748SOL    HW121143   3.926   1.741   2.989
 6748SOL    HW221144   3.975   1.678   3.132
 6749SOL     OW21145   3.936   4.568   0.894
 6749SOL    HW121146   3.996   4.646   0.910
 6749SOL    HW221147   3.966   4.520   0.812
 6750SOL     OW21148   3.397   1.755   4.101
 6750SOL    HW121149   3.488   1.767   4.141
 6750SOL    HW221150   3.357   1.669   4.134
 6751SOL     OW21151   4.936   0.790   3.227
 6751SOL    HW121152   4.890   0.791   3.317
 6751SOL    HW221153   4.939   0.696   3.193
 6752SOL     OW21154   2.450   0.033   2.838
 6752SOL    HW121155   2.446   0.098   2.914
 6752SOL    HW221156   2.358   0.016   2.804
 6753SOL     OW21157   3.455   1.148   6.260
 6753SOL    HW121158   3.439   1.082   6.187
 6753SOL    HW221159   3.383   1.139   6.329
 6754SOL     OW21160   6.555   0.961   0.949
 6754SOL    HW121161   6.547   1.037   1.014
 6754SOL    HW221162   6.491   0.977   0.873
 6755SOL     OW21163   4.151   2.686   1.276
 6755SOL    HW121164   4.195   2.716   1.191
 6755SOL    HW221165   4.076   2.624   1.254
 6756SOL     OW21166   3.984   6.233   5.269
 6756SOL    HW121167   4.005   6.144   5.311
 6756SOL    HW221168   4.042   6.303   5.311
 6757SOL     OW21169   3.242   2.114   6.917
 6757SOL    HW121170   3.227   2.208   6.884
 6757SOL    HW221171   3.279   2.117   7.010
 6758SOL     OW21172   6.027   2.886   1.726
 6758SOL    HW121173   5.952   2.848   1.780
 6758SOL    HW221174   5.991   2.918   1.638
 6759SOL     OW21175   0.561   3.606   3.188
 6759SOL    HW121176   0.497   3.530   3.201
 6759SOL    HW221177   0.654   3.575   3.207
 6760SOL     OW21178   6.668   3.247   2.404
 6760SOL    HW121179   6.708   3.337   2.421
 6760SOL    HW221180   6.737   3.186   2.366
 6761SOL     OW21181   6.478   2.604   5.047
 6761SOL    HW121182   6.420   2.617   4.966
 6761SOL    HW221183   6.476   2.508   5.074
 6762SOL     OW21184   0.662   4.148   4.533
 6762SOL    HW121185   0.729   4.176   4.601
 6762SOL    HW221186   0.635   4.226   4.477
 6763SOL     OW21187   6.685   5.443   3.893
 6763SOL    HW121188   6.701   5.541   3.906
 6763SOL    HW221189   6.601   5.417   3.942
 6764SOL     OW21190   1.843   5.971   1.826
 6764SOL    HW121191   1.852   6.056   1.774
 6764SOL    HW221192   1.797   5.990   1.913
 6765SOL     OW21193   5.574   4.911   3.857
 6765SOL    HW121194   5.619   4.955   3.779
 6765SOL    HW221195   5.606   4.951   3.942
 6766SOL     OW21196   5.470   6.317   5.359
 6766SOL    HW121197   5.476   6.400   5.303
 6766SOL    HW221198   5.527   6.246   5.319
 6767SOL     OW21199   2.637   0.899   1.478
 6767SOL    HW121200   2.635   0.933   1.572
 6767SOL    HW221201   2.723   0.927   1.435
 6768SOL     OW21202   1.869   0.653   5.286
 6768SOL    HW121203   1.790   0.708   5.314
 6768SOL    HW221204   1.896   0.679   5.193
 6769SOL     OW21205   3.519   0.847   6.775
 6769SOL    HW121206   3.495   0.933   6.729
 6769SOL    HW221207   3.440   0.815   6.829
 6770SOL     OW21208   7.022   0.964   2.174
 6770SOL    HW121209   6.940   1.016   2.199
 6770SOL    HW221210   7.007   0.868   2.195
 6771SOL     OW21211   5.128   1.922   3.293
 6771SOL    HW121212   5.086   1.987   3.356
 6771SOL    HW221213   5.161   1.971   3.212
 6772SOL     OW21214   3.919   2.187   2.848
 6772SOL    HW121215   3.924   2.185   2.748
 6772SOL    HW221216   4.008   2.214   2.884
 6773SOL     OW21217   6.402   4.835   2.347
 6773SOL    HW121218   6.447   4.862   2.432
 6773SOL    HW221219   6.445   4.882   2.270
 6774SOL     OW21220   1.075   2.720   5.498
 6774SOL    HW121221   1.082   2.659   5.419
 6774SOL    HW221222   1.165   2.761   5.517
 6775SOL     OW21223   2.108   2.531   1.636
 6775SOL    HW121224   2.105   2.435   1.608
 6775SOL    HW221225   2.134   2.538   1.732
 6776SOL     OW21226   4.540   4.909   6.945
 6776SOL    HW121227   4.580   4.826   6.906
 6776SOL    HW221228   4.454   4.885   6.990
 6777SOL     OW21229   4.182   4.498   0.637
 6777SOL    HW121230   4.183   4.500   0.537
 6777SOL    HW221231   4.227   4.414   0.669
 6778SOL     OW21232   6.065   5.247   1.612
 6778SOL    HW121233   6.060   5.171   1.547
 6778SOL    HW221234   6.149   5.298   1.597
 6779SOL     OW21235   6.056   5.274   6.706
 6779SOL    HW121236   6.062   5.245   6.610
 6779SOL    HW221237   6.039   5.194   6.763
 6780SOL     OW21238   1.445   2.859   2.384
 6780SOL    HW121239   1.485   2.809   2.307
 6780SOL    HW221240   1.509   2.930   2.415
 6781SOL     OW21241   6.590   1.275   4.416
 6781SOL    HW121242   6.647   1.200   4.449
 6781SOL    HW221243   6.609   1.358   4.470
 6782SOL     OW21244   6.965   0.939   3.532
 6782SOL    HW121245   6.876   0.955   3.489
 6782SOL    HW221246   6.989   1.017   3.588
 6783SOL     OW21247   6.449   1.979   5.738
 6783SOL    HW121248   6.388   1.900   5.745
 6783SOL    HW221249   6.458   2.023   5.827
 6784SOL     OW21250   2.132   3.349   0.911
 6784SOL    HW121251   2.143   3.304   0.999
 6784SOL    HW221252   2.222   3.362   0.869
 6785SOL     OW21253   6.210   5.196   3.675
 6785SOL    HW121254   6.224   5.290   3.643
 6785SOL    HW221255   6.180   5.197   3.770
 6786SOL     OW21256   1.850   2.510   0.280
 6786SOL    HW121257   1.784   2.579   0.252
 6786SOL    HW221258   1.817   2.463   0.362
 6787SOL     OW21259   1.677   2.803   1.044
 6787SOL    HW121260   1.673   2.738   0.968
 6787SOL    HW221261   1.727   2.885   1.016
 6788SOL     OW21262   2.035   4.301   1.349
 6788SOL    HW121263   2.090   4.219   1.334
 6788SOL    HW221264   2.055   4.338   1.440
 6789SOL     OW21265   0.226   5.308   3.333
 6789SOL    HW121266   0.188   5.355   3.412
 6789SOL    HW221267   0.236   5.374   3.258
 6790SOL     OW21268   0.723   3.763   1.283
 6790SOL    HW121269   0.816   3.730   1.298
 6790SOL    HW221270   0.693   3.737   1.191
 6791SOL     OW21271   4.079   2.263   1.526
 6791SOL    HW121272   4.006   2.330   1.540
 6791SOL    HW221273   4.111   2.268   1.431
 6792SOL     OW21274   6.594   6.024   5.270
 6792SOL    HW121275   6.597   5.975   5.357
 6792SOL    HW221276   6.659   6.100   5.273
 6793SOL     OW21277   1.327   2.322   1.125
 6793SOL    HW121278   1.324   2.238   1.072
 6793SOL    HW221279   1.298   2.303   1.219
 6794SOL     OW21280   4.911   1.661   6.007
 6794SOL    HW121281   4.992   1.603   6.002
 6794SOL    HW221282   4.925   1.744   5.954
 6795SOL     OW21283   2.613   6.885   1.297
 6795SOL    HW121284   2.533   6.940   1.321
 6795SOL    HW221285   2.610   6.799   1.347
 6796SOL     OW21286   6.721   0.439   1.744
 6796SOL    HW121287   6.648   0.486   1.694
 6796SOL    HW221288   6.776   0.506   1.794
 6797SOL     OW21289   6.131   2.278   1.798
 6797SOL    HW121290   6.203   2.347   1.787
 6797SOL    HW221291   6.160   2.210   1.865
 6798SOL     OW21292   4.717   6.884   2.358
 6798SOL    HW121293   4.647   6.877   2.288
 6798SOL    HW221294   4.683   6.939   2.435
 6799SOL     OW21295   6.292   6.360   1.808
 6799SOL    HW121296   6.281   6.263   1.831
 6799SOL    HW221297   6.342   6.406   1.881
 6800SOL     OW21298   2.098   3.647   1.796
 6800SOL    HW121299   2.158   3.588   1.851
 6800SOL    HW221300   2.109   3.625   1.699
 6801SOL     OW21301   0.793   0.029   3.089
 6801SOL    HW121302   0.701   0.069   3.096
 6801SOL    HW221303   0.817   7.009   3.176
 6802SOL     OW21304   3.530   6.147   1.243
 6802SOL    HW121305   3.597   6.107   1.180
 6802SOL    HW221306   3.438   6.134   1.206
 6803SOL     OW21307   4.737   2.879   5.856
 6803SOL    HW121308   4.639   2.862   5.844
 6803SOL    HW221309   4.750   2.964   5.906
 6804SOL     OW21310   3.620   5.220   3.648
 6804SOL    HW121311   3.617   5.310   3.604
 6804SOL    HW221312   3.594   5.230   3.744
 6805SOL     OW21313   0.049   4.934   6.343
 6805SOL    HW121314   0.008   4.879   6.416
 6805SOL    HW221315   0.061   4.877   6.262
 6806SOL     OW21316   5.760   0.232   3.466
 6806SOL    HW121317   5.839   0.293   3.457
 6806SOL    HW221318   5.763   0.188   3.556
 6807SOL     OW21319   3.126   3.061   0.653
 6807SOL    HW121320   3.041   3.106   0.627
 6807SOL    HW221321   3.187   3.128   0.696
 6808SOL     OW21322   6.871   2.386   5.379
 6808SOL    HW121323   6.926   2.304   5.366
 6808SOL    HW221324   6.908   2.439   5.455
 6809SOL     OW21325   0.909   2.891   1.551
 6809SOL    HW121326   0.832   2.871   1.612
 6809SOL    HW221327   0.876   2.896   1.457
 6810SOL     OW21328   1.695   1.079   2.409
 6810SOL    HW121329   1.652   1.051   2.323
 6810SOL    HW221330   1.655   1.028   2.485
 6811SOL     OW21331   5.825   3.867   1.360
 6811SOL    HW121332   5.879   3.848   1.278
 6811SOL    HW221333   5.844   3.797   1.429
 6812SOL     OW21334   3.233   3.309   3.352
 6812SOL    HW121335   3.287   3.353   3.424
 6812SOL    HW221336   3.189   3.227   3.388
 6813SOL     OW21337   4.930   2.520   2.425
 6813SOL    HW121338   4.851   2.475   2.467
 6813SOL    HW221339   4.945   2.608   2.468
 6814SOL     OW21340   3.283   1.754   6.063
 6814SOL    HW121341   3.298   1.806   5.979
 6814SOL    HW221342   3.185   1.739   6.076
 6815SOL     OW21343   3.417   6.950   1.318
 6815SOL    HW121344   3.336   6.897   1.292
 6815SOL    HW221345   3.478   6.892   1.373
 6816SOL     OW21346   6.710   6.969   6.838
 6816SOL    HW121347   6.749   6.941   6.749
 6816SOL    HW221348   6.715   0.045   6.847
 6817SOL     OW21349   1.820   2.216   2.557
 6817SOL    HW121350   1.898   2.263   2.598
 6817SOL    HW221351   1.790   2.141   2.616
 6818SOL     OW21352   3.371   6.014   2.263
 6818SOL    HW121353   3.296   6.061   2.215
 6818SOL    HW221354   3.384   6.056   2.353
 6819SOL     OW21355   5.449   1.254   4.102
 6819SOL    HW121356   5.520   1.212   4.046
 6819SOL    HW221357   5.491   1.317   4.168
 6820SOL     OW21358   1.977   5.348   2.181
 6820SOL    HW121359   1.910   5.335   2.108
 6820SOL    HW221360   2.058   5.393   2.145
 6821SOL     OW21361   4.057   2.246   4.736
 6821SOL    HW121362   4.126   2.260   4.806
 6821SOL    HW221363   3.974   2.298   4.758
 6822SOL     OW21364   5.515   2.661   6.538
 6822SOL    HW121365   5.513   2.642   6.637
 6822SOL    HW221366   5.497   2.577   6.488
 6823SOL     OW21367   4.113   3.279   5.250
 6823SOL    HW121368   4.172   3.360   5.242
 6823SOL    HW221369   4.021   3.308   5.275
 6824SOL     OW21370   1.064   1.969   6.108
 6824SOL    HW121371   1.137   2.008   6.052
 6824SOL    HW221372   0.976   1.984   6.063
 6825SOL     OW21373   4.893   6.611   1.793
 6825SOL    HW121374   4.959   6.577   1.726
 6825SOL    HW221375   4.937   6.620   1.882
 6826SOL     OW21376   1.855   3.830   2.965
 6826SOL    HW121377   1.928   3.828   2.896
 6826SOL    HW221378   1.895   3.847   3.055
 6827SOL     OW21379   4.627   5.633   5.932
 6827SOL    HW121380   4.534   5.604   5.909
 6827SOL    HW221381   4.688   5.614   5.855
 6828SOL     OW21382   2.645   2.007   1.468
 6828SOL    HW121383   2.638   2.106   1.463
 6828SOL    HW221384   2.600   1.975   1.552
 6829SOL     OW21385   4.378   6.604   4.001
 6829SOL    HW121386   4.364   6.512   4.037
 6829SOL    HW221387   4.468   6.638   4.029
 6830SOL     OW21388   5.275   0.745   3.691
 6830SOL    HW121389   5.367   0.708   3.704
 6830SOL    HW221390   5.210   0.690   3.743
 6831SOL     OW21391   1.864   0.775   6.970
 6831SOL    HW121392   1.844   0.732   0.035
 6831SOL    HW221393   1.838   0.712   6.896
 6832SOL     OW21394   3.236   4.284   1.186
 6832SOL    HW121395   3.255   4.210   1.122
 6832SOL    HW221396   3.227   4.370   1.137
 6833SOL     OW21397   3.414   4.838   6.619
 6833SOL    HW121398   3.334   4.778   6.623
 6833SOL    HW221399   3.432   4.875   6.711
 6834SOL     OW21400   4.946   6.458   1.132
 6834SOL    HW121401   5.017   6.429   1.068
 6834SOL    HW221402   4.972   6.545   1.173
 6835SOL     OW21403   4.098   0.173   4.392
 6835SOL    HW121404   4.007   0.153   4.355
 6835SOL    HW221405   4.128   0.095   4.448
 6836SOL     OW21406   2.425   5.361   0.005
 6836SOL    HW121407   2.351   5.410   0.051
 6836SOL    HW221408   2.470   5.300   0.070
 6837SOL     OW21409   0.432   1.824   1.867
 6837SOL    HW121410   0.475   1.901   1.820
 6837SOL    HW221411   0.462   1.823   1.963
 6838SOL     OW21412   3.171   6.139   0.309
 6838SOL    HW121413   3.267   6.148   0.284
 6838SOL    HW221414   3.155   6.187   0.396
 6839SOL     OW21415   5.418   0.749   6.731
 6839SOL    HW121416   5.498   0.784   6.683
 6839SOL    HW221417   5.430   0.760   6.829
 6840SOL     OW21418   3.712   0.597   4.772
 6840SOL    HW121419   3.651   0.635   4.841
 6840SOL    HW221420   3.747   0.670   4.714
 6841SOL     OW21421   4.285   3.994   6.767
 6841SOL    HW121422   4.309   3.909   6.814
 6841SOL    HW221423   4.298   4.072   6.829
 6842SOL     OW21424   2.169   4.294   0.723
 6842SOL    HW121425   2.137   4.373   0.776
 6842SOL    HW221426   2.269   4.291   0.727
 6843SOL     OW21427   6.456   0.109   0.745
 6843SOL    HW121428   6.465   0.170   0.666
 6843SOL    HW221429   6.521   0.136   0.815
 6844SOL     OW21430   5.322   0.510   3.971
 6844SOL    HW121431   5.309   0.601   4.012
 6844SOL    HW221432   5.399   0.514   3.906
 6845SOL     OW21433   6.353   3.305   3.026
 6845SOL    HW121434   6.397   3.246   3.095
 6845SOL    HW221435   6.267   3.340   3.063
 6846SOL     OW21436   3.649   3.296   0.168
 6846SOL    HW121437   3.553   3.282   0.141
 6846SOL    HW221438   3.708   3.236   0.114
 6847SOL     OW21439   0.197   3.371   4.437
 6847SOL    HW121440   0.294   3.390   4.421
 6847SOL    HW221441   0.159   3.323   4.358
 6848SOL     OW21442   4.659   5.065   3.727
 6848SOL    HW121443   4.595   5.036   3.656
 6848SOL    HW221444   4.699   4.985   3.771
 6849SOL     OW21445   4.524   4.421   5.694
 6849SOL    HW121446   4.436   4.432   5.741
 6849SOL    HW221447   4.582   4.500   5.714
 6850SOL     OW21448   5.475   3.449   3.013
 6850SOL    HW121449   5.516   3.385   3.078
 6850SOL    HW221450   5.452   3.534   3.060
 6851SOL     OW21451   6.901   1.876   3.493
 6851SOL    HW121452   6.869   1.818   3.418
 6851SOL    HW221453   6.968   1.941   3.458
 6852SOL     OW21454   2.570   4.805   1.214
 6852SOL    HW121455   2.553   4.772   1.307
 6852SOL    HW221456   2.566   4.728   1.151
 6853SOL     OW21457   5.410   4.597   0.256
 6853SOL    HW121458   5.434   4.618   0.161
 6853SOL    HW221459   5.445   4.506   0.279
 6854SOL     OW21460   4.758   0.745   5.745
 6854SOL    HW121461   4.817   0.698   5.679
 6854SOL    HW221462   4.735   0.836   5.711
 6855SOL     OW21463   4.092   6.504   3.900
 6855SOL    HW121464   4.139   6.557   3.971
 6855SOL    HW221465   4.128   6.529   3.811
 6856SOL     OW21466   0.265   2.301   5.199
 6856SOL    HW121467   0.213   2.342   5.274
 6856SOL    HW221468   0.227   2.211   5.178
 6857SOL     OW21469   1.549   2.667   6.621
 6857SOL    HW121470   1.519   2.616   6.540
 6857SOL    HW221471   1.596   2.604   6.683
 6858SOL     OW21472   3.943   3.770   1.990
 6858SOL    HW121473   4.002   3.695   2.019
 6858SOL    HW221474   3.847   3.743   1.999
 6859SOL     OW21475   1.332   1.309   1.036
 6859SOL    HW121476   1.389   1.242   1.084
 6859SOL    HW221477   1.256   1.261   0.991
 6860SOL     OW21478   0.077   5.321   1.647
 6860SOL    HW121479   0.112   5.399   1.698
 6860SOL    HW221480   0.133   5.240   1.667
 6861SOL     OW21481   4.262   4.150   0.191
 6861SOL    HW121482   4.276   4.124   0.286
 6861SOL    HW221483   4.303   4.082   0.131
 6862SOL     OW21484   0.947   5.549   5.685
 6862SOL    HW121485   0.930   5.645   5.709
 6862SOL    HW221486   1.045   5.530   5.688
 6863SOL     OW21487   6.097   6.564   5.962
 6863SOL    HW121488   6.173   6.582   5.900
 6863SOL    HW221489   6.062   6.651   5.998
 6864SOL     OW21490   2.211   4.801   4.858
 6864SOL    HW121491   2.174   4.875   4.914
 6864SOL    HW221492   2.138   4.761   4.802
 6865SOL     OW21493   0.685   6.207   4.739
 6865SOL    HW121494   0.734   6.176   4.820
 6865SOL    HW221495   0.738   6.278   4.693
 6866SOL     OW21496   5.636   5.521   3.009
 6866SOL    HW121497   5.723   5.472   2.997
 6866SOL    HW221498   5.571   5.492   2.940
 6867SOL     OW21499   2.109   3.844   2.343
 6867SOL    HW121500   2.116   3.783   2.265
 6867SOL    HW221501   2.013   3.868   2.359
 6868SOL     OW21502   1.609   6.519   6.365
 6868SOL    HW121503   1.571   6.562   6.283
 6868SOL    HW221504   1.708   6.523   6.362
 6869SOL     OW21505   4.790   0.925   6.100
 6869SOL    HW121506   4.795   0.885   6.192
 6869SOL    HW221507   4.844   1.009   6.097
 6870SOL     OW21508   0.216   4.397   1.255
 6870SOL    HW121509   0.251   4.372   1.345
 6870SOL    HW221510   0.255   4.484   1.227
 6871SOL     OW21511   6.311   4.048   3.315
 6871SOL    HW121512   6.333   4.088   3.404
 6871SOL    HW221513   6.325   3.949   3.318
 6872SOL     OW21514   0.152   2.453   1.533
 6872SOL    HW121515   0.067   2.505   1.523
 6872SOL    HW221516   0.196   2.477   1.619
 6873SOL     OW21517   0.172   3.831   3.779
 6873SOL    HW121518   0.251   3.788   3.823
 6873SOL    HW221519   0.109   3.760   3.749
 6874SOL     OW21520   6.879   5.198   3.170
 6874SOL    HW121521   6.909   5.267   3.104
 6874SOL    HW221522   6.861   5.112   3.122
 6875SOL     OW21523   2.177   2.763   2.333
 6875SOL    HW121524   2.104   2.790   2.271
 6875SOL    HW221525   2.261   2.746   2.281
 6876SOL     OW21526   3.616   0.091   3.894
 6876SOL    HW121527   3.695   0.147   3.920
 6876SOL    HW221528   3.584   0.040   3.974
 6877SOL     OW21529   3.198   4.214   1.439
 6877SOL    HW121530   3.201   4.242   1.343
 6877SOL    HW221531   3.238   4.123   1.448
 6878SOL     OW21532   3.959   1.095   4.404
 6878SOL    HW121533   3.891   1.052   4.463
 6878SOL    HW221534   4.017   1.155   4.459
 6879SOL     OW21535   1.280   2.836   0.738
 6879SOL    HW121536   1.318   2.810   0.826
 6879SOL    HW221537   1.258   2.934   0.739
 6880SOL     OW21538   1.828   5.488   5.881
 6880SOL    HW121539   1.759   5.483   5.953
 6880SOL    HW221540   1.791   5.539   5.803
 6881SOL     OW21541   1.561   3.842   1.570
 6881SOL    HW121542   1.486   3.776   1.567
 6881SOL    HW221543   1.545   3.913   1.501
 6882SOL     OW21544   2.863   0.532   0.282
 6882SOL    HW121545   2.851   0.514   0.380
 6882SOL    HW221546   2.784   0.582   0.247
 6883SOL     OW21547   5.095   2.454   0.317
 6883SOL    HW121548   5.174   2.393   0.323
 6883SOL    HW221549   5.049   2.440   0.229
 6884SOL     OW21550   1.115   4.393   3.589
 6884SOL    HW121551   1.022   4.415   3.619
 6884SOL    HW221552   1.139   4.449   3.510
 6885SOL     OW21553   4.988   4.919   3.600
 6885SOL    HW121554   4.932   4.861   3.659
 6885SOL    HW221555   5.079   4.878   3.591
 6886SOL     OW21556   6.811   1.133   4.510
 6886SOL    HW121557   6.848   1.117   4.418
 6886SOL    HW221558   6.864   1.204   4.555
 6887SOL     OW21559   4.611   5.233   6.622
 6887SOL    HW121560   4.544   5.238   6.548
 6887SOL    HW221561   4.681   5.303   6.608
 6888SOL     OW21562   5.443   5.595   6.392
 6888SOL    HW121563   5.348   5.573   6.372
 6888SOL    HW221564   5.448   5.645   6.478
 6889SOL     OW21565   1.059   2.996   5.888
 6889SOL    HW121566   1.040   2.904   5.924
 6889SOL    HW221567   1.002   3.012   5.808
 6890SOL     OW21568   4.084   6.464   2.287
 6890SOL    HW121569   4.061   6.482   2.191
 6890SOL    HW221570   4.000   6.453   2.340
 6891SOL     OW21571   2.162   4.162   2.472
 6891SOL    HW121572   2.199   4.073   2.501
 6891SOL    HW221573   2.104   4.149   2.392
 6892SOL     OW21574   3.221   1.951   3.890
 6892SOL    HW121575   3.263   1.893   3.960
 6892SOL    HW221576   3.280   1.955   3.810
 6893SOL     OW21577   4.498   4.459   0.522
 6893SOL    HW121578   4.545   4.382   0.565
 6893SOL    HW221579   4.405   4.433   0.498
 6894SOL     OW21580   5.896   4.436   0.822
 6894SOL    HW121581   5.909   4.466   0.727
 6894SOL    HW221582   5.814   4.478   0.860
 6895SOL     OW21583   2.302   4.905   1.077
 6895SOL    HW121584   2.242   4.954   1.014
 6895SOL    HW221585   2.258   4.897   1.166
 6896SOL     OW21586   2.825   1.474   4.085
 6896SOL    HW121587   2.777   1.389   4.108
 6896SOL    HW221588   2.908   1.481   4.140
 6897SOL     OW21589   4.845   3.772   4.735
 6897SOL    HW121590   4.861   3.697   4.798
 6897SOL    HW221591   4.753   3.809   4.748
 6898SOL     OW21592   4.208   1.633   1.423
 6898SOL    HW121593   4.119   1.676   1.437
 6898SOL    HW221594   4.220   1.559   1.489
 6899SOL     OW21595   4.504   6.122   2.147
 6899SOL    HW121596   4.560   6.148   2.068
 6899SOL    HW221597   4.438   6.194   2.166
 6900SOL     OW21598   6.233   5.264   5.110
 6900SOL    HW121599   6.285   5.181   5.091
 6900SOL    HW221600   6.149   5.241   5.158
 6901SOL     OW21601   6.398   6.386   6.214
 6901SOL    HW121602   6.436   6.374   6.123
 6901SOL    HW221603   6.471   6.385   6.282
 6902SOL     OW21604   6.450   5.651   6.233
 6902SOL    HW121605   6.487   5.592   6.304
 6902SOL    HW221606   6.516   5.723   6.211
 6903SOL     OW21607   3.311   5.195   5.018
 6903SOL    HW121608   3.327   5.124   4.949
 6903SOL    HW221609   3.231   5.171   5.073
 6904SOL     OW21610   6.054   0.526   5.786
 6904SOL    HW121611   6.086   0.455   5.724
 6904SOL    HW221612   6.122   0.541   5.858
 6905SOL     OW21613   5.399   5.838   0.310
 6905SOL    HW121614   5.444   5.927   0.303
 6905SOL    HW221615   5.333   5.828   0.236
 6906SOL     OW21616   3.467   1.645   3.863
 6906SOL    HW121617   3.435   1.698   3.942
 6906SOL    HW221618   3.510   1.561   3.894
 6907SOL     OW21619   5.641   2.402   1.666
 6907SOL    HW121620   5.556   2.432   1.710
 6907SOL    HW221621   5.683   2.330   1.720
 6908SOL     OW21622   1.709   5.845   6.720
 6908SOL    HW121623   1.713   5.754   6.678
 6908SOL    HW221624   1.673   5.836   6.813
 6909SOL     OW21625   5.040   3.753   1.008
 6909SOL    HW121626   5.047   3.847   1.039
 6909SOL    HW221627   5.001   3.697   1.081
 6910SOL     OW21628   1.409   3.795   3.423
 6910SOL    HW121629   1.347   3.719   3.404
 6910SOL    HW221630   1.492   3.761   3.467
 6911SOL     OW21631   4.069   6.622   4.167
 6911SOL    HW121632   4.070   6.721   4.153
 6911SOL    HW221633   3.986   6.596   4.217
 6912SOL     OW21634   2.783   3.505   6.004
 6912SOL    HW121635   2.684   3.517   6.010
 6912SOL    HW221636   2.810   3.506   5.908
 6913SOL     OW21637   5.469   6.117   4.269
 6913SOL    HW121638   5.388   6.073   4.232
 6913SOL    HW221639   5.489   6.080   4.360
 6914SOL     OW21640   5.982   4.189   3.757
 6914SOL    HW121641   6.049   4.241   3.809
 6914SOL    HW221642   5.945   4.246   3.684
 6915SOL     OW21643   6.194   2.671   1.781
 6915SOL    HW121644   6.232   2.655   1.872
 6915SOL    HW221645   6.156   2.763   1.776
 6916SOL     OW21646   5.431   2.002   6.768
 6916SOL    HW121647   5.435   2.097   6.798
 6916SOL    HW221648   5.520   1.958   6.782
 6917SOL     OW21649   3.919   6.739   0.857
 6917SOL    HW121650   3.913   6.675   0.934
 6917SOL    HW221651   3.936   6.831   0.892
 6918SOL     OW21652   0.693   2.350   4.217
 6918SOL    HW121653   0.631   2.402   4.276
 6918SOL    HW221654   0.784   2.391   4.220
 6919SOL     OW21655   5.570   5.830   4.429
 6919SOL    HW121656   5.617   5.753   4.472
 6919SOL    HW221657   5.517   5.797   4.351
 6920SOL     OW21658   4.533   6.988   5.649
 6920SOL    HW121659   4.571   0.056   5.634
 6920SOL    HW221660   4.597   6.919   5.615
 6921SOL     OW21661   4.521   6.050   4.182
 6921SOL    HW121662   4.606   5.999   4.170
 6921SOL    HW221663   4.464   6.037   4.100
 6922SOL     OW21664   2.074   5.639   5.261
 6922SOL    HW121665   2.155   5.630   5.204
 6922SOL    HW221666   2.041   5.548   5.287
 6923SOL     OW21667   5.227   5.745   2.754
 6923SOL    HW121668   5.235   5.731   2.852
 6923SOL    HW221669   5.222   5.656   2.708
 6924SOL     OW21670   1.710   4.450   0.220
 6924SOL    HW121671   1.707   4.453   0.121
 6924SOL    HW221672   1.706   4.354   0.250
 6925SOL     OW21673   5.064   6.041   4.494
 6925SOL    HW121674   5.153   6.068   4.531
 6925SOL    HW221675   5.007   6.004   4.567
 6926SOL     OW21676   2.577   2.786   0.951
 6926SOL    HW121677   2.662   2.733   0.943
 6926SOL    HW221678   2.525   2.777   0.866
 6927SOL     OW21679   3.668   2.912   5.841
 6927SOL    HW121680   3.623   2.832   5.881
 6927SOL    HW221681   3.765   2.892   5.827
 6928SOL     OW21682   5.727   5.413   1.160
 6928SOL    HW121683   5.653   5.420   1.093
 6928SOL    HW221684   5.754   5.505   1.189
 6929SOL     OW21685   4.874   5.494   2.141
 6929SOL    HW121686   4.779   5.494   2.172
 6929SOL    HW221687   4.932   5.452   2.210
 6930SOL     OW21688   1.752   0.691   1.745
 6930SOL    HW121689   1.774   0.777   1.698
 6930SOL    HW221690   1.723   0.711   1.838
 6931SOL     OW21691   1.489   1.292   2.400
 6931SOL    HW121692   1.580   1.257   2.378
 6931SOL    HW221693   1.433   1.296   2.317
 6932SOL     OW21694   4.644   0.196   0.433
 6932SOL    HW121695   4.695   0.236   0.357
 6932SOL    HW221696   4.563   0.251   0.453
 6933SOL     OW21697   3.536   6.007   5.613
 6933SOL    HW121698   3.477   5.935   5.577
 6933SOL    HW221699   3.550   5.993   5.711
 6934SOL     OW21700   4.379   3.249   5.965
 6934SOL    HW121701   4.392   3.348   5.964
 6934SOL    HW221702   4.281   3.229   5.977
 6935SOL     OW21703   4.835   5.752   2.930
 6935SOL    HW121704   4.773   5.699   2.871
 6935SOL    HW221705   4.880   5.823   2.876
 6936SOL     OW21706   6.394   3.116   4.165
 6936SOL    HW121707   6.339   3.033   4.176
 6936SOL    HW221708   6.416   3.153   4.255
 6937SOL     OW21709   5.996   5.960   0.817
 6937SOL    HW121710   5.981   5.953   0.718
 6937SOL    HW221711   5.944   6.037   0.853
 6938SOL     OW21712   6.727   2.717   5.020
 6938SOL    HW121713   6.631   2.690   5.014
 6938SOL    HW221714   6.783   2.638   5.043
 6939SOL     OW21715   0.079   5.187   2.402
 6939SOL    HW121716   0.043   5.168   2.493
 6939SOL    HW221717   0.177   5.207   2.408
 6940SOL     OW21718   3.926   0.360   6.779
 6940SOL    HW121719   3.838   0.382   6.736
 6940SOL    HW221720   3.955   0.269   6.751
 6941SOL     OW21721   3.031   3.882   1.952
 6941SOL    HW121722   3.001   3.860   2.045
 6941SOL    HW221723   3.128   3.905   1.953
 6942SOL     OW21724   6.127   6.616   2.503
 6942SOL    HW121725   6.088   6.564   2.579
 6942SOL    HW221726   6.056   6.633   2.434
 6943SOL     OW21727   4.172   5.934   1.003
 6943SOL    HW121728   4.151   5.955   0.908
 6943SOL    HW221729   4.087   5.932   1.056
 6944SOL     OW21730   1.138   4.850   6.485
 6944SOL    HW121731   1.082   4.768   6.470
 6944SOL    HW221732   1.122   4.915   6.411
 6945SOL     OW21733   6.836   1.617   0.419
 6945SOL    HW121734   6.834   1.603   0.518
 6945SOL    HW221735   6.761   1.677   0.393
 6946SOL     OW21736   4.127   0.134   1.166
 6946SOL    HW121737   4.111   0.077   1.247
 6946SOL    HW221738   4.068   0.103   1.092
 6947SOL     OW21739   3.533   5.478   0.188
 6947SOL    HW121740   3.492   5.569   0.200
 6947SOL    HW221741   3.632   5.487   0.184
 6948SOL     OW21742   0.867   6.446   1.076
 6948SOL    HW121743   0.823   6.470   0.990
 6948SOL    HW221744   0.954   6.495   1.084
 6949SOL     OW21745   3.623   6.790   3.364
 6949SOL    HW121746   3.544   6.852   3.358
 6949SOL    HW221747   3.705   6.837   3.333
 6950SOL     OW21748   1.780   1.347   5.212
 6950SOL    HW121749   1.779   1.408   5.132
 6950SOL    HW221750   1.712   1.275   5.200
 6951SOL     OW21751   6.624   5.607   5.832
 6951SOL    HW121752   6.714   5.626   5.869
 6951SOL    HW221753   6.558   5.674   5.868
 6952SOL     OW21754   0.978   5.266   3.123
 6952SOL    HW121755   0.970   5.351   3.174
 6952SOL    HW221756   1.073   5.251   3.097
 6953SOL     OW21757   4.512   6.608   1.046
 6953SOL    HW121758   4.571   6.528   1.049
 6953SOL    HW221759   4.506   6.650   1.136
 6954SOL     OW21760   0.889   3.906   1.975
 6954SOL    HW121761   0.819   3.838   2.000
 6954SOL    HW221762   0.978   3.874   2.005
 6955SOL     OW21763   5.383   0.908   2.053
 6955SOL    HW121764   5.403   0.858   2.137
 6955SOL    HW221765   5.451   0.884   1.983
 6956SOL     OW21766   5.417   5.658   3.306
 6956SOL    HW121767   5.345   5.590   3.287
 6956SOL    HW221768   5.381   5.750   3.290
 6957SOL     OW21769   6.209   5.846   0.935
 6957SOL    HW121770   6.167   5.773   0.989
 6957SOL    HW221771   6.137   5.906   0.899
 6958SOL     OW21772   4.053   3.221   4.629
 6958SOL    HW121773   4.077   3.213   4.532
 6958SOL    HW221774   4.109   3.292   4.672
 6959SOL     OW21775   2.084   2.995   2.938
 6959SOL    HW121776   2.113   3.089   2.924
 6959SOL    HW221777   2.118   2.962   3.026
 6960SOL     OW21778   2.040   4.063   1.672
 6960SOL    HW121779   2.027   4.029   1.765
 6960SOL    HW221780   2.137   4.080   1.656
 6961SOL     OW21781   5.878   0.269   4.398
 6961SOL    HW121782   5.789   0.313   4.383
 6961SOL    HW221783   5.949   0.339   4.400
 6962SOL     OW21784   4.133   5.817   1.595
 6962SOL    HW121785   4.200   5.807   1.668
 6962SOL    HW221786   4.147   5.904   1.548
 6963SOL     OW21787   5.432   5.584   1.286
 6963SOL    HW121788   5.398   5.517   1.353
 6963SOL    HW221789   5.521   5.617   1.316
 6964SOL     OW21790   3.794   1.228   5.764
 6964SOL    HW121791   3.781   1.131   5.746
 6964SOL    HW221792   3.851   1.240   5.845
 6965SOL     OW21793   2.043   1.114   0.069
 6965SOL    HW121794   2.080   1.207   0.078
 6965SOL    HW221795   1.952   1.119   0.026
 6966SOL     OW21796   0.707   1.268   2.520
 6966SOL    HW121797   0.779   1.202   2.543
 6966SOL    HW221798   0.627   1.252   2.578
 6967SOL     OW21799   2.966   1.013   6.348
 6967SOL    HW121800   2.921   1.071   6.415
 6967SOL    HW221801   2.977   0.921   6.384
 6968SOL     OW21802   3.789   1.098   3.640
 6968SOL    HW121803   3.804   1.134   3.548
 6968SOL    HW221804   3.710   1.036   3.640
 6969SOL     OW21805   2.869   2.382   1.475
 6969SOL    HW121806   2.936   2.359   1.404
 6969SOL    HW221807   2.781   2.403   1.432
 6970SOL     OW21808   3.676   3.674   5.696
 6970SOL    HW121809   3.728   3.734   5.756
 6970SOL    HW221810   3.709   3.686   5.602
 6971SOL     OW21811   6.270   4.750   0.679
 6971SOL    HW121812   6.265   4.837   0.727
 6971SOL    HW221813   6.278   4.676   0.745
 6972SOL     OW21814   5.318   4.569   3.262
 6972SOL    HW121815   5.390   4.634   3.285
 6972SOL    HW221816   5.302   4.507   3.339
 6973SOL     OW21817   0.353   2.867   3.027
 6973SOL    HW121818   0.346   2.835   2.932
 6973SOL    HW221819   0.274   2.834   3.079
 6974SOL     OW21820   3.075   3.971   2.472
 6974SOL    HW121821   3.129   4.039   2.522
 6974SOL    HW221822   3.069   3.888   2.527
 6975SOL     OW21823   1.601   6.470   5.222
 6975SOL    HW121824   1.526   6.534   5.205
 6975SOL    HW221825   1.679   6.493   5.165
 6976SOL     OW21826   6.662   5.088   5.875
 6976SOL    HW121827   6.736   5.140   5.832
 6976SOL    HW221828   6.700   5.029   5.946
 6977SOL     OW21829   3.569   2.923   0.819
 6977SOL    HW121830   3.623   2.898   0.900
 6977SOL    HW221831   3.488   2.865   0.814
 6978SOL     OW21832   4.927   2.357   1.928
 6978SOL    HW121833   5.005   2.294   1.924
 6978SOL    HW221834   4.842   2.306   1.921
 6979SOL     OW21835   1.118   3.965   1.418
 6979SOL    HW121836   1.137   4.042   1.357
 6979SOL    HW221837   1.177   3.889   1.395
 6980SOL     OW21838   2.072   0.515   3.330
 6980SOL    HW121839   2.067   0.415   3.330
 6980SOL    HW221840   1.980   0.553   3.325
 6981SOL     OW21841   3.536   4.073   5.352
 6981SOL    HW121842   3.493   4.041   5.268
 6981SOL    HW221843   3.481   4.045   5.430
 6982SOL     OW21844   0.992   0.949   4.758
 6982SOL    HW121845   0.992   0.999   4.845
 6982SOL    HW221846   1.034   0.859   4.772
 6983SOL     OW21847   4.553   1.849   4.469
 6983SOL    HW121848   4.602   1.906   4.534
 6983SOL    HW221849   4.550   1.895   4.380
 6984SOL     OW21850   2.225   1.586   3.356
 6984SOL    HW121851   2.254   1.520   3.286
 6984SOL    HW221852   2.305   1.623   3.402
 6985SOL     OW21853   5.937   5.485   0.895
 6985SOL    HW121854   5.867   5.418   0.871
 6985SOL    HW221855   6.023   5.438   0.912
 6986SOL     OW21856   3.152   0.018   6.573
 6986SOL    HW121857   3.081   0.074   6.530
 6986SOL    HW221858   3.126   7.022   6.668
 6987SOL     OW21859   6.392   1.638   6.047
 6987SOL    HW121860   6.362   1.691   5.967
 6987SOL    HW221861   6.316   1.631   6.112
 6988SOL     OW21862   1.075   0.097   6.785
 6988SOL    HW121863   1.163   0.066   6.749
 6988SOL    HW221864   1.002   0.037   6.753
 6989SOL     OW21865   0.435   4.522   2.928
 6989SOL    HW121866   0.391   4.542   2.840
 6989SOL    HW221867   0.386   4.447   2.973
 6990SOL     OW21868   4.246   2.775   1.028
 6990SOL    HW121869   4.164   2.765   0.971
 6990SOL    HW221870   4.319   2.718   0.991
 6991SOL     OW21871   4.738   4.474   3.534
 6991SOL    HW121872   4.708   4.562   3.571
 6991SOL    HW221873   4.723   4.403   3.603
 6992SOL     OW21874   5.780   0.619   6.396
 6992SOL    HW121875   5.716   0.622   6.319
 6992SOL    HW221876   5.760   0.541   6.454
 6993SOL     OW21877   5.932   6.770   2.329
 6993SOL    HW121878   5.844   6.780   2.283
 6993SOL    HW221879   5.963   6.859   2.362
 6994SOL     OW21880   6.952   2.219   3.850
 6994SOL    HW121881   6.938   2.210   3.948
 6994SOL    HW221882   7.004   2.302   3.831
 6995SOL     OW21883   0.985   4.049   6.395
 6995SOL    HW121884   1.053   4.041   6.468
 6995SOL    HW221885   0.893   4.048   6.435
 6996SOL     OW21886   2.241   0.246   0.257
 6996SOL    HW121887   2.282   0.253   0.348
 6996SOL    HW221888   2.212   0.337   0.227
 6997SOL     OW21889   0.498   4.966   5.144
 6997SOL    HW121890   0.515   4.947   5.047
 6997SOL    HW221891   0.575   4.933   5.199
 6998SOL     OW21892   1.503   1.758   1.244
 6998SOL    HW121893   1.532   1.841   1.196
 6998SOL    HW221894   1.414   1.773   1.288
 6999SOL     OW21895   1.474   3.289   6.166
 6999SOL    HW121896   1.496   3.195   6.142
 6999SOL    HW221897   1.534   3.320   6.240
 7000SOL     OW21898   5.837   6.456   1.962
 7000SOL    HW121899   5.922   6.502   1.936
 7000SOL    HW221900   5.838   6.362   1.927
 7001SOL     OW21901   1.619   3.375   5.395
 7001SOL    HW121902   1.608   3.441   5.320
 7001SOL    HW221903   1.678   3.300   5.365
 7002SOL     OW21904   1.825   5.511   4.420
 7002SOL    HW121905   1.916   5.521   4.461
 7002SOL    HW221906   1.795   5.600   4.384
 7003SOL     OW21907   4.315   5.800   1.197
 7003SOL    HW121908   4.407   5.803   1.159
 7003SOL    HW221909   4.250   5.833   1.129
 7004SOL     OW21910   0.648   5.887   1.249
 7004SOL    HW121911   0.649   5.876   1.149
 7004SOL    HW221912   0.615   5.802   1.291
 7005SOL     OW21913   1.332   0.491   1.110
 7005SOL    HW121914   1.392   0.431   1.057
 7005SOL    HW221915   1.244   0.447   1.124
 7006SOL     OW21916   5.757   5.535   3.556
 7006SOL    HW121917   5.846   5.492   3.567
 7006SOL    HW221918   5.727   5.525   3.461
 7007SOL     OW21919   4.120   0.849   4.574
 7007SOL    HW121920   4.053   0.849   4.499
 7007SOL    HW221921   4.113   0.934   4.625
 7008SOL     OW21922   0.749   3.969   3.959
 7008SOL    HW121923   0.808   4.049   3.943
 7008SOL    HW221924   0.728   3.926   3.872
 7009SOL     OW21925   4.018   6.586   2.786
 7009SOL    HW121926   4.011   6.584   2.886
 7009SOL    HW221927   3.927   6.579   2.746
 7010SOL     OW21928   5.543   4.097   3.906
 7010SOL    HW121929   5.552   4.049   3.993
 7010SOL    HW221930   5.598   4.181   3.909
 7011SOL     OW21931   3.261   6.627   6.668
 7011SOL    HW121932   3.185   6.619   6.603
 7011SOL    HW221933   3.230   6.678   6.748
 7012SOL     OW21934   1.358   1.922   0.820
 7012SOL    HW121935   1.266   1.954   0.842
 7012SOL    HW221936   1.354   1.826   0.793
 7013SOL     OW21937   1.056   6.659   6.781
 7013SOL    HW121938   1.129   6.599   6.813
 7013SOL    HW221939   1.082   6.700   6.693
 7014SOL     OW21940   4.780   3.269   0.606
 7014SOL    HW121941   4.776   3.174   0.637
 7014SOL    HW221942   4.691   3.296   0.571
 7015SOL     OW21943   5.408   4.119   1.187
 7015SOL    HW121944   5.391   4.217   1.178
 7015SOL    HW221945   5.507   4.103   1.191
 7016SOL     OW21946   3.778   4.885   1.320
 7016SOL    HW121947   3.762   4.894   1.221
 7016SOL    HW221948   3.692   4.864   1.365
 7017SOL     OW21949   2.952   5.457   3.317
 7017SOL    HW121950   2.857   5.439   3.342
 7017SOL    HW221951   3.002   5.488   3.398
 7018SOL     OW21952   5.147   3.908   3.995
 7018SOL    HW121953   5.223   3.850   4.023
 7018SOL    HW221954   5.062   3.873   4.035
 7019SOL     OW21955   3.584   4.879   0.461
 7019SOL    HW121956   3.555   4.938   0.537
 7019SOL    HW221957   3.635   4.802   0.498
 7020SOL     OW21958   6.811   4.341   5.333
 7020SOL    HW121959   6.772   4.427   5.366
 7020SOL    HW221960   6.750   4.266   5.358
 7021SOL     OW21961   1.925   2.344   4.616
 7021SOL    HW121962   1.841   2.302   4.650
 7021SOL    HW221963   1.932   2.328   4.517
 7022SOL     OW21964   4.718   0.027   6.728
 7022SOL    HW121965   4.816   0.010   6.717
 7022SOL    HW221966   4.688   0.093   6.659
 7023SOL     OW21967   1.330   3.132   2.505
 7023SOL    HW121968   1.262   3.067   2.471
 7023SOL    HW221969   1.400   3.147   2.435
 7024SOL     OW21970   2.903   3.697   4.444
 7024SOL    HW121971   2.859   3.609   4.433
 7024SOL    HW221972   2.991   3.698   4.396
 7025SOL     OW21973   4.016   1.105   1.147
 7025SOL    HW121974   3.971   1.125   1.234
 7025SOL    HW221975   3.984   1.170   1.077
 7026SOL     OW21976   3.423   2.091   2.209
 7026SOL    HW121977   3.464   2.176   2.176
 7026SOL    HW221978   3.363   2.053   2.139
 7027SOL     OW21979   2.850   5.755   4.487
 7027SOL    HW121980   2.796   5.805   4.420
 7027SOL    HW221981   2.898   5.819   4.546
 7028SOL     OW21982   3.783   1.151   3.372
 7028SOL    HW121983   3.694   1.115   3.398
 7028SOL    HW221984   3.817   1.102   3.291
 7029SOL     OW21985   4.114   4.428   5.347
 7029SOL    HW121986   4.183   4.416   5.276
 7029SOL    HW221987   4.103   4.342   5.398
 7030SOL     OW21988   0.059   1.193   5.122
 7030SOL    HW121989   6.988   1.199   5.090
 7030SOL    HW221990   0.108   1.276   5.098
 7031SOL     OW21991   3.833   6.088   0.056
 7031SOL    HW121992   3.834   6.182   0.090
 7031SOL    HW221993   3.796   6.086   6.987
 7032SOL     OW21994   4.112   1.516   3.682
 7032SOL    HW121995   4.133   1.481   3.590
 7032SOL    HW221996   4.022   1.484   3.710
 7033SOL     OW21997   1.267   2.537   3.438
 7033SOL    HW121998   1.251   2.482   3.355
 7033SOL    HW221999   1.243   2.632   3.420
 7034SOL     OW22000   6.989   1.478   2.803
 7034SOL    HW122001   6.989   1.574   2.775
 7034SOL    HW222002   0.032   1.464   2.876
 7035SOL     OW22003   1.397   0.161   0.716
 7035SOL    HW122004   1.481   0.106   0.720
 7035SOL    HW222005   1.322   0.104   0.682
 7036SOL     OW22006   6.621   1.329   2.536
 7036SOL    HW122007   6.677   1.269   2.593
 7036SOL    HW222008   6.668   1.347   2.450
 7037SOL     OW22009   0.857   0.909   6.373
 7037SOL    HW122010   0.950   0.927   6.404
 7037SOL    HW222011   0.859   0.849   6.293
 7038SOL     OW22012   2.277   4.351   4.922
 7038SOL    HW122013   2.363   4.366   4.972
 7038SOL    HW222014   2.222   4.284   4.971
 7039SOL     OW22015   0.397   6.271   2.939
 7039SOL    HW122016   0.496   6.287   2.939
 7039SOL    HW222017   0.350   6.353   2.973
 7040SOL     OW22018   5.721   3.052   6.111
 7040SOL    HW122019   5.697   2.973   6.168
 7040SOL    HW222020   5.811   3.036   6.069
 7041SOL     OW22021   6.865   1.676   2.412
 7041SOL    HW122022   6.820   1.749   2.464
 7041SOL    HW222023   6.961   1.701   2.396
 7042SOL     OW22024   4.326   6.069   4.408
 7042SOL    HW122025   4.399   6.079   4.339
 7042SOL    HW222026   4.357   6.009   4.481
 7043SOL     OW22027   2.541   4.814   3.313
 7043SOL    HW122028   2.586   4.893   3.271
 7043SOL    HW222029   2.463   4.845   3.368
 7044SOL     OW22030   5.586   5.381   5.309
 7044SOL    HW122031   5.635   5.381   5.396
 7044SOL    HW222032   5.582   5.288   5.272
 7045SOL     OW22033   5.144   5.664   2.302
 7045SOL    HW122034   5.206   5.589   2.327
 7045SOL    HW222035   5.072   5.672   2.372
 7046SOL     OW22036   3.178   1.766   3.481
 7046SOL    HW122037   3.232   1.850   3.478
 7046SOL    HW222038   3.116   1.764   3.402
 7047SOL     OW22039   6.459   0.603   1.962
 7047SOL    HW122040   6.528   0.646   2.020
 7047SOL    HW222041   6.492   0.601   1.867
 7048SOL     OW22042   5.741   6.464   4.539
 7048SOL    HW122043   5.681   6.519   4.480
 7048SOL    HW222044   5.817   6.520   4.569
 7049SOL     OW22045   3.694   1.948   0.987
 7049SOL    HW122046   3.664   2.037   1.019
 7049SOL    HW222047   3.751   1.958   0.905
 7050SOL     OW22048   4.096   3.353   1.495
 7050SOL    HW122049   4.188   3.314   1.486
 7050SOL    HW222050   4.033   3.283   1.529
 7051SOL     OW22051   6.837   6.187   1.229
 7051SOL    HW122052   6.881   6.211   1.316
 7051SOL    HW222053   6.892   6.221   1.153
 7052SOL     OW22054   6.686   0.744   4.108
 7052SOL    HW122055   6.690   0.677   4.034
 7052SOL    HW222056   6.682   0.836   4.070
 7053SOL     OW22057   1.730   3.369   4.624
 7053SOL    HW122058   1.754   3.321   4.540
 7053SOL    HW222059   1.794   3.444   4.639
 7054SOL     OW22060   0.128   6.533   0.976
 7054SOL    HW122061   0.090   6.555   0.886
 7054SOL    HW222062   0.077   6.582   1.046
 7055SOL     OW22063   2.983   0.304   0.148
 7055SOL    HW122064   2.927   0.382   0.177
 7055SOL    HW222065   2.988   0.237   0.222
 7056SOL     OW22066   6.318   4.991   1.471
 7056SOL    HW122067   6.376   5.065   1.439
 7056SOL    HW222068   6.301   5.002   1.569
 7057SOL     OW22069   2.944   4.847   3.815
 7057SOL    HW122070   3.010   4.901   3.763
 7057SOL    HW222071   2.871   4.815   3.755
 7058SOL     OW22072   5.378   2.310   5.878
 7058SOL    HW122073   5.474   2.288   5.888
 7058SOL    HW222074   5.339   2.333   5.967
 7059SOL     OW22075   1.157   0.768   4.051
 7059SOL    HW122076   1.228   0.788   4.118
 7059SOL    HW222077   1.130   0.672   4.060
 7060SOL     OW22078   3.360   0.411   0.738
 7060SOL    HW122079   3.323   0.329   0.780
 7060SOL    HW222080   3.288   0.479   0.728
 7061SOL     OW22081   0.044   2.702   3.723
 7061SOL    HW122082   6.994   2.770   3.728
 7061SOL    HW222083   0.131   2.748   3.707
 7062SOL     OW22084   3.532   2.064   5.243
 7062SOL    HW122085   3.578   1.976   5.227
 7062SOL    HW222086   3.462   2.079   5.173
 7063SOL     OW22087   1.857   6.956   2.071
 7063SOL    HW122088   1.802   6.930   2.150
 7063SOL    HW222089   1.934   7.013   2.100
 7064SOL     OW22090   4.058   2.089   7.000
 7064SOL    HW122091   3.989   2.142   6.951
 7064SOL    HW222092   4.102   2.147   0.046
 7065SOL     OW22093   3.041   3.948   5.030
 7065SOL    HW122094   3.037   4.007   4.949
 7065SOL    HW222095   3.046   3.852   5.001
 7066SOL     OW22096   4.332   6.928   6.151
 7066SOL    HW122097   4.337   6.963   6.245
 7066SOL    HW222098   4.423   6.901   6.121
 7067SOL     OW22099   0.984   3.635   5.444
 7067SOL    HW122100   0.890   3.621   5.414
 7067SOL    HW222101   1.030   3.546   5.452
 7068SOL     OW22102   5.479   4.152   4.795
 7068SOL    HW122103   5.489   4.147   4.894
 7068SOL    HW222104   5.458   4.246   4.768
 7069SOL     OW22105   6.069   1.378   5.589
 7069SOL    HW122106   6.064   1.343   5.496
 7069SOL    HW222107   6.133   1.455   5.593
 7070SOL     OW22108   1.075   6.634   4.076
 7070SOL    HW122109   1.047   6.709   4.016
 7070SOL    HW222110   1.127   6.671   4.153
 7071SOL     OW22111   3.646   5.825   0.102
 7071SOL    HW122112   3.690   5.893   0.160
 7071SOL    HW222113   3.581   5.771   0.156
 7072SOL     OW22114   1.879   5.068   0.044
 7072SOL    HW122115   1.896   5.022   6.980
 7072SOL    HW222116   1.784   5.098   0.048
 7073SOL     OW22117   4.013   0.013   3.387
 7073SOL    HW122118   4.060   0.101   3.387
 7073SOL    HW222119   4.078   6.963   3.404
 7074SOL     OW22120   6.056   2.896   2.645
 7074SOL    HW122121   6.153   2.910   2.663
 7074SOL    HW222122   6.002   2.966   2.693
 7075SOL     OW22123   2.109   4.818   4.469
 7075SOL    HW122124   2.049   4.808   4.389
 7075SOL    HW222125   2.173   4.741   4.472
 7076SOL     OW22126   5.401   3.340   0.463
 7076SOL    HW122127   5.459   3.422   0.450
 7076SOL    HW222128   5.321   3.347   0.404
 7077SOL     OW22129   2.197   4.033   3.704
 7077SOL    HW122130   2.141   4.078   3.635
 7077SOL    HW222131   2.176   3.935   3.706
 7078SOL     OW22132   6.414   6.351   0.988
 7078SOL    HW122133   6.327   6.371   0.942
 7078SOL    HW222134   6.455   6.437   1.019
 7079SOL     OW22135   0.964   6.746   3.675
 7079SOL    HW122136   0.918   6.808   3.612
 7079SOL    HW222137   0.973   6.656   3.633
 7080SOL     OW22138   3.658   1.470   3.999
 7080SOL    HW122139   3.660   1.566   4.025
 7080SOL    HW222140   3.752   1.436   3.988
 7081SOL     OW22141   1.244   5.343   0.417
 7081SOL    HW122142   1.254   5.328   0.318
 7081SOL    HW222143   1.253   5.440   0.437
 7082SOL     OW22144   0.078   4.029   0.381
 7082SOL    HW122145   0.037   3.937   0.380
 7082SOL    HW222146   0.039   4.083   0.306
 7083SOL     OW22147   0.003   1.350   2.228
 7083SOL    HW122148   6.944   1.395   2.263
 7083SOL    HW222149   0.054   1.309   2.303
 7084SOL     OW22150   1.081   5.082   5.793
 7084SOL    HW122151   1.032   5.063   5.708
 7084SOL    HW222152   1.048   5.169   5.831
 7085SOL     OW22153   6.804   2.181   2.667
 7085SOL    HW122154   6.864   2.108   2.634
 7085SOL    HW222155   6.797   2.176   2.767
 7086SOL     OW22156   5.323   1.030   5.972
 7086SOL    HW122157   5.268   1.039   5.890
 7086SOL    HW222158   5.412   0.991   5.949
 7087SOL     OW22159   5.894   4.143   2.848
 7087SOL    HW122160   5.894   4.054   2.801
 7087SOL    HW222161   5.801   4.166   2.876
 7088SOL     OW22162   5.093   2.586   5.220
 7088SOL    HW122163   4.997   2.564   5.237
 7088SOL    HW222164   5.135   2.513   5.166
 7089SOL     OW22165   2.077   3.081   3.349
 7089SOL    HW122166   2.110   3.157   3.406
 7089SOL    HW222167   2.003   3.113   3.291
 7090SOL     OW22168   2.355   1.615   0.159
 7090SOL    HW122169   2.346   1.554   0.080
 7090SOL    HW222170   2.376   1.707   0.127
 7091SOL     OW22171   0.700   0.720   1.153
 7091SOL    HW122172   0.685   0.812   1.189
 7091SOL    HW222173   0.616   0.688   1.110
 7092SOL     OW22174   3.795   3.083   5.525
 7092SOL    HW122175   3.754   3.130   5.447
 7092SOL    HW222176   3.730   3.015   5.560
 7093SOL     OW22177   3.333   4.338   1.630
 7093SOL    HW122178   3.281   4.330   1.544
 7093SOL    HW222179   3.299   4.271   1.696
 7094SOL     OW22180   0.524   6.951   5.702
 7094SOL    HW122181   0.498   6.855   5.710
 7094SOL    HW222182   0.472   7.005   5.769
 7095SOL     OW22183   2.984   4.832   5.920
 7095SOL    HW122184   2.988   4.871   5.828
 7095SOL    HW222185   2.908   4.767   5.925
 7096SOL     OW22186   6.431   6.980   1.706
 7096SOL    HW122187   6.504   6.964   1.640
 7096SOL    HW222188   6.352   7.020   1.659
 7097SOL     OW22189   5.342   1.121   1.753
 7097SOL    HW122190   5.343   1.030   1.713
 7097SOL    HW222191   5.293   1.119   1.840
 7098SOL     OW22192   1.262   5.255   5.644
 7098SOL    HW122193   1.250   5.212   5.554
 7098SOL    HW222194   1.187   5.228   5.704
 7099SOL     OW22195   3.449   2.074   4.429
 7099SOL    HW122196   3.442   2.115   4.521
 7099SOL    HW222197   3.541   2.089   4.393
 7100SOL     OW22198   6.011   3.072   0.339
 7100SOL    HW122199   6.108   3.065   0.315
 7100SOL    HW222200   6.001   3.076   0.439
 7101SOL     OW22201   2.340   1.023   5.186
 7101SOL    HW122202   2.268   1.091   5.171
 7101SOL    HW222203   2.374   1.031   5.280
 7102SOL     OW22204   5.866   0.061   0.807
 7102SOL    HW122205   5.900   0.004   0.733
 7102SOL    HW222206   5.852   0.005   0.889
 7103SOL     OW22207   5.601   5.303   1.679
 7103SOL    HW122208   5.581   5.400   1.693
 7103SOL    HW222209   5.698   5.286   1.697
 7104SOL     OW22210   6.506   3.880   2.719
 7104SOL    HW122211   6.524   3.782   2.728
 7104SOL    HW222212   6.432   3.906   2.781
 7105SOL     OW22213   3.408   3.351   4.639
 7105SOL    HW122214   3.371   3.369   4.548
 7105SOL    HW222215   3.338   3.369   4.708
 7106SOL     OW22216   3.386   2.955   1.470
 7106SOL    HW122217   3.421   2.980   1.560
 7106SOL    HW222218   3.294   2.917   1.479
 7107SOL     OW22219   4.742   0.287   0.719
 7107SOL    HW122220   4.667   0.251   0.775
 7107SOL    HW222221   4.716   0.282   0.623
 7108SOL     OW22222   2.679   5.501   2.916
 7108SOL    HW122223   2.762   5.535   2.960
 7108SOL    HW222224   2.681   5.526   2.819
 7109SOL     OW22225   2.029   0.988   6.627
 7109SOL    HW122226   2.002   1.080   6.601
 7109SOL    HW222227   1.982   0.921   6.569
 7110SOL     OW22228   2.979   5.751   4.220
 7110SOL    HW122229   2.890   5.796   4.231
 7110SOL    HW222230   2.979   5.666   4.273
 7111SOL     OW22231   1.751   2.034   4.135
 7111SOL    HW122232   1.681   1.996   4.195
 7111SOL    HW222233   1.829   1.971   4.131
 7112SOL     OW22234   1.861   5.074   4.262
 7112SOL    HW122235   1.810   4.996   4.297
 7112SOL    HW222236   1.916   5.115   4.335
 7113SOL     OW22237   3.316   4.172   4.733
 7113SOL    HW122238   3.326   4.271   4.747
 7113SOL    HW222239   3.396   4.125   4.769
 7114SOL     OW22240   4.455   5.188   1.331
 7114SOL    HW122241   4.461   5.137   1.417
 7114SOL    HW222242   4.451   5.286   1.351
 7115SOL     OW22243   5.265   3.295   6.579
 7115SOL    HW122244   5.229   3.303   6.486
 7115SOL    HW222245   5.197   3.249   6.636
 7116SOL     OW22246   5.291   4.440   3.503
 7116SOL    HW122247   5.257   4.348   3.521
 7116SOL    HW222248   5.345   4.472   3.581
 7117SOL     OW22249   0.255   0.058   4.875
 7117SOL    HW122250   0.286   0.144   4.915
 7117SOL    HW222251   0.315   7.007   4.906
 7118SOL     OW22252   3.748   4.480   5.929
 7118SOL    HW122253   3.769   4.480   6.026
 7118SOL    HW222254   3.710   4.391   5.903
 7119SOL     OW22255   4.981   0.536   5.172
 7119SOL    HW122256   4.962   0.583   5.086
 7119SOL    HW222257   4.968   0.437   5.160
 7120SOL     OW22258   3.682   1.708   1.430
 7120SOL    HW122259   3.598   1.666   1.465
 7120SOL    HW222260   3.681   1.806   1.449
 7121SOL     OW22261   0.689   6.765   2.838
 7121SOL    HW122262   0.625   6.689   2.824
 7121SOL    HW222263   0.640   6.842   2.878
 7122SOL     OW22264   1.657   0.610   5.581
 7122SOL    HW122265   1.733   0.626   5.645
 7122SOL    HW222266   1.622   0.698   5.548
 7123SOL     OW22267   0.606   4.989   3.757
 7123SOL    HW122268   0.581   4.935   3.838
 7123SOL    HW222269   0.704   4.980   3.740
 7124SOL     OW22270   0.943   2.619   1.604
 7124SOL    HW122271   0.955   2.706   1.556
 7124SOL    HW222272   1.031   2.573   1.612
 7125SOL     OW22273   1.102   1.157   1.002
 7125SOL    HW122274   1.060   1.067   1.011
 7125SOL    HW222275   1.080   1.195   0.912
 7126SOL     OW22276   4.231   6.264   0.553
 7126SOL    HW122277   4.298   6.318   0.603
 7126SOL    HW222278   4.214   6.306   0.464
 7127SOL     OW22279   2.680   6.396   6.215
 7127SOL    HW122280   2.664   6.390   6.313
 7127SOL    HW222281   2.598   6.367   6.165
 7128SOL     OW22282   3.810   3.979   6.922
 7128SOL    HW122283   3.714   3.977   6.947
 7128SOL    HW222284   3.860   3.909   6.974
 7129SOL     OW22285   1.955   1.450   0.950
 7129SOL    HW122286   1.911   1.481   1.034
 7129SOL    HW222287   1.902   1.376   0.909
 7130SOL     OW22288   3.880   6.433   4.451
 7130SOL    HW122289   3.853   6.337   4.455
 7130SOL    HW222290   3.904   6.465   4.543
 7131SOL     OW22291   3.194   0.929   1.706
 7131SOL    HW122292   3.221   1.006   1.764
 7131SOL    HW222293   3.113   0.954   1.652
 7132SOL     OW22294   4.469   4.075   0.501
 7132SOL    HW122295   4.539   4.103   0.434
 7132SOL    HW222296   4.502   3.995   0.551
 7133SOL     OW22297   4.273   4.885   5.073
 7133SOL    HW122298   4.230   4.839   5.150
 7133SOL    HW222299   4.206   4.898   5.000
 7134SOL     OW22300   5.210   6.741   2.332
 7134SOL    HW122301   5.269   6.721   2.410
 7134SOL    HW222302   5.206   6.662   2.271
 7135SOL     OW22303   2.471   2.645   2.894
 7135SOL    HW122304   2.480   2.714   2.966
 7135SOL    HW222305   2.487   2.554   2.933
 7136SOL     OW22306   3.127   1.753   0.874
 7136SOL    HW122307   3.197   1.682   0.866
 7136SOL    HW222308   3.037   1.713   0.860
 7137SOL     OW22309   2.973   2.105   0.414
 7137SOL    HW122310   2.874   2.096   0.423
 7137SOL    HW222311   3.017   2.089   0.502
 7138SOL     OW22312   1.767   1.266   0.836
 7138SOL    HW122313   1.707   1.343   0.855
 7138SOL    HW222314   1.747   1.191   0.900
 7139SOL     OW22315   5.404   4.642   2.464
 7139SOL    HW122316   5.454   4.556   2.471
 7139SOL    HW222317   5.427   4.700   2.541
 7140SOL     OW22318   6.201   4.030   0.850
 7140SOL    HW122319   6.242   3.940   0.837
 7140SOL    HW222320   6.146   4.029   0.934
 7141SOL     OW22321   4.492   6.988   1.017
 7141SOL    HW122322   4.498   6.965   1.114
 7141SOL    HW222323   4.396   6.990   0.989
 7142SOL     OW22324   3.573   6.876   4.068
 7142SOL    HW122325   3.580   6.789   4.117
 7142SOL    HW222326   3.607   6.864   3.974
 7143SOL     OW22327   1.772   3.854   6.842
 7143SOL    HW122328   1.727   3.941   6.867
 7143SOL    HW222329   1.736   3.781   6.900
 7144SOL     OW22330   0.919   0.864   3.148
 7144SOL    HW122331   0.886   0.773   3.175
 7144SOL    HW222332   0.973   0.902   3.223
 7145SOL     OW22333   4.780   0.806   6.584
 7145SOL    HW122334   4.798   0.898   6.620
 7145SOL    HW222335   4.691   0.774   6.618
 7146SOL     OW22336   1.815   1.213   6.282
 7146SOL    HW122337   1.747   1.221   6.355
 7146SOL    HW222338   1.851   1.120   6.280
 7147SOL     OW22339   6.682   6.033   3.304
 7147SOL    HW122340   6.733   6.022   3.219
 7147SOL    HW222341   6.725   5.979   3.376
 7148SOL     OW22342   6.258   6.090   1.916
 7148SOL    HW122343   6.282   6.023   1.846
 7148SOL    HW222344   6.163   6.076   1.944
 7149SOL     OW22345   0.185   4.789   3.666
 7149SOL    HW122346   0.284   4.804   3.661
 7149SOL    HW222347   0.138   4.877   3.660
 7150SOL     OW22348   3.363   3.305   0.137
 7150SOL    HW122349   3.326   3.217   0.105
 7150SOL    HW222350   3.339   3.377   0.072
 7151SOL     OW22351   2.864   6.609   1.161
 7151SOL    HW122352   2.771   6.609   1.125
 7151SOL    HW222353   2.912   6.528   1.128
 7152SOL     OW22354   6.282   0.903   6.585
 7152SOL    HW122355   6.257   0.896   6.488
 7152SOL    HW222356   6.328   0.819   6.614
 7153SOL     OW22357   3.624   5.123   1.632
 7153SOL    HW122358   3.690   5.105   1.705
 7153SOL    HW222359   3.579   5.211   1.649
 7154SOL     OW22360   4.410   6.604   3.141
 7154SOL    HW122361   4.493   6.654   3.117
 7154SOL    HW222362   4.331   6.666   3.136
 7155SOL     OW22363   3.351   3.324   1.439
 7155SOL    HW122364   3.331   3.288   1.530
 7155SOL    HW222365   3.285   3.288   1.374
 7156SOL     OW22366   4.947   3.488   2.557
 7156SOL    HW122367   4.994   3.575   2.550
 7156SOL    HW222368   4.908   3.464   2.468
 7157SOL     OW22369   6.887   4.548   1.962
 7157SOL    HW122370   6.967   4.595   1.924
 7157SOL    HW222371   6.915   4.458   1.997
 7158SOL     OW22372   0.495   6.568   2.767
 7158SOL    HW122373   0.408   6.569   2.718
 7158SOL    HW222374   0.488   6.506   2.845
 7159SOL     OW22375   1.317   4.818   4.104
 7159SOL    HW122376   1.309   4.719   4.095
 7159SOL    HW222377   1.304   4.845   4.199
 7160SOL     OW22378   6.068   6.155   2.171
 7160SOL    HW122379   6.152   6.208   2.170
 7160SOL    HW222380   6.077   6.077   2.233
 7161SOL     OW22381   3.285   3.740   2.875
 7161SOL    HW122382   3.213   3.692   2.824
 7161SOL    HW222383   3.328   3.676   2.938
 7162SOL     OW22384   0.865   5.040   6.584
 7162SOL    HW122385   0.823   4.961   6.627
 7162SOL    HW222386   0.888   5.018   6.489
 7163SOL     OW22387   3.434   0.623   2.701
 7163SOL    HW122388   3.406   0.685   2.628
 7163SOL    HW222389   3.368   0.627   2.776
 7164SOL     OW22390   1.780   0.324   5.060
 7164SOL    HW122391   1.680   0.326   5.070
 7164SOL    HW222392   1.807   0.242   5.010
 7165SOL     OW22393   6.017   6.204   1.727
 7165SOL    HW122394   5.960   6.174   1.804
 7165SOL    HW222395   5.966   6.269   1.671
 7166SOL     OW22396   5.331   1.623   0.069
 7166SOL    HW122397   5.350   1.538   0.020
 7166SOL    HW222398   5.352   1.611   0.166
 7167SOL     OW22399   4.762   2.993   4.906
 7167SOL    HW122400   4.717   3.068   4.955
 7167SOL    HW222401   4.693   2.927   4.875
 7168SOL     OW22402   2.881   1.911   3.131
 7168SOL    HW122403   2.885   1.955   3.041
 7168SOL    HW222404   2.816   1.959   3.189
 7169SOL     OW22405   0.212   4.159   4.723
 7169SOL    HW122406   0.311   4.167   4.736
 7169SOL    HW222407   0.193   4.121   4.633
 7170SOL     OW22408   4.218   0.141   2.438
 7170SOL    HW122409   4.317   0.123   2.435
 7170SOL    HW222410   4.174   0.072   2.496
 7171SOL     OW22411   5.933   3.425   0.961
 7171SOL    HW122412   5.883   3.401   1.044
 7171SOL    HW222413   6.030   3.439   0.984
 7172SOL     OW22414   2.338   1.560   5.511
 7172SOL    HW122415   2.303   1.518   5.427
 7172SOL    HW222416   2.357   1.657   5.495
 7173SOL     OW22417   6.114   4.826   6.622
 7173SOL    HW122418   6.184   4.781   6.566
 7173SOL    HW222419   6.142   4.920   6.641
 7174SOL     OW22420   0.180   4.919   0.893
 7174SOL    HW122421   0.191   4.986   0.966
 7174SOL    HW222422   0.129   4.960   0.817
 7175SOL     OW22423   0.169   3.445   5.027
 7175SOL    HW122424   0.202   3.523   5.080
 7175SOL    HW222425   0.205   3.450   4.934
 7176SOL     OW22426   6.792   1.724   4.611
 7176SOL    HW122427   6.771   1.637   4.566
 7176SOL    HW222428   6.707   1.769   4.638
 7177SOL     OW22429   1.512   4.720   5.634
 7177SOL    HW122430   1.524   4.624   5.613
 7177SOL    HW222431   1.568   4.744   5.714
 7178SOL     OW22432   0.602   1.312   6.323
 7178SOL    HW122433   0.644   1.403   6.327
 7178SOL    HW222434   0.659   1.252   6.266
 7179SOL     OW22435   1.618   4.104   4.337
 7179SOL    HW122436   1.579   4.014   4.357
 7179SOL    HW222437   1.647   4.107   4.241
 7180SOL     OW22438   2.446   3.944   0.670
 7180SOL    HW122439   2.469   3.868   0.731
 7180SOL    HW222440   2.530   3.978   0.627
 7181SOL     OW22441   2.333   1.137   6.620
 7181SOL    HW122442   2.246   1.101   6.652
 7181SOL    HW222443   2.332   1.143   6.520
 7182SOL     OW22444   0.894   3.680   3.248
 7182SOL    HW122445   0.935   3.691   3.338
 7182SOL    HW222446   0.896   3.767   3.200
 7183SOL     OW22447   1.987   6.280   2.310
 7183SOL    HW122448   2.055   6.268   2.383
 7183SOL    HW222449   1.962   6.377   2.303
 7184SOL     OW22450   6.711   0.956   3.725
 7184SOL    HW122451   6.802   0.924   3.750
 7184SOL    HW222452   6.718   1.021   3.649
 7185SOL     OW22453   5.296   0.804   5.535
 7185SOL    HW122454   5.386   0.774   5.504
 7185SOL    HW222455   5.235   0.813   5.456
 7186SOL     OW22456   6.820   1.306   1.481
 7186SOL    HW122457   6.859   1.391   1.517
 7186SOL    HW222458   6.758   1.327   1.405
 7187SOL     OW22459   2.771   3.724   5.375
 7187SOL    HW122460   2.737   3.651   5.434
 7187SOL    HW222461   2.721   3.808   5.393
 7188SOL     OW22462   4.713   5.535   0.092
 7188SOL    HW122463   4.737   5.442   0.121
 7188SOL    HW222464   4.785   5.598   0.121
 7189SOL     OW22465   6.265   3.141   5.538
 7189SOL    HW122466   6.330   3.066   5.523
 7189SOL    HW222467   6.180   3.121   5.488
 7190SOL     OW22468   6.235   6.104   1.151
 7190SOL    HW122469   6.265   6.009   1.166
 7190SOL    HW222470   6.284   6.142   1.072
 7191SOL     OW22471   0.145   4.374   2.920
 7191SOL    HW122472   0.063   4.429   2.937
 7191SOL    HW222473   0.197   4.364   3.004
 7192SOL     OW22474   1.647   4.016   6.456
 7192SOL    HW122475   1.712   4.051   6.389
 7192SOL    HW222476   1.580   4.088   6.478
 7193SOL     OW22477   2.213   2.036   2.665
 7193SOL    HW122478   2.155   1.978   2.608
 7193SOL    HW222479   2.202   2.011   2.761
 7194SOL     OW22480   2.034   2.960   6.956
 7194SOL    HW122481   2.064   2.933   6.864
 7194SOL    HW222482   1.950   3.013   6.950
 7195SOL     OW22483   6.332   4.362   6.960
 7195SOL    HW122484   6.353   4.442   7.016
 7195SOL    HW222485   6.416   4.322   6.925
 7196SOL     OW22486   2.775   3.955   1.690
 7196SOL    HW122487   2.823   4.040   1.712
 7196SOL    HW222488   2.841   3.887   1.656
 7197SOL     OW22489   0.834   3.435   5.168
 7197SOL    HW122490   0.771   3.383   5.110
 7197SOL    HW222491   0.912   3.377   5.193
 7198SOL     OW22492   0.771   1.028   6.973
 7198SOL    HW122493   0.747   1.094   0.021
 7198SOL    HW222494   0.687   0.991   6.933
 7199SOL     OW22495   1.221   0.220   3.124
 7199SOL    HW122496   1.261   0.257   3.040
 7199SOL    HW222497   1.156   0.147   3.101
 7200SOL     OW22498   1.841   3.048   6.525
 7200SOL    HW122499   1.786   3.126   6.557
 7200SOL    HW222500   1.782   2.968   6.515
 7201SOL     OW22501   0.519   5.959   4.115
 7201SOL    HW122502   0.552   6.013   4.192
 7201SOL    HW222503   0.591   5.951   4.046
 7202SOL     OW22504   5.208   6.424   6.593
 7202SOL    HW122505   5.297   6.385   6.573
 7202SOL    HW222506   5.147   6.352   6.628
 7203SOL     OW22507   6.839   1.240   1.945
 7203SOL    HW122508   6.892   1.180   1.885
 7203SOL    HW222509   6.901   1.302   1.994
 7204SOL     OW22510   6.950   1.340   6.572
 7204SOL    HW122511   6.893   1.324   6.652
 7204SOL    HW222512   6.924   1.278   6.498
 7205SOL     OW22513   1.753   3.927   5.105
 7205SOL    HW122514   1.746   4.019   5.144
 7205SOL    HW222515   1.768   3.933   5.007
 7206SOL     OW22516   1.392   1.336   1.356
 7206SOL    HW122517   1.333   1.400   1.306
 7206SOL    HW222518   1.426   1.266   1.293
 7207SOL     OW22519   2.883   0.633   4.742
 7207SOL    HW122520   2.978   0.610   4.722
 7207SOL    HW222521   2.823   0.560   4.711
 7208SOL     OW22522   4.732   0.740   3.448
 7208SOL    HW122523   4.641   0.780   3.455
 7208SOL    HW222524   4.797   0.794   3.501
 7209SOL     OW22525   1.885   2.951   1.888
 7209SOL    HW122526   1.879   2.880   1.818
 7209SOL    HW222527   1.850   3.037   1.852
 7210SOL     OW22528   3.740   2.101   4.070
 7210SOL    HW122529   3.790   2.145   3.996
 7210SOL    HW222530   3.642   2.106   4.051
 7211SOL     OW22531   3.000   6.121   5.029
 7211SOL    HW122532   3.070   6.186   5.000
 7211SOL    HW222533   3.043   6.032   5.047
 7212SOL     OW22534   0.641   5.859   5.411
 7212SOL    HW122535   0.687   5.852   5.322
 7212SOL    HW222536   0.639   5.769   5.454
 7213SOL     OW22537   3.330   6.177   6.216
 7213SOL    HW122538   3.280   6.179   6.129
 7213SOL    HW222539   3.271   6.136   6.286
 7214SOL     OW22540   6.247   0.696   5.475
 7214SOL    HW122541   6.305   0.691   5.555
 7214SOL    HW222542   6.232   0.792   5.451
 7215SOL     OW22543   5.644   2.892   4.496
 7215SOL    HW122544   5.590   2.882   4.413
 7215SOL    HW222545   5.724   2.948   4.478
 7216SOL     OW22546   2.822   6.413   2.306
 7216SOL    HW122547   2.841   6.443   2.212
 7216SOL    HW222548   2.907   6.411   2.358
 7217SOL     OW22549   1.760   2.942   3.451
 7217SOL    HW122550   1.833   2.947   3.519
 7217SOL    HW222551   1.719   3.032   3.439
 7218SOL     OW22552   6.716   2.482   4.349
 7218SOL    HW122553   6.719   2.555   4.417
 7218SOL    HW222554   6.771   2.508   4.270
 7219SOL     OW22555   3.058   0.533   2.104
 7219SOL    HW122556   3.127   0.478   2.150
 7219SOL    HW222557   3.101   0.589   2.033
 7220SOL     OW22558   6.553   4.241   4.093
 7220SOL    HW122559   6.490   4.166   4.112
 7220SOL    HW222560   6.537   4.276   4.001
 7221SOL     OW22561   3.905   6.005   4.824
 7221SOL    HW122562   3.814   6.046   4.824
 7221SOL    HW222563   3.964   6.053   4.888
 7222SOL     OW22564   6.084   6.305   3.671
 7222SOL    HW122565   6.070   6.390   3.721
 7222SOL    HW222566   6.038   6.230   3.719
 7223SOL     OW22567   3.006   0.949   1.019
 7223SOL    HW122568   3.020   0.973   1.115
 7223SOL    HW222569   2.928   1.001   0.983
 7224SOL     OW22570   4.814   3.014   4.374
 7224SOL    HW122571   4.859   3.103   4.384
 7224SOL    HW222572   4.789   2.979   4.464
 7225SOL     OW22573   1.823   6.444   0.619
 7225SOL    HW122574   1.907   6.438   0.673
 7225SOL    HW222575   1.758   6.503   0.667
 7226SOL     OW22576   5.802   6.949   1.029
 7226SOL    HW122577   5.724   6.938   1.090
 7226SOL    HW222578   5.824   6.862   0.986
 7227SOL     OW22579   2.527   1.930   1.701
 7227SOL    HW122580   2.446   1.878   1.729
 7227SOL    HW222581   2.545   2.003   1.766
 7228SOL     OW22582   1.490   1.014   2.749
 7228SOL    HW122583   1.460   0.932   2.701
 7228SOL    HW222584   1.496   0.995   2.847
 7229SOL     OW22585   0.981   6.791   4.954
 7229SOL    HW122586   0.903   6.737   4.986
 7229SOL    HW222587   1.065   6.736   4.962
 7230SOL     OW22588   3.280   5.887   3.565
 7230SOL    HW122589   3.228   5.966   3.597
 7230SOL    HW222590   3.220   5.827   3.512
 7231SOL     OW22591   4.351   0.429   6.789
 7231SOL    HW122592   4.370   0.439   6.886
 7231SOL    HW222593   4.435   0.404   6.740
 7232SOL     OW22594   4.953   6.040   3.014
 7232SOL    HW122595   4.895   6.091   2.951
 7232SOL    HW222596   4.999   5.966   2.965
 7233SOL     OW22597   1.152   0.926   5.170
 7233SOL    HW122598   1.224   0.864   5.200
 7233SOL    HW222599   1.185   0.980   5.093
 7234SOL     OW22600   5.664   2.899   3.283
 7234SOL    HW122601   5.578   2.944   3.258
 7234SOL    HW222602   5.714   2.875   3.200
 7235SOL     OW22603   6.409   4.276   1.924
 7235SOL    HW122604   6.368   4.290   2.014
 7235SOL    HW222605   6.490   4.334   1.914
 7236SOL     OW22606   2.851   2.311   2.542
 7236SOL    HW122607   2.924   2.329   2.608
 7236SOL    HW222608   2.891   2.280   2.456
 7237SOL     OW22609   3.778   0.180   6.078
 7237SOL    HW122610   3.815   0.142   5.994
 7237SOL    HW222611   3.767   0.107   6.146
 7238SOL     OW22612   4.332   2.109   5.920
 7238SOL    HW122613   4.374   2.062   5.997
 7238SOL    HW222614   4.280   2.043   5.865
 7239SOL     OW22615   0.909   2.740   2.083
 7239SOL    HW122616   0.911   2.739   2.183
 7239SOL    HW222617   1.002   2.725   2.048
 7240SOL     OW22618   0.320   1.410   6.358
 7240SOL    HW122619   0.309   1.489   6.297
 7240SOL    HW222620   0.409   1.367   6.341
 7241SOL     OW22621   2.653   0.284   0.798
 7241SOL    HW122622   2.580   0.232   0.841
 7241SOL    HW222623   2.640   0.285   0.699
 7242SOL     OW22624   6.656   5.558   6.454
 7242SOL    HW122625   6.755   5.566   6.438
 7242SOL    HW222626   6.640   5.489   6.524
 7243SOL     OW22627   6.790   4.491   6.350
 7243SOL    HW122628   6.794   4.417   6.283
 7243SOL    HW222629   6.817   4.577   6.307
 7244SOL     OW22630   0.442   0.523   1.149
 7244SOL    HW122631   0.478   0.547   1.239
 7244SOL    HW222632   0.369   0.587   1.125
 7245SOL     OW22633   1.220   2.886   5.272
 7245SOL    HW122634   1.290   2.916   5.207
 7245SOL    HW222635   1.259   2.883   5.364
 7246SOL     OW22636   1.570   0.184   3.609
 7246SOL    HW122637   1.562   0.141   3.699
 7246SOL    HW222638   1.516   0.132   3.543
 7247SOL     OW22639   2.780   1.405   4.954
 7247SOL    HW122640   2.770   1.505   4.954
 7247SOL    HW222641   2.872   1.381   4.925
 7248SOL     OW22642   3.400   0.811   2.486
 7248SOL    HW122643   3.473   0.873   2.458
 7248SOL    HW222644   3.384   0.743   2.415
 7249SOL     OW22645   5.011   4.897   2.005
 7249SOL    HW122646   5.001   4.934   2.097
 7249SOL    HW222647   5.044   4.802   2.011
 7250SOL     OW22648   5.577   5.689   5.777
 7250SOL    HW122649   5.507   5.756   5.751
 7250SOL    HW222650   5.534   5.616   5.830
 7251SOL     OW22651   0.946   6.986   5.441
 7251SOL    HW122652   1.042   7.014   5.440
 7251SOL    HW222653   0.893   0.025   5.383
 7252SOL     OW22654   3.237   3.651   1.780
 7252SOL    HW122655   3.260   3.733   1.728
 7252SOL    HW222656   3.149   3.664   1.825
 7253SOL     OW22657   1.546   5.330   0.216
 7253SOL    HW122658   1.574   5.426   0.217
 7253SOL    HW222659   1.496   5.311   0.131
 7254SOL     OW22660   5.089   5.407   4.538
 7254SOL    HW122661   5.150   5.454   4.601
 7254SOL    HW222662   5.025   5.350   4.591
 7255SOL     OW22663   4.357   3.935   0.073
 7255SOL    HW122664   4.404   3.897   0.153
 7255SOL    HW222665   4.325   3.861   0.014
 7256SOL     OW22666   3.186   5.959   5.251
 7256SOL    HW122667   3.108   5.977   5.312
 7256SOL    HW222668   3.224   6.045   5.220
 7257SOL     OW22669   0.079   1.821   3.687
 7257SOL    HW122670   0.123   1.908   3.712
 7257SOL    HW222671   0.018   1.836   3.609
 7258SOL     OW22672   4.869   2.622   3.184
 7258SOL    HW122673   4.870   2.593   3.089
 7258SOL    HW222674   4.961   2.610   3.224
 7259SOL     OW22675   1.873   3.471   2.132
 7259SOL    HW122676   1.851   3.520   2.217
 7259SOL    HW222677   1.922   3.387   2.155
 7260SOL     OW22678   5.276   1.591   1.668
 7260SOL    HW122679   5.331   1.541   1.735
 7260SOL    HW222680   5.322   1.590   1.580
 7261SOL     OW22681   1.546   4.470   1.932
 7261SOL    HW122682   1.632   4.463   1.982
 7261SOL    HW222683   1.490   4.389   1.950
 7262SOL     OW22684   5.398   2.419   6.559
 7262SOL    HW122685   5.299   2.435   6.562
 7262SOL    HW222686   5.426   2.371   6.643
 7263SOL     OW22687   0.686   6.858   6.879
 7263SOL    HW122688   0.718   6.772   6.919
 7263SOL    HW222689   0.607   6.840   6.820
 7264SOL     OW22690   5.481   1.409   0.240
 7264SOL    HW122691   5.550   1.448   0.180
 7264SOL    HW222692   5.502   1.433   0.335
 7265SOL     OW22693   5.381   5.104   6.293
 7265SOL    HW122694   5.339   5.111   6.384
 7265SOL    HW222695   5.372   5.191   6.245
 7266SOL     OW22696   5.469   0.445   2.837
 7266SOL    HW122697   5.542   0.455   2.905
 7266SOL    HW222698   5.495   0.491   2.752
 7267SOL     OW22699   6.311   6.337   4.843
 7267SOL    HW122700   6.369   6.255   4.845
 7267SOL    HW222701   6.241   6.330   4.915
 7268SOL     OW22702   6.627   5.499   4.263
 7268SOL    HW122703   6.597   5.594   4.261
 7268SOL    HW222704   6.725   5.495   4.281
 7269SOL     OW22705   1.522   5.967   5.967
 7269SOL    HW122706   1.425   5.951   5.951
 7269SOL    HW222707   1.536   6.062   5.997
 7270SOL     OW22708   0.812   3.079   5.028
 7270SOL    HW122709   0.881   3.096   5.098
 7270SOL    HW222710   0.856   3.068   4.939
 7271SOL     OW22711   1.266   5.028   3.957
 7271SOL    HW122712   1.283   4.965   4.032
 7271SOL    HW222713   1.352   5.072   3.930
 7272SOL     OW22714   6.137   5.461   2.722
 7272SOL    HW122715   6.079   5.542   2.714
 7272SOL    HW222716   6.188   5.466   2.808
 7273SOL     OW22717   6.409   4.170   0.991
 7273SOL    HW122718   6.447   4.257   0.959
 7273SOL    HW222719   6.340   4.138   0.926
 7274SOL     OW22720   0.626   5.439   6.217
 7274SOL    HW122721   0.560   5.363   6.226
 7274SOL    HW222722   0.617   5.499   6.296
 7275SOL     OW22723   0.451   5.756   2.629
 7275SOL    HW122724   0.436   5.842   2.678
 7275SOL    HW222725   0.537   5.760   2.579
 7276SOL     OW22726   5.152   0.314   3.135
 7276SOL    HW122727   5.207   0.319   3.219
 7276SOL    HW222728   5.211   0.330   3.056
 7277SOL     OW22729   5.423   0.803   4.181
 7277SOL    HW122730   5.464   0.877   4.234
 7277SOL    HW222731   5.494   0.750   4.135
 7278SOL     OW22732   3.942   2.502   1.280
 7278SOL    HW122733   4.010   2.436   1.248
 7278SOL    HW222734   3.886   2.460   1.352
 7279SOL     OW22735   4.010   4.644   6.658
 7279SOL    HW122736   3.922   4.602   6.635
 7279SOL    HW222737   4.059   4.667   6.574
 7280SOL     OW22738   0.283   1.871   4.097
 7280SOL    HW122739   0.343   1.793   4.112
 7280SOL    HW222740   0.314   1.922   4.017
 7281SOL     OW22741   2.900   1.889   6.710
 7281SOL    HW122742   2.843   1.858   6.786
 7281SOL    HW222743   2.843   1.932   6.641
 7282SOL     OW22744   5.724   4.951   3.570
 7282SOL    HW122745   5.722   4.875   3.505
 7282SOL    HW222746   5.818   4.986   3.577
 7283SOL     OW22747   4.314   1.155   2.691
 7283SOL    HW122748   4.386   1.214   2.727
 7283SOL    HW222749   4.286   1.090   2.762
 7284SOL     OW22750   0.461   2.776   6.076
 7284SOL    HW122751   0.554   2.741   6.087
 7284SOL    HW222752   0.403   2.741   6.150
 7285SOL     OW22753   5.176   3.389   2.270
 7285SOL    HW122754   5.076   3.384   2.277
 7285SOL    HW222755   5.205   3.354   2.181
 7286SOL     OW22756   2.331   1.080   0.719
 7286SOL    HW122757   2.357   1.052   0.626
 7286SOL    HW222758   2.303   1.176   0.718
 7287SOL     OW22759   0.091   2.744   5.768
 7287SOL    HW122760   0.117   2.747   5.865
 7287SOL    HW222761   0.136   2.818   5.719
 7288SOL     OW22762   2.566   1.039   0.853
 7288SOL    HW122763   2.556   0.948   0.894
 7288SOL    HW222764   2.481   1.064   0.806
 7289SOL     OW22765   4.994   2.454   4.408
 7289SOL    HW122766   5.078   2.461   4.461
 7289SOL    HW222767   4.984   2.361   4.373
 7290SOL     OW22768   3.545   0.342   5.012
 7290SOL    HW122769   3.553   0.285   5.094
 7290SOL    HW222770   3.574   0.435   5.033
 7291SOL     OW22771   2.152   6.503   0.663
 7291SOL    HW122772   2.116   6.586   0.705
 7291SOL    HW222773   2.231   6.527   0.606
 7292SOL     OW22774   3.473   1.127   3.438
 7292SOL    HW122775   3.397   1.092   3.382
 7292SOL    HW222776   3.454   1.110   3.535
 7293SOL     OW22777   1.274   2.073   4.842
 7293SOL    HW122778   1.368   2.042   4.855
 7293SOL    HW222779   1.216   1.994   4.822
 7294SOL     OW22780   2.575   5.072   6.522
 7294SOL    HW122781   2.655   5.021   6.491
 7294SOL    HW222782   2.597   5.170   6.526
 7295SOL     OW22783   0.132   3.037   1.041
 7295SOL    HW122784   0.152   2.952   0.993
 7295SOL    HW222785   0.144   3.024   1.139
 7296SOL     OW22786   3.440   5.749   2.275
 7296SOL    HW122787   3.503   5.737   2.199
 7296SOL    HW222788   3.403   5.842   2.275
 7297SOL     OW22789   3.865   0.311   1.848
 7297SOL    HW122790   3.960   0.299   1.876
 7297SOL    HW222791   3.841   0.408   1.852
 7298SOL     OW22792   5.308   4.903   5.797
 7298SOL    HW122793   5.282   4.812   5.764
 7298SOL    HW222794   5.309   4.902   5.897
 7299SOL     OW22795   1.324   2.091   0.269
 7299SOL    HW122796   1.408   2.058   0.228
 7299SOL    HW222797   1.254   2.020   0.264
 7300SOL     OW22798   0.503   6.348   3.256
 7300SOL    HW122799   0.486   6.413   3.182
 7300SOL    HW222800   0.596   6.311   3.247
 7301SOL     OW22801   5.097   1.136   4.832
 7301SOL    HW122802   5.047   1.074   4.893
 7301SOL    HW222803   5.150   1.081   4.767
 7302SOL     OW22804   0.849   2.480   5.028
 7302SOL    HW122805   0.801   2.469   5.115
 7302SOL    HW222806   0.901   2.565   5.029
 7303SOL     OW22807   3.930   0.426   0.433
 7303SOL    HW122808   3.909   0.513   0.477
 7303SOL    HW222809   4.020   0.393   0.464
 7304SOL     OW22810   3.588   5.368   1.299
 7304SOL    HW122811   3.684   5.369   1.270
 7304SOL    HW222812   3.583   5.357   1.398
 7305SOL     OW22813   4.465   1.126   0.328
 7305SOL    HW122814   4.403   1.163   0.398
 7305SOL    HW222815   4.537   1.192   0.309
 7306SOL     OW22816   5.081   1.567   0.720
 7306SOL    HW122817   5.010   1.632   0.746
 7306SOL    HW222818   5.135   1.542   0.801
 7307SOL     OW22819   2.246   6.761   2.419
 7307SOL    HW122820   2.224   6.731   2.512
 7307SOL    HW222821   2.331   6.815   2.421
 7308SOL     OW22822   6.875   3.165   5.359
 7308SOL    HW122823   6.892   3.074   5.397
 7308SOL    HW222824   6.777   3.183   5.359
 7309SOL     OW22825   4.289   5.787   1.825
 7309SOL    HW122826   4.338   5.703   1.803
 7309SOL    HW222827   4.303   5.810   1.921
 7310SOL     OW22828   2.541   4.168   1.179
 7310SOL    HW122829   2.503   4.137   1.092
 7310SOL    HW222830   2.520   4.101   1.251
 7311SOL     OW22831   2.200   1.916   1.529
 7311SOL    HW122832   2.236   1.888   1.618
 7311SOL    HW222833   2.106   1.948   1.539
 7312SOL     OW22834   0.593   3.631   4.482
 7312SOL    HW122835   0.685   3.657   4.511
 7312SOL    HW222836   0.538   3.714   4.467
 7313SOL     OW22837   2.412   1.198   0.058
 7313SOL    HW122838   2.504   1.184   0.023
 7313SOL    HW222839   2.414   1.255   0.140
 7314SOL     OW22840   6.916   5.692   5.733
 7314SOL    HW122841   6.921   5.625   5.808
 7314SOL    HW222842   7.002   5.691   5.682
 7315SOL     OW22843   6.421   0.234   2.233
 7315SOL    HW122844   6.419   0.161   2.165
 7315SOL    HW222845   6.387   0.200   2.320
 7316SOL     OW22846   2.750   4.203   6.525
 7316SOL    HW122847   2.740   4.273   6.455
 7316SOL    HW222848   2.760   4.113   6.481
 7317SOL     OW22849   4.947   1.470   3.034
 7317SOL    HW122850   4.914   1.483   3.127
 7317SOL    HW222851   5.047   1.481   3.032
 7318SOL     OW22852   2.105   0.912   1.827
 7318SOL    HW122853   2.083   0.930   1.731
 7318SOL    HW222854   2.165   0.985   1.861
 7319SOL     OW22855   0.191   3.854   6.401
 7319SOL    HW122856   0.092   3.838   6.404
 7319SOL    HW222857   0.239   3.771   6.431
 7320SOL     OW22858   6.872   3.456   2.522
 7320SOL    HW122859   6.946   3.403   2.564
 7320SOL    HW222860   6.910   3.510   2.446
 7321SOL     OW22861   2.020   0.910   6.049
 7321SOL    HW122862   2.116   0.938   6.044
 7321SOL    HW222863   2.014   0.813   6.073
 7322SOL     OW22864   6.887   2.694   3.411
 7322SOL    HW122865   6.953   2.742   3.469
 7322SOL    HW222866   6.906   2.596   3.413
 7323SOL     OW22867   1.364   2.388   1.782
 7323SOL    HW122868   1.293   2.332   1.824
 7323SOL    HW222869   1.454   2.353   1.808
 7324SOL     OW22870   4.503   5.685   2.389
 7324SOL    HW122871   4.515   5.635   2.475
 7324SOL    HW222872   4.418   5.656   2.346
 7325SOL     OW22873   3.431   6.796   0.419
 7325SOL    HW122874   3.441   6.874   0.482
 7325SOL    HW222875   3.335   6.776   0.405
 7326SOL     OW22876   2.880   6.108   5.989
 7326SOL    HW122877   2.911   6.203   5.982
 7326SOL    HW222878   2.932   6.051   5.927
 7327SOL     OW22879   6.088   1.258   6.262
 7327SOL    HW122880   6.045   1.346   6.280
 7327SOL    HW222881   6.021   1.196   6.222
 7328SOL     OW22882   2.941   1.074   6.092
 7328SOL    HW122883   2.986   1.009   6.032
 7328SOL    HW222884   2.974   1.062   6.186
 7329SOL     OW22885   6.478   4.062   1.534
 7329SOL    HW122886   6.495   4.109   1.447
 7329SOL    HW222887   6.558   4.007   1.558
 7330SOL     OW22888   2.496   2.664   0.200
 7330SOL    HW122889   2.500   2.582   0.143
 7330SOL    HW222890   2.414   2.660   0.257
 7331SOL     OW22891   5.444   6.296   1.464
 7331SOL    HW122892   5.480   6.339   1.546
 7331SOL    HW222893   5.344   6.297   1.467
 7332SOL     OW22894   2.383   6.360   6.931
 7332SOL    HW122895   2.328   6.439   6.959
 7332SOL    HW222896   2.366   6.341   6.834
 7333SOL     OW22897   0.725   2.992   2.339
 7333SOL    HW122898   0.694   2.897   2.331
 7333SOL    HW222899   0.779   3.017   2.259
 7334SOL     OW22900   2.558   6.019   6.246
 7334SOL    HW122901   2.476   5.994   6.299
 7334SOL    HW222902   2.531   6.075   6.167
 7335SOL     OW22903   1.995   2.392   2.997
 7335SOL    HW122904   2.026   2.373   2.904
 7335SOL    HW222905   2.067   2.439   3.048
 7336SOL     OW22906   1.624   6.522   2.818
 7336SOL    HW122907   1.530   6.545   2.841
 7336SOL    HW222908   1.678   6.511   2.902
 7337SOL     OW22909   0.138   3.077   1.603
 7337SOL    HW122910   0.181   3.115   1.521
 7337SOL    HW222911   0.063   3.136   1.632
 7338SOL     OW22912   5.896   1.651   1.618
 7338SOL    HW122913   5.820   1.665   1.681
 7338SOL    HW222914   5.924   1.555   1.620
 7339SOL     OW22915   5.748   6.522   4.105
 7339SOL    HW122916   5.664   6.472   4.125
 7339SOL    HW222917   5.730   6.621   4.109
 7340SOL     OW22918   3.141   1.432   1.104
 7340SOL    HW122919   3.116   1.369   1.031
 7340SOL    HW222920   3.062   1.446   1.164
 7341SOL     OW22921   0.642   3.507   6.280
 7341SOL    HW122922   0.705   3.563   6.335
 7341SOL    HW222923   0.670   3.510   6.184
 7342SOL     OW22924   0.310   2.026   1.148
 7342SOL    HW122925   0.253   1.974   1.085
 7342SOL    HW222926   0.404   2.029   1.113
 7343SOL     OW22927   6.038   3.799   1.135
 7343SOL    HW122928   6.003   3.733   1.068
 7343SOL    HW222929   6.120   3.761   1.179
 7344SOL     OW22930   1.040   1.176   6.194
 7344SOL    HW122931   1.071   1.244   6.259
 7344SOL    HW222932   1.103   1.098   6.195
 7345SOL     OW22933   4.016   4.750   5.607
 7345SOL    HW122934   4.071   4.824   5.644
 7345SOL    HW222935   3.998   4.767   5.510
 7346SOL     OW22936   3.761   5.199   2.104
 7346SOL    HW122937   3.840   5.189   2.164
 7346SOL    HW222938   3.680   5.220   2.158
 7347SOL     OW22939   0.755   1.763   0.585
 7347SOL    HW122940   0.733   1.666   0.595
 7347SOL    HW222941   0.770   1.803   0.675
 7348SOL     OW22942   1.687   4.091   4.010
 7348SOL    HW122943   1.681   4.183   4.050
 7348SOL    HW222944   1.783   4.068   3.994
 7349SOL     OW22945   4.775   1.397   1.699
 7349SOL    HW122946   4.754   1.300   1.690
 7349SOL    HW222947   4.870   1.414   1.673
 7350SOL     OW22948   2.708   2.402   5.568
 7350SOL    HW122949   2.756   2.475   5.519
 7350SOL    HW222950   2.617   2.434   5.595
 7351SOL     OW22951   5.408   5.780   4.646
 7351SOL    HW122952   5.459   5.781   4.560
 7351SOL    HW222953   5.472   5.778   4.723
 7352SOL     OW22954   1.569   1.433   3.022
 7352SOL    HW122955   1.564   1.496   2.945
 7352SOL    HW222956   1.630   1.471   3.092
 7353SOL     OW22957   0.208   0.150   6.381
 7353SOL    HW122958   0.269   0.200   6.443
 7353SOL    HW222959   0.261   0.088   6.324
 7354SOL     OW22960   0.870   1.912   4.710
 7354SOL    HW122961   0.891   1.996   4.661
 7354SOL    HW222962   0.833   1.844   4.646
 7355SOL     OW22963   1.604   0.631   1.020
 7355SOL    HW122964   1.545   0.562   0.977
 7355SOL    HW222965   1.609   0.615   1.118
 7356SOL     OW22966   3.750   3.659   6.296
 7356SOL    HW122967   3.843   3.682   6.265
 7356SOL    HW222968   3.721   3.725   6.366
 7357SOL     OW22969   3.163   6.858   1.826
 7357SOL    HW122970   3.196   6.764   1.819
 7357SOL    HW222971   3.150   6.882   1.923
 7358SOL     OW22972   5.920   3.092   2.783
 7358SOL    HW122973   5.867   3.115   2.866
 7358SOL    HW222974   5.958   3.176   2.745
 7359SOL     OW22975   4.156   1.928   5.809
 7359SOL    HW122976   4.178   1.832   5.790
 7359SOL    HW222977   4.065   1.948   5.774
 7360SOL     OW22978   3.162   2.987   5.642
 7360SOL    HW122979   3.225   2.930   5.696
 7360SOL    HW222980   3.127   2.934   5.565
 7361SOL     OW22981   5.129   0.675   2.157
 7361SOL    HW122982   5.229   0.683   2.165
 7361SOL    HW222983   5.092   0.763   2.128
 7362SOL     OW22984   1.486   5.745   6.449
 7362SOL    HW122985   1.495   5.716   6.544
 7362SOL    HW222986   1.407   5.806   6.440
 7363SOL     OW22987   4.595   1.863   1.264
 7363SOL    HW122988   4.526   1.793   1.243
 7363SOL    HW222989   4.556   1.954   1.247
 7364SOL     OW22990   4.682   0.829   1.577
 7364SOL    HW122991   4.614   0.820   1.649
 7364SOL    HW222992   4.650   0.893   1.508
 7365SOL     OW22993   0.526   6.103   2.017
 7365SOL    HW122994   0.566   6.018   1.984
 7365SOL    HW222995   0.427   6.091   2.028
 7366SOL     OW22996   2.099   6.498   6.483
 7366SOL    HW122997   2.007   6.504   6.443
 7366SOL    HW222998   2.167   6.490   6.410
 7367SOL     OW22999   5.190   2.661   1.365
 7367SOL    HW123000   5.248   2.598   1.416
 7367SOL    HW223001   5.206   2.649   1.267
 7368SOL     OW23002   3.779   2.939   2.698
 7368SOL    HW123003   3.861   2.886   2.717
 7368SOL    HW223004   3.801   3.037   2.703
 7369SOL     OW23005   3.300   1.819   0.287
 7369SOL    HW123006   3.236   1.761   0.236
 7369SOL    HW223007   3.324   1.899   0.232
 7370SOL     OW23008   2.629   0.808   4.865
 7370SOL    HW123009   2.560   0.836   4.932
 7370SOL    HW223010   2.651   0.712   4.877
 7371SOL     OW23011   2.418   0.042   3.485
 7371SOL    HW123012   2.387   0.133   3.457
 7371SOL    HW223013   2.504   0.021   3.438
 7372SOL     OW23014   4.324   0.579   4.056
 7372SOL    HW123015   4.276   0.630   3.985
 7372SOL    HW223016   4.270   0.580   4.140
 7373SOL     OW23017   6.135   1.332   4.001
 7373SOL    HW123018   6.103   1.297   3.912
 7373SOL    HW223019   6.113   1.266   4.072
 7374SOL     OW23020   2.789   1.892   5.017
 7374SOL    HW123021   2.833   1.981   5.012
 7374SOL    HW223022   2.806   1.851   5.107
 7375SOL     OW23023   2.132   2.418   2.240
 7375SOL    HW123024   2.183   2.501   2.216
 7375SOL    HW223025   2.171   2.378   2.323
 7376SOL     OW23026   1.655   1.860   0.842
 7376SOL    HW123027   1.559   1.876   0.821
 7376SOL    HW223028   1.701   1.822   0.761
 7377SOL     OW23029   5.131   4.574   0.708
 7377SOL    HW123030   5.113   4.670   0.685
 7377SOL    HW223031   5.222   4.549   0.675
 7378SOL     OW23032   0.217   0.596   5.584
 7378SOL    HW123033   0.171   0.523   5.534
 7378SOL    HW223034   0.248   0.666   5.519
 7379SOL     OW23035   3.204   1.892   2.304
 7379SOL    HW123036   3.168   1.799   2.314
 7379SOL    HW223037   3.200   1.919   2.208
 7380SOL     OW23038   6.955   4.274   3.636
 7380SOL    HW123039   6.931   4.309   3.726
 7380SOL    HW223040   0.031   4.272   3.627
 7381SOL     OW23041   4.192   3.302   0.722
 7381SOL    HW123042   4.167   3.215   0.763
 7381SOL    HW223043   4.129   3.324   0.648
 7382SOL     OW23044   0.548   1.161   5.159
 7382SOL    HW123045   0.582   1.250   5.189
 7382SOL    HW223046   0.578   1.144   5.065
 7383SOL     OW23047   2.698   6.703   0.811
 7383SOL    HW123048   2.647   6.698   0.898
 7383SOL    HW223049   2.747   6.618   0.796
 7384SOL     OW23050   6.689   6.414   2.674
 7384SOL    HW123051   6.654   6.472   2.601
 7384SOL    HW223052   6.769   6.364   2.642
 7385SOL     OW23053   3.334   5.328   2.466
 7385SOL    HW123054   3.328   5.363   2.559
 7385SOL    HW223055   3.275   5.248   2.457
 7386SOL     OW23056   0.112   2.557   0.206
 7386SOL    HW123057   0.062   2.613   0.272
 7386SOL    HW223058   0.063   2.557   0.119
 7387SOL     OW23059   6.296   5.286   5.870
 7387SOL    HW123060   6.288   5.361   5.805
 7387SOL    HW223061   6.380   5.297   5.923
 7388SOL     OW23062   1.473   5.218   1.670
 7388SOL    HW123063   1.388   5.207   1.721
 7388SOL    HW223064   1.550   5.221   1.735
 7389SOL     OW23065   6.091   3.924   6.359
 7389SOL    HW123066   5.999   3.943   6.325
 7389SOL    HW223067   6.136   4.010   6.383
 7390SOL     OW23068   1.917   2.757   1.687
 7390SOL    HW123069   1.973   2.733   1.608
 7390SOL    HW223070   1.948   2.706   1.767
 7391SOL     OW23071   4.110   3.376   3.791
 7391SOL    HW123072   4.158   3.435   3.857
 7391SOL    HW223073   4.076   3.294   3.837
 7392SOL     OW23074   3.204   5.708   6.589
 7392SOL    HW123075   3.205   5.787   6.651
 7392SOL    HW223076   3.298   5.687   6.562
 7393SOL     OW23077   6.337   4.438   2.564
 7393SOL    HW123078   6.271   4.385   2.511
 7393SOL    HW223079   6.397   4.490   2.502
 7394SOL     OW23080   1.788   3.094   5.631
 7394SOL    HW123081   1.805   3.156   5.708
 7394SOL    HW223082   1.870   3.041   5.611
 7395SOL     OW23083   1.908   3.697   1.312
 7395SOL    HW123084   1.882   3.791   1.288
 7395SOL    HW223085   1.973   3.663   1.244
 7396SOL     OW23086   2.334   6.584   1.107
 7396SOL    HW123087   2.295   6.583   1.199
 7396SOL    HW223088   2.264   6.611   1.041
 7397SOL     OW23089   4.908   5.924   4.688
 7397SOL    HW123090   4.834   5.862   4.716
 7397SOL    HW223091   4.960   5.951   4.769
 7398SOL     OW23092   1.296   4.504   3.824
 7398SOL    HW123093   1.221   4.526   3.762
 7398SOL    HW223094   1.368   4.456   3.774
 7399SOL     OW23095   0.738   2.679   4.473
 7399SOL    HW123096   0.703   2.613   4.408
 7399SOL    HW223097   0.668   2.701   4.541
 7400SOL     OW23098   4.155   2.969   5.821
 7400SOL    HW123099   4.253   2.984   5.806
 7400SOL    HW223100   4.102   3.037   5.770
 7401SOL     OW23101   1.163   2.522   3.704
 7401SOL    HW123102   1.221   2.557   3.778
 7401SOL    HW223103   1.204   2.545   3.616
 7402SOL     OW23104   3.245   4.760   5.987
 7402SOL    HW123105   3.290   4.717   5.909
 7402SOL    HW223106   3.158   4.800   5.958
 7403SOL     OW23107   1.764   4.432   2.072
 7403SOL    HW123108   1.779   4.404   2.166
 7403SOL    HW223109   1.848   4.420   2.020
 7404SOL     OW23110   2.768   4.378   1.612
 7404SOL    HW123111   2.830   4.353   1.537
 7404SOL    HW223112   2.822   4.396   1.694
 7405SOL     OW23113   3.385   4.961   4.300
 7405SOL    HW123114   3.414   4.932   4.391
 7405SOL    HW223115   3.429   5.048   4.276
 7406SOL     OW23116   0.339   2.355   3.667
 7406SOL    HW123117   0.413   2.402   3.715
 7406SOL    HW223118   0.374   2.318   3.581
 7407SOL     OW23119   0.703   6.730   5.369
 7407SOL    HW123120   0.647   6.810   5.390
 7407SOL    HW223121   0.794   6.761   5.338
 7408SOL     OW23122   3.444   4.161   6.345
 7408SOL    HW123123   3.484   4.112   6.268
 7408SOL    HW223124   3.466   4.112   6.430
 7409SOL     OW23125   4.954   3.414   6.765
 7409SOL    HW123126   5.005   3.328   6.760
 7409SOL    HW223127   5.013   3.490   6.740
 7410SOL     OW23128   0.598   0.541   0.372
 7410SOL    HW123129   0.514   0.595   0.375
 7410SOL    HW223130   0.579   0.448   0.403
 7411SOL     OW23131   2.269   1.031   6.913
 7411SOL    HW123132   2.328   1.088   6.971
 7411SOL    HW223133   2.175   1.036   6.947
 7412SOL     OW23134   4.192   0.729   1.223
 7412SOL    HW123135   4.221   0.680   1.305
 7412SOL    HW223136   4.208   0.673   1.142
 7413SOL     OW23137   4.404   4.932   3.613
 7413SOL    HW123138   4.348   4.863   3.659
 7413SOL    HW223139   4.419   5.008   3.676
 7414SOL     OW23140   1.230   0.890   3.015
 7414SOL    HW123141   1.163   0.935   3.074
 7414SOL    HW223142   1.322   0.907   3.050
 7415SOL     OW23143   1.912   4.702   4.272
 7415SOL    HW123144   1.827   4.658   4.300
 7415SOL    HW223145   1.898   4.746   4.183
 7416SOL     OW23146   1.936   0.864   2.019
 7416SOL    HW123147   1.865   0.930   1.993
 7416SOL    HW223148   2.014   0.872   1.957
 7417SOL     OW23149   2.203   2.404   1.104
 7417SOL    HW123150   2.297   2.427   1.077
 7417SOL    HW223151   2.156   2.359   1.028
 7418SOL     OW23152   1.661   5.259   0.459
 7418SOL    HW123153   1.607   5.273   0.375
 7418SOL    HW223154   1.658   5.342   0.514
 7419SOL     OW23155   6.579   3.873   4.114
 7419SOL    HW123156   6.609   3.825   4.032
 7419SOL    HW223157   6.658   3.889   4.174
 7420SOL     OW23158   0.311   6.469   1.698
 7420SOL    HW123159   0.339   6.562   1.672
 7420SOL    HW223160   0.360   6.403   1.642
 7421SOL     OW23161   4.539   3.512   1.109
 7421SOL    HW123162   4.602   3.540   1.181
 7421SOL    HW223163   4.553   3.414   1.089
 7422SOL     OW23164   0.184   4.519   2.030
 7422SOL    HW123165   0.214   4.553   2.119
 7422SOL    HW223166   0.165   4.421   2.037
 7423SOL     OW23167   5.771   2.997   5.343
 7423SOL    HW123168   5.763   2.980   5.441
 7423SOL    HW223169   5.680   3.014   5.305
 7424SOL     OW23170   6.513   1.326   5.725
 7424SOL    HW123171   6.459   1.295   5.647
 7424SOL    HW223172   6.516   1.254   5.794
 7425SOL     OW23173   5.086   6.820   0.378
 7425SOL    HW123174   5.184   6.815   0.398
 7425SOL    HW223175   5.069   6.785   0.286
 7426SOL     OW23176   3.121   1.601   5.077
 7426SOL    HW123177   3.220   1.603   5.091
 7426SOL    HW223178   3.075   1.643   5.155
 7427SOL     OW23179   4.877   0.630   3.757
 7427SOL    HW123180   4.963   0.579   3.758
 7427SOL    HW223181   4.832   0.622   3.846
 7428SOL     OW23182   4.108   1.559   5.055
 7428SOL    HW123183   4.122   1.567   5.154
 7428SOL    HW223184   4.020   1.513   5.038
 7429SOL     OW23185   0.369   6.513   4.139
 7429SOL    HW123186   0.343   6.525   4.044
 7429SOL    HW223187   0.382   6.603   4.182
 7430SOL     OW23188   0.873   3.511   0.814
 7430SOL    HW123189   0.850   3.608   0.829
 7430SOL    HW223190   0.873   3.463   0.901
 7431SOL     OW23191   0.477   2.608   3.140
 7431SOL    HW123192   0.460   2.706   3.137
 7431SOL    HW223193   0.432   2.564   3.062
 7432SOL     OW23194   1.802   0.595   3.330
 7432SOL    HW123195   1.742   0.524   3.294
 7432SOL    HW223196   1.757   0.641   3.407
 7433SOL     OW23197   4.228   6.282   6.509
 7433SOL    HW123198   4.283   6.228   6.446
 7433SOL    HW223199   4.205   6.370   6.466
 7434SOL     OW23200   4.862   5.263   5.429
 7434SOL    HW123201   4.804   5.304   5.358
 7434SOL    HW223202   4.882   5.168   5.405
 7435SOL     OW23203   4.366   6.289   1.279
 7435SOL    HW123204   4.413   6.228   1.343
 7435SOL    HW223205   4.364   6.247   1.188
 7436SOL     OW23206   4.425   4.374   6.742
 7436SOL    HW123207   4.363   4.309   6.784
 7436SOL    HW223208   4.395   4.467   6.762
 7437SOL     OW23209   2.195   6.096   6.718
 7437SOL    HW123210   2.116   6.114   6.777
 7437SOL    HW223211   2.179   6.012   6.667
 7438SOL     OW23212   0.669   6.373   0.441
 7438SOL    HW123213   0.727   6.291   0.441
 7438SOL    HW223214   0.620   6.379   0.354
 7439SOL     OW23215   1.873   6.510   6.258
 7439SOL    HW123216   1.824   6.509   6.171
 7439SOL    HW223217   1.941   6.436   6.259
 7440SOL     OW23218   6.927   2.923   3.708
 7440SOL    HW123219   6.862   2.958   3.640
 7440SOL    HW223220   6.979   2.999   3.746
 7441SOL     OW23221   5.445   0.207   4.319
 7441SOL    HW123222   5.364   0.213   4.260
 7441SOL    HW223223   5.470   0.111   4.331
 7442SOL     OW23224   6.019   1.635   6.655
 7442SOL    HW123225   6.104   1.588   6.630
 7442SOL    HW223226   5.975   1.669   6.572
 7443SOL     OW23227   6.496   6.035   1.395
 7443SOL    HW123228   6.512   6.068   1.487
 7443SOL    HW223229   6.446   6.104   1.342
 7444SOL     OW23230   5.074   2.428   0.048
 7444SOL    HW123231   5.044   2.333   0.042
 7444SOL    HW223232   5.050   2.476   6.987
 7445SOL     OW23233   3.269   0.621   1.051
 7445SOL    HW123234   3.267   0.678   1.133
 7445SOL    HW223235   3.291   0.527   1.077
 7446SOL     OW23236   5.569   3.148   0.348
 7446SOL    HW123237   5.599   3.062   0.390
 7446SOL    HW223238   5.543   3.213   0.419
 7447SOL     OW23239   6.657   4.508   6.828
 7447SOL    HW123240   6.630   4.590   6.879
 7447SOL    HW223241   6.749   4.520   6.792
 7448SOL     OW23242   6.263   6.731   4.841
 7448SOL    HW123243   6.317   6.753   4.922
 7448SOL    HW223244   6.204   6.653   4.861
 7449SOL     OW23245   0.815   4.955   1.098
 7449SOL    HW123246   0.835   5.027   1.164
 7449SOL    HW223247   0.840   4.986   1.006
 7450SOL     OW23248   5.280   2.749   4.666
 7450SOL    HW123249   5.245   2.769   4.757
 7450SOL    HW223250   5.367   2.796   4.653
 7451SOL     OW23251   6.815   5.962   2.676
 7451SOL    HW123252   6.828   5.870   2.713
 7451SOL    HW223253   6.885   5.982   2.608
 7452SOL     OW23254   6.012   6.078   4.252
 7452SOL    HW123255   5.923   6.078   4.208
 7452SOL    HW223256   6.016   6.003   4.319
 7453SOL     OW23257   5.509   5.175   4.720
 7453SOL    HW123258   5.576   5.106   4.694
 7453SOL    HW223259   5.475   5.156   4.813
 7454SOL     OW23260   2.034   2.205   0.974
 7454SOL    HW123261   2.024   2.171   1.068
 7454SOL    HW223262   1.963   2.272   0.956
 7455SOL     OW23263   6.881   2.886   1.966
 7455SOL    HW123264   6.807   2.845   1.913
 7455SOL    HW223265   6.848   2.905   2.059
 7456SOL     OW23266   1.926   1.010   4.925
 7456SOL    HW123267   1.924   1.110   4.935
 7456SOL    HW223268   1.980   0.986   4.844
 7457SOL     OW23269   3.222   0.610   5.234
 7457SOL    HW123270   3.161   0.661   5.294
 7457SOL    HW223271   3.168   0.549   5.175
 7458SOL     OW23272   1.702   0.391   6.496
 7458SOL    HW123273   1.714   0.480   6.540
 7458SOL    HW223274   1.782   0.369   6.441
 7459SOL     OW23275   5.396   0.705   2.265
 7459SOL    HW123276   5.370   0.744   2.354
 7459SOL    HW223277   5.477   0.648   2.276
 7460SOL     OW23278   0.599   5.368   0.491
 7460SOL    HW123279   0.657   5.341   0.567
 7460SOL    HW223280   0.656   5.393   0.413
 7461SOL     OW23281   6.223   0.330   6.761
 7461SOL    HW123282   6.140   0.295   6.717
 7461SOL    HW223283   6.269   0.255   6.807
 7462SOL     OW23284   1.473   4.697   2.572
 7462SOL    HW123285   1.459   4.711   2.670
 7462SOL    HW223286   1.386   4.669   2.531
 7463SOL     OW23287   3.166   4.408   0.262
 7463SOL    HW123288   3.184   4.505   0.244
 7463SOL    HW223289   3.247   4.354   0.238
 7464SOL     OW23290   5.797   6.935   6.157
 7464SOL    HW123291   5.706   6.896   6.150
 7464SOL    HW223292   5.805   6.985   6.244
 7465SOL     OW23293   2.485   5.527   6.451
 7465SOL    HW123294   2.412   5.504   6.387
 7465SOL    HW223295   2.471   5.621   6.484
 7466SOL     OW23296   6.735   0.829   5.053
 7466SOL    HW123297   6.761   0.859   5.145
 7466SOL    HW223298   6.802   0.762   5.020
 7467SOL     OW23299   0.021   1.765   6.264
 7467SOL    HW123300   0.115   1.753   6.233
 7467SOL    HW223301   6.986   1.791   6.187
 7468SOL     OW23302   5.405   3.066   3.965
 7468SOL    HW123303   5.395   2.978   3.920
 7468SOL    HW223304   5.334   3.129   3.932
 7469SOL     OW23305   6.933   0.164   6.690
 7469SOL    HW123306   6.904   0.107   6.613
 7469SOL    HW223307   0.001   0.138   6.718
 7470SOL     OW23308   5.671   3.464   3.378
 7470SOL    HW123309   5.650   3.462   3.476
 7470SOL    HW223310   5.597   3.512   3.329
 7471SOL     OW23311   4.987   6.652   6.081
 7471SOL    HW123312   4.984   6.747   6.050
 7471SOL    HW223313   4.920   6.638   6.154
 7472SOL     OW23314   6.187   0.887   5.853
 7472SOL    HW123315   6.198   0.893   5.754
 7472SOL    HW223316   6.097   0.923   5.878
 7473SOL     OW23317   5.130   5.688   3.674
 7473SOL    HW123318   5.213   5.744   3.680
 7473SOL    HW223319   5.076   5.700   3.758
 7474SOL     OW23320   6.881   2.078   6.331
 7474SOL    HW123321   6.884   1.979   6.323
 7474SOL    HW223322   6.787   2.110   6.328
 7475SOL     OW23323   4.485   2.390   2.138
 7475SOL    HW123324   4.532   2.457   2.195
 7475SOL    HW223325   4.518   2.397   2.044
 7476SOL     OW23326   3.332   1.168   3.085
 7476SOL    HW123327   3.429   1.194   3.079
 7476SOL    HW223328   3.276   1.251   3.092
 7477SOL     OW23329   6.497   2.343   5.125
 7477SOL    HW123330   6.535   2.251   5.117
 7477SOL    HW223331   6.424   2.344   5.192
 7478SOL     OW23332   6.459   3.798   5.624
 7478SOL    HW123333   6.469   3.879   5.682
 7478SOL    HW223334   6.399   3.819   5.547
 7479SOL     OW23335   4.224   2.159   2.020
 7479SOL    HW123336   4.196   2.225   2.090
 7479SOL    HW223337   4.227   2.068   2.060
 7480SOL     OW23338   1.469   4.892   2.287
 7480SOL    HW123339   1.543   4.879   2.353
 7480SOL    HW223340   1.385   4.915   2.335
 7481SOL     OW23341   6.091   5.259   0.877
 7481SOL    HW123342   5.994   5.236   0.885
 7481SOL    HW223343   6.141   5.213   0.951
 7482SOL     OW23344   4.612   2.326   2.813
 7482SOL    HW123345   4.695   2.370   2.846
 7482SOL    HW223346   4.563   2.389   2.752
 7483SOL     OW23347   5.081   3.143   4.656
 7483SOL    HW123348   5.064   3.045   4.654
 7483SOL    HW223349   5.047   3.185   4.572
 7484SOL     OW23350   1.650   5.974   4.251
 7484SOL    HW123351   1.625   6.056   4.302
 7484SOL    HW223352   1.639   5.991   4.153
 7485SOL     OW23353   2.505   0.314   4.732
 7485SOL    HW123354   2.489   0.238   4.795
 7485SOL    HW223355   2.523   0.278   4.641
 7486SOL     OW23356   1.253   6.481   6.835
 7486SOL    HW123357   1.292   6.488   6.927
 7486SOL    HW223358   1.215   6.390   6.822
 7487SOL     OW23359   2.222   0.839   2.853
 7487SOL    HW123360   2.142   0.884   2.892
 7487SOL    HW223361   2.268   0.785   2.924
 7488SOL     OW23362   2.584   5.622   5.247
 7488SOL    HW123363   2.639   5.575   5.316
 7488SOL    HW223364   2.533   5.697   5.290
 7489SOL     OW23365   6.586   3.290   6.523
 7489SOL    HW123366   6.501   3.248   6.555
 7489SOL    HW223367   6.601   3.264   6.427
 7490SOL     OW23368   1.358   0.493   3.532
 7490SOL    HW123369   1.375   0.535   3.443
 7490SOL    HW223370   1.444   0.471   3.576
 7491SOL     OW23371   4.547   3.256   6.410
 7491SOL    HW123372   4.618   3.257   6.480
 7491SOL    HW223373   4.540   3.346   6.366
 7492SOL     OW23374   2.114   0.563   3.612
 7492SOL    HW123375   2.053   0.629   3.657
 7492SOL    HW223376   2.080   0.545   3.520
 7493SOL     OW23377   0.365   2.274   6.117
 7493SOL    HW123378   0.332   2.347   6.057
 7493SOL    HW223379   0.392   2.312   6.205
 7494SOL     OW23380   5.931   1.287   3.188
 7494SOL    HW123381   5.934   1.294   3.288
 7494SOL    HW223382   5.886   1.201   3.163
 7495SOL     OW23383   1.216   2.729   6.421
 7495SOL    HW123384   1.314   2.739   6.437
 7495SOL    HW223385   1.201   2.660   6.349
 7496SOL     OW23386   6.357   3.642   4.033
 7496SOL    HW123387   6.310   3.707   3.972
 7496SOL    HW223388   6.455   3.648   4.019
 7497SOL     OW23389   1.913   4.477   1.184
 7497SOL    HW123390   1.955   4.551   1.131
 7497SOL    HW223391   1.985   4.428   1.235
 7498SOL     OW23392   3.227   0.946   4.581
 7498SOL    HW123393   3.278   0.917   4.500
 7498SOL    HW223394   3.279   1.015   4.630
 7499SOL     OW23395   4.527   2.154   3.207
 7499SOL    HW123396   4.616   2.189   3.237
 7499SOL    HW223397   4.538   2.108   3.119
 7500SOL     OW23398   3.776   5.767   3.337
 7500SOL    HW123399   3.768   5.669   3.318
 7500SOL    HW223400   3.872   5.789   3.355
 7501SOL     OW23401   5.110   4.317   4.459
 7501SOL    HW123402   5.150   4.244   4.403
 7501SOL    HW223403   5.019   4.288   4.491
 7502SOL     OW23404   3.662   0.847   4.551
 7502SOL    HW123405   3.587   0.853   4.618
 7502SOL    HW223406   3.729   0.919   4.570
 7503SOL     OW23407   2.377   0.019   1.320
 7503SOL    HW123408   2.324   0.005   1.236
 7503SOL    HW223409   2.314   0.019   1.398
 7504SOL     OW23410   0.945   6.472   3.678
 7504SOL    HW123411   0.977   6.412   3.604
 7504SOL    HW223412   0.946   6.421   3.764
 7505SOL     OW23413   1.231   2.461   6.181
 7505SOL    HW123414   1.254   2.472   6.278
 7505SOL    HW223415   1.304   2.410   6.136
 7506SOL     OW23416   5.379   2.425   3.737
 7506SOL    HW123417   5.404   2.356   3.668
 7506SOL    HW223418   5.432   2.409   3.820
 7507SOL     OW23419   5.824   1.817   2.504
 7507SOL    HW123420   5.746   1.862   2.460
 7507SOL    HW223421   5.831   1.723   2.471
 7508SOL     OW23422   2.050   5.718   0.763
 7508SOL    HW123423   2.116   5.745   0.693
 7508SOL    HW223424   1.989   5.795   0.782
 7509SOL     OW23425   6.130   4.268   0.704
 7509SOL    HW123426   6.177   4.192   0.749
 7509SOL    HW223427   6.051   4.295   0.759
 7510SOL     OW23428   3.802   3.554   4.972
 7510SOL    HW123429   3.756   3.507   4.897
 7510SOL    HW223430   3.765   3.647   4.980
 7511SOL     OW23431   3.109   5.962   3.266
 7511SOL    HW123432   3.099   5.865   3.291
 7511SOL    HW223433   3.033   6.014   3.305
 7512SOL     OW23434   2.906   1.155   6.565
 7512SOL    HW123435   2.971   1.113   6.629
 7512SOL    HW223436   2.901   1.253   6.582
 7513SOL     OW23437   1.139   1.160   1.508
 7513SOL    HW123438   1.070   1.141   1.438
 7513SOL    HW223439   1.146   1.258   1.522
 7514SOL     OW23440   2.253   5.004   2.725
 7514SOL    HW123441   2.179   4.972   2.785
 7514SOL    HW223442   2.225   5.089   2.682
 7515SOL     OW23443   6.888   4.648   4.369
 7515SOL    HW123444   6.870   4.554   4.341
 7515SOL    HW223445   6.837   4.711   4.311
 7516SOL     OW23446   6.870   5.569   5.972
 7516SOL    HW123447   6.869   5.635   6.047
 7516SOL    HW223448   6.881   5.477   6.009
 7517SOL     OW23449   0.666   2.066   0.163
 7517SOL    HW123450   0.589   2.002   0.161
 7517SOL    HW223451   0.642   2.149   0.113
 7518SOL     OW23452   4.931   3.619   4.398
 7518SOL    HW123453   4.997   3.551   4.369
 7518SOL    HW223454   4.900   3.598   4.491
 7519SOL     OW23455   6.659   6.162   5.043
 7519SOL    HW123456   6.621   6.093   5.104
 7519SOL    HW223457   6.757   6.145   5.030
 7520SOL     OW23458   2.169   0.204   2.945
 7520SOL    HW123459   2.130   0.296   2.944
 7520SOL    HW223460   2.263   0.208   2.977
 7521SOL     OW23461   5.304   2.629   5.426
 7521SOL    HW123462   5.286   2.689   5.504
 7521SOL    HW223463   5.220   2.617   5.373
 7522SOL     OW23464   1.426   0.999   5.688
 7522SOL    HW123465   1.507   1.056   5.675
 7522SOL    HW223466   1.389   1.014   5.780
 7523SOL     OW23467   4.807   0.486   6.325
 7523SOL    HW123468   4.843   0.471   6.417
 7523SOL    HW223469   4.800   0.398   6.277
 7524SOL     OW23470   0.739   2.706   5.347
 7524SOL    HW123471   0.806   2.774   5.317
 7524SOL    HW223472   0.771   2.615   5.321
 7525SOL     OW23473   3.988   6.942   0.301
 7525SOL    HW123474   4.083   6.951   0.270
 7525SOL    HW223475   3.927   6.965   0.225
 7526SOL     OW23476   2.823   3.025   1.736
 7526SOL    HW123477   2.847   3.083   1.814
 7526SOL    HW223478   2.895   2.957   1.722
 7527SOL     OW23479   3.406   5.735   4.055
 7527SOL    HW123480   3.382   5.776   3.967
 7527SOL    HW223481   3.347   5.657   4.073
 7528SOL     OW23482   6.147   2.345   6.144
 7528SOL    HW123483   6.168   2.426   6.199
 7528SOL    HW223484   6.223   2.326   6.081
 7529SOL     OW23485   5.599   1.079   4.662
 7529SOL    HW123486   5.618   1.082   4.760
 7529SOL    HW223487   5.561   1.167   4.632
 7530SOL     OW23488   6.491   2.061   1.955
 7530SOL    HW123489   6.540   2.069   1.868
 7530SOL    HW223490   6.477   1.964   1.977
 7531SOL     OW23491   5.334   3.184   4.214
 7531SOL    HW123492   5.416   3.211   4.264
 7531SOL    HW223493   5.359   3.132   4.133
 7532SOL     OW23494   4.943   6.120   0.877
 7532SOL    HW123495   4.971   6.072   0.960
 7532SOL    HW223496   5.013   6.109   0.806
 7533SOL     OW23497   3.375   1.908   1.748
 7533SOL    HW123498   3.457   1.851   1.755
 7533SOL    HW223499   3.380   1.982   1.815
 7534SOL     OW23500   4.760   5.664   4.446
 7534SOL    HW123501   4.735   5.567   4.451
 7534SOL    HW223502   4.860   5.672   4.443
 7535SOL     OW23503   1.829   6.832   5.001
 7535SOL    HW123504   1.927   6.837   4.983
 7535SOL    HW223505   1.804   6.739   5.029
 7536SOL     OW23506   5.099   4.959   4.128
 7536SOL    HW123507   5.030   5.028   4.108
 7536SOL    HW223508   5.154   4.987   4.206
 7537SOL     OW23509   1.704   5.130   2.901
 7537SOL    HW123510   1.634   5.119   2.971
 7537SOL    HW223511   1.734   5.226   2.898
 7538SOL     OW23512   1.698   2.232   1.512
 7538SOL    HW123513   1.625   2.298   1.533
 7538SOL    HW223514   1.760   2.225   1.590
 7539SOL     OW23515   1.528   3.825   4.354
 7539SOL    HW123516   1.611   3.781   4.390
 7539SOL    HW223517   1.471   3.755   4.310
 7540SOL     OW23518   4.064   0.600   4.708
 7540SOL    HW123519   4.106   0.671   4.651
 7540SOL    HW223520   4.025   0.529   4.649
 7541SOL     OW23521   0.668   3.963   5.124
 7541SOL    HW123522   0.592   4.020   5.093
 7541SOL    HW223523   0.751   3.988   5.075
 7542SOL     OW23524   0.185   6.022   0.172
 7542SOL    HW123525   0.231   6.059   0.091
 7542SOL    HW223526   0.242   5.951   0.213
 7543SOL     OW23527   3.717   0.959   5.310
 7543SOL    HW123528   3.686   0.868   5.337
 7543SOL    HW223529   3.817   0.963   5.315
 7544SOL     OW23530   6.438   2.582   4.611
 7544SOL    HW123531   6.398   2.520   4.678
 7544SOL    HW223532   6.392   2.671   4.616
 7545SOL     OW23533   0.868   6.269   6.137
 7545SOL    HW123534   0.839   6.235   6.048
 7545SOL    HW223535   0.941   6.211   6.172
 7546SOL     OW23536   4.753   2.184   1.156
 7546SOL    HW123537   4.793   2.104   1.111
 7546SOL    HW223538   4.655   2.168   1.171
 7547SOL     OW23539   5.324   1.751   0.953
 7547SOL    HW123540   5.331   1.711   1.044
 7547SOL    HW223541   5.406   1.728   0.901
 7548SOL     OW23542   4.829   2.303   6.237
 7548SOL    HW123543   4.892   2.228   6.216
 7548SOL    HW223544   4.761   2.310   6.164
 7549SOL     OW23545   3.401   3.543   6.353
 7549SOL    HW123546   3.491   3.512   6.323
 7549SOL    HW223547   3.400   3.643   6.360
 7550SOL     OW23548   1.894   4.419   3.797
 7550SOL    HW123549   1.985   4.450   3.823
 7550SOL    HW223550   1.829   4.444   3.869
 7551SOL     OW23551   6.178   2.876   5.151
 7551SOL    HW123552   6.164   2.974   5.140
 7551SOL    HW223553   6.106   2.839   5.210
 7552SOL     OW23554   1.534   5.671   3.937
 7552SOL    HW123555   1.615   5.624   3.902
 7552SOL    HW223556   1.496   5.729   3.866
 7553SOL     OW23557   4.570   6.790   5.864
 7553SOL    HW123558   4.521   6.841   5.794
 7553SOL    HW223559   4.511   6.717   5.900
 7554SOL     OW23560   4.818   0.779   6.314
 7554SOL    HW123561   4.816   0.789   6.414
 7554SOL    HW223562   4.800   0.684   6.290
 7555SOL     OW23563   3.083   5.208   6.302
 7555SOL    HW123564   2.995   5.249   6.328
 7555SOL    HW223565   3.148   5.280   6.280
 7556SOL     OW23566   2.593   2.062   0.182
 7556SOL    HW123567   2.563   2.142   0.234
 7556SOL    HW223568   2.658   2.090   0.112
 7557SOL     OW23569   5.162   0.664   6.099
 7557SOL    HW123570   5.123   0.619   6.180
 7557SOL    HW223571   5.088   0.706   6.046
 7558SOL     OW23572   2.377   2.815   4.215
 7558SOL    HW123573   2.427   2.730   4.230
 7558SOL    HW223574   2.387   2.874   4.295
 7559SOL     OW23575   3.636   3.182   5.819
 7559SOL    HW123576   3.637   3.082   5.823
 7559SOL    HW223577   3.667   3.220   5.906
 7560SOL     OW23578   5.382   6.881   0.230
 7560SOL    HW123579   5.432   6.796   0.244
 7560SOL    HW223580   5.299   6.862   0.177
 7561SOL     OW23581   6.606   3.176   5.430
 7561SOL    HW123582   6.610   3.256   5.489
 7561SOL    HW223583   6.541   3.110   5.467
 7562SOL     OW23584   0.482   4.778   5.523
 7562SOL    HW123585   0.541   4.713   5.571
 7562SOL    HW223586   0.535   4.825   5.453
 7563SOL     OW23587   3.374   6.960   1.694
 7563SOL    HW123588   3.283   6.931   1.721
 7563SOL    HW223589   3.387   0.033   1.719
 7564SOL     OW23590   3.792   0.416   4.406
 7564SOL    HW123591   3.829   0.420   4.499
 7564SOL    HW223592   3.693   0.432   4.409
 7565SOL     OW23593   5.597   3.919   6.402
 7565SOL    HW123594   5.561   3.828   6.423
 7565SOL    HW223595   5.559   3.985   6.466
 7566SOL     OW23596   5.867   5.293   2.473
 7566SOL    HW123597   5.815   5.254   2.397
 7566SOL    HW223598   5.883   5.391   2.455
 7567SOL     OW23599   1.598   1.155   6.014
 7567SOL    HW123600   1.598   1.250   5.981
 7567SOL    HW223601   1.668   1.103   5.964
 7568SOL     OW23602   5.763   4.606   2.522
 7568SOL    HW123603   5.742   4.650   2.435
 7568SOL    HW223604   5.787   4.675   2.591
 7569SOL     OW23605   2.772   4.667   5.905
 7569SOL    HW123606   2.673   4.676   5.919
 7569SOL    HW223607   2.797   4.570   5.907
 7570SOL     OW23608   5.173   4.072   4.326
 7570SOL    HW123609   5.229   4.008   4.378
 7570SOL    HW223610   5.079   4.038   4.320
 7571SOL     OW23611   4.816   4.130   3.538
 7571SOL    HW123612   4.816   4.174   3.448
 7571SOL    HW223613   4.825   4.031   3.526
 7572SOL     OW23614   4.986   0.680   2.716
 7572SOL    HW123615   4.998   0.778   2.703
 7572SOL    HW223616   5.044   0.648   2.790
 7573SOL     OW23617   6.755   0.479   5.312
 7573SOL    HW123618   6.813   0.555   5.282
 7573SOL    HW223619   6.665   0.514   5.339
 7574SOL     OW23620   5.600   0.790   4.889
 7574SOL    HW123621   5.680   0.849   4.876
 7574SOL    HW223622   5.555   0.815   4.975
 7575SOL     OW23623   5.488   0.022   0.047
 7575SOL    HW123624   5.451   0.042   6.979
 7575SOL    HW223625   5.421   6.993   0.100
 7576SOL     OW23626   4.873   3.169   0.313
 7576SOL    HW123627   4.783   3.148   0.275
 7576SOL    HW223628   4.864   3.188   0.411
 7577SOL     OW23629   0.487   6.299   6.792
 7577SOL    HW123630   0.397   6.274   6.759
 7577SOL    HW223631   0.557   6.263   6.731
 7578SOL     OW23632   2.871   5.242   2.377
 7578SOL    HW123633   2.793   5.180   2.385
 7578SOL    HW223634   2.889   5.260   2.281
 7579SOL     OW23635   0.349   1.896   1.378
 7579SOL    HW123636   0.293   1.813   1.379
 7579SOL    HW223637   0.331   1.947   1.294
 7580SOL     OW23638   0.767   3.975   3.424
 7580SOL    HW123639   0.861   3.969   3.392
 7580SOL    HW223640   0.750   3.902   3.491
 7581SOL     OW23641   0.804   1.973   1.145
 7581SOL    HW123642   0.871   2.039   1.178
 7581SOL    HW223643   0.851   1.892   1.110
 7582SOL     OW23644   4.235   1.759   3.675
 7582SOL    HW123645   4.196   1.670   3.700
 7582SOL    HW223646   4.195   1.788   3.588
 7583SOL     OW23647   5.071   3.057   2.015
 7583SOL    HW123648   5.046   3.152   1.997
 7583SOL    HW223649   5.041   2.999   1.940
 7584SOL     OW23650   1.485   0.125   2.929
 7584SOL    HW123651   1.496   0.224   2.933
 7584SOL    HW223652   1.468   0.090   3.022
 7585SOL     OW23653   1.716   2.690   5.883
 7585SOL    HW123654   1.746   2.695   5.788
 7585SOL    HW223655   1.776   2.629   5.935
 7586SOL     OW23656   1.904   6.819   3.477
 7586SOL    HW123657   1.916   6.880   3.555
 7586SOL    HW223658   1.911   6.724   3.507
 7587SOL     OW23659   2.459   1.531   6.899
 7587SOL    HW123660   2.527   1.571   6.960
 7587SOL    HW223661   2.505   1.490   6.821
 7588SOL     OW23662   2.252   2.257   3.550
 7588SOL    HW123663   2.330   2.273   3.490
 7588SOL    HW223664   2.279   2.199   3.627
 7589SOL     OW23665   0.568   0.756   2.686
 7589SOL    HW123666   0.644   0.707   2.644
 7589SOL    HW223667   0.586   0.854   2.682
 7590SOL     OW23668   4.741   1.769   6.910
 7590SOL    HW123669   4.785   1.764   7.000
 7590SOL    HW223670   4.787   1.838   6.855
 7591SOL     OW23671   4.965   4.523   0.433
 7591SOL    HW123672   5.004   4.576   0.358
 7591SOL    HW223673   5.023   4.532   0.514
 7592SOL     OW23674   6.280   5.577   4.327
 7592SOL    HW123675   6.348   5.623   4.270
 7592SOL    HW223676   6.324   5.538   4.407
 7593SOL     OW23677   6.857   2.947   6.719
 7593SOL    HW123678   6.794   3.004   6.772
 7593SOL    HW223679   6.846   2.852   6.745
 7594SOL     OW23680   2.155   4.698   1.388
 7594SOL    HW123681   2.137   4.685   1.485
 7594SOL    HW223682   2.193   4.789   1.373
 7595SOL     OW23683   6.245   3.535   5.875
 7595SOL    HW123684   6.309   3.608   5.899
 7595SOL    HW223685   6.292   3.446   5.882
 7596SOL     OW23686   3.364   6.737   4.382
 7596SOL    HW123687   3.348   6.676   4.460
 7596SOL    HW223688   3.454   6.779   4.391
 7597SOL     OW23689   2.311   6.256   3.104
 7597SOL    HW123690   2.387   6.192   3.103
 7597SOL    HW223691   2.239   6.223   3.042
 7598SOL     OW23692   6.306   0.740   3.589
 7598SOL    HW123693   6.229   0.791   3.625
 7598SOL    HW223694   6.278   0.689   3.507
 7599SOL     OW23695   5.303   2.182   1.714
 7599SOL    HW123696   5.311   2.108   1.647
 7599SOL    HW223697   5.209   2.186   1.748
 7600SOL     OW23698   0.840   0.847   4.150
 7600SOL    HW123699   0.772   0.818   4.217
 7600SOL    HW223700   0.931   0.842   4.191
 7601SOL     OW23701   2.602   4.701   2.020
 7601SOL    HW123702   2.693   4.662   2.002
 7601SOL    HW223703   2.613   4.792   2.061
 7602SOL     OW23704   1.103   3.062   6.857
 7602SOL    HW123705   1.156   3.035   6.777
 7602SOL    HW223706   1.164   3.094   6.929
 7603SOL     OW23707   2.622   6.390   6.491
 7603SOL    HW123708   2.546   6.358   6.548
 7603SOL    HW223709   2.636   6.488   6.505
 7604SOL     OW23710   0.937   2.756   5.069
 7604SOL    HW123711   1.037   2.753   5.072
 7604SOL    HW223712   0.907   2.796   4.982
 7605SOL     OW23713   1.326   0.593   0.815
 7605SOL    HW123714   1.276   0.560   0.895
 7605SOL    HW223715   1.343   0.517   0.752
 7606SOL     OW23716   5.581   3.029   4.742
 7606SOL    HW123717   5.632   3.017   4.827
 7606SOL    HW223718   5.632   2.989   4.666
 7607SOL     OW23719   4.558   5.418   0.443
 7607SOL    HW123720   4.572   5.436   0.540
 7607SOL    HW223721   4.465   5.383   0.429
 7608SOL     OW23722   5.006   3.140   0.893
 7608SOL    HW123723   4.907   3.150   0.882
 7608SOL    HW223724   5.050   3.230   0.890
 7609SOL     OW23725   1.857   3.218   4.387
 7609SOL    HW123726   1.944   3.201   4.340
 7609SOL    HW223727   1.793   3.261   4.324
 7610SOL     OW23728   3.912   4.669   6.133
 7610SOL    HW123729   3.994   4.613   6.128
 7610SOL    HW223730   3.896   4.713   6.045
 7611SOL     OW23731   5.165   4.540   1.213
 7611SOL    HW123732   5.179   4.638   1.196
 7611SOL    HW223733   5.070   4.525   1.239
 7612SOL     OW23734   4.837   2.826   2.800
 7612SOL    HW123735   4.818   2.868   2.889
 7612SOL    HW223736   4.761   2.765   2.775
 7613SOL     OW23737   0.478   1.636   1.117
 7613SOL    HW123738   0.550   1.651   1.185
 7613SOL    HW223739   0.405   1.582   1.158
 7614SOL     OW23740   5.208   3.058   1.452
 7614SOL    HW123741   5.151   3.122   1.503
 7614SOL    HW223742   5.199   3.075   1.354
 7615SOL     OW23743   4.656   4.118   6.331
 7615SOL    HW123744   4.729   4.059   6.365
 7615SOL    HW223745   4.624   4.177   6.405
 7616SOL     OW23746   6.801   6.631   4.549
 7616SOL    HW123747   6.742   6.639   4.629
 7616SOL    HW223748   6.759   6.677   4.471
 7617SOL     OW23749   4.323   6.282   3.309
 7617SOL    HW123750   4.263   6.337   3.367
 7617SOL    HW223751   4.389   6.342   3.263
 7618SOL     OW23752   0.966   2.766   6.580
 7618SOL    HW123753   0.979   2.865   6.583
 7618SOL    HW223754   0.998   2.731   6.491
 7619SOL     OW23755   6.971   3.155   4.636
 7619SOL    HW123756   6.980   3.254   4.621
 7619SOL    HW223757   6.978   3.135   4.733
 7620SOL     OW23758   3.955   5.599   1.684
 7620SOL    HW123759   3.926   5.585   1.589
 7620SOL    HW223760   4.008   5.684   1.690
 7621SOL     OW23761   0.314   0.885   0.847
 7621SOL    HW123762   0.383   0.952   0.873
 7621SOL    HW223763   0.225   0.930   0.838
 7622SOL     OW23764   4.906   4.530   6.779
 7622SOL    HW123765   4.848   4.470   6.833
 7622SOL    HW223766   4.854   4.611   6.751
 7623SOL     OW23767   4.288   4.612   0.884
 7623SOL    HW123768   4.247   4.703   0.895
 7623SOL    HW223769   4.241   4.563   0.811
 7624SOL     OW23770   6.861   3.692   3.931
 7624SOL    HW123771   6.918   3.624   3.977
 7624SOL    HW223772   6.899   3.783   3.947
 7625SOL     OW23773   5.767   1.249   6.936
 7625SOL    HW123774   5.732   1.156   6.925
 7625SOL    HW223775   5.789   1.266   0.009
 7626SOL     OW23776   6.234   0.666   5.988
 7626SOL    HW123777   6.322   0.626   5.962
 7626SOL    HW223778   6.214   0.744   5.928
 7627SOL     OW23779   3.228   2.445   0.399
 7627SOL    HW123780   3.288   2.366   0.387
 7627SOL    HW223781   3.154   2.422   0.462
 7628SOL     OW23782   3.740   3.022   1.825
 7628SOL    HW123783   3.737   3.097   1.892
 7628SOL    HW223784   3.832   2.983   1.823
 7629SOL     OW23785   0.316   3.947   3.094
 7629SOL    HW123786   0.229   3.927   3.049
 7629SOL    HW223787   0.315   3.909   3.186
 7630SOL     OW23788   1.070   0.643   7.015
 7630SOL    HW123789   1.026   0.554   0.002
 7630SOL    HW223790   1.168   0.631   7.001
 7631SOL     OW23791   0.945   1.322   5.211
 7631SOL    HW123792   0.863   1.308   5.266
 7631SOL    HW223793   1.022   1.346   5.270
 7632SOL     OW23794   4.488   4.534   1.049
 7632SOL    HW123795   4.413   4.564   0.991
 7632SOL    HW223796   4.497   4.596   1.127
 7633SOL     OW23797   5.322   0.842   1.653
 7633SOL    HW123798   5.227   0.815   1.671
 7633SOL    HW223799   5.384   0.782   1.703
 7634SOL     OW23800   2.322   1.208   1.350
 7634SOL    HW123801   2.267   1.181   1.271
 7634SOL    HW223802   2.380   1.285   1.325
 7635SOL     OW23803   3.162   4.918   4.618
 7635SOL    HW123804   3.117   5.000   4.582
 7635SOL    HW223805   3.097   4.842   4.620
 7636SOL     OW23806   1.283   3.499   3.793
 7636SOL    HW123807   1.292   3.587   3.842
 7636SOL    HW223808   1.364   3.485   3.735
 7637SOL     OW23809   2.706   5.950   2.585
 7637SOL    HW123810   2.729   5.954   2.682
 7637SOL    HW223811   2.674   5.859   2.562
 7638SOL     OW23812   1.562   5.630   2.516
 7638SOL    HW123813   1.477   5.648   2.566
 7638SOL    HW223814   1.618   5.713   2.513
 7639SOL     OW23815   0.192   1.169   0.543
 7639SOL    HW123816   0.102   1.195   0.508
 7639SOL    HW223817   0.258   1.241   0.523
 7640SOL     OW23818   2.549   2.867   6.610
 7640SOL    HW123819   2.478   2.847   6.542
 7640SOL    HW223820   2.525   2.950   6.660
 7641SOL     OW23821   7.010   3.246   2.688
 7641SOL    HW123822   0.036   3.204   2.611
 7641SOL    HW223823   6.919   3.203   2.695
 7642SOL     OW23824   4.627   0.922   2.248
 7642SOL    HW123825   4.705   0.861   2.264
 7642SOL    HW223826   4.649   1.013   2.284
 7643SOL     OW23827   4.895   1.639   2.795
 7643SOL    HW123828   4.973   1.628   2.734
 7643SOL    HW223829   4.916   1.597   2.883
 7644SOL     OW23830   4.912   2.911   1.845
 7644SOL    HW123831   4.955   2.830   1.884
 7644SOL    HW223832   4.841   2.945   1.906
 7645SOL     OW23833   4.764   3.556   6.000
 7645SOL    HW123834   4.727   3.602   5.919
 7645SOL    HW223835   4.798   3.625   6.064
 7646SOL     OW23836   0.389   2.724   3.656
 7646SOL    HW123837   0.477   2.755   3.619
 7646SOL    HW223838   0.403   2.691   3.750
 7647SOL     OW23839   6.947   2.537   4.691
 7647SOL    HW123840   6.847   2.535   4.696
 7647SOL    HW223841   6.985   2.550   4.782
 7648SOL     OW23842   2.100   1.850   2.494
 7648SOL    HW123843   2.010   1.850   2.451
 7648SOL    HW223844   2.154   1.773   2.459
 7649SOL     OW23845   1.585   0.644   3.976
 7649SOL    HW123846   1.518   0.616   3.906
 7649SOL    HW223847   1.664   0.583   3.972
 7650SOL     OW23848   6.088   0.817   1.034
 7650SOL    HW123849   6.034   0.747   0.988
 7650SOL    HW223850   6.169   0.775   1.076
 7651SOL     OW23851   2.186   0.072   4.848
 7651SOL    HW123852   2.280   0.105   4.851
 7651SOL    HW223853   2.129   0.134   4.795
 7652SOL     OW23854   5.295   2.102   4.806
 7652SOL    HW123855   5.373   2.040   4.800
 7652SOL    HW223856   5.327   2.194   4.829
 7653SOL     OW23857   1.036   1.549   0.618
 7653SOL    HW123858   0.955   1.607   0.610
 7653SOL    HW223859   1.044   1.492   0.537
 7654SOL     OW23860   5.102   3.052   4.202
 7654SOL    HW123861   5.184   3.109   4.212
 7654SOL    HW223862   5.071   3.022   4.292
 7655SOL     OW23863   3.777   6.993   3.562
 7655SOL    HW123864   3.854   0.026   3.533
 7655SOL    HW223865   3.810   6.904   3.595
 7656SOL     OW23866   4.000   3.747   6.619
 7656SOL    HW123867   4.081   3.740   6.561
 7656SOL    HW223868   3.997   3.838   6.661
 7657SOL     OW23869   2.332   2.114   3.775
 7657SOL    HW123870   2.285   2.158   3.851
 7657SOL    HW223871   2.310   2.017   3.772
 7658SOL     OW23872   2.340   0.399   0.884
 7658SOL    HW123873   2.437   0.418   0.866
 7658SOL    HW223874   2.333   0.337   0.962
 7659SOL     OW23875   4.377   4.721   0.061
 7659SOL    HW123876   4.461   4.702   0.110
 7659SOL    HW223877   4.299   4.711   0.123
 7660SOL     OW23878   0.078   5.918   4.146
 7660SOL    HW123879   0.063   6.016   4.141
 7660SOL    HW223880   7.013   5.871   4.148
 7661SOL     OW23881   5.556   2.300   5.460
 7661SOL    HW123882   5.640   2.346   5.432
 7661SOL    HW223883   5.511   2.354   5.531
 7662SOL     OW23884   1.060   2.345   3.512
 7662SOL    HW123885   1.052   2.325   3.610
 7662SOL    HW223886   1.152   2.379   3.492
 7663SOL     OW23887   5.597   4.938   6.103
 7663SOL    HW123888   5.504   4.958   6.132
 7663SOL    HW223889   5.656   5.017   6.124
 7664SOL     OW23890   4.173   0.937   2.190
 7664SOL    HW123891   4.080   0.902   2.189
 7664SOL    HW223892   4.202   0.955   2.284
 7665SOL     OW23893   5.582   0.749   5.187
 7665SOL    HW123894   5.609   0.703   5.271
 7665SOL    HW223895   5.491   0.719   5.159
 7666SOL     OW23896   0.620   4.814   3.299
 7666SOL    HW123897   0.554   4.849   3.233
 7666SOL    HW223898   0.685   4.886   3.323
 7667SOL     OW23899   4.451   0.385   2.402
 7667SOL    HW123900   4.359   0.424   2.411
 7667SOL    HW223901   4.476   0.379   2.306
 7668SOL     OW23902   2.847   4.744   0.809
 7668SOL    HW123903   2.841   4.787   0.718
 7668SOL    HW223904   2.780   4.786   0.870
 7669SOL     OW23905   4.452   1.069   5.321
 7669SOL    HW123906   4.457   0.980   5.274
 7669SOL    HW223907   4.461   1.055   5.420
 7670SOL     OW23908   0.970   5.614   0.702
 7670SOL    HW123909   0.893   5.633   0.763
 7670SOL    HW223910   1.008   5.524   0.724
 7671SOL     OW23911   3.901   0.865   2.282
 7671SOL    HW123912   3.850   0.943   2.245
 7671SOL    HW223913   3.856   0.830   2.363
 7672SOL     OW23914   0.140   5.758   3.055
 7672SOL    HW123915   0.051   5.802   3.065
 7672SOL    HW223916   0.207   5.805   3.111
 7673SOL     OW23917   1.551   5.639   2.131
 7673SOL    HW123918   1.585   5.654   2.038
 7673SOL    HW223919   1.458   5.603   2.128
 7674SOL     OW23920   5.016   0.976   4.071
 7674SOL    HW123921   5.090   0.911   4.091
 7674SOL    HW223922   4.928   0.935   4.096
 7675SOL     OW23923   5.730   6.607   3.058
 7675SOL    HW123924   5.706   6.573   3.149
 7675SOL    HW223925   5.677   6.689   3.038
 7676SOL     OW23926   3.132   2.662   6.142
 7676SOL    HW123927   3.078   2.726   6.088
 7676SOL    HW223928   3.151   2.702   6.232
 7677SOL     OW23929   0.542   4.252   1.224
 7677SOL    HW123930   0.483   4.256   1.143
 7677SOL    HW223931   0.565   4.157   1.244
 7678SOL     OW23932   2.459   2.570   5.404
 7678SOL    HW123933   2.466   2.535   5.310
 7678SOL    HW223934   2.498   2.662   5.408
 7679SOL     OW23935   2.448   5.646   5.715
 7679SOL    HW123936   2.372   5.581   5.722
 7679SOL    HW223937   2.532   5.601   5.745
 7680SOL     OW23938   1.602   0.626   0.576
 7680SOL    HW123939   1.693   0.663   0.595
 7680SOL    HW223940   1.532   0.687   0.614
 7681SOL     OW23941   2.596   1.172   0.459
 7681SOL    HW123942   2.671   1.204   0.518
 7681SOL    HW223943   2.539   1.108   0.510
 7682SOL     OW23944   4.704   0.604   2.260
 7682SOL    HW123945   4.621   0.556   2.235
 7682SOL    HW223946   4.780   0.539   2.264
 7683SOL     OW23947   0.145   1.507   4.581
 7683SOL    HW123948   0.205   1.471   4.510
 7683SOL    HW223949   0.151   1.607   4.582
 7684SOL     OW23950   4.276   1.966   1.193
 7684SOL    HW123951   4.341   1.917   1.135
 7684SOL    HW223952   4.183   1.941   1.167
 7685SOL     OW23953   3.142   1.449   6.290
 7685SOL    HW123954   3.218   1.507   6.319
 7685SOL    HW223955   3.064   1.506   6.264
 7686SOL     OW23956   6.451   0.019   3.692
 7686SOL    HW123957   6.403   6.969   3.740
 7686SOL    HW223958   6.515   0.064   3.754
 7687SOL     OW23959   5.416   5.212   4.456
 7687SOL    HW123960   5.480   5.282   4.424
 7687SOL    HW223961   5.423   5.202   4.555
 7688SOL     OW23962   0.103   5.996   5.341
 7688SOL    HW123963   0.177   6.030   5.399
 7688SOL    HW223964   0.095   5.897   5.352
 7689SOL     OW23965   5.478   6.349   2.665
 7689SOL    HW123966   5.439   6.257   2.665
 7689SOL    HW223967   5.470   6.388   2.757
 7690SOL     OW23968   5.054   5.384   0.788
 7690SOL    HW123969   5.087   5.478   0.800
 7690SOL    HW223970   5.055   5.336   0.876
 7691SOL     OW23971   5.792   3.906   2.690
 7691SOL    HW123972   5.744   3.933   2.607
 7691SOL    HW223973   5.731   3.851   2.747
 7692SOL     OW23974   0.735   5.841   1.892
 7692SOL    HW123975   0.808   5.777   1.914
 7692SOL    HW223976   0.772   5.934   1.887
 7693SOL     OW23977   2.819   0.446   0.948
 7693SOL    HW123978   2.876   0.491   0.879
 7693SOL    HW223979   2.751   0.389   0.902
 7694SOL     OW23980   5.992   2.700   3.760
 7694SOL    HW123981   5.938   2.765   3.706
 7694SOL    HW223982   6.001   2.614   3.709
 7695SOL     OW23983   5.645   1.213   1.693
 7695SOL    HW123984   5.555   1.185   1.725
 7695SOL    HW223985   5.636   1.293   1.634
 7696SOL     OW23986   6.591   2.107   6.017
 7696SOL    HW123987   6.558   2.034   6.077
 7696SOL    HW223988   6.672   2.075   5.967
 7697SOL     OW23989   2.555   0.798   2.906
 7697SOL    HW123990   2.478   0.737   2.887
 7697SOL    HW223991   2.619   0.752   2.967
 7698SOL     OW23992   5.854   1.118   4.518
 7698SOL    HW123993   5.765   1.109   4.564
 7698SOL    HW223994   5.925   1.075   4.574
 7699SOL     OW23995   2.402   5.501   6.140
 7699SOL    HW123996   2.370   5.415   6.179
 7699SOL    HW223997   2.482   5.484   6.083
 7700SOL     OW23998   4.402   5.801   3.669
 7700SOL    HW123999   4.440   5.754   3.589
 7700SOL    HW224000   4.468   5.799   3.744
 7701SOL     OW24001   0.349   2.491   6.771
 7701SOL    HW124002   0.303   2.573   6.805
 7701SOL    HW224003   0.447   2.509   6.761
 7702SOL     OW24004   4.682   5.383   5.264
 7702SOL    HW124005   4.672   5.455   5.332
 7702SOL    HW224006   4.591   5.350   5.238
 7703SOL     OW24007   6.498   6.139   6.528
 7703SOL    HW124008   6.538   6.107   6.613
 7703SOL    HW224009   6.563   6.125   6.453
 7704SOL     OW24010   5.753   0.970   3.366
 7704SOL    HW124011   5.736   1.060   3.406
 7704SOL    HW224012   5.706   0.963   3.278
 7705SOL     OW24013   2.363   6.159   0.971
 7705SOL    HW124014   2.264   6.172   0.983
 7705SOL    HW224015   2.380   6.120   0.881
 7706SOL     OW24016   3.686   3.129   4.362
 7706SOL    HW124017   3.665   3.103   4.456
 7706SOL    HW224018   3.611   3.103   4.302
 7707SOL     OW24019   0.567   4.606   6.415
 7707SOL    HW124020   0.561   4.543   6.337
 7707SOL    HW224021   0.612   4.561   6.492
 7708SOL     OW24022   1.519   5.909   4.701
 7708SOL    HW124023   1.506   6.005   4.673
 7708SOL    HW224024   1.617   5.889   4.704
 7709SOL     OW24025   0.083   4.705   1.854
 7709SOL    HW124026   0.114   4.627   1.907
 7709SOL    HW224027   0.141   4.784   1.872
 7710SOL     OW24028   1.675   2.433   0.623
 7710SOL    HW124029   1.595   2.486   0.651
 7710SOL    HW224030   1.658   2.392   0.534
 7711SOL     OW24031   5.638   5.927   5.626
 7711SOL    HW124032   5.679   5.846   5.584
 7711SOL    HW224033   5.539   5.919   5.624
 7712SOL     OW24034   6.328   5.457   0.361
 7712SOL    HW124035   6.304   5.504   0.276
 7712SOL    HW224036   6.339   5.359   0.343
 7713SOL     OW24037   1.788   3.379   0.385
 7713SOL    HW124038   1.878   3.398   0.346
 7713SOL    HW224039   1.798   3.351   0.480
 7714SOL     OW24040   0.133   5.552   5.193
 7714SOL    HW124041   0.083   5.617   5.251
 7714SOL    HW224042   0.080   5.533   5.111
 7715SOL     OW24043   3.150   3.182   6.604
 7715SOL    HW124044   3.088   3.170   6.526
 7715SOL    HW224045   3.098   3.176   6.689
 7716SOL     OW24046   6.552   4.745   0.614
 7716SOL    HW124047   6.576   4.697   0.529
 7716SOL    HW224048   6.461   4.716   0.643
 7717SOL     OW24049   1.095   1.992   5.582
 7717SOL    HW124050   1.038   2.020   5.505
 7717SOL    HW224051   1.185   2.034   5.574
 7718SOL     OW24052   6.500   3.696   3.079
 7718SOL    HW124053   6.541   3.742   3.158
 7718SOL    HW224054   6.552   3.614   3.057
 7719SOL     OW24055   1.363   3.956   4.530
 7719SOL    HW124056   1.404   3.881   4.480
 7719SOL    HW224057   1.265   3.938   4.543
 7720SOL     OW24058   6.702   2.712   6.168
 7720SOL    HW124059   6.664   2.741   6.081
 7720SOL    HW224060   6.767   2.637   6.154
 7721SOL     OW24061   0.775   6.191   2.099
 7721SOL    HW124062   0.679   6.165   2.099
 7721SOL    HW224063   0.792   6.255   2.173
 7722SOL     OW24064   1.865   4.663   3.504
 7722SOL    HW124065   1.802   4.701   3.436
 7722SOL    HW224066   1.818   4.592   3.557
 7723SOL     OW24067   3.804   3.652   6.815
 7723SOL    HW124068   3.831   3.634   6.910
 7723SOL    HW224069   3.885   3.668   6.760
 7724SOL     OW24070   3.339   4.550   0.486
 7724SOL    HW124071   3.270   4.514   0.424
 7724SOL    HW224072   3.360   4.645   0.462
 7725SOL     OW24073   6.218   1.904   3.113
 7725SOL    HW124074   6.242   1.807   3.115
 7725SOL    HW224075   6.298   1.959   3.138
 7726SOL     OW24076   1.658   3.783   6.578
 7726SOL    HW124077   1.645   3.877   6.544
 7726SOL    HW224078   1.681   3.786   6.675
 7727SOL     OW24079   6.082   2.722   2.119
 7727SOL    HW124080   6.012   2.713   2.048
 7727SOL    HW224081   6.040   2.761   2.201
 7728SOL     OW24082   2.238   2.974   4.850
 7728SOL    HW124083   2.298   2.991   4.928
 7728SOL    HW224084   2.262   2.887   4.808
 7729SOL     OW24085   5.820   0.998   2.139
 7729SOL    HW124086   5.807   0.973   2.235
 7729SOL    HW224087   5.838   0.916   2.085
 7730SOL     OW24088   7.022   4.804   6.585
 7730SOL    HW124089   6.948   4.737   6.575
 7730SOL    HW224090   0.077   4.760   6.628
 7731SOL     OW24091   6.434   6.972   0.029
 7731SOL    HW124092   6.360   6.935   0.085
 7731SOL    HW224093   6.497   6.898   0.004
 7732SOL     OW24094   4.201   0.430   0.448
 7732SOL    HW124095   4.241   0.418   0.357
 7732SOL    HW224096   4.170   0.524   0.459
 7733SOL     OW24097   6.140   5.311   2.077
 7733SOL    HW124098   6.109   5.297   2.171
 7733SOL    HW224099   6.239   5.295   2.072
 7734SOL     OW24100   1.758   4.909   4.484
 7734SOL    HW124101   1.699   4.829   4.472
 7734SOL    HW224102   1.703   4.992   4.479
 7735SOL     OW24103   6.036   5.767   6.460
 7735SOL    HW124104   6.021   5.693   6.395
 7735SOL    HW224105   6.130   5.802   6.450
 7736SOL     OW24106   2.433   3.299   0.079
 7736SOL    HW124107   2.448   3.201   0.074
 7736SOL    HW224108   2.395   3.332   7.016
 7737SOL     OW24109   3.498   6.943   2.006
 7737SOL    HW124110   3.426   7.008   1.982
 7737SOL    HW224111   3.490   6.919   2.103
 7738SOL     OW24112   2.730   5.490   0.324
 7738SOL    HW124113   2.788   5.411   0.300
 7738SOL    HW224114   2.644   5.485   0.273
 7739SOL     OW24115   1.840   1.930   1.803
 7739SOL    HW124116   1.774   1.921   1.728
 7739SOL    HW224117   1.818   2.010   1.859
 7740SOL     OW24118   1.812   1.268   3.008
 7740SOL    HW124119   1.812   1.209   2.928
 7740SOL    HW224120   1.719   1.299   3.027
 7741SOL     OW24121   0.472   4.114   4.979
 7741SOL    HW124122   0.497   4.147   4.888
 7741SOL    HW224123   0.408   4.177   5.022
 7742SOL     OW24124   4.303   1.716   4.031
 7742SOL    HW124125   4.342   1.782   3.966
 7742SOL    HW224126   4.335   1.738   4.123
 7743SOL     OW24127   4.440   1.515   6.576
 7743SOL    HW124128   4.505   1.544   6.645
 7743SOL    HW224129   4.372   1.454   6.618
 7744SOL     OW24130   1.387   6.482   3.559
 7744SOL    HW124131   1.400   6.518   3.651
 7744SOL    HW224132   1.357   6.387   3.564
 7745SOL     OW24133   2.987   6.988   0.746
 7745SOL    HW124134   2.945   6.937   0.822
 7745SOL    HW224135   3.011   0.056   0.777
 7746SOL     OW24136   0.976   0.111   0.414
 7746SOL    HW124137   0.934   0.188   0.462
 7746SOL    HW224138   0.909   0.037   0.405
 7747SOL     OW24139   6.778   5.937   1.365
 7747SOL    HW124140   6.817   6.019   1.324
 7747SOL    HW224141   6.683   5.956   1.393
 7748SOL     OW24142   3.508   4.043   3.715
 7748SOL    HW124143   3.490   4.110   3.644
 7748SOL    HW224144   3.597   4.062   3.757
 7749SOL     OW24145   3.529   3.656   3.772
 7749SOL    HW124146   3.459   3.725   3.789
 7749SOL    HW224147   3.519   3.621   3.679
 7750SOL     OW24148   6.459   5.814   6.810
 7750SOL    HW124149   6.398   5.889   6.832
 7750SOL    HW224150   6.492   5.824   6.716
 7751SOL     OW24151   0.640   2.255   3.006
 7751SOL    HW124152   0.720   2.210   2.966
 7751SOL    HW224153   0.562   2.192   3.007
 7752SOL     OW24154   5.298   5.891   5.079
 7752SOL    HW124155   5.393   5.912   5.101
 7752SOL    HW224156   5.261   5.827   5.146
 7753SOL     OW24157   2.540   0.681   3.963
 7753SOL    HW124158   2.474   0.633   3.904
 7753SOL    HW224159   2.505   0.772   3.984
 7754SOL     OW24160   5.492   6.442   1.743
 7754SOL    HW124161   5.453   6.444   1.835
 7754SOL    HW224162   5.565   6.374   1.739
 7755SOL     OW24163   1.436   1.850   5.864
 7755SOL    HW124164   1.372   1.920   5.832
 7755SOL    HW224165   1.525   1.864   5.820
 7756SOL     OW24166   3.261   4.911   2.587
 7756SOL    HW124167   3.360   4.912   2.597
 7756SOL    HW224168   3.237   4.888   2.493
 7757SOL     OW24169   4.992   5.917   4.084
 7757SOL    HW124170   4.899   5.941   4.112
 7757SOL    HW224171   4.989   5.839   4.022
 7758SOL     OW24172   1.811   2.027   6.645
 7758SOL    HW124173   1.802   2.038   6.546
 7758SOL    HW224174   1.881   1.958   6.664
 7759SOL     OW24175   1.112   1.806   4.831
 7759SOL    HW124176   1.015   1.810   4.806
 7759SOL    HW224177   1.121   1.780   4.927
 7760SOL     OW24178   5.713   3.024   2.603
 7760SOL    HW124179   5.786   3.048   2.668
 7760SOL    HW224180   5.650   3.101   2.594
 7761SOL     OW24181   1.398   0.010   6.428
 7761SOL    HW124182   1.442   0.094   6.458
 7761SOL    HW224183   1.299   0.023   6.425
 7762SOL     OW24184   4.424   0.783   4.300
 7762SOL    HW124185   4.451   0.863   4.246
 7762SOL    HW224186   4.370   0.721   4.243
 7763SOL     OW24187   0.949   1.308   1.160
 7763SOL    HW124188   1.000   1.388   1.194
 7763SOL    HW224189   1.004   1.260   1.092
 7764SOL     OW24190   3.557   2.956   3.215
 7764SOL    HW124191   3.472   2.905   3.205
 7764SOL    HW224192   3.585   2.956   3.311
 7765SOL     OW24193   5.978   2.744   4.245
 7765SOL    HW124194   6.023   2.674   4.189
 7765SOL    HW224195   5.885   2.759   4.210
 7766SOL     OW24196   5.348   1.945   0.337
 7766SOL    HW124197   5.261   1.934   0.385
 7766SOL    HW224198   5.332   1.982   0.245
 7767SOL     OW24199   3.819   6.285   3.622
 7767SOL    HW124200   3.764   6.367   3.637
 7767SOL    HW224201   3.795   6.245   3.533
 7768SOL     OW24202   4.449   5.084   2.355
 7768SOL    HW124203   4.406   5.092   2.265
 7768SOL    HW224204   4.385   5.038   2.418
 7769SOL     OW24205   4.874   2.268   2.640
 7769SOL    HW124206   4.811   2.316   2.578
 7769SOL    HW224207   4.840   2.175   2.657
 7770SOL     OW24208   0.997   3.722   2.698
 7770SOL    HW124209   0.927   3.675   2.751
 7770SOL    HW224210   0.966   3.735   2.604
 7771SOL     OW24211   2.712   2.369   5.031
 7771SOL    HW124212   2.687   2.433   4.958
 7771SOL    HW224213   2.757   2.420   5.105
 7772SOL     OW24214   5.066   1.045   3.429
 7772SOL    HW124215   5.061   1.068   3.332
 7772SOL    HW224216   5.096   0.950   3.439
 7773SOL     OW24217   3.418   5.552   5.176
 7773SOL    HW124218   3.439   5.554   5.274
 7773SOL    HW224219   3.468   5.477   5.133
 7774SOL     OW24220   6.096   2.662   6.569
 7774SOL    HW124221   6.020   2.722   6.593
 7774SOL    HW224222   6.102   2.656   6.469
 7775SOL     OW24223   4.184   6.811   3.141
 7775SOL    HW124224   4.086   6.795   3.134
 7775SOL    HW224225   4.210   6.890   3.087
 7776SOL     OW24226   3.356   4.277   6.702
 7776SOL    HW124227   3.337   4.357   6.646
 7776SOL    HW224228   3.289   4.269   6.775
 7777SOL     OW24229   1.578   0.835   5.187
 7777SOL    HW124230   1.501   0.782   5.152
 7777SOL    HW224231   1.661   0.810   5.137
 7778SOL     OW24232   4.879   6.059   0.316
 7778SOL    HW124233   4.808   6.045   0.384
 7778SOL    HW224234   4.858   6.004   0.234
 7779SOL     OW24235   2.970   3.234   1.023
 7779SOL    HW124236   2.953   3.198   1.114
 7779SOL    HW224237   2.962   3.161   0.955
 7780SOL     OW24238   1.372   5.218   5.192
 7780SOL    HW124239   1.365   5.195   5.095
 7780SOL    HW224240   1.360   5.316   5.205
 7781SOL     OW24241   1.387   4.907   0.057
 7781SOL    HW124242   1.416   4.816   0.086
 7781SOL    HW224243   1.376   4.908   6.981
 7782SOL     OW24244   1.390   4.434   5.860
 7782SOL    HW124245   1.326   4.392   5.795
 7782SOL    HW224246   1.415   4.525   5.828
 7783SOL     OW24247   2.025   5.928   5.294
 7783SOL    HW124248   1.987   5.957   5.206
 7783SOL    HW224249   2.036   5.829   5.295
 7784SOL     OW24250   3.054   2.794   0.604
 7784SOL    HW124251   3.074   2.891   0.616
 7784SOL    HW224252   3.137   2.746   0.576
 7785SOL     OW24253   1.875   6.620   4.038
 7785SOL    HW124254   1.970   6.651   4.038
 7785SOL    HW224255   1.845   6.605   3.944
 7786SOL     OW24256   2.936   5.793   6.832
 7786SOL    HW124257   2.991   5.859   6.780
 7786SOL    HW224258   2.974   5.783   6.924
 7787SOL     OW24259   2.557   2.909   6.017
 7787SOL    HW124260   2.603   2.992   6.051
 7787SOL    HW224261   2.467   2.901   6.058
 7788SOL     OW24262   1.966   6.547   2.274
 7788SOL    HW124263   2.044   6.610   2.276
 7788SOL    HW224264   1.934   6.536   2.180
 7789SOL     OW24265   3.080   6.976   0.226
 7789SOL    HW124266   3.047   6.887   0.193
 7789SOL    HW224267   3.081   6.976   0.326
 7790SOL     OW24268   5.843   5.129   2.691
 7790SOL    HW124269   5.920   5.144   2.754
 7790SOL    HW224270   5.835   5.207   2.630
 7791SOL     OW24271   2.531   6.206   3.756
 7791SOL    HW124272   2.629   6.200   3.739
 7791SOL    HW224273   2.515   6.265   3.835
 7792SOL     OW24274   2.057   5.283   5.872
 7792SOL    HW124275   2.119   5.247   5.942
 7792SOL    HW224276   1.985   5.338   5.915
 7793SOL     OW24277   2.914   0.510   6.936
 7793SOL    HW124278   2.848   0.584   6.933
 7793SOL    HW224279   2.867   0.424   6.954
 7794SOL     OW24280   5.872   5.262   3.671
 7794SOL    HW124281   5.864   5.205   3.590
 7794SOL    HW224282   5.911   5.351   3.646
 7795SOL     OW24283   2.114   3.687   5.554
 7795SOL    HW124284   2.033   3.639   5.588
 7795SOL    HW224285   2.105   3.702   5.456
 7796SOL     OW24286   3.333   3.811   3.264
 7796SOL    HW124287   3.247   3.862   3.265
 7796SOL    HW224288   3.320   3.724   3.217
 7797SOL     OW24289   0.869   6.724   3.219
 7797SOL    HW124290   0.836   6.664   3.292
 7797SOL    HW224291   0.856   6.820   3.247
 7798SOL     OW24292   1.578   4.873   6.244
 7798SOL    HW124293   1.574   4.830   6.335
 7798SOL    HW224294   1.499   4.846   6.191
 7799SOL     OW24295   0.546   6.373   1.979
 7799SOL    HW124296   0.554   6.274   1.991
 7799SOL    HW224297   0.451   6.395   1.955
 7800SOL     OW24298   1.441   5.363   0.786
 7800SOL    HW124299   1.488   5.440   0.830
 7800SOL    HW224300   1.503   5.286   0.779
 7801SOL     OW24301   1.598   2.245   1.837
 7801SOL    HW124302   1.623   2.222   1.931
 7801SOL    HW224303   1.680   2.274   1.787
 7802SOL     OW24304   5.885   1.954   1.242
 7802SOL    HW124305   5.841   2.032   1.286
 7802SOL    HW224306   5.974   1.937   1.285
 7803SOL     OW24307   4.147   2.386   6.309
 7803SOL    HW124308   4.203   2.318   6.357
 7803SOL    HW224309   4.136   2.359   6.213
 7804SOL     OW24310   5.216   1.151   4.482
 7804SOL    HW124311   5.208   1.116   4.389
 7804SOL    HW224312   5.137   1.208   4.504
 7805SOL     OW24313   5.412   1.568   1.112
 7805SOL    HW124314   5.407   1.530   1.205
 7805SOL    HW224315   5.507   1.592   1.091
 7806SOL     OW24316   5.662   2.312   5.930
 7806SOL    HW124317   5.740   2.330   5.990
 7806SOL    HW224318   5.665   2.372   5.851
 7807SOL     OW24319   0.545   4.230   5.396
 7807SOL    HW124320   0.453   4.246   5.431
 7807SOL    HW224321   0.601   4.312   5.412
 7808SOL     OW24322   6.734   2.704   4.527
 7808SOL    HW124323   6.774   2.728   4.616
 7808SOL    HW224324   6.728   2.786   4.470
 7809SOL     OW24325   2.407   5.806   4.663
 7809SOL    HW124326   2.456   5.720   4.650
 7809SOL    HW224327   2.437   5.849   4.747
 7810SOL     OW24328   3.491   0.035   4.860
 7810SOL    HW124329   3.473   7.009   4.775
 7810SOL    HW224330   3.585   0.068   4.859
 7811SOL     OW24331   0.461   4.826   3.608
 7811SOL    HW124332   0.482   4.845   3.513
 7811SOL    HW224333   0.507   4.893   3.667
 7812SOL     OW24334   1.491   2.049   3.243
 7812SOL    HW124335   1.512   2.093   3.156
 7812SOL    HW224336   1.528   1.956   3.243
 7813SOL     OW24337   3.478   2.826   6.788
 7813SOL    HW124338   3.573   2.854   6.797
 7813SOL    HW224339   3.461   2.745   6.844
 7814SOL     OW24340   6.604   3.108   3.790
 7814SOL    HW124341   6.642   3.093   3.699
 7814SOL    HW224342   6.678   3.119   3.856
 7815SOL     OW24343   5.147   0.153   6.382
 7815SOL    HW124344   5.170   0.152   6.479
 7815SOL    HW224345   5.091   0.072   6.360
 7816SOL     OW24346   1.594   2.288   6.469
 7816SOL    HW124347   1.574   2.194   6.441
 7816SOL    HW224348   1.683   2.292   6.514
 7817SOL     OW24349   5.546   4.300   3.478
 7817SOL    HW124350   5.468   4.297   3.416
 7817SOL    HW224351   5.623   4.345   3.433
 7818SOL     OW24352   4.489   1.033   3.027
 7818SOL    HW124353   4.526   0.958   3.082
 7818SOL    HW224354   4.451   1.103   3.088
 7819SOL     OW24355   6.478   2.917   2.119
 7819SOL    HW124356   6.542   2.936   2.044
 7819SOL    HW224357   6.387   2.950   2.093
 7820SOL     OW24358   1.098   2.293   4.383
 7820SOL    HW124359   1.066   2.246   4.300
 7820SOL    HW224360   1.098   2.229   4.460
 7821SOL     OW24361   5.242   5.966   1.517
 7821SOL    HW124362   5.166   6.028   1.500
 7821SOL    HW224363   5.228   5.920   1.605
 7822SOL     OW24364   0.552   0.950   5.723
 7822SOL    HW124365   0.517   0.861   5.751
 7822SOL    HW224366   0.576   1.004   5.804
 7823SOL     OW24367   2.610   3.992   5.360
 7823SOL    HW124368   2.539   4.003   5.430
 7823SOL    HW224369   2.566   3.981   5.270
 7824SOL     OW24370   6.068   1.261   4.414
 7824SOL    HW124371   5.985   1.214   4.445
 7824SOL    HW224372   6.146   1.231   4.470
 7825SOL     OW24373   1.072   2.905   1.008
 7825SOL    HW124374   1.041   2.932   0.917
 7825SOL    HW224375   1.073   2.805   1.015
 7826SOL     OW24376   6.306   1.248   1.236
 7826SOL    HW124377   6.313   1.237   1.137
 7826SOL    HW224378   6.392   1.287   1.272
 7827SOL     OW24379   1.882   5.791   1.315
 7827SOL    HW124380   1.835   5.756   1.396
 7827SOL    HW224381   1.902   5.716   1.252
 7828SOL     OW24382   0.348   4.828   0.069
 7828SOL    HW124383   0.298   4.741   0.070
 7828SOL    HW224384   0.357   4.863   0.162
 7829SOL     OW24385   2.060   3.527   1.486
 7829SOL    HW124386   2.001   3.570   1.418
 7829SOL    HW224387   2.007   3.460   1.538
 7830SOL     OW24388   2.699   4.790   5.198
 7830SOL    HW124389   2.741   4.760   5.113
 7830SOL    HW224390   2.763   4.777   5.274
 7831SOL     OW24391   1.676   6.781   1.656
 7831SOL    HW124392   1.732   6.716   1.605
 7831SOL    HW224393   1.626   6.732   1.728
 7832SOL     OW24394   5.800   0.894   3.995
 7832SOL    HW124395   5.736   0.906   3.918
 7832SOL    HW224396   5.755   0.841   4.067
 7833SOL     OW24397   0.472   0.674   5.484
 7833SOL    HW124398   0.539   0.663   5.557
 7833SOL    HW224399   0.501   0.749   5.424
 7834SOL     OW24400   6.687   1.283   3.621
 7834SOL    HW124401   6.648   1.273   3.712
 7834SOL    HW224402   6.749   1.362   3.619
 7835SOL     OW24403   3.506   2.084   5.515
 7835SOL    HW124404   3.411   2.074   5.542
 7835SOL    HW224405   3.514   2.071   5.416
 7836SOL     OW24406   3.471   3.118   4.787
 7836SOL    HW124407   3.471   3.199   4.729
 7836SOL    HW224408   3.377   3.092   4.809
 7837SOL     OW24409   4.514   5.177   6.852
 7837SOL    HW124410   4.503   5.079   6.867
 7837SOL    HW224411   4.554   5.193   6.763
 7838SOL     OW24412   4.324   6.569   0.864
 7838SOL    HW124413   4.304   6.651   0.811
 7838SOL    HW224414   4.361   6.596   0.954
 7839SOL     OW24415   5.643   4.510   4.867
 7839SOL    HW124416   5.691   4.450   4.931
 7839SOL    HW224417   5.562   4.549   4.911
 7840SOL     OW24418   6.623   3.244   4.127
 7840SOL    HW124419   6.539   3.192   4.143
 7840SOL    HW224420   6.685   3.191   4.070
 7841SOL     OW24421   3.599   1.665   6.309
 7841SOL    HW124422   3.562   1.573   6.294
 7841SOL    HW224423   3.567   1.699   6.397
 7842SOL     OW24424   2.698   2.258   2.776
 7842SOL    HW124425   2.717   2.282   2.681
 7842SOL    HW224426   2.769   2.195   2.809
 7843SOL     OW24427   0.767   6.140   3.279
 7843SOL    HW124428   0.732   6.046   3.277
 7843SOL    HW224429   0.837   6.151   3.209
 7844SOL     OW24430   2.998   0.932   3.159
 7844SOL    HW124431   3.008   0.881   3.073
 7844SOL    HW224432   2.974   1.027   3.138
 7845SOL     OW24433   5.327   1.999   2.615
 7845SOL    HW124434   5.333   1.971   2.519
 7845SOL    HW224435   5.252   2.065   2.625
 7846SOL     OW24436   0.457   2.310   0.891
 7846SOL    HW124437   0.391   2.356   0.832
 7846SOL    HW224438   0.480   2.220   0.852
 7847SOL     OW24439   6.350   1.256   3.238
 7847SOL    HW124440   6.421   1.217   3.178
 7847SOL    HW224441   6.304   1.331   3.190
 7848SOL     OW24442   3.516   5.028   0.752
 7848SOL    HW124443   3.548   5.122   0.739
 7848SOL    HW224444   3.524   5.002   0.848
 7849SOL     OW24445   6.417   4.389   4.628
 7849SOL    HW124446   6.466   4.394   4.715
 7849SOL    HW224447   6.328   4.345   4.642
 7850SOL     OW24448   0.490   1.433   4.194
 7850SOL    HW124449   0.583   1.407   4.219
 7850SOL    HW224450   0.437   1.351   4.173
 7851SOL     OW24451   6.697   1.945   1.335
 7851SOL    HW124452   6.634   1.897   1.397
 7851SOL    HW224453   6.676   2.043   1.336
 7852SOL     OW24454   3.511   1.810   6.529
 7852SOL    HW124455   3.462   1.863   6.460
 7852SOL    HW224456   3.450   1.791   6.606
 7853SOL     OW24457   4.919   2.592   1.384
 7853SOL    HW124458   4.887   2.596   1.479
 7853SOL    HW224459   5.015   2.616   1.380
 7854SOL     OW24460   3.311   3.381   6.135
 7854SOL    HW124461   3.381   3.310   6.147
 7854SOL    HW224462   3.311   3.441   6.216
 7855SOL     OW24463   4.431   6.670   4.617
 7855SOL    HW124464   4.456   6.747   4.675
 7855SOL    HW224465   4.474   6.586   4.652
 7856SOL     OW24466   6.366   5.595   5.149
 7856SOL    HW124467   6.431   5.521   5.132
 7856SOL    HW224468   6.275   5.567   5.117
 7857SOL     OW24469   4.567   2.798   0.267
 7857SOL    HW124470   4.618   2.767   0.187
 7857SOL    HW224471   4.552   2.897   0.260
 7858SOL     OW24472   6.444   6.343   4.280
 7858SOL    HW124473   6.385   6.336   4.199
 7858SOL    HW224474   6.410   6.282   4.351
 7859SOL     OW24475   4.287   3.142   6.383
 7859SOL    HW124476   4.371   3.190   6.409
 7859SOL    HW224477   4.264   3.074   6.453
 7860SOL     OW24478   4.491   0.969   4.117
 7860SOL    HW124479   4.461   1.000   4.027
 7860SOL    HW224480   4.444   1.023   4.188
 7861SOL     OW24481   3.417   4.660   1.611
 7861SOL    HW124482   3.470   4.625   1.688
 7861SOL    HW224483   3.405   4.587   1.544
 7862SOL     OW24484   2.079   5.267   1.841
 7862SOL    HW124485   2.009   5.196   1.854
 7862SOL    HW224486   2.035   5.351   1.811
 7863SOL     OW24487   0.113   4.075   4.174
 7863SOL    HW124488   0.041   4.044   4.112
 7863SOL    HW224489   0.104   4.174   4.189
 7864SOL     OW24490   0.648   5.125   5.466
 7864SOL    HW124491   0.688   5.187   5.533
 7864SOL    HW224492   0.549   5.134   5.465
 7865SOL     OW24493   6.628   6.020   3.952
 7865SOL    HW124494   6.578   6.102   3.923
 7865SOL    HW224495   6.594   5.990   4.041
 7866SOL     OW24496   0.757   0.828   5.574
 7866SOL    HW124497   0.841   0.867   5.536
 7866SOL    HW224498   0.694   0.902   5.595
 7867SOL     OW24499   6.161   6.013   3.438
 7867SOL    HW124500   6.194   6.107   3.447
 7867SOL    HW224501   6.135   5.996   3.343
 7868SOL     OW24502   4.419   6.124   1.578
 7868SOL    HW124503   4.410   6.203   1.639
 7868SOL    HW224504   4.474   6.054   1.623
 7869SOL     OW24505   5.244   4.301   6.590
 7869SOL    HW124506   5.264   4.277   6.685
 7869SOL    HW224507   5.317   4.359   6.555
 7870SOL     OW24508   5.367   6.405   3.958
 7870SOL    HW124509   5.308   6.386   3.879
 7870SOL    HW224510   5.363   6.502   3.980
 7871SOL     OW24511   4.523   2.012   1.655
 7871SOL    HW124512   4.440   1.962   1.631
 7871SOL    HW224513   4.600   1.975   1.603
 7872SOL     OW24514   2.152   3.522   3.118
 7872SOL    HW124515   2.192   3.443   3.073
 7872SOL    HW224516   2.154   3.508   3.217
 7873SOL     OW24517   5.824   6.551   6.788
 7873SOL    HW124518   5.890   6.493   6.834
 7873SOL    HW224519   5.772   6.602   6.857
 7874SOL     OW24520   4.821   2.405   0.699
 7874SOL    HW124521   4.728   2.391   0.731
 7874SOL    HW224522   4.838   2.348   0.619
 7875SOL     OW24523   4.477   2.477   6.447
 7875SOL    HW124524   4.388   2.433   6.459
 7875SOL    HW224525   4.475   2.532   6.363
 7876SOL     OW24526   1.190   6.589   3.359
 7876SOL    HW124527   1.263   6.574   3.426
 7876SOL    HW224528   1.178   6.687   3.345
 7877SOL     OW24529   0.681   1.548   2.753
 7877SOL    HW124530   0.589   1.538   2.714
 7877SOL    HW224531   0.747   1.561   2.680
 7878SOL     OW24532   4.855   4.496   4.820
 7878SOL    HW124533   4.757   4.492   4.800
 7878SOL    HW224534   4.900   4.414   4.784
 7879SOL     OW24535   3.807   5.238   3.228
 7879SOL    HW124536   3.712   5.245   3.198
 7879SOL    HW224537   3.860   5.189   3.158
 7880SOL     OW24538   1.839   4.115   2.030
 7880SOL    HW124539   1.884   4.036   1.988
 7880SOL    HW224540   1.853   4.196   1.972
 7881SOL     OW24541   5.818   4.617   5.233
 7881SOL    HW124542   5.733   4.572   5.207
 7881SOL    HW224543   5.820   4.709   5.195
 7882SOL     OW24544   1.617   3.759   1.931
 7882SOL    HW124545   1.599   3.716   2.019
 7882SOL    HW224546   1.695   3.714   1.888
 7883SOL     OW24547   0.923   0.395   0.098
 7883SOL    HW124548   0.830   0.389   0.063
 7883SOL    HW224549   0.959   0.303   0.114
 7884SOL     OW24550   1.872   4.182   4.698
 7884SOL    HW124551   1.852   4.251   4.628
 7884SOL    HW224552   1.968   4.192   4.726
 7885SOL     OW24553   6.647   5.414   1.142
 7885SOL    HW124554   6.691   5.481   1.083
 7885SOL    HW224555   6.622   5.333   1.089
 7886SOL     OW24556   3.866   5.691   0.299
 7886SOL    HW124557   3.775   5.695   0.340
 7886SOL    HW224558   3.933   5.664   0.368
 7887SOL     OW24559   3.139   2.474   5.898
 7887SOL    HW124560   3.114   2.377   5.897
 7887SOL    HW224561   3.229   2.485   5.940
 7888SOL     OW24562   6.654   0.300   5.570
 7888SOL    HW124563   6.578   0.353   5.533
 7888SOL    HW224564   6.729   0.361   5.594
 7889SOL     OW24565   1.694   3.676   2.650
 7889SOL    HW124566   1.719   3.581   2.628
 7889SOL    HW224567   1.677   3.726   2.565
 7890SOL     OW24568   1.856   3.241   2.788
 7890SOL    HW124569   1.800   3.276   2.863
 7890SOL    HW224570   1.804   3.249   2.703
 7891SOL     OW24571   1.700   2.947   3.773
 7891SOL    HW124572   1.671   2.908   3.685
 7891SOL    HW224573   1.644   2.909   3.846
 7892SOL     OW24574   2.465   1.698   3.858
 7892SOL    HW124575   2.405   1.674   3.934
 7892SOL    HW224576   2.554   1.653   3.869
 7893SOL     OW24577   6.871   6.594   2.796
 7893SOL    HW124578   6.892   6.668   2.732
 7893SOL    HW224579   6.788   6.547   2.766
 7894SOL     OW24580   3.066   0.596   1.270
 7894SOL    HW124581   3.125   0.529   1.314
 7894SOL    HW224582   3.085   0.687   1.307
 7895SOL     OW24583   6.491   1.042   5.816
 7895SOL    HW124584   6.395   1.017   5.806
 7895SOL    HW224585   6.523   1.019   5.907
 7896SOL     OW24586   4.824   3.668   6.776
 7896SOL    HW124587   4.897   3.718   6.821
 7896SOL    HW224588   4.839   3.570   6.788
 7897SOL     OW24589   2.751   4.211   7.014
 7897SOL    HW124590   2.778   4.303   6.988
 7897SOL    HW224591   2.722   4.209   0.086
 7898SOL     OW24592   5.220   1.717   3.834
 7898SOL    HW124593   5.216   1.812   3.803
 7898SOL    HW224594   5.185   1.657   3.763
 7899SOL     OW24595   6.161   1.015   1.445
 7899SOL    HW124596   6.222   1.058   1.379
 7899SOL    HW224597   6.093   0.959   1.397
 7900SOL     OW24598   1.637   6.018   1.471
 7900SOL    HW124599   1.669   5.925   1.455
 7900SOL    HW224600   1.561   6.016   1.536
 7901SOL     OW24601   4.924   1.153   6.202
 7901SOL    HW124602   4.899   1.215   6.276
 7901SOL    HW224603   5.023   1.143   6.199
 7902SOL     OW24604   5.557   5.566   1.721
 7902SOL    HW124605   5.610   5.570   1.806
 7902SOL    HW224606   5.597   5.629   1.654
 7903SOL     OW24607   5.669   1.556   0.464
 7903SOL    HW124608   5.734   1.576   0.390
 7903SOL    HW224609   5.615   1.637   0.485
 7904SOL     OW24610   5.606   6.883   3.289
 7904SOL    HW124611   5.517   6.919   3.316
 7904SOL    HW224612   5.612   6.881   3.189
 7905SOL     OW24613   4.438   2.591   0.608
 7905SOL    HW124614   4.499   2.524   0.651
 7905SOL    HW224615   4.425   2.668   0.671
 7906SOL     OW24616   6.974   5.257   0.294
 7906SOL    HW124617   6.949   5.352   0.313
 7906SOL    HW224618   6.966   5.239   0.196
 7907SOL     OW24619   5.864   1.961   3.592
 7907SOL    HW124620   5.920   1.944   3.511
 7907SOL    HW224621   5.923   1.967   3.672
 7908SOL     OW24622   0.471   1.616   4.841
 7908SOL    HW124623   0.398   1.678   4.869
 7908SOL    HW224624   0.431   1.532   4.805
 7909SOL     OW24625   5.279   3.556   5.111
 7909SOL    HW124626   5.282   3.622   5.035
 7909SOL    HW224627   5.215   3.588   5.181
 7910SOL     OW24628   2.927   3.108   5.707
 7910SOL    HW124629   3.020   3.089   5.674
 7910SOL    HW224630   2.881   3.170   5.643
 7911SOL     OW24631   1.320   3.002   6.383
 7911SOL    HW124632   1.343   3.098   6.396
 7911SOL    HW224633   1.221   2.993   6.365
 7912SOL     OW24634   0.147   5.074   0.290
 7912SOL    HW124635   0.088   5.146   0.326
 7912SOL    HW224636   0.228   5.116   0.247
 7913SOL     OW24637   1.523   5.302   1.197
 7913SOL    HW124638   1.464   5.246   1.139
 7913SOL    HW224639   1.617   5.296   1.164
 7914SOL     OW24640   0.079   4.740   6.150
 7914SOL    HW124641   0.169   4.751   6.109
 7914SOL    HW224642   0.051   4.644   6.144
 7915SOL     OW24643   4.875   2.952   2.406
 7915SOL    HW124644   4.896   3.042   2.367
 7915SOL    HW224645   4.822   2.899   2.340
 7916SOL     OW24646   7.020   3.967   5.723
 7916SOL    HW124647   0.040   3.880   5.745
 7916SOL    HW224648   6.969   3.959   5.637
 7917SOL     OW24649   3.335   3.491   3.530
 7917SOL    HW124650   3.330   3.495   3.630
 7917SOL    HW224651   3.388   3.569   3.497
 7918SOL     OW24652   0.303   1.741   0.131
 7918SOL    HW124653   0.222   1.716   0.184
 7918SOL    HW224654   0.368   1.665   0.131
 7919SOL     OW24655   1.154   4.853   3.101
 7919SOL    HW124656   1.077   4.804   3.061
 7919SOL    HW224657   1.228   4.788   3.121
 7920SOL     OW24658   0.557   5.240   1.364
 7920SOL    HW124659   0.520   5.164   1.311
 7920SOL    HW224660   0.588   5.312   1.301
 7921SOL     OW24661   4.444   5.892   0.767
 7921SOL    HW124662   4.374   5.962   0.779
 7921SOL    HW224663   4.534   5.933   0.779
 7922SOL     OW24664   6.545   5.774   0.321
 7922SOL    HW124665   6.513   5.864   0.288
 7922SOL    HW224666   6.520   5.704   0.254
 7923SOL     OW24667   3.125   0.788   2.211
 7923SOL    HW124668   3.069   0.710   2.240
 7923SOL    HW224669   3.069   0.850   2.156
 7924SOL     OW24670   4.166   6.253   2.888
 7924SOL    HW124671   4.200   6.281   2.798
 7924SOL    HW224672   4.164   6.331   2.950
 7925SOL     OW24673   0.558   1.891   6.256
 7925SOL    HW124674   0.558   1.823   6.329
 7925SOL    HW224675   0.575   1.982   6.295
 7926SOL     OW24676   4.914   1.075   5.216
 7926SOL    HW124677   4.985   1.092   5.285
 7926SOL    HW224678   4.874   1.161   5.187
 7927SOL     OW24679   4.112   5.522   4.754
 7927SOL    HW124680   4.048   5.475   4.694
 7927SOL    HW224681   4.200   5.474   4.753
 7928SOL     OW24682   1.542   2.724   4.359
 7928SOL    HW124683   1.606   2.799   4.340
 7928SOL    HW224684   1.448   2.758   4.352
 7929SOL     OW24685   3.815   4.056   5.432
 7929SOL    HW124686   3.845   3.978   5.486
 7929SOL    HW224687   3.716   4.054   5.422
 7930SOL     OW24688   4.589   5.758   3.871
 7930SOL    HW124689   4.655   5.833   3.883
 7930SOL    HW224690   4.637   5.674   3.846
 7931SOL     OW24691   1.306   1.725   6.389
 7931SOL    HW124692   1.269   1.778   6.465
 7931SOL    HW224693   1.373   1.780   6.339
 7932SOL     OW24694   3.306   6.297   6.748
 7932SOL    HW124695   3.363   6.215   6.757
 7932SOL    HW224696   3.326   6.342   6.661
 7933SOL     OW24697   0.227   6.377   0.060
 7933SOL    HW124698   0.266   6.341   0.145
 7933SOL    HW224699   0.162   6.311   0.023
 7934SOL     OW24700   2.327   4.605   6.914
 7934SOL    HW124701   2.364   4.696   6.935
 7934SOL    HW224702   2.367   4.572   6.829
 7935SOL     OW24703   5.617   5.798   6.963
 7935SOL    HW124704   5.586   5.731   6.895
 7935SOL    HW224705   5.694   5.759   7.015
 7936SOL     OW24706   3.862   4.943   2.810
 7936SOL    HW124707   3.764   4.940   2.831
 7936SOL    HW224708   3.910   4.994   2.881
 7937SOL     OW24709   5.848   6.850   3.827
 7937SOL    HW124710   5.899   6.876   3.745
 7937SOL    HW224711   5.909   6.804   3.891
 7938SOL     OW24712   5.902   4.896   5.394
 7938SOL    HW124713   5.943   4.807   5.415
 7938SOL    HW224714   5.883   4.902   5.296
 7939SOL     OW24715   0.726   2.403   5.609
 7939SOL    HW124716   0.802   2.468   5.618
 7939SOL    HW224717   0.639   2.452   5.619
 7940SOL     OW24718   1.956   4.185   2.697
 7940SOL    HW124719   2.011   4.190   2.614
 7940SOL    HW224720   1.863   4.155   2.674
 7941SOL     OW24721   6.934   0.100   0.920
 7941SOL    HW124722   6.966   0.009   0.892
 7941SOL    HW224723   6.839   0.093   0.952
 7942SOL     OW24724   6.489   6.032   3.014
 7942SOL    HW124725   6.475   6.077   3.102
 7942SOL    HW224726   6.530   6.097   2.950
 7943SOL     OW24727   5.694   2.325   0.316
 7943SOL    HW124728   5.658   2.350   0.406
 7943SOL    HW224729   5.651   2.382   0.246
 7944SOL     OW24730   0.278   3.157   1.393
 7944SOL    HW124731   0.230   3.227   1.340
 7944SOL    HW224732   0.376   3.164   1.376
 7945SOL     OW24733   5.411   6.427   2.352
 7945SOL    HW124734   5.431   6.337   2.390
 7945SOL    HW224735   5.411   6.495   2.426
 7946SOL     OW24736   2.449   2.274   5.772
 7946SOL    HW124737   2.473   2.363   5.809
 7946SOL    HW224738   2.397   2.285   5.688
 7947SOL     OW24739   3.918   2.883   6.349
 7947SOL    HW124740   3.896   2.790   6.320
 7947SOL    HW224741   3.960   2.932   6.273
 7948SOL     OW24742   0.550   6.209   1.043
 7948SOL    HW124743   0.532   6.282   1.110
 7948SOL    HW224744   0.469   6.153   1.033
 7949SOL     OW24745   4.423   4.533   4.067
 7949SOL    HW124746   4.505   4.476   4.075
 7949SOL    HW224747   4.378   4.540   4.156
 7950SOL     OW24748   4.961   5.690   3.907
 7950SOL    HW124749   4.898   5.639   3.848
 7950SOL    HW224750   4.956   5.655   4.000
 7951SOL     OW24751   1.514   3.575   1.260
 7951SOL    HW124752   1.607   3.541   1.274
 7951SOL    HW224753   1.480   3.542   1.171
 7952SOL     OW24754   0.848   3.577   6.859
 7952SOL    HW124755   0.826   3.666   6.819
 7952SOL    HW224756   0.844   3.507   6.788
 7953SOL     OW24757   2.135   2.600   3.208
 7953SOL    HW124758   2.114   2.539   3.284
 7953SOL    HW224759   2.228   2.634   3.216
 7954SOL     OW24760   4.510   4.482   5.389
 7954SOL    HW124761   4.591   4.496   5.446
 7954SOL    HW224762   4.428   4.506   5.442
 7955SOL     OW24763   1.367   6.601   6.182
 7955SOL    HW124764   1.399   6.693   6.204
 7955SOL    HW224765   1.412   6.569   6.099
 7956SOL     OW24766   2.395   5.995   2.769
 7956SOL    HW124767   2.357   6.085   2.747
 7956SOL    HW224768   2.322   5.927   2.768
 7957SOL     OW24769   2.087   1.375   0.445
 7957SOL    HW124770   2.167   1.426   0.413
 7957SOL    HW224771   2.021   1.365   0.371
 7958SOL     OW24772   3.247   5.547   4.196
 7958SOL    HW124773   3.292   5.510   4.278
 7958SOL    HW224774   3.148   5.544   4.209
 7959SOL     OW24775   4.202   5.646   1.377
 7959SOL    HW124776   4.200   5.688   1.468
 7959SOL    HW224777   4.231   5.713   1.309
 7960SOL     OW24778   3.484   1.787   0.797
 7960SOL    HW124779   3.573   1.746   0.774
 7960SOL    HW224780   3.431   1.722   0.852
 7961SOL     OW24781   0.825   6.129   0.465
 7961SOL    HW124782   0.804   6.032   0.478
 7961SOL    HW224783   0.887   6.139   0.387
 7962SOL     OW24784   1.933   0.283   0.391
 7962SOL    HW124785   1.867   0.297   0.317
 7962SOL    HW224786   1.953   0.370   0.435
 7963SOL     OW24787   6.677   0.720   3.564
 7963SOL    HW124788   6.692   0.789   3.635
 7963SOL    HW224789   6.615   0.650   3.599
 7964SOL     OW24790   6.588   5.238   3.240
 7964SOL    HW124791   6.636   5.233   3.152
 7964SOL    HW224792   6.588   5.333   3.272
 7965SOL     OW24793   3.211   3.441   6.583
 7965SOL    HW124794   3.276   3.453   6.508
 7965SOL    HW224795   3.171   3.349   6.578
 7966SOL     OW24796   0.249   3.431   5.363
 7966SOL    HW124797   0.316   3.393   5.428
 7966SOL    HW224798   0.298   3.474   5.287
 7967SOL     OW24799   3.138   6.114   4.061
 7967SOL    HW124800   3.114   6.040   4.124
 7967SOL    HW224801   3.152   6.198   4.112
 7968SOL     OW24802   2.027   2.428   3.462
 7968SOL    HW124803   1.969   2.377   3.398
 7968SOL    HW224804   2.102   2.371   3.493
 7969SOL     OW24805   4.446   0.009   2.398
 7969SOL    HW124806   4.513   0.079   2.372
 7969SOL    HW224807   4.469   6.996   2.488
 7970SOL     OW24808   0.044   3.134   3.060
 7970SOL    HW124809   0.063   3.186   3.143
 7970SOL    HW224810   0.118   3.151   2.994
 7971SOL     OW24811   3.783   1.379   0.803
 7971SOL    HW124812   3.782   1.478   0.817
 7971SOL    HW224813   3.838   1.358   0.722
 7972SOL     OW24814   0.883   3.883   1.530
 7972SOL    HW124815   0.804   3.866   1.472
 7972SOL    HW224816   0.962   3.908   1.474
 7973SOL     OW24817   5.120   4.223   3.279
 7973SOL    HW124818   5.111   4.153   3.208
 7973SOL    HW224819   5.031   4.265   3.296
 7974SOL     OW24820   5.419   0.470   4.922
 7974SOL    HW124821   5.517   0.477   4.902
 7974SOL    HW224822   5.367   0.514   4.848
 7975SOL     OW24823   5.918   0.655   3.250
 7975SOL    HW124824   5.964   0.653   3.162
 7975SOL    HW224825   5.945   0.738   3.300
 7976SOL     OW24826   0.502   0.488   5.871
 7976SOL    HW124827   0.583   0.542   5.895
 7976SOL    HW224828   0.518   0.442   5.784
 7977SOL     OW24829   4.664   5.278   1.822
 7977SOL    HW124830   4.659   5.283   1.922
 7977SOL    HW224831   4.577   5.242   1.787
 7978SOL     OW24832   5.821   3.458   6.125
 7978SOL    HW124833   5.844   3.534   6.185
 7978SOL    HW224834   5.830   3.487   6.030
 7979SOL     OW24835   3.746   0.694   5.414
 7979SOL    HW124836   3.815   0.701   5.486
 7979SOL    HW224837   3.724   0.597   5.398
 7980SOL     OW24838   2.472   6.080   0.097
 7980SOL    HW124839   2.450   6.026   0.015
 7980SOL    HW224840   2.555   6.044   0.139
 7981SOL     OW24841   0.372   6.154   2.546
 7981SOL    HW124842   0.431   6.234   2.531
 7981SOL    HW224843   0.422   6.086   2.600
 7982SOL     OW24844   6.967   2.078   0.153
 7982SOL    HW124845   6.907   2.156   0.135
 7982SOL    HW224846   6.978   2.065   0.252
 7983SOL     OW24847   5.651   2.060   2.422
 7983SOL    HW124848   5.608   2.112   2.348
 7983SOL    HW224849   5.617   2.093   2.510
 7984SOL     OW24850   1.467   2.073   1.392
 7984SOL    HW124851   1.549   2.126   1.414
 7984SOL    HW224852   1.466   2.052   1.295
 7985SOL     OW24853   2.496   0.000   3.770
 7985SOL    HW124854   2.431   0.009   3.694
 7985SOL    HW224855   2.586   0.030   3.740
 7986SOL     OW24856   3.172   0.465   6.798
 7986SOL    HW124857   3.146   0.434   6.707
 7986SOL    HW224858   3.095   0.452   6.861
 7987SOL     OW24859   1.268   3.560   6.955
 7987SOL    HW124860   1.245   3.463   6.942
 7987SOL    HW224861   1.325   3.570   0.013
 7988SOL     OW24862   1.637   1.751   4.148
 7988SOL    HW124863   1.647   1.748   4.049
 7988SOL    HW224864   1.540   1.758   4.172
 7989SOL     OW24865   3.209   2.515   5.405
 7989SOL    HW124866   3.300   2.480   5.424
 7989SOL    HW224867   3.172   2.468   5.325
 7990SOL     OW24868   6.049   3.769   3.862
 7990SOL    HW124869   6.050   3.670   3.877
 7990SOL    HW224870   6.016   3.788   3.769
 7991SOL     OW24871   6.427   0.385   4.888
 7991SOL    HW124872   6.338   0.420   4.918
 7991SOL    HW224873   6.467   0.448   4.821
 7992SOL     OW24874   1.403   6.698   0.937
 7992SOL    HW124875   1.445   6.775   0.986
 7992SOL    HW224876   1.310   6.724   0.908
 7993SOL     OW24877   1.612   6.147   6.740
 7993SOL    HW124878   1.688   6.113   6.685
 7993SOL    HW224879   1.526   6.110   6.705
 7994SOL     OW24880   4.666   0.137   3.066
 7994SOL    HW124881   4.650   0.068   3.136
 7994SOL    HW224882   4.763   0.159   3.062
 7995SOL     OW24883   4.014   5.113   3.685
 7995SOL    HW124884   4.070   5.090   3.764
 7995SOL    HW224885   3.995   5.211   3.685
 7996SOL     OW24886   2.950   6.885   5.143
 7996SOL    HW124887   2.960   6.788   5.120
 7996SOL    HW224888   2.944   6.938   5.059
 7997SOL     OW24889   6.978   1.274   0.712
 7997SOL    HW124890   7.010   1.307   0.624
 7997SOL    HW224891   6.979   1.349   0.778
 7998SOL     OW24892   3.804   5.380   1.150
 7998SOL    HW124893   3.869   5.437   1.201
 7998SOL    HW224894   3.853   5.328   1.080
 7999SOL     OW24895   1.581   0.482   6.253
 7999SOL    HW124896   1.613   0.435   6.336
 7999SOL    HW224897   1.528   0.562   6.279
 8000SOL     OW24898   5.561   1.071   6.863
 8000SOL    HW124899   5.487   1.136   6.851
 8000SOL    HW224900   5.523   0.980   6.882
 8001SOL     OW24901   3.912   5.961   1.086
 8001SOL    HW124902   3.970   6.024   1.138
 8001SOL    HW224903   3.816   5.987   1.097
 8002SOL     OW24904   0.673   2.739   5.606
 8002SOL    HW124905   0.696   2.757   5.510
 8002SOL    HW224906   0.745   2.684   5.647
 8003SOL     OW24907   2.311   4.770   2.385
 8003SOL    HW124908   2.338   4.866   2.380
 8003SOL    HW224909   2.347   4.721   2.305
 8004SOL     OW24910   1.618   4.004   3.318
 8004SOL    HW124911   1.578   3.933   3.375
 8004SOL    HW224912   1.616   3.976   3.222
 8005SOL     OW24913   3.486   1.810   2.334
 8005SOL    HW124914   3.460   1.745   2.406
 8005SOL    HW224915   3.408   1.869   2.313
 8006SOL     OW24916   2.779   6.707   0.417
 8006SOL    HW124917   2.714   6.772   0.455
 8006SOL    HW224918   2.730   6.627   0.382
 8007SOL     OW24919   1.150   0.116   4.500
 8007SOL    HW124920   1.115   0.167   4.579
 8007SOL    HW224921   1.177   0.179   4.428
 8008SOL     OW24922   4.464   6.756   6.463
 8008SOL    HW124923   4.477   6.795   6.554
 8008SOL    HW224924   4.399   6.812   6.412
 8009SOL     OW24925   6.309   0.724   3.215
 8009SOL    HW124926   6.365   0.641   3.217
 8009SOL    HW224927   6.368   0.804   3.204
 8010SOL     OW24928   1.337   1.483   0.250
 8010SOL    HW124929   1.415   1.510   0.194
 8010SOL    HW224930   1.355   1.505   0.346
 8011SOL     OW24931   2.639   3.131   1.020
 8011SOL    HW124932   2.603   3.111   1.111
 8011SOL    HW224933   2.634   3.049   0.963
 8012SOL     OW24934   2.582   6.198   1.389
 8012SOL    HW124935   2.612   6.125   1.450
 8012SOL    HW224936   2.661   6.249   1.356
 8013SOL     OW24937   0.376   5.093   4.246
 8013SOL    HW124938   0.302   5.053   4.192
 8013SOL    HW224939   0.448   5.126   4.186
 8014SOL     OW24940   0.652   6.113   5.115
 8014SOL    HW124941   0.646   6.036   5.051
 8014SOL    HW224942   0.721   6.177   5.082
 8015SOL     OW24943   3.062   1.409   0.176
 8015SOL    HW124944   3.064   1.502   0.142
 8015SOL    HW224945   3.024   1.348   0.106
 8016SOL     OW24946   4.645   0.238   6.551
 8016SOL    HW124947   4.672   0.189   6.468
 8016SOL    HW224948   4.559   0.286   6.535
 8017SOL     OW24949   6.933   5.790   6.484
 8017SOL    HW124950   6.975   5.700   6.469
 8017SOL    HW224951   6.920   5.805   6.582
 8018SOL     OW24952   3.742   2.631   6.260
 8018SOL    HW124953   3.789   2.555   6.305
 8018SOL    HW224954   3.655   2.649   6.306
 8019SOL     OW24955   2.352   3.675   6.878
 8019SOL    HW124956   2.395   3.693   6.966
 8019SOL    HW224957   2.253   3.665   6.889
 8020SOL     OW24958   6.374   5.854   0.697
 8020SOL    HW124959   6.317   5.833   0.776
 8020SOL    HW224960   6.387   5.771   0.643
 8021SOL     OW24961   1.013   2.262   1.381
 8021SOL    HW124962   1.102   2.296   1.412
 8021SOL    HW224963   1.022   2.224   1.289
 8022SOL     OW24964   4.376   0.443   2.878
 8022SOL    HW124965   4.372   0.533   2.922
 8022SOL    HW224966   4.448   0.443   2.808
 8023SOL     OW24967   5.904   5.747   3.014
 8023SOL    HW124968   5.949   5.804   3.083
 8023SOL    HW224969   5.816   5.716   3.049
 8024SOL     OW24970   3.560   5.422   6.914
 8024SOL    HW124971   3.601   5.415   7.005
 8024SOL    HW224972   3.463   5.398   6.919
 8025SOL     OW24973   2.369   6.041   6.457
 8025SOL    HW124974   2.271   6.030   6.475
 8025SOL    HW224975   2.400   6.129   6.493
 8026SOL     OW24976   0.734   4.852   6.714
 8026SOL    HW124977   0.652   4.845   6.771
 8026SOL    HW224978   0.780   4.763   6.711
 8027SOL     OW24979   3.951   1.883   5.434
 8027SOL    HW124980   3.992   1.927   5.354
 8027SOL    HW224981   3.973   1.786   5.433
 8028SOL     OW24982   3.153   5.326   5.274
 8028SOL    HW124983   3.248   5.350   5.291
 8028SOL    HW224984   3.093   5.393   5.318
 8029SOL     OW24985   5.385   3.660   0.312
 8029SOL    HW124986   5.471   3.652   0.362
 8029SOL    HW224987   5.309   3.646   0.375
 8030SOL     OW24988   5.017   4.314   6.974
 8030SOL    HW124989   5.019   4.406   6.935
 8030SOL    HW224990   4.947   4.309   0.022
 8031SOL     OW24991   4.859   5.978   2.539
 8031SOL    HW124992   4.839   6.066   2.583
 8031SOL    HW224993   4.808   5.972   2.453
 8032SOL     OW24994   5.974   4.726   6.111
 8032SOL    HW124995   5.900   4.664   6.138
 8032SOL    HW224996   5.997   4.786   6.188
 8033SOL     OW24997   5.083   3.985   0.017
 8033SOL    HW124998   5.123   3.896   0.036
 8033SOL    HW224999   5.127   4.054   0.074
 8034SOL     OW25000   6.314   1.238   5.003
 8034SOL    HW125001   6.349   1.224   4.910
 8034SOL    HW225002   6.353   1.169   5.064
 8035SOL     OW25003   4.615   0.490   5.266
 8035SOL    HW125004   4.558   0.538   5.332
 8035SOL    HW225005   4.565   0.481   5.180
 8036SOL     OW25006   0.649   3.796   2.333
 8036SOL    HW125007   0.633   3.877   2.278
 8036SOL    HW225008   0.563   3.748   2.349
 8037SOL     OW25009   1.578   3.496   2.229
 8037SOL    HW125010   1.495   3.441   2.239
 8037SOL    HW225011   1.658   3.435   2.226
 8038SOL     OW25012   4.745   0.899   2.931
 8038SOL    HW125013   4.670   0.952   2.972
 8038SOL    HW225014   4.712   0.856   2.846
 8039SOL     OW25015   1.098   0.045   3.398
 8039SOL    HW125016   1.123   7.003   3.469
 8039SOL    HW225017   1.120   0.137   3.429
 8040SOL     OW25018   1.469   6.029   0.793
 8040SOL    HW125019   1.448   6.126   0.777
 8040SOL    HW225020   1.473   6.012   0.891
 8041SOL     OW25021   2.838   2.075   1.931
 8041SOL    HW125022   2.798   2.017   2.002
 8041SOL    HW225023   2.865   2.163   1.971
 8042SOL     OW25024   3.981   3.050   3.189
 8042SOL    HW125025   3.890   3.087   3.170
 8042SOL    HW225026   3.986   3.020   3.285
 8043SOL     OW25027   3.842   6.616   1.502
 8043SOL    HW125028   3.846   6.712   1.477
 8043SOL    HW225029   3.748   6.583   1.497
 8044SOL     OW25030   3.545   3.497   0.381
 8044SOL    HW125031   3.527   3.559   0.305
 8044SOL    HW225032   3.603   3.422   0.349
 8045SOL     OW25033   5.392   0.384   1.538
 8045SOL    HW125034   5.348   0.373   1.449
 8045SOL    HW225035   5.331   0.350   1.610
 8046SOL     OW25036   6.548   4.772   6.911
 8046SOL    HW125037   6.609   4.845   6.880
 8046SOL    HW225038   6.454   4.806   6.914
 8047SOL     OW25039   3.651   5.080   5.244
 8047SOL    HW125040   3.575   5.021   5.216
 8047SOL    HW225041   3.720   5.083   5.172
 8048SOL     OW25042   5.304   0.521   5.928
 8048SOL    HW125043   5.245   0.459   5.877
 8048SOL    HW225044   5.251   0.567   5.999
 8049SOL     OW25045   1.782   0.328   1.066
 8049SOL    HW125046   1.714   0.254   1.067
 8049SOL    HW225047   1.743   0.410   1.107
 8050SOL     OW25048   0.778   4.644   1.957
 8050SOL    HW125049   0.737   4.642   1.866
 8050SOL    HW225050   0.721   4.591   2.020
 8051SOL     OW25051   4.839   6.308   3.621
 8051SOL    HW125052   4.915   6.350   3.672
 8051SOL    HW225053   4.780   6.380   3.585
 8052SOL     OW25054   3.736   1.372   1.832
 8052SOL    HW125055   3.804   1.366   1.759
 8052SOL    HW225056   3.677   1.452   1.816
 8053SOL     OW25057   3.831   4.035   3.101
 8053SOL    HW125058   3.853   4.106   3.167
 8053SOL    HW225059   3.731   4.027   3.092
 8054SOL     OW25060   5.506   6.771   4.607
 8054SOL    HW125061   5.426   6.712   4.607
 8054SOL    HW225062   5.573   6.737   4.674
 8055SOL     OW25063   0.370   0.381   6.092
 8055SOL    HW125064   0.362   0.288   6.057
 8055SOL    HW225065   0.410   0.440   6.021
 8056SOL     OW25066   4.447   1.132   3.831
 8056SOL    HW125067   4.371   1.167   3.776
 8056SOL    HW225068   4.508   1.207   3.855
 8057SOL     OW25069   2.606   2.419   2.990
 8057SOL    HW125070   2.646   2.391   2.902
 8057SOL    HW225071   2.668   2.394   3.064
 8058SOL     OW25072   3.849   0.397   2.945
 8058SOL    HW125073   3.921   0.348   2.994
 8058SOL    HW225074   3.783   0.433   3.011
 8059SOL     OW25075   4.552   2.609   4.474
 8059SOL    HW125076   4.511   2.519   4.457
 8059SOL    HW225077   4.497   2.659   4.541
 8060SOL     OW25078   0.323   1.451   4.399
 8060SOL    HW125079   0.372   1.471   4.314
 8060SOL    HW225080   0.368   1.376   4.447
 8061SOL     OW25081   6.802   6.891   1.148
 8061SOL    HW125082   6.799   6.989   1.167
 8061SOL    HW225083   6.727   6.865   1.088
 8062SOL     OW25084   2.797   5.145   4.509
 8062SOL    HW125085   2.701   5.151   4.534
 8062SOL    HW225086   2.826   5.049   4.509
 8063SOL     OW25087   2.112   2.901   0.726
 8063SOL    HW125088   2.050   2.974   0.753
 8063SOL    HW225089   2.189   2.897   0.790
 8064SOL     OW25090   6.965   4.904   1.736
 8064SOL    HW125091   6.971   4.811   1.771
 8064SOL    HW225092   0.032   4.933   1.703
 8065SOL     OW25093   4.484   6.677   3.755
 8065SOL    HW125094   4.526   6.589   3.733
 8065SOL    HW225095   4.439   6.672   3.844
 8066SOL     OW25096   1.177   1.599   6.135
 8066SOL    HW125097   1.204   1.652   6.216
 8066SOL    HW225098   1.223   1.510   6.137
 8067SOL     OW25099   4.743   3.267   1.707
 8067SOL    HW125100   4.724   3.178   1.749
 8067SOL    HW225101   4.796   3.253   1.623
 8068SOL     OW25102   5.699   4.328   6.778
 8068SOL    HW125103   5.747   4.340   6.865
 8068SOL    HW225104   5.600   4.337   6.793
 8069SOL     OW25105   2.040   6.379   1.004
 8069SOL    HW125106   2.011   6.340   1.092
 8069SOL    HW225107   2.035   6.308   0.933
 8070SOL     OW25108   2.600   3.666   0.515
 8070SOL    HW125109   2.613   3.569   0.493
 8070SOL    HW225110   2.586   3.677   0.613
 8071SOL     OW25111   3.211   6.297   4.988
 8071SOL    HW125112   3.206   6.365   5.061
 8071SOL    HW225113   3.283   6.322   4.923
 8072SOL     OW25114   3.391   0.389   0.115
 8072SOL    HW125115   3.410   0.486   0.121
 8072SOL    HW225116   3.322   0.372   0.044
 8073SOL     OW25117   4.225   6.439   6.077
 8073SOL    HW125118   4.302   6.495   6.050
 8073SOL    HW225119   4.148   6.455   6.016
 8074SOL     OW25120   2.974   3.181   6.859
 8074SOL    HW125121   2.899   3.119   6.836
 8074SOL    HW225122   2.978   3.194   6.959
 8075SOL     OW25123   6.575   1.072   1.224
 8075SOL    HW125124   6.567   1.013   1.304
 8075SOL    HW225125   6.546   1.165   1.247
 8076SOL     OW25126   5.158   2.569   5.773
 8076SOL    HW125127   5.113   2.500   5.830
 8076SOL    HW225128   5.104   2.583   5.690
 8077SOL     OW25129   1.233   6.225   1.656
 8077SOL    HW125130   1.294   6.300   1.679
 8077SOL    HW225131   1.138   6.253   1.671
 8078SOL     OW25132   6.185   1.794   0.098
 8078SOL    HW125133   6.220   1.721   0.039
 8078SOL    HW225134   6.160   1.873   0.041
 8079SOL     OW25135   5.374   1.371   3.585
 8079SOL    HW125136   5.340   1.284   3.622
 8079SOL    HW225137   5.359   1.373   3.486
 8080SOL     OW25138   0.740   4.241   0.156
 8080SOL    HW125139   0.705   4.326   0.117
 8080SOL    HW225140   0.716   4.236   0.253
 8081SOL     OW25141   4.874   0.304   5.044
 8081SOL    HW125142   4.870   0.238   4.969
 8081SOL    HW225143   4.797   0.366   5.038
 8082SOL     OW25144   5.796   0.907   1.791
 8082SOL    HW125145   5.774   0.872   1.700
 8082SOL    HW225146   5.871   0.973   1.784
 8083SOL     OW25147   5.256   2.979   2.238
 8083SOL    HW125148   5.220   2.989   2.145
 8083SOL    HW225149   5.252   3.067   2.285
 8084SOL     OW25150   5.563   6.809   1.142
 8084SOL    HW125151   5.539   6.803   1.044
 8084SOL    HW225152   5.484   6.843   1.193
 8085SOL     OW25153   6.007   0.366   2.755
 8085SOL    HW125154   5.941   0.297   2.725
 8085SOL    HW225155   6.074   0.324   2.816
 8086SOL     OW25156   4.776   0.892   4.135
 8086SOL    HW125157   4.800   0.813   4.191
 8086SOL    HW225158   4.698   0.939   4.176
 8087SOL     OW25159   2.529   1.594   1.456
 8087SOL    HW125160   2.511   1.546   1.542
 8087SOL    HW225161   2.450   1.650   1.433
 8088SOL     OW25162   5.732   1.905   1.822
 8088SOL    HW125163   5.808   1.842   1.841
 8088SOL    HW225164   5.754   1.960   1.741
 8089SOL     OW25165   5.310   2.740   0.647
 8089SOL    HW125166   5.266   2.808   0.705
 8089SOL    HW225167   5.241   2.679   0.608
 8090SOL     OW25168   4.237   2.383   6.588
 8090SOL    HW125169   4.280   2.390   6.678
 8090SOL    HW225170   4.141   2.358   6.598
 8091SOL     OW25171   2.657   3.997   6.878
 8091SOL    HW125172   2.702   4.068   6.931
 8091SOL    HW225173   2.591   4.039   6.815
 8092SOL     OW25174   1.032   2.102   5.185
 8092SOL    HW125175   0.952   2.080   5.129
 8092SOL    HW225176   1.092   2.164   5.135
 8093SOL     OW25177   4.903   5.760   1.910
 8093SOL    HW125178   4.879   5.855   1.890
 8093SOL    HW225179   4.956   5.722   1.833
 8094SOL     OW25180   2.119   3.761   4.344
 8094SOL    HW125181   2.167   3.841   4.379
 8094SOL    HW225182   2.036   3.745   4.398
 8095SOL     OW25183   5.575   4.254   4.223
 8095SOL    HW125184   5.560   4.345   4.184
 8095SOL    HW225185   5.567   4.259   4.323
 8096SOL     OW25186   3.218   5.509   3.831
 8096SOL    HW125187   3.226   5.428   3.890
 8096SOL    HW225188   3.152   5.572   3.871
 8097SOL     OW25189   4.756   0.194   3.426
 8097SOL    HW125190   4.722   0.267   3.486
 8097SOL    HW225191   4.846   0.219   3.392
 8098SOL     OW25192   2.066   6.661   4.314
 8098SOL    HW125193   2.067   6.699   4.222
 8098SOL    HW225194   2.081   6.562   4.310
 8099SOL     OW25195   6.093   0.648   3.930
 8099SOL    HW125196   6.185   0.679   3.906
 8099SOL    HW225197   6.091   0.623   4.027
 8100SOL     OW25198   0.359   6.620   6.989
 8100SOL    HW125199   0.315   6.548   0.020
 8100SOL    HW225200   0.338   6.709   0.006
 8101SOL     OW25201   2.345   0.326   4.421
 8101SOL    HW125202   2.391   0.394   4.363
 8101SOL    HW225203   2.404   0.247   4.433
 8102SOL     OW25204   1.167   4.794   5.343
 8102SOL    HW125205   1.166   4.836   5.252
 8102SOL    HW225206   1.175   4.866   5.413
 8103SOL     OW25207   4.559   0.859   0.257
 8103SOL    HW125208   4.522   0.950   0.276
 8103SOL    HW225209   4.574   0.850   0.158
 8104SOL     OW25210   2.928   6.347   5.897
 8104SOL    HW125211   3.001   6.388   5.953
 8104SOL    HW225212   2.915   6.402   5.815
 8105SOL     OW25213   1.535   2.148   2.997
 8105SOL    HW125214   1.629   2.139   2.965
 8105SOL    HW225215   1.476   2.179   2.922
 8106SOL     OW25216   2.473   5.974   3.903
 8106SOL    HW125217   2.502   5.899   3.844
 8106SOL    HW225218   2.483   6.060   3.854
 8107SOL     OW25219   1.548   5.693   5.317
 8107SOL    HW125220   1.648   5.682   5.322
 8107SOL    HW225221   1.506   5.602   5.317
 8108SOL     OW25222   5.501   2.596   5.252
 8108SOL    HW125223   5.463   2.541   5.178
 8108SOL    HW225224   5.437   2.598   5.329
 8109SOL     OW25225   0.898   3.888   4.179
 8109SOL    HW125226   0.841   3.897   4.097
 8109SOL    HW225227   0.994   3.901   4.154
 8110SOL     OW25228   3.577   6.809   1.044
 8110SOL    HW125229   3.576   6.900   1.084
 8110SOL    HW225230   3.544   6.814   0.950
 8111SOL     OW25231   3.940   0.440   6.013
 8111SOL    HW125232   3.973   0.516   6.068
 8111SOL    HW225233   3.862   0.397   6.058
 8112SOL     OW25234   1.227   1.104   4.977
 8112SOL    HW125235   1.199   1.193   4.939
 8112SOL    HW225236   1.320   1.083   4.947
 8113SOL     OW25237   2.719   3.566   0.052
 8113SOL    HW125238   2.756   3.634   7.012
 8113SOL    HW225239   2.634   3.600   0.092
 8114SOL     OW25240   1.854   3.108   2.130
 8114SOL    HW125241   1.881   3.047   2.056
 8114SOL    HW225242   1.914   3.188   2.130
 8115SOL     OW25243   3.969   1.409   1.645
 8115SOL    HW125244   3.977   1.471   1.567
 8115SOL    HW225245   4.033   1.437   1.716
 8116SOL     OW25246   4.576   6.766   4.203
 8116SOL    HW125247   4.569   6.679   4.252
 8116SOL    HW225248   4.641   6.826   4.249
 8117SOL     OW25249   2.144   1.133   4.422
 8117SOL    HW125250   2.045   1.128   4.409
 8117SOL    HW225251   2.189   1.063   4.366
 8118SOL     OW25252   6.543   3.555   5.733
 8118SOL    HW125253   6.526   3.648   5.703
 8118SOL    HW225254   6.482   3.492   5.684
 8119SOL     OW25255   6.912   5.336   5.186
 8119SOL    HW125256   6.906   5.308   5.091
 8119SOL    HW225257   7.002   5.312   5.222
 8120SOL     OW25258   3.657   4.727   6.626
 8120SOL    HW125259   3.576   4.786   6.629
 8120SOL    HW225260   3.692   4.714   6.718
 8121SOL     OW25261   6.892   5.367   2.932
 8121SOL    HW125262   6.975   5.337   2.886
 8121SOL    HW225263   6.849   5.441   2.879
 8122SOL     OW25264   0.484   5.465   2.617
 8122SOL    HW125265   0.402   5.421   2.581
 8122SOL    HW225266   0.472   5.565   2.614
 8123SOL     OW25267   0.002   7.006   6.960
 8123SOL    HW125268   7.009   6.959   6.873
 8123SOL    HW225269   6.939   7.021   7.007
 8124SOL     OW25270   0.362   6.000   0.984
 8124SOL    HW125271   0.289   6.038   0.927
 8124SOL    HW225272   0.322   5.943   1.055
 8125SOL     OW25273   0.696   6.244   2.853
 8125SOL    HW125274   0.758   6.311   2.895
 8125SOL    HW225275   0.747   6.161   2.830
 8126SOL     OW25276   6.055   3.913   2.448
 8126SOL    HW125277   6.052   3.840   2.517
 8126SOL    HW225278   5.973   3.970   2.457
 8127SOL     OW25279   2.371   6.018   0.728
 8127SOL    HW125280   2.309   6.063   0.664
 8127SOL    HW225281   2.318   5.967   0.795
 8128SOL     OW25282   2.919   3.042   0.850
 8128SOL    HW125283   2.834   3.007   0.812
 8128SOL    HW225284   2.994   3.024   0.786
 8129SOL     OW25285   4.566   1.505   5.600
 8129SOL    HW125286   4.548   1.592   5.646
 8129SOL    HW225287   4.664   1.484   5.608
 8130SOL     OW25288   0.622   4.773   6.142
 8130SOL    HW125289   0.700   4.740   6.087
 8130SOL    HW225290   0.623   4.728   6.231
 8131SOL     OW25291   2.446   0.663   0.612
 8131SOL    HW125292   2.483   0.752   0.584
 8131SOL    HW225293   2.499   0.628   0.690
 8132SOL     OW25294   5.717   6.074   6.283
 8132SOL    HW125295   5.764   6.016   6.349
 8132SOL    HW225296   5.752   6.168   6.291
 8133SOL     OW25297   3.269   4.929   2.042
 8133SOL    HW125298   3.345   4.968   1.990
 8133SOL    HW225299   3.237   4.846   1.997
 8134SOL     OW25300   1.819   1.316   4.495
 8134SOL    HW125301   1.866   1.376   4.559
 8134SOL    HW225302   1.751   1.369   4.444
 8135SOL     OW25303   2.373   5.551   1.579
 8135SOL    HW125304   2.393   5.647   1.598
 8135SOL    HW225305   2.400   5.529   1.485
 8136SOL     OW25306   4.897   4.686   2.930
 8136SOL    HW125307   4.899   4.659   2.833
 8136SOL    HW225308   4.834   4.763   2.941
 8137SOL     OW25309   2.465   1.075   4.385
 8137SOL    HW125310   2.497   1.170   4.384
 8137SOL    HW225311   2.483   1.035   4.475
 8138SOL     OW25312   5.787   2.442   0.982
 8138SOL    HW125313   5.826   2.494   0.906
 8138SOL    HW225314   5.758   2.352   0.950
 8139SOL     OW25315   1.891   2.330   3.250
 8139SOL    HW125316   1.923   2.362   3.161
 8139SOL    HW225317   1.792   2.321   3.249
 8140SOL     OW25318   3.433   7.014   0.625
 8140SOL    HW125319   3.372   0.066   0.601
 8140SOL    HW225320   3.525   0.026   0.644
 8141SOL     OW25321   4.667   6.770   5.545
 8141SOL    HW125322   4.687   6.780   5.448
 8141SOL    HW225323   4.752   6.761   5.596
 8142SOL     OW25324   2.139   5.234   0.920
 8142SOL    HW125325   2.159   5.137   0.911
 8142SOL    HW225326   2.050   5.253   0.879
 8143SOL     OW25327   5.035   5.000   0.806
 8143SOL    HW125328   5.097   4.930   0.772
 8143SOL    HW225329   4.941   4.978   0.777
 8144SOL     OW25330   1.158   6.058   5.158
 8144SOL    HW125331   1.245   6.024   5.196
 8144SOL    HW225332   1.098   6.085   5.233
 8145SOL     OW25333   4.706   4.884   0.860
 8145SOL    HW125334   4.725   4.862   0.955
 8145SOL    HW225335   4.656   4.809   0.817
 8146SOL     OW25336   6.127   6.984   5.644
 8146SOL    HW125337   6.057   7.003   5.713
 8146SOL    HW225338   6.089   6.925   5.573
 8147SOL     OW25339   6.817   0.644   0.519
 8147SOL    HW125340   6.847   0.621   0.426
 8147SOL    HW225341   6.814   0.743   0.528
 8148SOL     OW25342   4.309   4.861   6.697
 8148SOL    HW125343   4.387   4.817   6.654
 8148SOL    HW225344   4.259   4.794   6.752
 8149SOL     OW25345   1.970   6.284   3.401
 8149SOL    HW125346   2.068   6.305   3.404
 8149SOL    HW225347   1.955   6.189   3.428
 8150SOL     OW25348   1.209   3.893   1.022
 8150SOL    HW125349   1.118   3.932   1.035
 8150SOL    HW225350   1.253   3.882   1.111
 8151SOL     OW25351   5.791   5.527   4.035
 8151SOL    HW125352   5.829   5.474   4.111
 8151SOL    HW225353   5.703   5.489   4.008
 8152SOL     OW25354   5.570   2.751   3.497
 8152SOL    HW125355   5.571   2.734   3.595
 8152SOL    HW225356   5.649   2.808   3.472
 8153SOL     OW25357   0.641   1.225   2.846
 8153SOL    HW125358   0.733   1.189   2.858
 8153SOL    HW225359   0.641   1.324   2.860
 8154SOL     OW25360   3.668   0.136   2.822
 8154SOL    HW125361   3.659   0.037   2.813
 8154SOL    HW225362   3.698   0.175   2.734
 8155SOL     OW25363   1.482   3.913   2.190
 8155SOL    HW125364   1.511   3.950   2.102
 8155SOL    HW225365   1.479   3.987   2.257
 8156SOL     OW25366   4.750   6.223   1.637
 8156SOL    HW125367   4.681   6.281   1.595
 8156SOL    HW225368   4.737   6.221   1.736
 8157SOL     OW25369   6.281   4.522   6.050
 8157SOL    HW125370   6.366   4.574   6.058
 8157SOL    HW225371   6.258   4.510   5.954
 8158SOL     OW25372   4.970   4.940   0.119
 8158SOL    HW125373   5.017   4.975   0.200
 8158SOL    HW225374   4.984   4.841   0.113
 8159SOL     OW25375   3.374   5.785   5.576
 8159SOL    HW125376   3.368   5.772   5.478
 8159SOL    HW225377   3.363   5.698   5.623
 8160SOL     OW25378   4.574   0.123   3.847
 8160SOL    HW125379   4.656   0.156   3.894
 8160SOL    HW225380   4.526   0.057   3.905
 8161SOL     OW25381   6.354   3.669   6.546
 8161SOL    HW125382   6.380   3.694   6.640
 8161SOL    HW225383   6.270   3.615   6.549
 8162SOL     OW25384   6.773   5.195   6.620
 8162SOL    HW125385   6.760   5.292   6.603
 8162SOL    HW225386   6.863   5.167   6.587
 8163SOL     OW25387   2.283   4.917   5.491
 8163SOL    HW125388   2.379   4.935   5.511
 8163SOL    HW225389   2.254   4.831   5.533
 8164SOL     OW25390   4.493   1.435   6.995
 8164SOL    HW125391   4.439   1.352   7.007
 8164SOL    HW225392   4.498   1.484   0.058
 8165SOL     OW25393   6.975   3.716   6.452
 8165SOL    HW125394   6.915   3.650   6.497
 8165SOL    HW225395   6.928   3.804   6.443
 8166SOL     OW25396   2.101   0.799   3.341
 8166SOL    HW125397   2.177   0.823   3.280
 8166SOL    HW225398   2.084   0.701   3.335
 8167SOL     OW25399   0.418   0.860   3.054
 8167SOL    HW125400   0.348   0.814   2.999
 8167SOL    HW225401   0.382   0.876   3.146
 8168SOL     OW25402   2.619   6.912   1.676
 8168SOL    HW125403   2.604   7.009   1.692
 8168SOL    HW225404   2.708   6.885   1.712
 8169SOL     OW25405   3.870   1.843   0.378
 8169SOL    HW125406   3.772   1.851   0.393
 8169SOL    HW225407   3.918   1.844   0.466
 8170SOL     OW25408   6.452   4.616   1.132
 8170SOL    HW125409   6.475   4.673   1.211
 8170SOL    HW225410   6.358   4.582   1.142
 8171SOL     OW25411   2.093   1.749   6.904
 8171SOL    HW125412   2.125   1.839   6.934
 8171SOL    HW225413   2.022   1.761   6.835
 8172SOL     OW25414   0.031   1.881   1.565
 8172SOL    HW125415   0.082   1.832   1.636
 8172SOL    HW225416   0.061   1.976   1.562
 8173SOL     OW25417   5.323   1.874   2.338
 8173SOL    HW125418   5.261   1.806   2.300
 8173SOL    HW225419   5.397   1.828   2.388
 8174SOL     OW25420   0.796   6.811   2.585
 8174SOL    HW125421   0.737   6.833   2.508
 8174SOL    HW225422   0.740   6.791   2.665
 8175SOL     OW25423   0.575   2.746   4.694
 8175SOL    HW125424   0.603   2.657   4.729
 8175SOL    HW225425   0.514   2.790   4.760
 8176SOL     OW25426   2.353   4.643   1.817
 8176SOL    HW125427   2.434   4.596   1.780
 8176SOL    HW225428   2.382   4.722   1.872
 8177SOL     OW25429   4.470   1.084   3.535
 8177SOL    HW125430   4.510   1.117   3.620
 8177SOL    HW225431   4.479   0.984   3.531
 8178SOL     OW25432   3.648   6.540   1.061
 8178SOL    HW125433   3.582   6.505   1.127
 8178SOL    HW225434   3.612   6.624   1.020
 8179SOL     OW25435   5.614   1.134   4.924
 8179SOL    HW125436   5.655   1.172   5.007
 8179SOL    HW225437   5.521   1.103   4.944
 8180SOL     OW25438   5.846   1.018   0.076
 8180SOL    HW125439   5.808   0.954   0.009
 8180SOL    HW225440   5.928   0.978   0.117
 8181SOL     OW25441   1.483   1.043   0.568
 8181SOL    HW125442   1.472   0.948   0.596
 8181SOL    HW225443   1.448   1.056   0.476
 8182SOL     OW25444   3.568   3.482   5.162
 8182SOL    HW125445   3.508   3.421   5.110
 8182SOL    HW225446   3.653   3.497   5.111
 8183SOL     OW25447   6.180   2.061   4.613
 8183SOL    HW125448   6.111   2.094   4.549
 8183SOL    HW225449   6.261   2.032   4.562
 8184SOL     OW25450   0.405   0.170   0.640
 8184SOL    HW125451   0.448   0.125   0.719
 8184SOL    HW225452   0.475   0.215   0.585
 8185SOL     OW25453   2.108   0.339   0.733
 8185SOL    HW125454   2.131   0.391   0.651
 8185SOL    HW225455   2.191   0.323   0.787
 8186SOL     OW25456   2.536   4.438   5.521
 8186SOL    HW125457   2.570   4.422   5.428
 8186SOL    HW225458   2.474   4.516   5.520
 8187SOL     OW25459   2.118   0.898   4.744
 8187SOL    HW125460   2.170   0.865   4.823
 8187SOL    HW225461   2.172   0.884   4.661
 8188SOL     OW25462   4.755   2.829   3.690
 8188SOL    HW125463   4.691   2.753   3.701
 8188SOL    HW225464   4.776   2.840   3.593
 8189SOL     OW25465   5.672   5.209   2.302
 8189SOL    HW125466   5.640   5.151   2.377
 8189SOL    HW225467   5.666   5.159   2.216
 8190SOL     OW25468   4.888   4.150   3.951
 8190SOL    HW125469   4.973   4.179   3.908
 8190SOL    HW225470   4.893   4.167   4.049
 8191SOL     OW25471   3.945   5.510   2.439
 8191SOL    HW125472   3.984   5.555   2.519
 8191SOL    HW225473   3.858   5.468   2.463
 8192SOL     OW25474   1.664   5.994   2.385
 8192SOL    HW125475   1.586   5.935   2.364
 8192SOL    HW225476   1.661   6.075   2.327
 8193SOL     OW25477   5.974   5.341   5.391
 8193SOL    HW125478   5.944   5.436   5.388
 8193SOL    HW225479   5.963   5.306   5.484
 8194SOL     OW25480   4.758   1.333   1.024
 8194SOL    HW125481   4.832   1.296   1.081
 8194SOL    HW225482   4.793   1.353   0.933
 8195SOL     OW25483   6.737   0.488   2.921
 8195SOL    HW125484   6.828   0.467   2.886
 8195SOL    HW225485   6.694   0.404   2.955
 8196SOL     OW25486   4.647   6.262   6.993
 8196SOL    HW125487   4.584   6.338   6.977
 8196SOL    HW225488   4.599   6.190   0.020
 8197SOL     OW25489   3.744   1.105   0.915
 8197SOL    HW125490   3.744   1.021   0.861
 8197SOL    HW225491   3.761   1.184   0.856
 8198SOL     OW25492   3.776   6.543   2.698
 8198SOL    HW125493   3.688   6.494   2.697
 8198SOL    HW225494   3.759   6.640   2.717
 8199SOL     OW25495   5.832   3.846   5.657
 8199SOL    HW125496   5.793   3.939   5.654
 8199SOL    HW225497   5.763   3.781   5.625
 8200SOL     OW25498   5.566   4.356   1.695
 8200SOL    HW125499   5.491   4.315   1.747
 8200SOL    HW225500   5.543   4.356   1.598
 8201SOL     OW25501   6.461   1.093   5.164
 8201SOL    HW125502   6.506   1.058   5.247
 8201SOL    HW225503   6.496   1.184   5.143
 8202SOL     OW25504   0.314   5.350   3.896
 8202SOL    HW125505   0.266   5.325   3.812
 8202SOL    HW225506   0.308   5.449   3.910
 8203SOL     OW25507   2.791   2.161   0.036
 8203SOL    HW125508   2.737   2.159   6.975
 8203SOL    HW225509   2.877   2.210   0.019
 8204SOL     OW25510   3.875   4.152   0.164
 8204SOL    HW125511   3.785   4.180   0.131
 8204SOL    HW225512   3.912   4.080   0.104
 8205SOL     OW25513   6.921   4.662   0.148
 8205SOL    HW125514   6.925   4.638   0.051
 8205SOL    HW225515   6.919   4.762   0.157
 8206SOL     OW25516   4.585   2.354   6.988
 8206SOL    HW125517   4.643   2.335   0.044
 8206SOL    HW225518   4.638   2.405   6.920
 8207SOL     OW25519   3.278   3.417   4.356
 8207SOL    HW125520   3.314   3.475   4.284
 8207SOL    HW225521   3.192   3.375   4.325
 8208SOL     OW25522   1.097   0.718   1.079
 8208SOL    HW125523   1.167   0.772   1.033
 8208SOL    HW225524   1.136   0.676   1.161
 8209SOL     OW25525   0.290   0.837   4.716
 8209SOL    HW125526   0.226   0.780   4.768
 8209SOL    HW225527   0.246   0.923   4.690
 8210SOL     OW25528   2.438   2.272   0.724
 8210SOL    HW125529   2.338   2.276   0.721
 8210SOL    HW225530   2.467   2.177   0.724
 8211SOL     OW25531   3.897   4.460   1.510
 8211SOL    HW125532   3.799   4.444   1.497
 8211SOL    HW225533   3.932   4.515   1.434
 8212SOL     OW25534   1.167   2.516   2.846
 8212SOL    HW125535   1.220   2.519   2.761
 8212SOL    HW225536   1.114   2.431   2.850
 8213SOL     OW25537   0.055   4.643   1.529
 8213SOL    HW125538   0.079   4.548   1.508
 8213SOL    HW225539   0.063   4.658   1.628
 8214SOL     OW25540   6.423   5.030   3.667
 8214SOL    HW125541   6.500   5.090   3.646
 8214SOL    HW225542   6.338   5.081   3.663
 8215SOL     OW25543   3.561   5.558   5.818
 8215SOL    HW125544   3.600   5.634   5.870
 8215SOL    HW225545   3.625   5.530   5.748
 8216SOL     OW25546   6.000   5.738   4.024
 8216SOL    HW125547   5.925   5.673   4.038
 8216SOL    HW225548   6.019   5.786   4.109
 8217SOL     OW25549   1.504   4.752   0.488
 8217SOL    HW125550   1.503   4.663   0.532
 8217SOL    HW225551   1.586   4.761   0.432
 8218SOL     OW25552   6.978   0.008   6.444
 8218SOL    HW125553   0.041   0.058   6.443
 8218SOL    HW225554   6.953   7.004   6.351
 8219SOL     OW25555   4.158   2.114   0.428
 8219SOL    HW125556   4.085   2.180   0.448
 8219SOL    HW225557   4.131   2.024   0.461
 8220SOL     OW25558   3.636   2.983   3.489
 8220SOL    HW125559   3.701   2.942   3.552
 8220SOL    HW225560   3.629   3.081   3.506
 8221SOL     OW25561   5.511   6.374   4.182
 8221SOL    HW125562   5.485   6.285   4.221
 8221SOL    HW225563   5.460   6.388   4.097
 8222SOL     OW25564   5.362   1.291   2.292
 8222SOL    HW125565   5.323   1.202   2.315
 8222SOL    HW225566   5.458   1.294   2.322
 8223SOL     OW25567   1.107   4.836   6.089
 8223SOL    HW125568   1.177   4.897   6.053
 8223SOL    HW225569   1.151   4.757   6.133
 8224SOL     OW25570   6.475   1.084   2.848
 8224SOL    HW125571   6.462   1.004   2.907
 8224SOL    HW225572   6.433   1.067   2.759
 8225SOL     OW25573   3.536   1.008   0.078
 8225SOL    HW125574   3.628   1.045   0.093
 8225SOL    HW225575   3.510   0.950   0.156
 8226SOL     OW25576   4.283   0.005   1.594
 8226SOL    HW125577   4.299   0.020   1.496
 8226SOL    HW225578   4.317   6.938   1.620
 8227SOL     OW25579   6.288   2.254   3.346
 8227SOL    HW125580   6.337   2.220   3.266
 8227SOL    HW225581   6.256   2.176   3.401
 8228SOL     OW25582   6.803   2.064   5.855
 8228SOL    HW125583   6.773   2.131   5.787
 8228SOL    HW225584   6.902   2.052   5.850
 8229SOL     OW25585   3.856   3.775   0.908
 8229SOL    HW125586   3.887   3.718   0.833
 8229SOL    HW225587   3.934   3.817   0.954
 8230SOL     OW25588   4.008   0.140   4.671
 8230SOL    HW125589   3.964   0.230   4.674
 8230SOL    HW225590   3.938   0.070   4.658
 8231SOL     OW25591   4.110   5.178   0.610
 8231SOL    HW125592   4.059   5.144   0.531
 8231SOL    HW225593   4.150   5.101   0.659
 8232SOL     OW25594   4.650   1.653   1.639
 8232SOL    HW125595   4.684   1.565   1.673
 8232SOL    HW225596   4.627   1.713   1.716
 8233SOL     OW25597   1.377   6.103   6.562
 8233SOL    HW125598   1.433   6.169   6.512
 8233SOL    HW225599   1.346   6.032   6.500
 8234SOL     OW25600   2.959   4.653   6.504
 8234SOL    HW125601   3.008   4.661   6.417
 8234SOL    HW225602   3.026   4.651   6.579
 8235SOL     OW25603   1.020   3.881   0.009
 8235SOL    HW125604   1.029   3.963   0.066
 8235SOL    HW225605   1.042   3.903   6.938
 8236SOL     OW25606   0.304   4.453   0.553
 8236SOL    HW125607   0.369   4.450   0.629
 8236SOL    HW225608   0.330   4.386   0.484
 8237SOL     OW25609   4.147   6.662   4.572
 8237SOL    HW125610   4.235   6.672   4.619
 8237SOL    HW225611   4.078   6.628   4.636
 8238SOL     OW25612   1.034   5.120   6.891
 8238SOL    HW125613   0.943   5.087   6.917
 8238SOL    HW225614   1.026   5.212   6.853
 8239SOL     OW25615   6.006   0.921   5.423
 8239SOL    HW125616   5.939   0.904   5.351
 8239SOL    HW225617   5.986   0.863   5.502
 8240SOL     OW25618   3.579   4.140   2.428
 8240SOL    HW125619   3.672   4.128   2.463
 8240SOL    HW225620   3.562   4.237   2.412
 8241SOL     OW25621   4.252   0.441   0.179
 8241SOL    HW125622   4.307   0.520   0.152
 8241SOL    HW225623   4.202   0.407   0.100
 8242SOL     OW25624   0.400   5.167   5.772
 8242SOL    HW125625   0.429   5.214   5.689
 8242SOL    HW225626   0.478   5.157   5.834
 8243SOL     OW25627   0.721   2.855   0.552
 8243SOL    HW125628   0.687   2.780   0.495
 8243SOL    HW225629   0.821   2.860   0.546
 8244SOL     OW25630   0.635   0.141   4.778
 8244SOL    HW125631   0.644   0.051   4.736
 8244SOL    HW225632   0.559   0.191   4.736
 8245SOL     OW25633   4.129   2.261   3.155
 8245SOL    HW125634   4.210   2.319   3.170
 8245SOL    HW225635   4.121   2.240   3.057
 8246SOL     OW25636   0.906   2.601   5.684
 8246SOL    HW125637   0.934   2.615   5.779
 8246SOL    HW225638   0.976   2.636   5.623
 8247SOL     OW25639   1.277   6.730   2.728
 8247SOL    HW125640   1.307   6.656   2.788
 8247SOL    HW225641   1.348   6.749   2.660
 8248SOL     OW25642   6.158   5.133   4.462
 8248SOL    HW125643   6.142   5.176   4.373
 8248SOL    HW225644   6.227   5.062   4.453
 8249SOL     OW25645   1.624   2.810   4.846
 8249SOL    HW125646   1.683   2.755   4.788
 8249SOL    HW225647   1.672   2.894   4.873
 8250SOL     OW25648   3.283   3.924   1.979
 8250SOL    HW125649   3.367   3.876   1.955
 8250SOL    HW225650   3.284   3.946   2.077
 8251SOL     OW25651   5.656   3.492   3.683
 8251SOL    HW125652   5.682   3.452   3.771
 8251SOL    HW225653   5.695   3.584   3.675
 8252SOL     OW25654   3.231   1.581   5.602
 8252SOL    HW125655   3.254   1.627   5.517
 8252SOL    HW225656   3.177   1.499   5.582
 8253SOL     OW25657   4.295   4.552   5.523
 8253SOL    HW125658   4.224   4.508   5.469
 8253SOL    HW225659   4.268   4.555   5.619
 8254SOL     OW25660   4.747   4.391   5.135
 8254SOL    HW125661   4.796   4.477   5.118
 8254SOL    HW225662   4.811   4.319   5.157
 8255SOL     OW25663   2.039   0.144   5.159
 8255SOL    HW125664   2.051   0.189   5.071
 8255SOL    HW225665   2.010   0.211   5.228
 8256SOL     OW25666   6.480   7.000   2.602
 8256SOL    HW125667   6.435   0.061   2.574
 8256SOL    HW225668   6.531   6.962   2.524
 8257SOL     OW25669   6.067   3.487   3.834
 8257SOL    HW125670   6.164   3.466   3.835
 8257SOL    HW225671   6.017   3.412   3.791
 8258SOL     OW25672   5.489   1.964   0.636
 8258SOL    HW125673   5.455   2.054   0.608
 8258SOL    HW225674   5.513   1.967   0.733
 8259SOL     OW25675   3.884   2.102   3.475
 8259SOL    HW125676   3.977   2.138   3.477
 8259SOL    HW225677   3.886   2.003   3.462
 8260SOL     OW25678   3.168   6.220   1.521
 8260SOL    HW125679   3.129   6.220   1.429
 8260SOL    HW225680   3.106   6.173   1.583
 8261SOL     OW25681   5.664   0.457   2.010
 8261SOL    HW125682   5.756   0.420   1.994
 8261SOL    HW225683   5.627   0.418   2.095
 8262SOL     OW25684   0.225   2.739   6.823
 8262SOL    HW125685   0.158   2.809   6.847
 8262SOL    HW225686   0.282   2.771   6.748
 8263SOL     OW25687   1.423   2.490   6.916
 8263SOL    HW125688   1.325   2.476   6.904
 8263SOL    HW225689   1.438   2.572   6.972
 8264SOL     OW25690   3.051   5.994   2.987
 8264SOL    HW125691   3.081   6.087   2.962
 8264SOL    HW225692   3.077   5.976   3.082
 8265SOL     OW25693   0.476   0.094   0.907
 8265SOL    HW125694   0.505   0.012   0.957
 8265SOL    HW225695   0.511   0.175   0.954
 8266SOL     OW25696   2.245   1.233   3.363
 8266SOL    HW125697   2.318   1.179   3.405
 8266SOL    HW225698   2.213   1.302   3.427
 8267SOL     OW25699   1.313   2.840   1.453
 8267SOL    HW125700   1.411   2.861   1.445
 8267SOL    HW225701   1.293   2.758   1.399
 8268SOL     OW25702   2.073   6.329   6.246
 8268SOL    HW125703   2.082   6.248   6.188
 8268SOL    HW225704   2.157   6.384   6.239
 8269SOL     OW25705   3.991   1.817   2.055
 8269SOL    HW125706   3.969   1.915   2.053
 8269SOL    HW225707   3.950   1.776   2.137
 8270SOL     OW25708   2.743   0.082   5.425
 8270SOL    HW125709   2.791   0.048   5.507
 8270SOL    HW225710   2.717   0.004   5.368
 8271SOL     OW25711   0.394   0.513   3.261
 8271SOL    HW125712   0.322   0.548   3.201
 8271SOL    HW225713   0.460   0.461   3.208
 8272SOL     OW25714   5.001   2.077   2.198
 8272SOL    HW125715   5.038   2.022   2.272
 8272SOL    HW225716   5.014   2.174   2.218
 8273SOL     OW25717   2.995   0.953   0.114
 8273SOL    HW125718   2.910   0.929   0.161
 8273SOL    HW225719   3.063   0.882   0.129
 8274SOL     OW25720   5.615   5.199   3.938
 8274SOL    HW125721   5.586   5.253   3.859
 8274SOL    HW225722   5.536   5.150   3.976
 8275SOL     OW25723   5.436   1.357   5.498
 8275SOL    HW125724   5.516   1.414   5.514
 8275SOL    HW225725   5.395   1.381   5.410
 8276SOL     OW25726   0.817   1.699   3.698
 8276SOL    HW125727   0.870   1.771   3.653
 8276SOL    HW225728   0.864   1.668   3.780
 8277SOL     OW25729   0.256   6.915   7.020
 8277SOL    HW125730   0.163   6.947   7.002
 8277SOL    HW225731   0.319   6.956   6.954
 8278SOL     OW25732   2.836   2.182   5.673
 8278SOL    HW125733   2.779   2.254   5.635
 8278SOL    HW225734   2.866   2.120   5.600
 8279SOL     OW25735   1.823   6.582   4.655
 8279SOL    HW125736   1.920   6.561   4.640
 8279SOL    HW225737   1.793   6.542   4.742
 8280SOL     OW25738   2.144   4.057   0.843
 8280SOL    HW125739   2.152   4.150   0.807
 8280SOL    HW225740   2.112   3.995   0.770
 8281SOL     OW25741   3.096   4.591   1.688
 8281SOL    HW125742   3.187   4.553   1.700
 8281SOL    HW225743   3.030   4.540   1.743
 8282SOL     OW25744   4.838   3.636   0.160
 8282SOL    HW125745   4.886   3.552   0.134
 8282SOL    HW225746   4.891   3.684   0.231
 8283SOL     OW25747   1.772   5.526   6.267
 8283SOL    HW125748   1.857   5.576   6.280
 8283SOL    HW225749   1.699   5.589   6.241
 8284SOL     OW25750   0.922   3.925   1.068
 8284SOL    HW125751   0.861   3.866   1.122
 8284SOL    HW225752   0.923   3.895   0.973
 8285SOL     OW25753   3.121   3.946   4.121
 8285SOL    HW125754   3.108   4.041   4.151
 8285SOL    HW225755   3.197   3.941   4.057
 8286SOL     OW25756   5.740   2.606   6.154
 8286SOL    HW125757   5.737   2.638   6.249
 8286SOL    HW225758   5.794   2.670   6.099
 8287SOL     OW25759   1.856   5.456   4.011
 8287SOL    HW125760   1.896   5.528   4.067
 8287SOL    HW225761   1.827   5.494   3.923
 8288SOL     OW25762   3.160   1.868   1.598
 8288SOL    HW125763   3.139   1.934   1.526
 8288SOL    HW225764   3.248   1.891   1.639
 8289SOL     OW25765   0.734   5.375   0.928
 8289SOL    HW125766   0.712   5.419   1.015
 8289SOL    HW225767   0.650   5.336   0.888
 8290SOL     OW25768   6.189   1.348   1.443
 8290SOL    HW125769   6.090   1.360   1.435
 8290SOL    HW225770   6.223   1.298   1.363
 8291SOL     OW25771   5.283   6.237   5.827
 8291SOL    HW125772   5.205   6.220   5.887
 8291SOL    HW225773   5.286   6.334   5.804
 8292SOL     OW25774   2.731   6.572   6.867
 8292SOL    HW125775   2.648   6.554   6.813
 8292SOL    HW225776   2.807   6.593   6.805
 8293SOL     OW25777   3.199   5.865   0.298
 8293SOL    HW125778   3.202   5.955   0.342
 8293SOL    HW225779   3.131   5.808   0.344
 8294SOL     OW25780   5.206   4.085   4.728
 8294SOL    HW125781   5.128   4.049   4.676
 8294SOL    HW225782   5.258   4.009   4.767
 8295SOL     OW25783   5.188   5.155   1.832
 8295SOL    HW125784   5.148   5.244   1.808
 8295SOL    HW225785   5.277   5.146   1.789
 8296SOL     OW25786   1.203   5.239   6.372
 8296SOL    HW125787   1.217   5.162   6.309
 8296SOL    HW225788   1.290   5.266   6.412
 8297SOL     OW25789   6.065   2.634   2.565
 8297SOL    HW125790   6.092   2.651   2.471
 8297SOL    HW225791   6.035   2.719   2.607
 8298SOL     OW25792   6.567   1.355   1.236
 8298SOL    HW125793   6.565   1.436   1.294
 8298SOL    HW225794   6.600   1.380   1.145
 8299SOL     OW25795   6.742   2.992   1.449
 8299SOL    HW125796   6.834   2.981   1.413
 8299SOL    HW225797   6.723   2.917   1.513
 8300SOL     OW25798   0.193   5.652   4.742
 8300SOL    HW125799   0.230   5.718   4.807
 8300SOL    HW225800   0.251   5.649   4.660
 8301SOL     OW25801   3.992   1.861   1.118
 8301SOL    HW125802   3.943   1.928   1.173
 8301SOL    HW225803   3.976   1.769   1.155
 8302SOL     OW25804   5.928   6.607   0.353
 8302SOL    HW125805   5.865   6.531   0.338
 8302SOL    HW225806   5.890   6.669   0.421
 8303SOL     OW25807   6.489   0.541   3.703
 8303SOL    HW125808   6.427   0.619   3.692
 8303SOL    HW225809   6.436   0.459   3.726
 8304SOL     OW25810   0.126   3.600   0.562
 8304SOL    HW125811   0.051   3.555   0.515
 8304SOL    HW225812   0.104   3.696   0.577
 8305SOL     OW25813   4.570   5.080   4.406
 8305SOL    HW125814   4.504   5.086   4.481
 8305SOL    HW225815   4.556   4.994   4.356
 8306SOL     OW25816   6.762   2.521   6.406
 8306SOL    HW125817   6.733   2.590   6.471
 8306SOL    HW225818   6.684   2.490   6.352
 8307SOL     OW25819   3.649   5.397   1.560
 8307SOL    HW125820   3.640   5.411   1.659
 8307SOL    HW225821   3.713   5.465   1.523
 8308SOL     OW25822   3.824   5.557   1.441
 8308SOL    HW125823   3.782   5.612   1.369
 8308SOL    HW225824   3.895   5.499   1.403
 8309SOL     OW25825   6.855   5.201   3.860
 8309SOL    HW125826   6.939   5.230   3.814
 8309SOL    HW225827   6.800   5.281   3.882
 8310SOL     OW25828   0.060   4.549   0.595
 8310SOL    HW125829   0.154   4.513   0.591
 8310SOL    HW225830   7.019   4.473   0.588
 8311SOL     OW25831   0.675   1.824   4.138
 8311SOL    HW125832   0.584   1.783   4.133
 8311SOL    HW225833   0.684   1.873   4.225
 8312SOL     OW25834   4.930   0.505   0.037
 8312SOL    HW125835   4.927   0.422   7.006
 8312SOL    HW225836   4.940   0.585   7.001
 8313SOL     OW25837   5.030   0.371   1.545
 8313SOL    HW125838   5.062   0.430   1.619
 8313SOL    HW225839   4.945   0.327   1.572
 8314SOL     OW25840   4.764   0.636   0.207
 8314SOL    HW125841   4.801   0.602   0.121
 8314SOL    HW225842   4.750   0.735   0.201
 8315SOL     OW25843   4.064   3.103   1.174
 8315SOL    HW125844   3.993   3.154   1.223
 8315SOL    HW225845   4.154   3.141   1.196
 8316SOL     OW25846   0.397   2.392   2.321
 8316SOL    HW125847   0.310   2.441   2.315
 8316SOL    HW225848   0.454   2.418   2.243
 8317SOL     OW25849   1.870   2.633   2.403
 8317SOL    HW125850   1.859   2.727   2.368
 8317SOL    HW225851   1.967   2.610   2.405
 8318SOL     OW25852   4.579   1.362   4.850
 8318SOL    HW125853   4.544   1.278   4.890
 8318SOL    HW225854   4.625   1.341   4.764
 8319SOL     OW25855   2.079   2.101   6.750
 8319SOL    HW125856   2.005   2.155   6.791
 8319SOL    HW225857   2.118   2.151   6.673
 8320SOL     OW25858   3.071   3.386   1.717
 8320SOL    HW125859   3.039   3.379   1.622
 8320SOL    HW225860   3.071   3.482   1.745
 8321SOL     OW25861   6.719   0.814   6.729
 8321SOL    HW125862   6.671   0.845   6.647
 8321SOL    HW225863   6.810   0.782   6.703
 8322SOL     OW25864   6.729   7.000   0.614
 8322SOL    HW125865   6.814   6.949   0.623
 8322SOL    HW225866   6.665   6.973   0.686
 8323SOL     OW25867   5.627   5.704   2.332
 8323SOL    HW125868   5.555   5.635   2.323
 8323SOL    HW225869   5.715   5.659   2.344
 8324SOL     OW25870   5.369   6.659   1.402
 8324SOL    HW125871   5.364   6.737   1.339
 8324SOL    HW225872   5.279   6.617   1.410
 8325SOL     OW25873   2.647   3.487   5.552
 8325SOL    HW125874   2.557   3.484   5.596
 8325SOL    HW225875   2.715   3.519   5.618
 8326SOL     OW25876   5.433   3.830   5.497
 8326SOL    HW125877   5.470   3.768   5.428
 8326SOL    HW225878   5.335   3.816   5.505
 8327SOL     OW25879   6.537   1.320   6.396
 8327SOL    HW125880   6.443   1.316   6.431
 8327SOL    HW225881   6.591   1.383   6.452
 8328SOL     OW25882   2.894   5.493   5.701
 8328SOL    HW125883   2.900   5.421   5.770
 8328SOL    HW225884   2.870   5.580   5.746
 8329SOL     OW25885   0.891   2.829   6.311
 8329SOL    HW125886   0.852   2.853   6.222
 8329SOL    HW225887   0.917   2.912   6.360
 8330SOL     OW25888   3.072   1.012   0.621
 8330SOL    HW125889   3.126   1.006   0.704
 8330SOL    HW225890   3.052   1.109   0.602
 8331SOL     OW25891   3.016   1.234   1.431
 8331SOL    HW125892   2.928   1.276   1.407
 8331SOL    HW225893   3.076   1.304   1.470
 8332SOL     OW25894   5.443   5.246   2.643
 8332SOL    HW125895   5.404   5.186   2.713
 8332SOL    HW225896   5.530   5.207   2.611
 8333SOL     OW25897   0.291   6.701   6.469
 8333SOL    HW125898   0.315   6.608   6.441
 8333SOL    HW225899   0.374   6.757   6.471
 8334SOL     OW25900   3.833   1.852   3.983
 8334SOL    HW125901   3.836   1.937   4.036
 8334SOL    HW225902   3.837   1.873   3.886
 8335SOL     OW25903   6.268   6.326   6.809
 8335SOL    HW125904   6.353   6.358   6.767
 8335SOL    HW225905   6.240   6.390   6.880
 8336SOL     OW25906   6.675   5.791   2.948
 8336SOL    HW125907   6.608   5.862   2.925
 8336SOL    HW225908   6.642   5.737   3.025
 8337SOL     OW25909   1.639   6.593   2.447
 8337SOL    HW125910   1.721   6.571   2.393
 8337SOL    HW225911   1.621   6.519   2.512
 8338SOL     OW25912   2.656   5.207   1.541
 8338SOL    HW125913   2.599   5.131   1.508
 8338SOL    HW225914   2.611   5.251   1.618
 8339SOL     OW25915   5.602   0.531   1.431
 8339SOL    HW125916   5.569   0.563   1.342
 8339SOL    HW225917   5.533   0.473   1.474
 8340SOL     OW25918   5.007   3.116   1.678
 8340SOL    HW125919   5.075   3.162   1.735
 8340SOL    HW225920   4.957   3.050   1.733
 8341SOL     OW25921   2.167   6.165   0.093
 8341SOL    HW125922   2.259   6.128   0.097
 8341SOL    HW225923   2.171   6.264   0.080
 8342SOL     OW25924   4.469   6.988   1.393
 8342SOL    HW125925   4.451   0.053   1.351
 8342SOL    HW225926   4.539   6.998   1.465
 8343SOL     OW25927   1.505   5.361   5.568
 8343SOL    HW125928   1.559   5.300   5.510
 8343SOL    HW225929   1.421   5.314   5.596
 8344SOL     OW25930   4.924   6.690   5.241
 8344SOL    HW125931   4.929   6.714   5.144
 8344SOL    HW225932   5.003   6.634   5.266
 8345SOL     OW25933   4.832   1.537   3.279
 8345SOL    HW125934   4.738   1.515   3.253
 8345SOL    HW225935   4.877   1.454   3.311
 8346SOL     OW25936   3.072   4.639   0.690
 8346SOL    HW125937   3.030   4.681   0.771
 8346SOL    HW225938   3.156   4.688   0.666
 8347SOL     OW25939   3.416   5.410   4.692
 8347SOL    HW125940   3.375   5.320   4.676
 8347SOL    HW225941   3.448   5.448   4.605
 8348SOL     OW25942   2.207   0.373   2.581
 8348SOL    HW125943   2.211   0.277   2.553
 8348SOL    HW225944   2.287   0.421   2.547
 8349SOL     OW25945   6.099   6.790   1.538
 8349SOL    HW125946   6.035   6.786   1.614
 8349SOL    HW225947   6.048   6.801   1.452
 8350SOL     OW25948   4.504   0.254   5.086
 8350SOL    HW125949   4.498   0.177   5.150
 8350SOL    HW225950   4.425   0.254   5.026
 8351SOL     OW25951   4.964   4.550   4.527
 8351SOL    HW125952   5.021   4.472   4.501
 8351SOL    HW225953   4.996   4.587   4.614
 8352SOL     OW25954   0.129   6.717   3.122
 8352SOL    HW125955   0.158   6.793   3.064
 8352SOL    HW225956   0.096   6.752   3.210
 8353SOL     OW25957   6.688   3.888   1.558
 8353SOL    HW125958   6.682   3.789   1.546
 8353SOL    HW225959   6.732   3.928   1.478
 8354SOL     OW25960   3.656   6.770   6.580
 8354SOL    HW125961   3.640   6.747   6.676
 8354SOL    HW225962   3.712   6.853   6.574
 8355SOL     OW25963   2.864   0.807   6.768
 8355SOL    HW125964   2.908   0.891   6.802
 8355SOL    HW225965   2.766   0.812   6.785
 8356SOL     OW25966   1.713   6.456   1.004
 8356SOL    HW125967   1.793   6.397   0.996
 8356SOL    HW225968   1.708   6.493   1.097
 8357SOL     OW25969   3.872   0.287   5.142
 8357SOL    HW125970   3.863   0.387   5.137
 8357SOL    HW225971   3.878   0.260   5.238
 8358SOL     OW25972   0.719   3.959   6.014
 8358SOL    HW125973   0.754   3.897   5.944
 8358SOL    HW225974   0.774   4.043   6.016
 8359SOL     OW25975   2.972   0.641   5.027
 8359SOL    HW125976   2.977   0.543   5.049
 8359SOL    HW225977   2.971   0.653   4.928
 8360SOL     OW25978   3.569   5.915   1.537
 8360SOL    HW125979   3.649   5.963   1.502
 8360SOL    HW225980   3.498   5.914   1.466
 8361SOL     OW25981   3.171   6.890   2.949
 8361SOL    HW125982   3.163   6.825   3.024
 8361SOL    HW225983   3.118   6.972   2.970
 8362SOL     OW25984   3.542   2.477   0.856
 8362SOL    HW125985   3.507   2.484   0.949
 8362SOL    HW225986   3.513   2.391   0.816
 8363SOL     OW25987   0.508   2.598   6.442
 8363SOL    HW125988   0.537   2.578   6.536
 8363SOL    HW225989   0.434   2.665   6.443
 8364SOL     OW25990   0.844   3.322   2.447
 8364SOL    HW125991   0.851   3.274   2.534
 8364SOL    HW225992   0.799   3.410   2.460
 8365SOL     OW25993   1.979   3.902   1.921
 8365SOL    HW125994   1.985   3.822   1.862
 8365SOL    HW225995   2.065   3.913   1.972
 8366SOL     OW25996   2.583   5.795   1.852
 8366SOL    HW125997   2.562   5.823   1.946
 8366SOL    HW225998   2.501   5.804   1.795
 8367SOL     OW25999   4.037   6.258   3.801
 8367SOL    HW126000   4.043   6.341   3.856
 8367SOL    HW226001   3.955   6.261   3.744
 8368SOL     OW26002   2.238   6.774   6.831
 8368SOL    HW126003   2.161   6.774   6.896
 8368SOL    HW226004   2.231   6.854   6.772
 8369SOL     OW26005   1.886   6.929   6.725
 8369SOL    HW126006   1.869   6.956   6.820
 8369SOL    HW226007   1.984   6.928   6.708
 8370SOL     OW26008   2.681   2.009   5.287
 8370SOL    HW126009   2.708   2.011   5.191
 8370SOL    HW226010   2.753   2.050   5.343
 8371SOL     OW26011   2.110   4.671   1.129
 8371SOL    HW126012   2.115   4.770   1.116
 8371SOL    HW226013   2.149   4.646   1.218
 8372SOL     OW26014   0.489   5.306   2.205
 8372SOL    HW126015   0.565   5.362   2.237
 8372SOL    HW226016   0.504   5.281   2.109
 8373SOL     OW26017   1.580   0.129   3.896
 8373SOL    HW126018   1.529   0.183   3.963
 8373SOL    HW226019   1.577   0.032   3.922
 8374SOL     OW26020   0.173   1.076   5.481
 8374SOL    HW126021   0.258   1.037   5.447
 8374SOL    HW226022   0.141   1.147   5.418
 8375SOL     OW26023   3.962   6.865   4.977
 8375SOL    HW126024   4.006   6.940   5.027
 8375SOL    HW226025   3.991   6.778   5.016
 8376SOL     OW26026   1.790   0.462   3.959
 8376SOL    HW126027   1.771   0.405   4.039
 8376SOL    HW226028   1.887   0.453   3.935
 8377SOL     OW26029   5.509   6.017   1.421
 8377SOL    HW126030   5.416   5.993   1.448
 8377SOL    HW226031   5.520   6.116   1.426
 8378SOL     OW26032   4.241   4.768   2.512
 8378SOL    HW126033   4.322   4.709   2.514
 8378SOL    HW226034   4.196   4.766   2.601
 8379SOL     OW26035   5.716   2.427   1.233
 8379SOL    HW126036   5.738   2.453   1.139
 8379SOL    HW226037   5.754   2.495   1.296
 8380SOL     OW26038   0.180   0.750   2.303
 8380SOL    HW126039   0.081   0.733   2.304
 8380SOL    HW226040   0.227   0.670   2.266
 8381SOL     OW26041   0.135   2.978   4.502
 8381SOL    HW126042   0.072   3.049   4.533
 8381SOL    HW226043   0.087   2.891   4.496
 8382SOL     OW26044   2.649   1.068   2.516
 8382SOL    HW126045   2.707   1.105   2.589
 8382SOL    HW226046   2.655   1.127   2.436
 8383SOL     OW26047   2.491   0.265   6.046
 8383SOL    HW126048   2.565   0.200   6.026
 8383SOL    HW226049   2.438   0.232   6.125
 8384SOL     OW26050   6.728   1.120   0.766
 8384SOL    HW126051   6.706   1.090   0.859
 8384SOL    HW226052   6.813   1.172   0.767
 8385SOL     OW26053   6.580   1.786   1.563
 8385SOL    HW126054   6.652   1.786   1.633
 8385SOL    HW226055   6.531   1.874   1.566
 8386SOL     OW26056   1.268   4.486   2.089
 8386SOL    HW126057   1.328   4.545   2.035
 8386SOL    HW226058   1.315   4.457   2.172
 8387SOL     OW26059   1.989   1.017   2.311
 8387SOL    HW126060   1.939   1.066   2.382
 8387SOL    HW226061   1.951   0.926   2.300
 8388SOL     OW26062   2.219   6.335   0.364
 8388SOL    HW126063   2.122   6.314   0.346
 8388SOL    HW226064   2.227   6.430   0.393
 8389SOL     OW26065   6.437   2.972   3.169
 8389SOL    HW126066   6.402   2.890   3.213
 8389SOL    HW226067   6.424   3.051   3.229
 8390SOL     OW26068   3.964   1.004   6.437
 8390SOL    HW126069   3.904   0.932   6.403
 8390SOL    HW226070   3.909   1.080   6.472
 8391SOL     OW26071   6.510   5.255   0.933
 8391SOL    HW126072   6.551   5.187   0.873
 8391SOL    HW226073   6.462   5.323   0.879
 8392SOL     OW26074   6.519   3.784   4.388
 8392SOL    HW126075   6.532   3.809   4.291
 8392SOL    HW226076   6.431   3.740   4.399
 8393SOL     OW26077   6.975   0.310   2.625
 8393SOL    HW126078   6.963   0.376   2.700
 8393SOL    HW226079   6.891   0.259   2.612
 8394SOL     OW26080   6.433   2.368   0.809
 8394SOL    HW126081   6.379   2.408   0.735
 8394SOL    HW226082   6.442   2.269   0.794
 8395SOL     OW26083   2.871   6.332   5.523
 8395SOL    HW126084   2.879   6.345   5.425
 8395SOL    HW226085   2.883   6.419   5.570
 8396SOL     OW26086   4.822   5.261   3.828
 8396SOL    HW126087   4.824   5.253   3.928
 8396SOL    HW226088   4.768   5.186   3.790
 8397SOL     OW26089   1.393   0.900   2.338
 8397SOL    HW126090   1.391   0.877   2.435
 8397SOL    HW226091   1.304   0.877   2.297
 8398SOL     OW26092   3.865   2.372   6.317
 8398SOL    HW126093   3.961   2.360   6.341
 8398SOL    HW226094   3.853   2.358   6.219
 8399SOL     OW26095   5.694   6.908   6.722
 8399SOL    HW126096   5.706   6.866   6.632
 8399SOL    HW226097   5.781   6.942   6.756
 8400SOL     OW26098   2.233   0.442   4.047
 8400SOL    HW126099   2.211   0.533   4.010
 8400SOL    HW226100   2.219   0.442   4.146
 8401SOL     OW26101   2.832   1.209   5.138
 8401SOL    HW126102   2.848   1.117   5.103
 8401SOL    HW226103   2.799   1.268   5.064
 8402SOL     OW26104   4.886   1.930   6.680
 8402SOL    HW126105   4.790   1.905   6.668
 8402SOL    HW226106   4.898   2.027   6.656
 8403SOL     OW26107   6.621   3.395   4.387
 8403SOL    HW126108   6.674   3.450   4.450
 8403SOL    HW226109   6.594   3.309   4.431
 8404SOL     OW26110   3.865   6.720   5.749
 8404SOL    HW126111   3.881   6.737   5.847
 8404SOL    HW226112   3.805   6.791   5.713
 8405SOL     OW26113   2.158   1.337   5.564
 8405SOL    HW126114   2.082   1.374   5.510
 8405SOL    HW226115   2.232   1.404   5.568
 8406SOL     OW26116   4.447   0.639   0.134
 8406SOL    HW126117   4.523   0.650   0.198
 8406SOL    HW226118   4.475   0.670   0.043
 8407SOL     OW26119   3.705   6.227   3.368
 8407SOL    HW126120   3.642   6.160   3.408
 8407SOL    HW226121   3.738   6.194   3.280
 8408SOL     OW26122   5.344   4.558   1.412
 8408SOL    HW126123   5.394   4.472   1.403
 8408SOL    HW226124   5.282   4.569   1.335
 8409SOL     OW26125   4.695   1.813   3.231
 8409SOL    HW126126   4.731   1.878   3.297
 8409SOL    HW226127   4.734   1.722   3.247
 8410SOL     OW26128   5.789   0.743   1.450
 8410SOL    HW126129   5.743   0.823   1.491
 8410SOL    HW226130   5.724   0.667   1.443
 8411SOL     OW26131   0.629   5.741   0.262
 8411SOL    HW126132   0.698   5.745   0.189
 8411SOL    HW226133   0.633   5.651   0.306
 8412SOL     OW26134   3.422   2.527   1.091
 8412SOL    HW126135   3.351   2.471   1.134
 8412SOL    HW226136   3.383   2.614   1.061
 8413SOL     OW26137   4.950   5.635   6.506
 8413SOL    HW126138   5.030   5.669   6.556
 8413SOL    HW226139   4.866   5.670   6.547
 8414SOL     OW26140   3.554   6.628   3.588
 8414SOL    HW126141   3.578   6.701   3.525
 8414SOL    HW226142   3.524   6.547   3.536
 8415SOL     OW26143   0.964   5.755   4.560
 8415SOL    HW126144   0.868   5.772   4.582
 8415SOL    HW226145   0.982   5.782   4.466
 8416SOL     OW26146   6.411   1.771   3.474
 8416SOL    HW126147   6.498   1.817   3.487
 8416SOL    HW226148   6.399   1.701   3.545
 8417SOL     OW26149   0.739   2.920   6.094
 8417SOL    HW126150   0.799   2.998   6.075
 8417SOL    HW226151   0.650   2.936   6.052
 8418SOL     OW26152   6.285   5.233   1.079
 8418SOL    HW126153   6.369   5.242   1.026
 8418SOL    HW226154   6.273   5.137   1.108
 8419SOL     OW26155   5.666   0.282   1.741
 8419SOL    HW126156   5.698   0.376   1.731
 8419SOL    HW226157   5.632   0.249   1.653
 8420SOL     OW26158   4.157   0.264   0.884
 8420SOL    HW126159   4.099   0.315   0.947
 8420SOL    HW226160   4.234   0.224   0.934
 8421SOL     OW26161   3.449   5.268   0.341
 8421SOL    HW126162   3.457   5.305   0.434
 8421SOL    HW226163   3.477   5.339   0.276
 8422SOL     OW26164   4.106   1.202   2.193
 8422SOL    HW126165   4.188   1.212   2.250
 8422SOL    HW226166   4.102   1.109   2.157
 8423SOL     OW26167   3.601   4.628   5.753
 8423SOL    HW126168   3.569   4.710   5.801
 8423SOL    HW226169   3.649   4.568   5.817
 8424SOL     OW26170   1.394   1.971   2.501
 8424SOL    HW126171   1.434   1.879   2.503
 8424SOL    HW226172   1.467   2.039   2.504
 8425SOL     OW26173   4.250   4.254   6.223
 8425SOL    HW126174   4.195   4.211   6.295
 8425SOL    HW226175   4.336   4.288   6.262
 8426SOL     OW26176   3.841   3.314   2.864
 8426SOL    HW126177   3.930   3.361   2.865
 8426SOL    HW226178   3.846   3.232   2.920
 8427SOL     OW26179   3.526   3.694   3.484
 8427SOL    HW126180   3.529   3.788   3.518
 8427SOL    HW226181   3.545   3.693   3.386
 8428SOL     OW26182   0.411   6.021   1.360
 8428SOL    HW126183   0.353   5.956   1.311
 8428SOL    HW226184   0.507   5.998   1.344
 8429SOL     OW26185   1.610   5.764   5.823
 8429SOL    HW126186   1.665   5.813   5.756
 8429SOL    HW226187   1.603   5.819   5.907
 8430SOL     OW26188   3.607   5.038   3.955
 8430SOL    HW126189   3.577   5.103   4.025
 8430SOL    HW226190   3.528   4.988   3.919
 8431SOL     OW26191   3.958   3.682   0.415
 8431SOL    HW126192   3.973   3.734   0.499
 8431SOL    HW226193   3.870   3.635   0.419
 8432SOL     OW26194   6.092   5.593   5.067
 8432SOL    HW126195   6.010   5.597   5.123
 8432SOL    HW226196   6.067   5.599   4.970
 8433SOL     OW26197   4.530   3.213   0.021
 8433SOL    HW126198   4.533   3.312   0.010
 8433SOL    HW226199   4.442   3.178   7.011
 8434SOL     OW26200   2.777   0.838   4.559
 8434SOL    HW126201   2.810   0.787   4.639
 8434SOL    HW226202   2.679   0.854   4.568
 8435SOL     OW26203   5.949   0.094   2.018
 8435SOL    HW126204   5.862   0.073   1.973
 8435SOL    HW226205   5.955   0.193   2.033
 8436SOL     OW26206   3.249   6.310   3.246
 8436SOL    HW126207   3.170   6.287   3.302
 8436SOL    HW226208   3.280   6.229   3.198
 8437SOL     OW26209   1.822   1.529   3.781
 8437SOL    HW126210   1.889   1.553   3.711
 8437SOL    HW226211   1.730   1.527   3.740
 8438SOL     OW26212   2.259   4.266   3.072
 8438SOL    HW126213   2.343   4.267   3.019
 8438SOL    HW226214   2.211   4.180   3.058
 8439SOL     OW26215   5.943   4.661   2.756
 8439SOL    HW126216   6.037   4.687   2.778
 8439SOL    HW226217   5.939   4.564   2.736
 8440SOL     OW26218   2.993   1.592   3.606
 8440SOL    HW126219   3.065   1.655   3.576
 8440SOL    HW226220   2.937   1.566   3.528
 8441SOL     OW26221   5.565   6.654   0.250
 8441SOL    HW126222   5.630   6.592   0.295
 8441SOL    HW226223   5.610   6.741   0.231
 8442SOL     OW26224   3.787   2.196   5.450
 8442SOL    HW126225   3.694   2.196   5.485
 8442SOL    HW226226   3.793   2.134   5.371
 8443SOL     OW26227   2.520   4.542   3.776
 8443SOL    HW126228   2.507   4.443   3.779
 8443SOL    HW226229   2.517   4.573   3.681
 8444SOL     OW26230   2.942   6.459   4.052
 8444SOL    HW126231   3.022   6.464   4.111
 8444SOL    HW226232   2.903   6.367   4.056
 8445SOL     OW26233   2.681   0.626   1.134
 8445SOL    HW126234   2.745   0.586   1.069
 8445SOL    HW226235   2.606   0.563   1.151
 8446SOL     OW26236   5.769   5.310   6.000
 8446SOL    HW126237   5.808   5.400   6.022
 8446SOL    HW226238   5.729   5.270   6.082
 8447SOL     OW26239   4.216   1.382   2.004
 8447SOL    HW126240   4.149   1.333   2.060
 8447SOL    HW226241   4.281   1.317   1.966
 8448SOL     OW26242   4.102   6.021   3.944
 8448SOL    HW126243   4.056   6.096   3.896
 8448SOL    HW226244   4.081   5.935   3.897
 8449SOL     OW26245   0.331   3.458   3.638
 8449SOL    HW126246   0.300   3.460   3.733
 8449SOL    HW226247   0.431   3.468   3.636
 8450SOL     OW26248   1.018   0.907   1.372
 8450SOL    HW126249   1.073   0.841   1.321
 8450SOL    HW226250   1.007   0.875   1.467
 8451SOL     OW26251   3.107   1.696   0.098
 8451SOL    HW126252   3.054   1.779   0.116
 8451SOL    HW226253   3.160   1.709   0.014
 8452SOL     OW26254   6.252   2.787   3.662
 8452SOL    HW126255   6.165   2.755   3.699
 8452SOL    HW226256   6.284   2.865   3.715
 8453SOL     OW26257   0.381   4.950   0.360
 8453SOL    HW126258   0.397   4.885   0.434
 8453SOL    HW226259   0.283   4.958   0.343
 8454SOL     OW26260   0.145   5.428   1.407
 8454SOL    HW126261   0.098   5.372   1.338
 8454SOL    HW226262   0.133   5.385   1.497
 8455SOL     OW26263   0.174   1.780   1.783
 8455SOL    HW126264   0.113   1.779   1.862
 8455SOL    HW226265   0.264   1.814   1.810
 8456SOL     OW26266   4.894   6.662   3.244
 8456SOL    HW126267   4.804   6.646   3.205
 8456SOL    HW226268   4.887   6.731   3.317
 8457SOL     OW26269   0.208   6.740   4.259
 8457SOL    HW126270   0.150   6.675   4.209
 8457SOL    HW226271   0.233   6.702   4.348
 8458SOL     OW26272   2.694   0.749   0.207
 8458SOL    HW126273   2.683   0.848   0.215
 8458SOL    HW226274   2.655   0.718   0.121
 8459SOL     OW26275   2.811   5.974   2.183
 8459SOL    HW126276   2.726   6.014   2.149
 8459SOL    HW226277   2.791   5.888   2.231
 8460SOL     OW26278   4.537   4.166   5.219
 8460SOL    HW126279   4.497   4.107   5.290
 8460SOL    HW226280   4.615   4.120   5.178
 8461SOL     OW26281   1.007   2.981   4.635
 8461SOL    HW126282   0.943   2.969   4.559
 8461SOL    HW226283   1.023   3.078   4.650
 8462SOL     OW26284   2.084   2.981   6.653
 8462SOL    HW126285   2.011   3.032   6.607
 8462SOL    HW226286   2.161   2.969   6.591
 8463SOL     OW26287   7.011   0.300   1.732
 8463SOL    HW126288   6.943   0.319   1.803
 8463SOL    HW226289   0.014   0.204   1.736
 8464SOL     OW26290   5.479   4.525   4.367
 8464SOL    HW126291   5.507   4.497   4.459
 8464SOL    HW226292   5.389   4.567   4.371
 8465SOL     OW26293   0.844   3.121   0.587
 8465SOL    HW126294   0.783   3.197   0.610
 8465SOL    HW226295   0.790   3.045   0.550
 8466SOL     OW26296   0.580   6.545   4.537
 8466SOL    HW126297   0.488   6.507   4.526
 8466SOL    HW226298   0.586   6.593   4.624
 8467SOL     OW26299   3.167   6.291   0.528
 8467SOL    HW126300   3.251   6.275   0.580
 8467SOL    HW226301   3.131   6.382   0.549
 8468SOL     OW26302   3.166   1.518   0.447
 8468SOL    HW126303   3.110   1.582   0.499
 8468SOL    HW226304   3.140   1.521   0.350
 8469SOL     OW26305   3.563   2.606   6.954
 8469SOL    HW126306   3.582   2.660   0.013
 8469SOL    HW226307   3.467   2.577   6.955
 8470SOL     OW26308   1.431   3.472   0.440
 8470SOL    HW126309   1.512   3.531   0.447
 8470SOL    HW226310   1.449   3.386   0.488
 8471SOL     OW26311   2.969   1.665   2.419
 8471SOL    HW126312   3.034   1.606   2.468
 8471SOL    HW226313   2.941   1.740   2.478
 8472SOL     OW26314   0.604   0.435   4.447
 8472SOL    HW126315   0.566   0.494   4.377
 8472SOL    HW226316   0.640   0.352   4.405
 8473SOL     OW26317   5.861   5.026   6.717
 8473SOL    HW126318   5.876   4.930   6.693
 8473SOL    HW226319   5.844   5.033   6.815
 8474SOL     OW26320   3.476   3.207   2.154
 8474SOL    HW126321   3.464   3.122   2.205
 8474SOL    HW226322   3.387   3.245   2.130
 8475SOL     OW26323   0.466   1.607   3.206
 8475SOL    HW126324   0.461   1.640   3.111
 8475SOL    HW226325   0.462   1.507   3.206
 8476SOL     OW26326   6.620   0.924   1.446
 8476SOL    HW126327   6.672   0.997   1.489
 8476SOL    HW226328   6.682   0.853   1.413
 8477SOL     OW26329   3.991   6.743   2.316
 8477SOL    HW126330   4.089   6.754   2.333
 8477SOL    HW226331   3.966   6.646   2.324
 8478SOL     OW26332   1.089   0.586   5.840
 8478SOL    HW126333   1.010   0.602   5.782
 8478SOL    HW226334   1.066   0.606   5.935
 8479SOL     OW26335   6.069   2.732   1.021
 8479SOL    HW126336   6.150   2.732   0.962
 8479SOL    HW226337   5.988   2.715   0.965
 8480SOL     OW26338   3.475   0.867   0.305
 8480SOL    HW126339   3.560   0.816   0.314
 8480SOL    HW226340   3.435   0.881   0.396
 8481SOL     OW26341   4.444   1.851   3.821
 8481SOL    HW126342   4.493   1.929   3.783
 8481SOL    HW226343   4.374   1.820   3.757
 8482SOL     OW26344   3.417   6.972   3.314
 8482SOL    HW126345   3.439   6.929   3.227
 8482SOL    HW226346   3.318   6.974   3.326
 8483SOL     OW26347   3.948   5.573   2.150
 8483SOL    HW126348   3.947   5.521   2.235
 8483SOL    HW226349   3.911   5.517   2.076
 8484SOL     OW26350   0.642   5.569   3.023
 8484SOL    HW126351   0.725   5.521   2.993
 8484SOL    HW226352   0.562   5.524   2.986
 8485SOL     OW26353   2.903   3.770   6.595
 8485SOL    HW126354   2.923   3.828   6.674
 8485SOL    HW226355   2.882   3.828   6.516
 8486SOL     OW26356   4.888   1.310   2.852
 8486SOL    HW126357   4.904   1.364   2.934
 8486SOL    HW226358   4.952   1.339   2.780
 8487SOL     OW26359   5.573   0.678   0.254
 8487SOL    HW126360   5.654   0.650   0.203
 8487SOL    HW226361   5.535   0.599   0.303
 8488SOL     OW26362   5.812   4.705   4.776
 8488SOL    HW126363   5.892   4.708   4.836
 8488SOL    HW226364   5.755   4.627   4.801
 8489SOL     OW26365   6.082   0.563   1.331
 8489SOL    HW126366   6.114   0.624   1.404
 8489SOL    HW226367   6.009   0.504   1.367
 8490SOL     OW26368   4.283   6.549   4.348
 8490SOL    HW126369   4.239   6.589   4.268
 8490SOL    HW226370   4.258   6.602   4.429
 8491SOL     OW26371   2.079   0.380   1.751
 8491SOL    HW126372   2.121   0.331   1.674
 8491SOL    HW226373   2.008   0.441   1.716
 8492SOL     OW26374   4.234   4.236   6.908
 8492SOL    HW126375   4.300   4.245   6.982
 8492SOL    HW226376   4.183   4.321   6.898
 8493SOL     OW26377   2.700   2.193   6.278
 8493SOL    HW126378   2.726   2.274   6.330
 8493SOL    HW226379   2.774   2.168   6.216
 8494SOL     OW26380   2.629   4.788   0.396
 8494SOL    HW126381   2.716   4.783   0.445
 8494SOL    HW226382   2.625   4.873   0.344
 8495SOL     OW26383   6.644   3.649   0.358
 8495SOL    HW126384   6.687   3.619   0.273
 8495SOL    HW226385   6.545   3.655   0.345
 8496SOL     OW26386   0.688   2.289   1.361
 8496SOL    HW126387   0.664   2.199   1.398
 8496SOL    HW226388   0.786   2.294   1.343
 8497SOL     OW26389   6.712   0.626   3.882
 8497SOL    HW126390   6.799   0.627   3.832
 8497SOL    HW226391   6.641   0.588   3.823
 8498SOL     OW26392   0.093   6.184   2.652
 8498SOL    HW126393   0.089   6.104   2.711
 8498SOL    HW226394   0.186   6.194   2.616
 8499SOL     OW26395   2.542   5.463   6.791
 8499SOL    HW126396   2.591   5.414   6.720
 8499SOL    HW226397   2.526   5.403   6.869
 8500SOL     OW26398   1.859   0.669   5.776
 8500SOL    HW126399   1.950   0.647   5.740
 8500SOL    HW226400   1.847   0.622   5.864
 8501SOL     OW26401   0.705   2.768   0.837
 8501SOL    HW126402   0.771   2.797   0.767
 8501SOL    HW226403   0.612   2.789   0.806
 8502SOL     OW26404   2.055   5.030   1.549
 8502SOL    HW126405   2.073   4.943   1.593
 8502SOL    HW226406   2.131   5.093   1.566
 8503SOL     OW26407   1.010   6.084   3.149
 8503SOL    HW126408   1.079   6.133   3.096
 8503SOL    HW226409   1.050   6.052   3.235
 8504SOL     OW26410   1.934   5.824   3.726
 8504SOL    HW126411   1.966   5.759   3.795
 8504SOL    HW226412   1.948   5.917   3.760
 8505SOL     OW26413   4.839   3.872   3.867
 8505SOL    HW126414   4.814   3.833   3.956
 8505SOL    HW226415   4.875   3.964   3.879
 8506SOL     OW26416   6.484   1.505   0.515
 8506SOL    HW126417   6.566   1.467   0.472
 8506SOL    HW226418   6.444   1.437   0.576
 8507SOL     OW26419   3.255   0.934   5.543
 8507SOL    HW126420   3.230   0.937   5.446
 8507SOL    HW226421   3.253   0.839   5.574
 8508SOL     OW26422   6.822   2.465   5.084
 8508SOL    HW126423   6.740   2.409   5.086
 8508SOL    HW226424   6.873   2.453   5.169
 8509SOL     OW26425   5.145   1.556   3.630
 8509SOL    HW126426   5.084   1.479   3.614
 8509SOL    HW226427   5.239   1.527   3.615
 8510SOL     OW26428   5.475   4.856   3.036
 8510SOL    HW126429   5.392   4.815   2.998
 8510SOL    HW226430   5.454   4.946   3.073
 8511SOL     OW26431   5.907   3.518   1.719
 8511SOL    HW126432   5.810   3.511   1.740
 8511SOL    HW226433   5.945   3.426   1.711
 8512SOL     OW26434   2.828   2.670   0.920
 8512SOL    HW126435   2.889   2.697   0.995
 8512SOL    HW226436   2.882   2.632   0.845
 8513SOL     OW26437   4.911   3.629   1.215
 8513SOL    HW126438   4.938   3.577   1.296
 8513SOL    HW226439   4.822   3.672   1.230
 8514SOL     OW26440   2.717   1.906   4.034
 8514SOL    HW126441   2.687   1.898   3.939
 8514SOL    HW226442   2.690   1.995   4.071
 8515SOL     OW26443   5.936   1.459   6.880
 8515SOL    HW126444   5.877   1.379   6.891
 8515SOL    HW226445   5.942   1.482   6.783
 8516SOL     OW26446   6.638   2.204   1.282
 8516SOL    HW126447   6.547   2.232   1.314
 8516SOL    HW226448   6.633   2.177   1.186
 8517SOL     OW26449   1.464   2.750   5.999
 8517SOL    HW126450   1.551   2.712   5.965
 8517SOL    HW226451   1.438   2.829   5.943
 8518SOL     OW26452   4.998   4.301   6.348
 8518SOL    HW126453   5.078   4.356   6.324
 8518SOL    HW226454   4.943   4.351   6.415
 8519SOL     OW26455   1.626   5.015   1.142
 8519SOL    HW126456   1.682   5.094   1.168
 8519SOL    HW226457   1.620   4.952   1.219
 8520SOL     OW26458   3.528   3.228   6.667
 8520SOL    HW126459   3.567   3.320   6.656
 8520SOL    HW226460   3.464   3.227   6.744
 8521SOL     OW26461   2.326   4.609   5.562
 8521SOL    HW126462   2.342   4.663   5.479
 8521SOL    HW226463   2.267   4.531   5.540
 8522SOL     OW26464   1.563   6.897   1.423
 8522SOL    HW126465   1.657   6.867   1.409
 8522SOL    HW226466   1.505   6.818   1.441
 8523SOL     OW26467   1.689   6.052   6.973
 8523SOL    HW126468   1.604   6.024   7.018
 8523SOL    HW226469   1.668   6.101   6.889
 8524SOL     OW26470   0.426   2.783   5.499
 8524SOL    HW126471   0.433   2.823   5.408
 8524SOL    HW226472   0.513   2.794   5.548
 8525SOL     OW26473   6.246   4.671   1.656
 8525SOL    HW126474   6.215   4.590   1.707
 8525SOL    HW226475   6.208   4.669   1.564
 8526SOL     OW26476   3.976   6.218   0.295
 8526SOL    HW126477   3.954   6.230   0.392
 8526SOL    HW226478   4.031   6.135   0.284
 8527SOL     OW26479   3.108   0.999   6.733
 8527SOL    HW126480   3.156   1.079   6.768
 8527SOL    HW226481   3.137   0.917   6.783
 8528SOL     OW26482   4.139   0.989   6.927
 8528SOL    HW126483   4.069   0.980   6.998
 8528SOL    HW226484   4.192   0.905   6.921
 8529SOL     OW26485   1.131   0.047   0.641
 8529SOL    HW126486   1.074   6.989   0.652
 8529SOL    HW226487   1.094   0.104   0.568
 8530SOL     OW26488   4.077   4.172   5.470
 8530SOL    HW126489   3.999   4.115   5.444
 8530SOL    HW226490   4.160   4.136   5.429
 8531SOL     OW26491   6.854   4.805   2.464
 8531SOL    HW126492   6.883   4.771   2.554
 8531SOL    HW226493   6.773   4.863   2.475
 8532SOL     OW26494   4.367   5.414   4.732
 8532SOL    HW126495   4.397   5.336   4.787
 8532SOL    HW226496   4.395   5.401   4.637
 8533SOL     OW26497   1.902   6.048   0.112
 8533SOL    HW126498   2.000   6.060   0.098
 8533SOL    HW226499   1.851   6.082   0.033
 8534SOL     OW26500   5.983   2.165   4.421
 8534SOL    HW126501   5.890   2.191   4.395
 8534SOL    HW226502   6.049   2.214   4.364
 8535SOL     OW26503   6.771   1.064   3.190
 8535SOL    HW126504   6.870   1.061   3.179
 8535SOL    HW226505   6.728   1.068   3.100
 8536SOL     OW26506   6.963   2.051   4.958
 8536SOL    HW126507   7.010   2.086   4.877
 8536SOL    HW226508   6.919   1.963   4.936
 8537SOL     OW26509   5.153   0.794   3.459
 8537SOL    HW126510   5.192   0.781   3.550
 8537SOL    HW226511   5.087   0.721   3.441
 8538SOL     OW26512   1.273   0.991   0.132
 8538SOL    HW126513   1.237   1.080   0.157
 8538SOL    HW226514   1.358   0.974   0.181
 8539SOL     OW26515   6.261   0.936   2.576
 8539SOL    HW126516   6.170   0.921   2.615
 8539SOL    HW226517   6.253   0.946   2.477
 8540SOL     OW26518   5.538   0.550   6.252
 8540SOL    HW126519   5.464   0.598   6.299
 8540SOL    HW226520   5.512   0.454   6.240
 8541SOL     OW26521   2.774   2.012   3.567
 8541SOL    HW126522   2.723   2.060   3.638
 8541SOL    HW226523   2.849   2.070   3.533
 8542SOL     OW26524   4.536   4.762   6.579
 8542SOL    HW126525   4.548   4.848   6.530
 8542SOL    HW226526   4.480   4.699   6.525
 8543SOL     OW26527   2.704   1.786   1.356
 8543SOL    HW126528   2.660   1.710   1.405
 8543SOL    HW226529   2.678   1.873   1.399
 8544SOL     OW26530   5.226   3.486   4.012
 8544SOL    HW126531   5.253   3.398   3.973
 8544SOL    HW226532   5.289   3.557   3.981
 8545SOL     OW26533   4.153   7.021   5.100
 8545SOL    HW126534   4.239   6.980   5.070
 8545SOL    HW226535   4.163   0.097   5.104
 8546SOL     OW26536   5.753   1.638   4.445
 8546SOL    HW126537   5.834   1.611   4.392
 8546SOL    HW226538   5.763   1.733   4.474
 8547SOL     OW26539   1.418   6.477   5.833
 8547SOL    HW126540   1.384   6.402   5.777
 8547SOL    HW226541   1.450   6.442   5.921
 8548SOL     OW26542   6.140   2.884   6.085
 8548SOL    HW126543   6.084   2.965   6.067
 8548SOL    HW226544   6.221   2.886   6.025
 8549SOL     OW26545   1.154   2.885   3.941
 8549SOL    HW126546   1.214   2.963   3.923
 8549SOL    HW226547   1.183   2.839   4.025
 8550SOL     OW26548   1.954   4.827   0.251
 8550SOL    HW126549   2.001   4.915   0.238
 8550SOL    HW226550   2.005   4.771   0.315
 8551SOL     OW26551   3.590   4.312   5.786
 8551SOL    HW126552   3.616   4.359   5.701
 8551SOL    HW226553   3.610   4.214   5.778
 8552SOL     OW26554   2.260   6.823   3.554
 8552SOL    HW126555   2.330   6.761   3.589
 8552SOL    HW226556   2.298   6.915   3.545
 8553SOL     OW26557   5.049   4.502   6.550
 8553SOL    HW126558   5.115   4.428   6.561
 8553SOL    HW226559   5.015   4.530   6.640
 8554SOL     OW26560   0.508   5.102   0.563
 8554SOL    HW126561   0.463   5.084   0.475
 8554SOL    HW226562   0.607   5.097   0.551
 8555SOL     OW26563   1.334   0.389   2.615
 8555SOL    HW126564   1.345   0.450   2.537
 8555SOL    HW226565   1.393   0.310   2.604
 8556SOL     OW26566   0.757   6.505   4.946
 8556SOL    HW126567   0.835   6.514   5.008
 8556SOL    HW226568   0.676   6.479   4.998
 8557SOL     OW26569   5.993   0.632   2.811
 8557SOL    HW126570   6.032   0.658   2.898
 8557SOL    HW226571   6.011   0.535   2.793
 8558SOL     OW26572   2.801   5.790   3.211
 8558SOL    HW126573   2.802   5.775   3.310
 8558SOL    HW226574   2.856   5.718   3.167
 8559SOL     OW26575   6.645   0.737   2.113
 8559SOL    HW126576   6.663   0.829   2.149
 8559SOL    HW226577   6.714   0.713   2.045
 8560SOL     OW26578   0.224   6.133   1.986
 8560SOL    HW126579   0.226   6.053   1.926
 8560SOL    HW226580   0.138   6.182   1.973
 8561SOL     OW26581   3.813   0.139   2.307
 8561SOL    HW126582   3.860   0.053   2.328
 8561SOL    HW226583   3.805   0.148   2.207
 8562SOL     OW26584   4.747   6.390   5.054
 8562SOL    HW126585   4.666   6.348   5.013
 8562SOL    HW226586   4.814   6.409   4.982
 8563SOL     OW26587   2.675   4.647   0.021
 8563SOL    HW126588   2.598   4.706   7.020
 8563SOL    HW226589   2.658   4.603   0.109
 8564SOL     OW26590   2.911   1.202   3.848
 8564SOL    HW126591   2.936   1.298   3.859
 8564SOL    HW226592   2.985   1.153   3.800
 8565SOL     OW26593   4.507   6.031   1.339
 8565SOL    HW126594   4.485   6.018   1.436
 8565SOL    HW226595   4.516   5.942   1.294
 8566SOL     OW26596   1.038   0.429   1.564
 8566SOL    HW126597   1.102   0.448   1.637
 8566SOL    HW226598   1.028   0.330   1.553
 8567SOL     OW26599   6.377   1.365   2.461
 8567SOL    HW126600   6.470   1.348   2.494
 8567SOL    HW226601   6.380   1.396   2.366
 8568SOL     OW26602   5.320   1.289   6.029
 8568SOL    HW126603   5.363   1.334   5.950
 8568SOL    HW226604   5.311   1.191   6.012
 8569SOL     OW26605   4.981   1.811   5.530
 8569SOL    HW126606   4.910   1.842   5.467
 8569SOL    HW226607   4.943   1.803   5.622
 8570SOL     OW26608   1.357   2.258   5.225
 8570SOL    HW126609   1.434   2.321   5.212
 8570SOL    HW226610   1.324   2.227   5.136
 8571SOL     OW26611   0.960   5.311   5.846
 8571SOL    HW126612   0.937   5.395   5.797
 8571SOL    HW226613   0.958   5.329   5.944
 8572SOL     OW26614   3.329   5.119   6.196
 8572SOL    HW126615   3.244   5.157   6.232
 8572SOL    HW226616   3.375   5.067   6.267
 8573SOL     OW26617   3.475   0.002   6.184
 8573SOL    HW126618   3.470   0.088   6.233
 8573SOL    HW226619   3.480   6.949   6.249
 8574SOL     OW26620   0.215   6.191   5.920
 8574SOL    HW126621   0.308   6.154   5.911
 8574SOL    HW226622   0.152   6.119   5.945
 8575SOL     OW26623   3.093   2.726   5.852
 8575SOL    HW126624   3.116   2.630   5.863
 8575SOL    HW226625   3.178   2.780   5.847
 8576SOL     OW26626   1.076   6.087   0.337
 8576SOL    HW126627   1.139   6.075   0.414
 8576SOL    HW226628   1.126   6.125   0.259
 8577SOL     OW26629   0.324   5.791   4.251
 8577SOL    HW126630   0.250   5.850   4.219
 8577SOL    HW226631   0.410   5.819   4.206
 8578SOL     OW26632   5.177   0.591   4.382
 8578SOL    HW126633   5.149   0.498   4.409
 8578SOL    HW226634   5.274   0.591   4.362
 8579SOL     OW26635   1.422   6.973   3.423
 8579SOL    HW126636   1.503   6.915   3.424
 8579SOL    HW226637   1.343   6.921   3.457
 8580SOL     OW26638   2.062   6.860   2.239
 8580SOL    HW126639   1.984   6.910   2.276
 8580SOL    HW226640   2.120   6.829   2.314
 8581SOL     OW26641   3.313   3.222   1.744
 8581SOL    HW126642   3.229   3.269   1.771
 8581SOL    HW226643   3.303   3.124   1.762
 8582SOL     OW26644   4.190   4.873   2.265
 8582SOL    HW126645   4.102   4.838   2.234
 8582SOL    HW226646   4.209   4.841   2.357
 8583SOL     OW26647   5.628   0.745   5.558
 8583SOL    HW126648   5.644   0.680   5.484
 8583SOL    HW226649   5.579   0.700   5.633
 8584SOL     OW26650   0.260   3.690   6.118
 8584SOL    HW126651   0.312   3.685   6.203
 8584SOL    HW226652   0.300   3.758   6.058
 8585SOL     OW26653   0.651   6.260   5.611
 8585SOL    HW126654   0.655   6.348   5.658
 8585SOL    HW226655   0.606   6.272   5.522
 8586SOL     OW26656   3.143   6.914   3.362
 8586SOL    HW126657   3.120   6.991   3.420
 8586SOL    HW226658   3.174   6.837   3.418
 8587SOL     OW26659   1.694   6.912   3.004
 8587SOL    HW126660   1.716   7.000   3.046
 8587SOL    HW226661   1.594   6.905   2.993
 8588SOL     OW26662   2.507   0.410   6.936
 8588SOL    HW126663   2.489   0.373   6.845
 8588SOL    HW226664   2.441   0.370   7.000
 8589SOL     OW26665   5.090   3.039   3.787
 8589SOL    HW126666   5.090   2.983   3.704
 8589SOL    HW226667   5.008   3.020   3.840
 8590SOL     OW26668   6.706   6.421   4.215
 8590SOL    HW126669   6.734   6.353   4.146
 8590SOL    HW226670   6.614   6.399   4.248
 8591SOL     OW26671   0.979   4.297   6.550
 8591SOL    HW126672   1.063   4.348   6.566
 8591SOL    HW226673   0.973   4.222   6.616
 8592SOL     OW26674   0.003   3.413   0.148
 8592SOL    HW126675   0.038   3.506   0.141
 8592SOL    HW226676   6.927   3.413   0.135
 8593SOL     OW26677   1.361   0.290   2.002
 8593SOL    HW126678   1.262   0.277   2.001
 8593SOL    HW226679   1.392   0.318   1.911
 8594SOL     OW26680   3.668   3.050   4.956
 8594SOL    HW126681   3.610   3.076   4.879
 8594SOL    HW226682   3.763   3.073   4.935
 8595SOL     OW26683   1.873   1.801   3.379
 8595SOL    HW126684   1.934   1.866   3.424
 8595SOL    HW226685   1.922   1.756   3.304
 8596SOL     OW26686   6.367   5.655   3.328
 8596SOL    HW126687   6.312   5.632   3.248
 8596SOL    HW226688   6.307   5.693   3.400
 8597SOL     OW26689   4.504   1.423   1.041
 8597SOL    HW126690   4.601   1.402   1.033
 8597SOL    HW226691   4.493   1.506   1.096
 8598SOL     OW26692   7.008   5.553   1.058
 8598SOL    HW126693   6.921   5.574   1.013
 8598SOL    HW226694   6.995   5.475   1.120
 8599SOL     OW26695   0.661   2.368   3.581
 8599SOL    HW126696   0.647   2.301   3.655
 8599SOL    HW226697   0.711   2.447   3.617
 8600SOL     OW26698   5.034   4.993   6.008
 8600SOL    HW126699   4.974   5.072   6.015
 8600SOL    HW226700   4.995   4.926   5.945
 8601SOL     OW26701   1.031   0.627   5.341
 8601SOL    HW126702   0.960   0.604   5.408
 8601SOL    HW226703   0.988   0.664   5.258
 8602SOL     OW26704   3.106   5.707   3.399
 8602SOL    HW126705   3.180   5.696   3.333
 8602SOL    HW226706   3.108   5.632   3.465
 8603SOL     OW26707   3.825   5.394   0.568
 8603SOL    HW126708   3.882   5.374   0.488
 8603SOL    HW226709   3.880   5.438   0.638
 8604SOL     OW26710   0.227   3.050   3.600
 8604SOL    HW126711   0.223   3.012   3.692
 8604SOL    HW226712   0.185   3.141   3.600
 8605SOL     OW26713   3.151   4.930   4.202
 8605SOL    HW126714   3.243   4.941   4.241
 8605SOL    HW226715   3.103   4.857   4.251
 8606SOL     OW26716   1.954   4.749   6.250
 8606SOL    HW126717   2.005   4.829   6.218
 8606SOL    HW226718   1.882   4.726   6.184
 8607SOL     OW26719   3.410   5.996   0.532
 8607SOL    HW126720   3.462   6.010   0.448
 8607SOL    HW226721   3.453   5.925   0.587
 8608SOL     OW26722   4.456   5.295   3.092
 8608SOL    HW126723   4.386   5.242   3.141
 8608SOL    HW226724   4.546   5.257   3.112
 8609SOL     OW26725   4.878   0.881   3.677
 8609SOL    HW126726   4.794   0.922   3.713
 8609SOL    HW226727   4.878   0.783   3.697
 8610SOL     OW26728   1.343   1.180   2.589
 8610SOL    HW126729   1.402   1.230   2.525
 8610SOL    HW226730   1.400   1.131   2.655
 8611SOL     OW26731   2.116   1.938   4.316
 8611SOL    HW126732   2.153   1.970   4.228
 8611SOL    HW226733   2.112   1.838   4.315
 8612SOL     OW26734   3.128   3.147   0.244
 8612SOL    HW126735   3.186   3.076   0.205
 8612SOL    HW226736   3.039   3.109   0.267
 8613SOL     OW26737   2.291   2.147   1.414
 8613SOL    HW126738   2.262   2.057   1.446
 8613SOL    HW226739   2.367   2.137   1.349
 8614SOL     OW26740   0.531   3.408   2.768
 8614SOL    HW126741   0.475   3.416   2.851
 8614SOL    HW226742   0.476   3.368   2.695
 8615SOL     OW26743   5.105   1.965   5.145
 8615SOL    HW126744   5.033   1.971   5.214
 8615SOL    HW226745   5.140   1.871   5.141
 8616SOL     OW26746   2.275   5.268   1.354
 8616SOL    HW126747   2.336   5.204   1.306
 8616SOL    HW226748   2.271   5.243   1.451
 8617SOL     OW26749   6.604   0.958   6.526
 8617SOL    HW126750   6.519   1.003   6.498
 8617SOL    HW226751   6.678   0.984   6.465
 8618SOL     OW26752   6.170   6.630   1.207
 8618SOL    HW126753   6.188   6.643   1.109
 8618SOL    HW226754   6.218   6.547   1.238
 8619SOL     OW26755   3.292   5.162   2.163
 8619SOL    HW126756   3.251   5.081   2.122
 8619SOL    HW226757   3.256   5.175   2.255
 8620SOL     OW26758   0.400   7.013   3.283
 8620SOL    HW126759   0.391   0.089   3.282
 8620SOL    HW226760   0.461   6.986   3.357
 8621SOL     OW26761   5.962   1.823   3.023
 8621SOL    HW126762   6.049   1.851   3.065
 8621SOL    HW226763   5.972   1.824   2.923
 8622SOL     OW26764   5.227   4.112   0.204
 8622SOL    HW126765   5.205   4.135   0.299
 8622SOL    HW226766   5.311   4.161   0.177
 8623SOL     OW26767   1.283   3.853   3.152
 8623SOL    HW126768   1.243   3.768   3.118
 8623SOL    HW226769   1.302   3.844   3.250
 8624SOL     OW26770   1.558   3.830   3.790
 8624SOL    HW126771   1.487   3.843   3.720
 8624SOL    HW226772   1.611   3.748   3.767
 8625SOL     OW26773   4.949   6.791   4.976
 8625SOL    HW126774   4.997   6.771   4.891
 8625SOL    HW226775   4.993   6.869   5.021
 8626SOL     OW26776   3.674   2.851   5.178
 8626SOL    HW126777   3.725   2.883   5.258
 8626SOL    HW226778   3.678   2.921   5.106
 8627SOL     OW26779   0.430   0.969   3.666
 8627SOL    HW126780   0.370   1.030   3.614
 8627SOL    HW226781   0.376   0.898   3.710
 8628SOL     OW26782   5.795   6.960   1.378
 8628SOL    HW126783   5.846   6.893   1.324
 8628SOL    HW226784   5.746   6.913   1.451
 8629SOL     OW26785   1.244   5.098   5.402
 8629SOL    HW126786   1.267   5.131   5.310
 8629SOL    HW226787   1.327   5.067   5.449
 8630SOL     OW26788   5.862   4.539   4.249
 8630SOL    HW126789   5.895   4.555   4.342
 8630SOL    HW226790   5.876   4.621   4.194
 8631SOL     OW26791   3.030   5.827   6.386
 8631SOL    HW126792   2.954   5.806   6.447
 8631SOL    HW226793   3.115   5.789   6.424
 8632SOL     OW26794   3.207   6.925   4.255
 8632SOL    HW126795   3.112   6.912   4.284
 8632SOL    HW226796   3.265   6.857   4.300
 8633SOL     OW26797   4.930   1.367   4.996
 8633SOL    HW126798   5.012   1.362   5.052
 8633SOL    HW226799   4.928   1.292   4.931
 8634SOL     OW26800   5.672   3.215   0.644
 8634SOL    HW126801   5.683   3.306   0.685
 8634SOL    HW226802   5.762   3.172   0.634
 8635SOL     OW26803   6.087   4.380   6.826
 8635SOL    HW126804   6.140   4.363   6.909
 8635SOL    HW226805   5.990   4.369   6.845
 8636SOL     OW26806   5.368   5.914   0.749
 8636SOL    HW126807   5.451   5.969   0.741
 8636SOL    HW226808   5.387   5.822   0.715
 8637SOL     OW26809   2.104   1.385   0.090
 8637SOL    HW126810   2.136   1.402   7.021
 8637SOL    HW226811   2.098   1.471   0.140
 8638SOL     OW26812   2.537   3.093   6.756
 8638SOL    HW126813   2.624   3.133   6.782
 8638SOL    HW226814   2.462   3.146   6.796
 8639SOL     OW26815   5.806   2.044   1.599
 8639SOL    HW126816   5.790   1.957   1.553
 8639SOL    HW226817   5.835   2.112   1.532
 8640SOL     OW26818   4.382   3.766   0.591
 8640SOL    HW126819   4.333   3.687   0.629
 8640SOL    HW226820   4.319   3.843   0.582
 8641SOL     OW26821   6.528   4.875   4.009
 8641SOL    HW126822   6.496   4.969   4.022
 8641SOL    HW226823   6.453   4.812   4.027
 8642SOL     OW26824   3.546   1.175   2.672
 8642SOL    HW126825   3.620   1.168   2.740
 8642SOL    HW226826   3.478   1.104   2.691
 8643SOL     OW26827   4.059   0.396   7.004
 8643SOL    HW126828   4.000   0.405   0.060
 8643SOL    HW226829   4.002   0.389   6.921
 8644SOL     OW26830   4.426   2.680   5.622
 8644SOL    HW126831   4.395   2.669   5.527
 8644SOL    HW226832   4.525   2.688   5.625
 8645SOL     OW26833   4.733   4.030   1.264
 8645SOL    HW126834   4.809   4.037   1.328
 8645SOL    HW226835   4.749   4.090   1.186
 8646SOL     OW26836   6.588   1.610   1.339
 8646SOL    HW126837   6.558   1.672   1.411
 8646SOL    HW226838   6.687   1.617   1.328
 8647SOL     OW26839   2.713   5.185   6.203
 8647SOL    HW126840   2.790   5.126   6.176
 8647SOL    HW226841   2.629   5.148   6.165
 8648SOL     OW26842   6.158   1.008   3.721
 8648SOL    HW126843   6.099   1.018   3.801
 8648SOL    HW226844   6.250   0.981   3.751
 8649SOL     OW26845   5.486   4.269   0.104
 8649SOL    HW126846   5.539   4.193   0.065
 8649SOL    HW226847   5.529   4.300   0.188
 8650SOL     OW26848   1.630   4.259   6.171
 8650SOL    HW126849   1.675   4.342   6.138
 8650SOL    HW226850   1.694   4.207   6.229
 8651SOL     OW26851   3.498   1.070   0.679
 8651SOL    HW126852   3.422   1.011   0.652
 8651SOL    HW226853   3.579   1.015   0.695
 8652SOL     OW26854   1.198   3.605   3.386
 8652SOL    HW126855   1.199   3.518   3.436
 8652SOL    HW226856   1.216   3.587   3.289
 8653SOL     OW26857   5.753   1.388   6.138
 8653SOL    HW126858   5.723   1.321   6.206
 8653SOL    HW226859   5.817   1.452   6.180
 8654SOL     OW26860   1.286   5.700   1.330
 8654SOL    HW126861   1.228   5.657   1.260
 8654SOL    HW226862   1.238   5.779   1.369
 8655SOL     OW26863   6.037   1.029   3.952
 8655SOL    HW126864   5.955   0.974   3.960
 8655SOL    HW226865   6.066   1.059   4.043
 8656SOL     OW26866   6.410   1.355   0.722
 8656SOL    HW126867   6.404   1.266   0.677
 8656SOL    HW226868   6.358   1.353   0.808
 8657SOL     OW26869   4.692   4.976   0.153
 8657SOL    HW126870   4.652   4.939   0.070
 8657SOL    HW226871   4.783   4.937   0.167
 8658SOL     OW26872   4.177   6.676   7.002
 8658SOL    HW126873   4.200   6.609   0.050
 8658SOL    HW226874   4.134   6.756   0.022
 8659SOL     OW26875   4.525   1.431   3.608
 8659SOL    HW126876   4.553   1.522   3.578
 8659SOL    HW226877   4.455   1.396   3.546
 8660SOL     OW26878   5.642   4.027   0.889
 8660SOL    HW126879   5.662   4.032   0.791
 8660SOL    HW226880   5.627   3.932   0.915
 8661SOL     OW26881   5.693   4.156   1.179
 8661SOL    HW126882   5.687   4.086   1.108
 8661SOL    HW226883   5.778   4.207   1.168
 8662SOL     OW26884   4.576   5.904   1.641
 8662SOL    HW126885   4.606   5.852   1.721
 8662SOL    HW226886   4.625   5.872   1.560
 8663SOL     OW26887   2.784   5.920   1.143
 8663SOL    HW126888   2.687   5.929   1.162
 8663SOL    HW226889   2.836   5.930   1.227
 8664SOL     OW26890   3.135   5.789   1.395
 8664SOL    HW126891   3.216   5.819   1.344
 8664SOL    HW226892   3.159   5.713   1.455
 8665SOL     OW26893   5.468   5.990   5.292
 8665SOL    HW126894   5.541   5.922   5.291
 8665SOL    HW226895   5.488   6.061   5.224
 8666SOL     OW26896   4.913   1.844   4.519
 8666SOL    HW126897   4.920   1.816   4.423
 8666SOL    HW226898   4.994   1.814   4.568
 8667SOL     OW26899   4.781   2.881   3.084
 8667SOL    HW126900   4.682   2.892   3.085
 8667SOL    HW226901   4.808   2.817   3.156
 8668SOL     OW26902   5.816   3.412   3.167
 8668SOL    HW126903   5.765   3.421   3.252
 8668SOL    HW226904   5.789   3.485   3.104
 8669SOL     OW26905   2.335   6.302   6.635
 8669SOL    HW126906   2.281   6.231   6.679
 8669SOL    HW226907   2.274   6.370   6.593
 8670SOL     OW26908   3.591   4.861   5.578
 8670SOL    HW126909   3.505   4.904   5.604
 8670SOL    HW226910   3.595   4.768   5.615
 8671SOL     OW26911   5.716   1.713   3.070
 8671SOL    HW126912   5.668   1.784   3.122
 8671SOL    HW226913   5.807   1.745   3.045
 8672SOL     OW26914   2.237   5.175   3.621
 8672SOL    HW126915   2.267   5.092   3.669
 8672SOL    HW226916   2.180   5.230   3.682
 8673SOL     OW26917   6.555   2.111   6.678
 8673SOL    HW126918   6.636   2.060   6.649
 8673SOL    HW226919   6.567   2.208   6.657
 8674SOL     OW26920   6.001   5.904   1.913
 8674SOL    HW126921   6.078   5.874   1.969
 8674SOL    HW226922   5.948   5.973   1.962
 8675SOL     OW26923   3.674   2.039   4.843
 8675SOL    HW126924   3.695   2.100   4.920
 8675SOL    HW226925   3.657   1.947   4.878
 8676SOL     OW26926   4.316   0.084   2.709
 8676SOL    HW126927   4.402   0.108   2.754
 8676SOL    HW226928   4.263   0.167   2.691
 8677SOL     OW26929   2.530   6.465   5.513
 8677SOL    HW126930   2.489   6.416   5.590
 8677SOL    HW226931   2.569   6.551   5.546
 8678SOL     OW26932   6.928   0.328   1.295
 8678SOL    HW126933   6.833   0.359   1.297
 8678SOL    HW226934   6.977   0.375   1.222
 8679SOL     OW26935   6.486   2.757   4.331
 8679SOL    HW126936   6.554   2.821   4.367
 8679SOL    HW226937   6.502   2.666   4.371
 8680SOL     OW26938   0.728   4.250   1.754
 8680SOL    HW126939   0.720   4.345   1.723
 8680SOL    HW226940   0.824   4.227   1.768
 8681SOL     OW26941   4.881   5.328   6.594
 8681SOL    HW126942   4.938   5.360   6.669
 8681SOL    HW226943   4.939   5.292   6.521
 8682SOL     OW26944   4.727   6.865   1.710
 8682SOL    HW126945   4.735   6.945   1.651
 8682SOL    HW226946   4.752   6.890   1.803
 8683SOL     OW26947   1.532   2.210   2.466
 8683SOL    HW126948   1.494   2.299   2.440
 8683SOL    HW226949   1.630   2.218   2.481
 8684SOL     OW26950   0.677   2.513   4.750
 8684SOL    HW126951   0.716   2.457   4.823
 8684SOL    HW226952   0.737   2.511   4.670
 8685SOL     OW26953   0.778   2.441   5.300
 8685SOL    HW126954   0.866   2.404   5.330
 8685SOL    HW226955   0.704   2.384   5.336
 8686SOL     OW26956   6.980   1.309   1.186
 8686SOL    HW126957   0.036   1.266   1.229
 8686SOL    HW226958   7.008   1.351   1.100
 8687SOL     OW26959   4.062   5.612   2.683
 8687SOL    HW126960   4.131   5.559   2.732
 8687SOL    HW226961   4.024   5.681   2.743
 8688SOL     OW26962   2.971   6.112   6.934
 8688SOL    HW126963   2.895   6.108   6.999
 8688SOL    HW226964   3.039   6.042   6.957
 8689SOL     OW26965   3.228   4.519   1.372
 8689SOL    HW126966   3.145   4.466   1.391
 8689SOL    HW226967   3.278   4.478   1.296
 8690SOL     OW26968   1.700   2.836   3.163
 8690SOL    HW126969   1.787   2.794   3.137
 8690SOL    HW226970   1.712   2.883   3.251
 8691SOL     OW26971   3.335   1.992   6.708
 8691SOL    HW126972   3.418   2.025   6.663
 8691SOL    HW226973   3.309   2.056   6.780
 8692SOL     OW26974   2.856   1.782   3.722
 8692SOL    HW126975   2.912   1.715   3.673
 8692SOL    HW226976   2.828   1.855   3.659
 8693SOL     OW26977   6.698   1.406   0.348
 8693SOL    HW126978   6.737   1.495   0.372
 8693SOL    HW226979   6.673   1.406   0.251
 8694SOL     OW26980   3.668   1.199   4.952
 8694SOL    HW126981   3.661   1.106   4.916
 8694SOL    HW226982   3.586   1.221   5.005
 8695SOL     OW26983   4.161   2.602   5.695
 8695SOL    HW126984   4.232   2.640   5.754
 8695SOL    HW226985   4.158   2.653   5.609
 8696SOL     OW26986   2.039   5.915   0.462
 8696SOL    HW126987   2.129   5.873   0.478
 8696SOL    HW226988   2.018   5.911   0.364
 8697SOL     OW26989   6.599   2.890   6.997
 8697SOL    HW126990   6.612   2.955   6.922
 8697SOL    HW226991   6.516   2.837   6.981
 8698SOL     OW26992   5.969   5.615   4.551
 8698SOL    HW126993   5.989   5.523   4.516
 8698SOL    HW226994   5.987   5.683   4.480
 8699SOL     OW26995   2.413   2.429   5.148
 8699SOL    HW126996   2.475   2.367   5.196
 8699SOL    HW226997   2.318   2.404   5.168
 8700SOL     OW26998   1.128   0.481   4.115
 8700SOL    HW126999   1.096   0.399   4.161
 8700SOL    HW227000   1.225   0.495   4.135
 8701SOL     OW27001   1.840   0.695   0.197
 8701SOL    HW127002   1.752   0.679   0.241
 8701SOL    HW227003   1.896   0.754   0.255
 8702SOL     OW27004   5.327   4.506   0.511
 8702SOL    HW127005   5.325   4.528   0.413
 8702SOL    HW227006   5.409   4.544   0.552
 8703SOL     OW27007   3.178   5.554   1.133
 8703SOL    HW127008   3.220   5.643   1.116
 8703SOL    HW227009   3.169   5.539   1.231
 8704SOL     OW27010   6.731   3.490   3.167
 8704SOL    HW127011   6.723   3.428   3.089
 8704SOL    HW227012   6.796   3.563   3.145
 8705SOL     OW27013   5.123   0.775   0.374
 8705SOL    HW127014   5.220   0.781   0.395
 8705SOL    HW227015   5.110   0.727   0.286
 8706SOL     OW27016   4.461   1.945   6.114
 8706SOL    HW127017   4.530   1.934   6.043
 8706SOL    HW227018   4.505   1.966   6.201
 8707SOL     OW27019   6.264   2.370   0.100
 8707SOL    HW127020   6.337   2.357   0.167
 8707SOL    HW227021   6.277   2.307   0.023
 8708SOL     OW27022   3.912   1.684   2.282
 8708SOL    HW127023   3.890   1.723   2.372
 8708SOL    HW227024   3.913   1.584   2.289
 8709SOL     OW27025   6.855   5.813   6.741
 8709SOL    HW127026   6.795   5.761   6.803
 8709SOL    HW227027   6.930   5.853   6.793
 8710SOL     OW27028   2.029   2.877   3.546
 8710SOL    HW127029   2.066   2.941   3.479
 8710SOL    HW227030   2.063   2.901   3.637
 8711SOL     OW27031   1.321   5.941   2.845
 8711SOL    HW127032   1.304   5.926   2.943
 8711SOL    HW227033   1.352   5.856   2.804
 8712SOL     OW27034   4.298   2.280   4.883
 8712SOL    HW127035   4.359   2.326   4.818
 8712SOL    HW227036   4.283   2.339   4.962
 8713SOL     OW27037   0.715   3.837   3.698
 8713SOL    HW127038   0.618   3.853   3.683
 8713SOL    HW227039   0.728   3.751   3.748
 8714SOL     OW27040   1.189   0.736   6.325
 8714SOL    HW127041   1.150   0.736   6.417
 8714SOL    HW227042   1.289   0.731   6.331
 8715SOL     OW27043   5.005   0.633   0.865
 8715SOL    HW127044   4.984   0.724   0.830
 8715SOL    HW227045   4.993   0.566   0.792
 8716SOL     OW27046   1.002   0.043   0.947
 8716SOL    HW127047   0.959   0.089   1.025
 8716SOL    HW227048   0.946   0.056   0.866
 8717SOL     OW27049   3.741   3.449   3.751
 8717SOL    HW127050   3.810   3.445   3.824
 8717SOL    HW227051   3.708   3.357   3.731
 8718SOL     OW27052   0.411   3.637   4.177
 8718SOL    HW127053   0.389   3.582   4.096
 8718SOL    HW227054   0.406   3.580   4.259
 8719SOL     OW27055   2.372   0.175   6.277
 8719SOL    HW127056   2.282   0.158   6.316
 8719SOL    HW227057   2.443   0.149   6.343
 8720SOL     OW27058   6.316   5.211   5.409
 8720SOL    HW127059   6.284   5.118   5.423
 8720SOL    HW227060   6.285   5.244   5.320
 8721SOL     OW27061   6.637   2.567   3.199
 8721SOL    HW127062   6.711   2.625   3.165
 8721SOL    HW227063   6.673   2.503   3.267
 8722SOL     OW27064   4.048   1.477   6.426
 8722SOL    HW127065   4.048   1.424   6.511
 8722SOL    HW227066   4.001   1.564   6.441
 8723SOL     OW27067   4.531   5.640   1.528
 8723SOL    HW127068   4.475   5.602   1.454
 8723SOL    HW227069   4.487   5.621   1.616
 8724SOL     OW27070   5.943   0.299   6.215
 8724SOL    HW127071   6.003   0.378   6.228
 8724SOL    HW227072   5.942   0.275   6.117
 8725SOL     OW27073   2.107   0.202   0.021
 8725SOL    HW127074   2.031   0.142   0.045
 8725SOL    HW227075   2.160   0.224   0.103
 8726SOL     OW27076   6.390   0.223   1.930
 8726SOL    HW127077   6.372   0.247   1.835
 8726SOL    HW227078   6.489   0.221   1.946
 8727SOL     OW27079   6.783   6.535   2.020
 8727SOL    HW127080   6.741   6.597   2.087
 8727SOL    HW227081   6.772   6.572   1.928
 8728SOL     OW27082   3.930   0.682   4.301
 8728SOL    HW127083   3.901   0.588   4.319
 8728SOL    HW227084   3.853   0.744   4.314
 8729SOL     OW27085   4.799   5.950   3.842
 8729SOL    HW127086   4.731   6.015   3.808
 8729SOL    HW227087   4.808   5.960   3.941
 8730SOL     OW27088   6.139   4.327   2.390
 8730SOL    HW127089   6.215   4.352   2.330
 8730SOL    HW227090   6.070   4.278   2.337
 8731SOL     OW27091   1.745   2.472   2.668
 8731SOL    HW127092   1.821   2.531   2.696
 8731SOL    HW227093   1.782   2.396   2.613
 8732SOL     OW27094   5.771   4.158   1.873
 8732SOL    HW127095   5.713   4.228   1.831
 8732SOL    HW227096   5.740   4.139   1.966
 8733SOL     OW27097   1.860   5.469   1.825
 8733SOL    HW127098   1.836   5.448   1.730
 8733SOL    HW227099   1.812   5.407   1.886
 8734SOL     OW27100   0.836   4.143   2.093
 8734SOL    HW127101   0.913   4.196   2.129
 8734SOL    HW227102   0.870   4.055   2.060
 8735SOL     OW27103   1.211   1.779   0.054
 8735SOL    HW127104   1.202   1.828   0.141
 8735SOL    HW227105   1.201   1.844   7.002
 8736SOL     OW27106   0.848   6.117   5.849
 8736SOL    HW127107   0.798   6.033   5.828
 8736SOL    HW227108   0.786   6.196   5.842
 8737SOL     OW27109   2.646   6.441   5.900
 8737SOL    HW127110   2.739   6.433   5.935
 8737SOL    HW227111   2.625   6.538   5.886
 8738SOL     OW27112   2.124   5.527   4.494
 8738SOL    HW127113   2.193   5.581   4.543
 8738SOL    HW227114   2.159   5.502   4.404
 8739SOL     OW27115   5.968   5.339   6.331
 8739SOL    HW127116   6.022   5.325   6.248
 8739SOL    HW227117   5.951   5.251   6.375
 8740SOL     OW27118   4.907   0.853   5.507
 8740SOL    HW127119   4.935   0.940   5.550
 8740SOL    HW227120   4.825   0.868   5.453
 8741SOL     OW27121   2.518   1.087   1.831
 8741SOL    HW127122   2.555   0.995   1.822
 8741SOL    HW227123   2.442   1.099   1.767
 8742SOL     OW27124   5.878   6.383   1.516
 8742SOL    HW127125   5.970   6.419   1.509
 8742SOL    HW227126   5.846   6.352   1.427
 8743SOL     OW27127   1.708   0.346   2.391
 8743SOL    HW127128   1.720   0.346   2.490
 8743SOL    HW227129   1.792   0.376   2.347
 8744SOL     OW27130   3.936   2.780   5.786
 8744SOL    HW127131   4.030   2.813   5.783
 8744SOL    HW227132   3.916   2.743   5.877
 8745SOL     OW27133   6.364   3.060   6.186
 8745SOL    HW127134   6.396   2.966   6.178
 8745SOL    HW227135   6.265   3.064   6.172
 8746SOL     OW27136   5.007   3.748   5.057
 8746SOL    HW127137   4.931   3.692   5.025
 8746SOL    HW227138   5.042   3.709   5.143
 8747SOL     OW27139   0.180   2.207   2.903
 8747SOL    HW127140   0.252   2.220   2.834
 8747SOL    HW227141   0.125   2.290   2.910
 8748SOL     OW27142   0.149   1.544   5.573
 8748SOL    HW127143   0.112   1.630   5.606
 8748SOL    HW227144   0.120   1.470   5.634
 8749SOL     OW27145   2.660   0.361   6.376
 8749SOL    HW127146   2.673   0.460   6.367
 8749SOL    HW227147   2.738   0.313   6.335
 8750SOL     OW27148   3.148   3.482   5.446
 8750SOL    HW127149   3.200   3.405   5.482
 8750SOL    HW227150   3.098   3.455   5.364
 8751SOL     OW27151   6.438   0.282   2.693
 8751SOL    HW127152   6.503   0.323   2.630
 8751SOL    HW227153   6.441   0.330   2.781
 8752SOL     OW27154   2.450   4.826   6.999
 8752SOL    HW127155   2.406   4.857   0.060
 8752SOL    HW227156   2.504   4.901   6.960
 8753SOL     OW27157   4.878   1.713   5.197
 8753SOL    HW127158   4.970   1.716   5.159
 8753SOL    HW227159   4.813   1.685   5.126
 8754SOL     OW27160   1.122   2.372   5.014
 8754SOL    HW127161   1.028   2.405   5.006
 8754SOL    HW227162   1.166   2.375   4.924
 8755SOL     OW27163   2.597   0.875   6.793
 8755SOL    HW127164   2.498   0.882   6.801
 8755SOL    HW227165   2.637   0.966   6.791
 8756SOL     OW27166   2.221   2.932   3.165
 8756SOL    HW127167   2.201   2.988   3.245
 8756SOL    HW227168   2.254   2.842   3.195
 8757SOL     OW27169   5.186   6.494   5.785
 8757SOL    HW127170   5.115   6.460   5.846
 8757SOL    HW227171   5.159   6.479   5.690
 8758SOL     OW27172   4.505   6.799   2.130
 8758SOL    HW127173   4.572   6.771   2.060
 8758SOL    HW227174   4.440   6.725   2.145
 8759SOL     OW27175   3.612   2.234   0.438
 8759SOL    HW127176   3.626   2.322   0.485
 8759SOL    HW227177   3.607   2.250   0.340
 8760SOL     OW27178   1.562   1.786   5.351
 8760SOL    HW127179   1.571   1.818   5.257
 8760SOL    HW227180   1.568   1.686   5.353
 8761SOL     OW27181   4.475   1.504   2.003
 8761SOL    HW127182   4.447   1.411   2.026
 8761SOL    HW227183   4.402   1.550   1.954
 8762SOL     OW27184   0.629   4.411   2.033
 8762SOL    HW127185   0.700   4.342   2.042
 8762SOL    HW227186   0.557   4.378   1.973
 8763SOL     OW27187   5.945   6.190   5.672
 8763SOL    HW127188   5.977   6.212   5.764
 8763SOL    HW227189   5.931   6.275   5.620
 8764SOL     OW27190   5.009   0.872   4.447
 8764SOL    HW127191   4.982   0.965   4.419
 8764SOL    HW227192   4.978   0.855   4.540
 8765SOL     OW27193   6.283   6.093   5.375
 8765SOL    HW127194   6.209   6.160   5.368
 8765SOL    HW227195   6.306   6.059   5.284
 8766SOL     OW27196   4.328   4.661   3.314
 8766SOL    HW127197   4.232   4.650   3.342
 8766SOL    HW227198   4.352   4.758   3.318
 8767SOL     OW27199   4.204   6.796   3.407
 8767SOL    HW127200   4.285   6.823   3.459
 8767SOL    HW227201   4.222   6.803   3.309
 8768SOL     OW27202   0.988   3.099   0.826
 8768SOL    HW127203   0.967   3.081   0.730
 8768SOL    HW227204   1.032   3.188   0.834
 8769SOL     OW27205   1.805   6.789   4.227
 8769SOL    HW127206   1.844   6.726   4.160
 8769SOL    HW227207   1.820   6.883   4.197
 8770SOL     OW27208   5.564   3.663   2.053
 8770SOL    HW127209   5.533   3.591   2.115
 8770SOL    HW227210   5.634   3.718   2.098
 8771SOL     OW27211   0.585   0.213   6.004
 8771SOL    HW127212   0.506   0.175   5.956
 8771SOL    HW227213   0.576   0.312   6.010
 8772SOL     OW27214   5.559   6.503   6.543
 8772SOL    HW127215   5.655   6.521   6.521
 8772SOL    HW227216   5.552   6.473   6.638
 8773SOL     OW27217   4.460   2.245   3.912
 8773SOL    HW127218   4.435   2.308   3.839
 8773SOL    HW227219   4.539   2.282   3.962
 8774SOL     OW27220   1.863   2.141   0.110
 8774SOL    HW127221   1.853   2.083   0.191
 8774SOL    HW227222   1.786   2.203   0.105
 8775SOL     OW27223   6.741   0.202   5.213
 8775SOL    HW127224   6.659   0.179   5.161
 8775SOL    HW227225   6.730   0.292   5.255
 8776SOL     OW27226   3.793   3.716   4.681
 8776SOL    HW127227   3.890   3.736   4.697
 8776SOL    HW227228   3.775   3.715   4.583
 8777SOL     OW27229   0.252   4.030   1.283
 8777SOL    HW127230   0.182   4.100   1.299
 8777SOL    HW227231   0.333   4.051   1.338
 8778SOL     OW27232   6.113   1.722   4.607
 8778SOL    HW127233   6.203   1.682   4.589
 8778SOL    HW227234   6.102   1.804   4.551
 8779SOL     OW27235   2.868   5.208   2.072
 8779SOL    HW127236   2.934   5.282   2.066
 8779SOL    HW227237   2.879   5.147   1.994
 8780SOL     OW27238   0.995   4.998   3.295
 8780SOL    HW127239   1.036   4.959   3.212
 8780SOL    HW227240   1.044   5.082   3.319
 8781SOL     OW27241   6.266   1.559   3.870
 8781SOL    HW127242   6.217   1.646   3.874
 8781SOL    HW227243   6.202   1.485   3.891
 8782SOL     OW27244   5.138   6.835   1.957
 8782SOL    HW127245   5.064   6.901   1.973
 8782SOL    HW227246   5.115   6.748   1.999
 8783SOL     OW27247   6.586   3.768   3.326
 8783SOL    HW127248   6.648   3.726   3.393
 8783SOL    HW227249   6.499   3.789   3.371
 8784SOL     OW27250   5.815   3.793   6.637
 8784SOL    HW127251   5.838   3.776   6.541
 8784SOL    HW227252   5.741   3.861   6.642
 8785SOL     OW27253   6.852   3.582   6.670
 8785SOL    HW127254   6.908   3.566   6.751
 8785SOL    HW227255   6.855   3.502   6.610
 8786SOL     OW27256   2.451   6.614   0.649
 8786SOL    HW127257   2.539   6.663   0.652
 8786SOL    HW227258   2.462   6.524   0.692
 8787SOL     OW27259   2.166   2.973   1.876
 8787SOL    HW127260   2.068   2.961   1.860
 8787SOL    HW227261   2.208   3.017   1.797
 8788SOL     OW27262   0.052   2.434   5.805
 8788SOL    HW127263   0.085   2.528   5.799
 8788SOL    HW227264   0.032   2.412   5.901
 8789SOL     OW27265   6.495   6.802   5.345
 8789SOL    HW127266   6.399   6.772   5.343
 8789SOL    HW227267   6.540   6.763   5.426
 8790SOL     OW27268   0.193   0.788   6.741
 8790SOL    HW127269   0.202   0.873   6.688
 8790SOL    HW227270   0.223   0.804   6.835
 8791SOL     OW27271   5.665   6.709   4.814
 8791SOL    HW127272   5.671   6.610   4.823
 8791SOL    HW227273   5.757   6.749   4.816
 8792SOL     OW27274   3.547   6.012   3.502
 8792SOL    HW127275   3.489   5.932   3.487
 8792SOL    HW227276   3.610   5.995   3.577
 8793SOL     OW27277   0.928   5.592   3.720
 8793SOL    HW127278   0.888   5.598   3.811
 8793SOL    HW227279   1.012   5.537   3.725
 8794SOL     OW27280   4.436   0.175   1.781
 8794SOL    HW127281   4.410   0.151   1.688
 8794SOL    HW227282   4.432   0.094   1.839
 8795SOL     OW27283   1.230   6.686   4.926
 8795SOL    HW127284   1.265   6.692   5.020
 8795SOL    HW227285   1.273   6.756   4.869
 8796SOL     OW27286   4.327   1.435   4.722
 8796SOL    HW127287   4.309   1.435   4.820
 8796SOL    HW227288   4.386   1.358   4.698
 8797SOL     OW27289   1.131   0.090   5.201
 8797SOL    HW127290   1.107   0.176   5.246
 8797SOL    HW227291   1.158   0.023   5.271
 8798SOL     OW27292   4.948   4.995   5.352
 8798SOL    HW127293   4.939   4.941   5.436
 8798SOL    HW227294   4.994   4.940   5.282
 8799SOL     OW27295   2.147   4.454   3.889
 8799SOL    HW127296   2.210   4.377   3.880
 8799SOL    HW227297   2.185   4.521   3.953
 8800SOL     OW27298   6.199   4.405   5.444
 8800SOL    HW127299   6.119   4.352   5.473
 8800SOL    HW227300   6.169   4.491   5.403
 8801SOL     OW27301   0.841   1.497   4.672
 8801SOL    HW127302   0.805   1.501   4.766
 8801SOL    HW227303   0.817   1.580   4.623
 8802SOL     OW27304   1.742   0.311   0.633
 8802SOL    HW127305   1.812   0.346   0.570
 8802SOL    HW227306   1.724   0.380   0.703
 8803SOL     OW27307   0.280   5.292   6.003
 8803SOL    HW127308   0.204   5.354   5.979
 8803SOL    HW227309   0.309   5.242   5.921
 8804SOL     OW27310   3.694   0.470   2.024
 8804SOL    HW127311   3.717   0.374   2.040
 8804SOL    HW227312   3.616   0.496   2.080
 8805SOL     OW27313   2.546   0.146   4.474
 8805SOL    HW127314   2.606   0.106   4.543
 8805SOL    HW227315   2.513   0.074   4.412
 8806SOL     OW27316   2.311   5.203   1.976
 8806SOL    HW127317   2.221   5.237   1.948
 8806SOL    HW227318   2.307   5.174   2.072
 8807SOL     OW27319   5.792   6.811   6.468
 8807SOL    HW127320   5.859   6.882   6.445
 8807SOL    HW227321   5.700   6.844   6.444
 8808SOL     OW27322   5.364   2.211   0.608
 8808SOL    HW127323   5.305   2.240   0.683
 8808SOL    HW227324   5.313   2.213   0.522
 8809SOL     OW27325   4.848   5.067   3.413
 8809SOL    HW127326   4.791   4.999   3.367
 8809SOL    HW227327   4.904   5.021   3.482
 8810SOL     OW27328   5.638   0.882   6.157
 8810SOL    HW127329   5.607   0.819   6.228
 8810SOL    HW227330   5.697   0.952   6.199
 8811SOL     OW27331   2.696   1.568   3.815
 8811SOL    HW127332   2.734   1.652   3.778
 8811SOL    HW227333   2.738   1.549   3.904
 8812SOL     OW27334   1.954   0.098   1.351
 8812SOL    HW127335   1.913   0.008   1.333
 8812SOL    HW227336   1.985   0.103   1.446
 8813SOL     OW27337   1.616   4.268   1.545
 8813SOL    HW127338   1.660   4.350   1.582
 8813SOL    HW227339   1.675   4.189   1.562
 8814SOL     OW27340   5.902   0.638   0.854
 8814SOL    HW127341   5.929   0.688   0.772
 8814SOL    HW227342   5.867   0.548   0.827
 8815SOL     OW27343   6.514   5.956   0.941
 8815SOL    HW127344   6.458   5.923   0.865
 8815SOL    HW227345   6.461   5.954   1.025
 8816SOL     OW27346   1.531   0.956   0.239
 8816SOL    HW127347   1.577   1.021   0.179
 8816SOL    HW227348   1.575   0.866   0.232
 8817SOL     OW27349   0.871   5.868   5.146
 8817SOL    HW127350   0.840   5.958   5.175
 8817SOL    HW227351   0.958   5.847   5.191
 8818SOL     OW27352   0.467   3.413   4.391
 8818SOL    HW127353   0.501   3.500   4.427
 8818SOL    HW227354   0.538   3.344   4.399
 8819SOL     OW27355   4.789   4.952   4.533
 8819SOL    HW127356   4.739   5.022   4.482
 8819SOL    HW227357   4.875   4.991   4.566
 8820SOL     OW27358   2.269   1.361   5.009
 8820SOL    HW127359   2.197   1.430   5.003
 8820SOL    HW227360   2.231   1.276   5.044
 8821SOL     OW27361   2.867   6.428   0.184
 8821SOL    HW127362   2.960   6.465   0.180
 8821SOL    HW227363   2.872   6.331   0.207
 8822SOL     OW27364   0.661   6.930   4.665
 8822SOL    HW127365   0.627   6.848   4.710
 8822SOL    HW227366   0.756   6.916   4.637
 8823SOL     OW27367   2.271   0.697   1.167
 8823SOL    HW127368   2.367   0.673   1.164
 8823SOL    HW227369   2.230   0.681   1.077
 8824SOL     OW27370   0.982   3.218   1.085
 8824SOL    HW127371   0.961   3.171   0.999
 8824SOL    HW227372   1.053   3.167   1.133
 8825SOL     OW27373   1.862   0.384   3.054
 8825SOL    HW127374   1.872   0.476   3.017
 8825SOL    HW227375   1.776   0.377   3.104
 8826SOL     OW27376   6.446   2.965   0.660
 8826SOL    HW127377   6.514   2.938   0.728
 8826SOL    HW227378   6.485   3.036   0.601
 8827SOL     OW27379   3.634   0.949   3.091
 8827SOL    HW127380   3.632   0.880   3.164
 8827SOL    HW227381   3.564   0.929   3.023
 8828SOL     OW27382   4.426   5.339   5.179
 8828SOL    HW127383   4.363   5.277   5.226
 8828SOL    HW227384   4.374   5.414   5.138
 8829SOL     OW27385   7.009   2.155   0.864
 8829SOL    HW127386   6.966   2.154   0.773
 8829SOL    HW227387   6.989   2.241   0.910
 8830SOL     OW27388   7.012   1.581   1.843
 8830SOL    HW127389   6.956   1.629   1.911
 8830SOL    HW227390   0.061   1.641   1.810
 8831SOL     OW27391   5.544   0.895   3.887
 8831SOL    HW127392   5.458   0.944   3.904
 8831SOL    HW227393   5.537   0.802   3.924
 8832SOL     OW27394   0.077   5.945   2.800
 8832SOL    HW127395   0.002   5.920   2.862
 8832SOL    HW227396   0.137   5.866   2.787
 8833SOL     OW27397   2.431   6.365   5.738
 8833SOL    HW127398   2.511   6.379   5.797
 8833SOL    HW227399   2.418   6.268   5.721
 8834SOL     OW27400   5.353   3.187   4.773
 8834SOL    HW127401   5.437   3.135   4.761
 8834SOL    HW227402   5.276   3.137   4.735
 8835SOL     OW27403   5.718   1.162   5.837
 8835SOL    HW127404   5.751   1.173   5.743
 8835SOL    HW227405   5.708   1.252   5.879
 8836SOL     OW27406   4.135   1.926   6.554
 8836SOL    HW127407   4.092   2.000   6.504
 8836SOL    HW227408   4.137   1.947   6.652
 8837SOL     OW27409   7.014   6.268   3.190
 8837SOL    HW127410   0.073   6.235   3.144
 8837SOL    HW227411   7.004   6.366   3.174
 8838SOL     OW27412   2.491   4.824   2.701
 8838SOL    HW127413   2.538   4.812   2.788
 8838SOL    HW227414   2.415   4.887   2.713
 8839SOL     OW27415   5.362   5.077   2.835
 8839SOL    HW127416   5.450   5.097   2.879
 8839SOL    HW227417   5.363   4.983   2.800
 8840SOL     OW27418   6.769   1.837   1.752
 8840SOL    HW127419   6.862   1.851   1.718
 8840SOL    HW227420   6.730   1.925   1.780
 8841SOL     OW27421   0.829   0.134   5.264
 8841SOL    HW127422   0.890   0.206   5.232
 8841SOL    HW227423   0.736   0.170   5.271
 8842SOL     OW27424   3.025   2.856   1.759
 8842SOL    HW127425   3.005   2.859   1.857
 8842SOL    HW227426   3.121   2.833   1.744
 8843SOL     OW27427   1.898   3.477   5.377
 8843SOL    HW127428   1.937   3.508   5.290
 8843SOL    HW227429   1.881   3.379   5.372
 8844SOL     OW27430   6.227   2.315   6.819
 8844SOL    HW127431   6.158   2.369   6.771
 8844SOL    HW227432   6.306   2.372   6.841
 8845SOL     OW27433   4.594   3.973   6.882
 8845SOL    HW127434   4.528   4.008   6.949
 8845SOL    HW227435   4.607   3.875   6.896
 8846SOL     OW27436   3.368   5.574   3.571
 8846SOL    HW127437   3.410   5.663   3.587
 8846SOL    HW227438   3.312   5.548   3.651
 8847SOL     OW27439   2.879   1.596   2.764
 8847SOL    HW127440   2.803   1.574   2.826
 8847SOL    HW227441   2.881   1.694   2.749
 8848SOL     OW27442   2.502   0.390   2.024
 8848SOL    HW127443   2.505   0.293   2.004
 8848SOL    HW227444   2.514   0.404   2.122
 8849SOL     OW27445   3.902   5.799   2.809
 8849SOL    HW127446   3.863   5.754   2.890
 8849SOL    HW227447   3.956   5.878   2.838
 8850SOL     OW27448   1.436   2.561   0.650
 8850SOL    HW127449   1.435   2.567   0.750
 8850SOL    HW227450   1.349   2.595   0.614
 8851SOL     OW27451   1.421   4.090   2.755
 8851SOL    HW127452   1.467   4.163   2.805
 8851SOL    HW227453   1.327   4.117   2.734
 8852SOL     OW27454   0.527   1.969   4.915
 8852SOL    HW127455   0.574   1.906   4.977
 8852SOL    HW227456   0.505   2.054   4.964
 8853SOL     OW27457   2.643   0.850   1.763
 8853SOL    HW127458   2.659   0.766   1.816
 8853SOL    HW227459   2.725   0.907   1.766
 8854SOL     OW27460   1.996   3.016   5.253
 8854SOL    HW127461   2.081   2.970   5.281
 8854SOL    HW227462   1.980   2.999   5.156
 8855SOL     OW27463   6.682   4.992   0.970
 8855SOL    HW127464   6.729   4.932   0.906
 8855SOL    HW227465   6.749   5.050   1.016
 8856SOL     OW27466   0.972   6.542   6.044
 8856SOL    HW127467   1.059   6.523   6.090
 8856SOL    HW227468   0.907   6.469   6.063
 8857SOL     OW27469   6.593   1.449   4.200
 8857SOL    HW127470   6.501   1.468   4.163
 8857SOL    HW227471   6.586   1.385   4.276
 8858SOL     OW27472   0.180   4.099   4.452
 8858SOL    HW127473   0.198   4.198   4.458
 8858SOL    HW227474   0.136   4.078   4.365
 8859SOL     OW27475   1.097   1.399   4.049
 8859SOL    HW127476   1.097   1.445   3.960
 8859SOL    HW227477   1.021   1.334   4.052
 8860SOL     OW27478   6.746   2.347   1.697
 8860SOL    HW127479   6.819   2.350   1.766
 8860SOL    HW227480   6.784   2.370   1.608
 8861SOL     OW27481   4.160   1.151   5.986
 8861SOL    HW127482   4.091   1.220   6.006
 8861SOL    HW227483   4.231   1.152   6.056
 8862SOL     OW27484   5.604   6.869   3.939
 8862SOL    HW127485   5.689   6.844   3.893
 8862SOL    HW227486   5.526   6.834   3.886
 8863SOL     OW27487   2.775   4.770   3.602
 8863SOL    HW127488   2.765   4.834   3.525
 8863SOL    HW227489   2.789   4.678   3.566
 8864SOL     OW27490   3.537   4.412   6.395
 8864SOL    HW127491   3.462   4.466   6.433
 8864SOL    HW227492   3.502   4.324   6.362
 8865SOL     OW27493   3.365   0.920   4.349
 8865SOL    HW127494   3.421   1.002   4.341
 8865SOL    HW227495   3.281   0.932   4.296
 8866SOL     OW27496   5.815   6.681   2.823
 8866SOL    HW127497   5.881   6.610   2.845
 8866SOL    HW227498   5.728   6.662   2.868
 8867SOL     OW27499   5.867   4.579   3.680
 8867SOL    HW127500   5.900   4.571   3.774
 8867SOL    HW227501   5.943   4.562   3.617
 8868SOL     OW27502   6.812   3.146   2.152
 8868SOL    HW127503   6.781   3.063   2.199
 8868SOL    HW227504   6.911   3.141   2.139
 8869SOL     OW27505   4.414   6.107   5.517
 8869SOL    HW127506   4.355   6.026   5.506
 8869SOL    HW227507   4.494   6.098   5.456
 8870SOL     OW27508   2.310   6.725   2.102
 8870SOL    HW127509   2.229   6.741   2.159
 8870SOL    HW227510   2.345   6.812   2.069
 8871SOL     OW27511   2.313   0.311   3.440
 8871SOL    HW127512   2.228   0.289   3.392
 8871SOL    HW227513   2.307   0.403   3.478
 8872SOL     OW27514   1.284   4.980   5.938
 8872SOL    HW127515   1.219   5.014   5.871
 8872SOL    HW227516   1.377   4.992   5.904
 8873SOL     OW27517   2.275   0.132   2.414
 8873SOL    HW127518   2.254   0.046   2.460
 8873SOL    HW227519   2.201   0.155   2.351
 8874SOL     OW27520   1.967   5.697   2.560
 8874SOL    HW127521   2.036   5.675   2.629
 8874SOL    HW227522   1.904   5.620   2.550
 8875SOL     OW27523   6.768   3.634   4.472
 8875SOL    HW127524   6.813   3.693   4.539
 8875SOL    HW227525   6.701   3.687   4.420
 8876SOL     OW27526   2.681   0.989   6.159
 8876SOL    HW127527   2.773   1.026   6.147
 8876SOL    HW227528   2.684   0.889   6.146
 8877SOL     OW27529   1.968   2.424   3.764
 8877SOL    HW127530   1.958   2.430   3.664
 8877SOL    HW227531   1.906   2.490   3.807
 8878SOL     OW27532   3.106   5.122   1.740
 8878SOL    HW127533   3.169   5.044   1.747
 8878SOL    HW227534   3.157   5.207   1.740
 8879SOL     OW27535   4.985   4.984   2.269
 8879SOL    HW127536   5.064   4.964   2.326
 8879SOL    HW227537   4.929   5.054   2.313
 8880SOL     OW27538   3.978   6.618   5.076
 8880SOL    HW127539   4.039   6.549   5.038
 8880SOL    HW227540   3.920   6.576   5.146
 8881SOL     OW27541   5.431   5.782   4.194
 8881SOL    HW127542   5.341   5.814   4.222
 8881SOL    HW227543   5.423   5.732   4.108
 8882SOL     OW27544   4.636   1.275   1.427
 8882SOL    HW127545   4.652   1.372   1.406
 8882SOL    HW227546   4.724   1.228   1.435
 8883SOL     OW27547   1.719   6.539   6.036
 8883SOL    HW127548   1.795   6.495   5.987
 8883SOL    HW227549   1.715   6.635   6.011
 8884SOL     OW27550   6.051   3.771   5.852
 8884SOL    HW127551   6.050   3.783   5.753
 8884SOL    HW227552   6.123   3.706   5.877
 8885SOL     OW27553   4.794   4.887   1.235
 8885SOL    HW127554   4.754   4.832   1.308
 8885SOL    HW227555   4.853   4.828   1.179
 8886SOL     OW27556   3.059   5.690   5.870
 8886SOL    HW127557   3.154   5.669   5.847
 8886SOL    HW227558   3.033   5.643   5.954
 8887SOL     OW27559   3.974   0.650   0.880
 8887SOL    HW127560   3.953   0.731   0.935
 8887SOL    HW227561   4.014   0.580   0.939
 8888SOL     OW27562   2.181   1.777   4.735
 8888SOL    HW127563   2.232   1.768   4.650
 8888SOL    HW227564   2.186   1.872   4.767
 8889SOL     OW27565   6.617   6.769   6.979
 8889SOL    HW127566   6.653   6.835   6.913
 8889SOL    HW227567   6.663   6.780   0.043
 8890SOL     OW27568   0.732   5.920   6.110
 8890SOL    HW127569   0.791   5.886   6.184
 8890SOL    HW227570   0.677   5.997   6.143
 8891SOL     OW27571   3.957   4.320   0.672
 8891SOL    HW127572   3.903   4.236   0.677
 8891SOL    HW227573   4.054   4.297   0.666
 8892SOL     OW27574   3.465   4.960   3.266
 8892SOL    HW127575   3.508   4.990   3.351
 8892SOL    HW227576   3.459   5.038   3.203
 8893SOL     OW27577   1.252   5.184   4.762
 8893SOL    HW127578   1.219   5.279   4.760
 8893SOL    HW227579   1.231   5.140   4.675
 8894SOL     OW27580   3.098   2.063   6.588
 8894SOL    HW127581   3.052   2.033   6.672
 8894SOL    HW227582   3.192   2.030   6.588
 8895SOL     OW27583   6.882   2.335   1.428
 8895SOL    HW127584   6.825   2.414   1.406
 8895SOL    HW227585   6.862   2.261   1.364
 8896SOL     OW27586   2.152   3.159   4.437
 8896SOL    HW127587   2.128   3.215   4.517
 8896SOL    HW227588   2.226   3.096   4.461
 8897SOL     OW27589   2.142   2.248   3.916
 8897SOL    HW127590   2.071   2.295   3.863
 8897SOL    HW227591   2.169   2.306   3.993
 8898SOL     OW27592   5.290   3.295   2.043
 8898SOL    HW127593   5.275   3.372   1.980
 8898SOL    HW227594   5.276   3.209   1.994
 8899SOL     OW27595   1.453   4.671   0.170
 8899SOL    HW127596   1.552   4.657   0.179
 8899SOL    HW227597   1.407   4.633   0.250
 8900SOL     OW27598   5.262   3.057   3.346
 8900SOL    HW127599   5.185   3.030   3.289
 8900SOL    HW227600   5.237   3.136   3.401
 8901SOL     OW27601   0.739   1.307   4.246
 8901SOL    HW127602   0.748   1.248   4.326
 8901SOL    HW227603   0.775   1.260   4.166
 8902SOL     OW27604   1.369   5.575   0.078
 8902SOL    HW127605   1.455   5.605   0.036
 8902SOL    HW227606   1.341   5.640   0.147
 8903SOL     OW27607   0.752   2.095   4.328
 8903SOL    HW127608   0.734   2.189   4.298
 8903SOL    HW227609   0.815   2.097   4.405
 8904SOL     OW27610   0.424   1.375   4.733
 8904SOL    HW127611   0.516   1.402   4.704
 8904SOL    HW227612   0.416   1.276   4.731
 8905SOL     OW27613   1.940   2.972   2.673
 8905SOL    HW127614   1.846   3.007   2.667
 8905SOL    HW227615   1.969   2.972   2.769
 8906SOL     OW27616   1.204   6.366   1.077
 8906SOL    HW127617   1.172   6.344   0.985
 8906SOL    HW227618   1.135   6.419   1.125
 8907SOL     OW27619   3.548   2.678   5.947
 8907SOL    HW127620   3.561   2.584   5.918
 8907SOL    HW227621   3.552   2.684   6.047
 8908SOL     OW27622   2.014   5.662   0.176
 8908SOL    HW127623   2.070   5.741   0.200
 8908SOL    HW227624   1.951   5.642   0.251
 8909SOL     OW27625   2.956   1.354   6.106
 8909SOL    HW127626   3.035   1.386   6.158
 8909SOL    HW227627   2.946   1.255   6.117
 8910SOL     OW27628   0.592   2.750   5.097
 8910SOL    HW127629   0.646   2.764   5.014
 8910SOL    HW227630   0.651   2.710   5.168
 8911SOL     OW27631   4.989   3.509   4.746
 8911SOL    HW127632   4.947   3.519   4.836
 8911SOL    HW227633   5.045   3.425   4.745
 8912SOL     OW27634   2.168   3.205   6.059
 8912SOL    HW127635   2.069   3.213   6.049
 8912SOL    HW227636   2.191   3.192   6.156
 8913SOL     OW27637   4.108   5.475   6.465
 8913SOL    HW127638   4.085   5.563   6.424
 8913SOL    HW227639   4.029   5.413   6.457
 8914SOL     OW27640   4.734   7.009   4.345
 8914SOL    HW127641   4.807   6.956   4.389
 8914SOL    HW227642   4.775   0.054   4.285
 8915SOL     OW27643   1.281   2.032   4.102
 8915SOL    HW127644   1.299   2.033   4.003
 8915SOL    HW227645   1.283   1.938   4.135
 8916SOL     OW27646   6.834   2.729   6.861
 8916SOL    HW127647   6.921   2.697   6.896
 8916SOL    HW227648   6.763   2.715   6.930
 8917SOL     OW27649   5.409   2.678   1.070
 8917SOL    HW127650   5.314   2.703   1.086
 8917SOL    HW227651   5.420   2.579   1.080
 8918SOL     OW27652   1.095   4.980   0.605
 8918SOL    HW127653   1.080   5.078   0.591
 8918SOL    HW227654   1.008   4.931   0.599
 8919SOL     OW27655   5.107   4.665   7.007
 8919SOL    HW127656   5.188   4.712   6.972
 8919SOL    HW227657   5.055   4.627   6.930
 8920SOL     OW27658   0.237   2.224   0.152
 8920SOL    HW127659   0.148   2.192   0.118
 8920SOL    HW227660   0.287   2.268   0.077
 8921SOL     OW27661   1.709   2.819   2.718
 8921SOL    HW127662   1.799   2.778   2.704
 8921SOL    HW227663   1.646   2.750   2.754
 8922SOL     OW27664   3.879   5.817   2.316
 8922SOL    HW127665   3.894   5.741   2.252
 8922SOL    HW227666   3.951   5.817   2.384
 8923SOL     OW27667   1.671   1.187   6.792
 8923SOL    HW127668   1.721   1.110   6.831
 8923SOL    HW227669   1.733   1.243   6.737
 8924SOL     OW27670   4.248   5.507   5.386
 8924SOL    HW127671   4.265   5.549   5.297
 8924SOL    HW227672   4.254   5.407   5.377
 8925SOL     OW27673   0.518   0.992   2.357
 8925SOL    HW127674   0.560   1.014   2.445
 8925SOL    HW227675   0.449   1.061   2.335
 8926SOL     OW27676   0.107   3.208   5.164
 8926SOL    HW127677   0.019   3.193   5.208
 8926SOL    HW227678   0.116   3.304   5.138
 8927SOL     OW27679   6.326   1.169   4.434
 8927SOL    HW127680   6.409   1.196   4.386
 8927SOL    HW227681   6.346   1.094   4.496
 8928SOL     OW27682   1.446   0.339   6.029
 8928SOL    HW127683   1.495   0.393   6.098
 8928SOL    HW227684   1.426   0.249   6.066
 8929SOL     OW27685   5.549   2.051   5.269
 8929SOL    HW127686   5.621   2.013   5.210
 8929SOL    HW227687   5.581   2.136   5.309
 8930SOL     OW27688   0.949   2.570   3.357
 8930SOL    HW127689   0.876   2.530   3.303
 8930SOL    HW227690   1.002   2.497   3.400
 8931SOL     OW27691   3.154   3.931   1.369
 8931SOL    HW127692   3.113   3.884   1.448
 8931SOL    HW227693   3.083   3.982   1.321
 8932SOL     OW27694   5.885   2.219   2.612
 8932SOL    HW127695   5.839   2.174   2.536
 8932SOL    HW227696   5.984   2.207   2.603
 8933SOL     OW27697   2.736   2.457   6.393
 8933SOL    HW127698   2.641   2.459   6.421
 8933SOL    HW227699   2.751   2.524   6.321
 8934SOL     OW27700   2.969   5.250   4.857
 8934SOL    HW127701   3.020   5.207   4.931
 8934SOL    HW227702   3.009   5.224   4.769
 8935SOL     OW27703   0.267   4.321   0.140
 8935SOL    HW127704   0.317   4.273   0.213
 8935SOL    HW227705   0.169   4.317   0.158
 8936SOL     OW27706   1.428   4.246   1.974
 8936SOL    HW127707   1.330   4.232   1.987
 8936SOL    HW227708   1.475   4.158   1.982
 8937SOL     OW27709   0.369   0.282   5.640
 8937SOL    HW127710   0.438   0.269   5.568
 8937SOL    HW227711   0.305   0.205   5.639
 8938SOL     OW27712   0.207   5.582   0.915
 8938SOL    HW127713   0.121   5.568   0.964
 8938SOL    HW227714   0.200   5.663   0.857
 8939SOL     OW27715   4.844   2.965   3.920
 8939SOL    HW127716   4.831   2.922   4.009
 8939SOL    HW227717   4.792   2.916   3.851
 8940SOL     OW27718   0.304   1.243   2.724
 8940SOL    HW127719   0.327   1.203   2.813
 8940SOL    HW227720   0.242   1.182   2.676
 8941SOL     OW27721   6.151   2.584   5.343
 8941SOL    HW127722   6.146   2.535   5.430
 8941SOL    HW227723   6.090   2.663   5.346
 8942SOL     OW27724   6.676   4.569   5.172
 8942SOL    HW127725   6.692   4.576   5.270
 8942SOL    HW227726   6.761   4.585   5.122
 8943SOL     OW27727   3.787   4.422   6.267
 8943SOL    HW127728   3.697   4.438   6.309
 8943SOL    HW227729   3.827   4.510   6.241
 8944SOL     OW27730   5.480   4.837   5.132
 8944SOL    HW127731   5.461   4.776   5.208
 8944SOL    HW227732   5.489   4.783   5.048
 8945SOL     OW27733   0.881   0.590   3.194
 8945SOL    HW127734   0.855   0.535   3.115
 8945SOL    HW227735   0.870   0.537   3.278
 8946SOL     OW27736   3.157   1.014   5.291
 8946SOL    HW127737   3.198   0.977   5.207
 8946SOL    HW227738   3.148   1.113   5.283
 8947SOL     OW27739   2.078   3.392   4.935
 8947SOL    HW127740   2.104   3.488   4.944
 8947SOL    HW227741   2.079   3.348   5.025
 8948SOL     OW27742   6.702   6.682   4.276
 8948SOL    HW127743   6.722   6.594   4.233
 8948SOL    HW227744   6.778   6.745   4.259
 8949SOL     OW27745   2.574   0.138   1.154
 8949SOL    HW127746   2.556   0.146   1.056
 8949SOL    HW227747   2.490   0.110   1.201
 8950SOL     OW27748   4.761   3.734   6.247
 8950SOL    HW127749   4.793   3.761   6.338
 8950SOL    HW227750   4.825   3.768   6.178
 8951SOL     OW27751   0.482   1.932   5.322
 8951SOL    HW127752   0.574   1.969   5.335
 8951SOL    HW227753   0.488   1.844   5.274
 8952SOL     OW27754   1.444   6.953   2.372
 8952SOL    HW127755   1.464   6.885   2.443
 8952SOL    HW227756   1.346   6.949   2.350
 8953SOL     OW27757   1.484   4.236   6.585
 8953SOL    HW127758   1.461   4.169   6.656
 8953SOL    HW227759   1.527   4.316   6.627
 8954SOL     OW27760   1.414   6.978   5.956
 8954SOL    HW127761   1.401   6.890   5.909
 8954SOL    HW227762   1.328   0.004   5.959
 8955SOL     OW27763   0.414   5.032   2.571
 8955SOL    HW127764   0.325   4.990   2.557
 8955SOL    HW227765   0.482   4.985   2.515
 8956SOL     OW27766   0.907   1.635   6.799
 8956SOL    HW127767   0.982   1.665   6.740
 8956SOL    HW227768   0.824   1.687   6.776
 8957SOL     OW27769   2.999   4.132   1.796
 8957SOL    HW127770   2.994   4.067   1.872
 8957SOL    HW227771   3.072   4.198   1.813
 8958SOL     OW27772   0.326   0.337   4.923
 8958SOL    HW127773   0.408   0.377   4.884
 8958SOL    HW227774   0.245   0.374   4.877
 8959SOL     OW27775   1.479   4.692   1.821
 8959SOL    HW127776   1.506   4.604   1.858
 8959SOL    HW227777   1.450   4.681   1.726
 8960SOL     OW27778   4.746   5.619   2.729
 8960SOL    HW127779   4.793   5.539   2.693
 8960SOL    HW227780   4.647   5.606   2.719
 8961SOL     OW27781   2.783   1.717   4.450
 8961SOL    HW127782   2.874   1.681   4.432
 8961SOL    HW227783   2.715   1.644   4.437
 8962SOL     OW27784   6.646   6.676   2.198
 8962SOL    HW127785   6.554   6.643   2.220
 8962SOL    HW227786   6.639   6.757   2.140
 8963SOL     OW27787   5.054   6.598   4.016
 8963SOL    HW127788   4.982   6.625   3.953
 8963SOL    HW227789   5.014   6.559   4.099
 8964SOL     OW27790   5.130   3.521   3.270
 8964SOL    HW127791   5.137   3.434   3.221
 8964SOL    HW227792   5.062   3.513   3.343
 8965SOL     OW27793   2.194   4.747   0.648
 8965SOL    HW127794   2.154   4.711   0.564
 8965SOL    HW227795   2.291   4.767   0.632
 8966SOL     OW27796   0.044   4.478   6.063
 8966SOL    HW127797   0.042   4.533   5.980
 8966SOL    HW227798   0.047   4.381   6.039
 8967SOL     OW27799   3.138   6.885   2.086
 8967SOL    HW127800   3.160   6.966   2.140
 8967SOL    HW227801   3.075   6.827   2.137
 8968SOL     OW27802   5.140   4.739   3.125
 8968SOL    HW127803   5.211   4.712   3.190
 8968SOL    HW227804   5.050   4.713   3.162
 8969SOL     OW27805   6.930   1.067   4.282
 8969SOL    HW127806   6.938   1.088   4.185
 8969SOL    HW227807   7.018   1.081   4.327
 8970SOL     OW27808   2.662   3.300   6.937
 8970SOL    HW127809   2.713   3.383   6.958
 8970SOL    HW227810   2.577   3.299   6.989
 8971SOL     OW27811   5.278   5.195   2.400
 8971SOL    HW127812   5.260   5.103   2.435
 8971SOL    HW227813   5.324   5.249   2.470
 8972SOL     OW27814   4.653   4.419   6.909
 8972SOL    HW127815   4.565   4.381   6.880
 8972SOL    HW227816   4.640   4.511   6.945
 8973SOL     OW27817   1.318   3.338   2.233
 8973SOL    HW127818   1.340   3.388   2.317
 8973SOL    HW227819   1.222   3.313   2.232
 8974SOL     OW27820   1.880   4.605   5.812
 8974SOL    HW127821   1.819   4.547   5.756
 8974SOL    HW227822   1.864   4.586   5.909
 8975SOL     OW27823   2.020   0.473   6.591
 8975SOL    HW127824   1.949   0.429   6.646
 8975SOL    HW227825   2.077   0.530   6.649
 8976SOL     OW27826   0.083   4.826   4.958
 8976SOL    HW127827   0.083   4.831   5.058
 8976SOL    HW227828   7.013   4.835   4.924
 8977SOL     OW27829   5.712   1.948   6.863
 8977SOL    HW127830   5.673   1.939   6.954
 8977SOL    HW227831   5.779   1.875   6.848
 8978SOL     OW27832   5.770   0.171   5.941
 8978SOL    HW127833   5.797   0.265   5.958
 8978SOL    HW227834   5.764   0.121   6.028
 8979SOL     OW27835   1.219   2.986   4.870
 8979SOL    HW127836   1.272   2.925   4.811
 8979SOL    HW227837   1.126   2.994   4.835
 8980SOL     OW27838   2.415   3.006   5.468
 8980SOL    HW127839   2.462   3.066   5.533
 8980SOL    HW227840   2.448   3.025   5.376
 8981SOL     OW27841   4.417   2.034   5.333
 8981SOL    HW127842   4.485   1.971   5.295
 8981SOL    HW227843   4.445   2.128   5.316
 8982SOL     OW27844   1.473   2.149   0.806
 8982SOL    HW127845   1.432   2.059   0.792
 8982SOL    HW227846   1.434   2.214   0.739
 8983SOL     OW27847   1.976   6.387   6.991
 8983SOL    HW127848   1.971   6.394   6.892
 8983SOL    HW227849   1.923   6.309   7.022
 8984SOL     OW27850   0.453   0.358   4.659
 8984SOL    HW127851   0.382   0.308   4.609
 8984SOL    HW227852   0.521   0.393   4.594
 8985SOL     OW27853   2.495   3.723   0.780
 8985SOL    HW127854   2.581   3.681   0.812
 8985SOL    HW227855   2.420   3.657   0.792
 8986SOL     OW27856   4.813   5.415   2.574
 8986SOL    HW127857   4.882   5.375   2.514
 8986SOL    HW227858   4.722   5.388   2.542
 8987SOL     OW27859   4.399   0.158   1.227
 8987SOL    HW127860   4.310   0.152   1.182
 8987SOL    HW227861   4.467   0.190   1.161
 8988SOL     OW27862   1.294   3.874   4.912
 8988SOL    HW127863   1.354   3.888   4.991
 8988SOL    HW227864   1.341   3.903   4.829
 8989SOL     OW27865   4.964   3.954   0.615
 8989SOL    HW127866   4.948   3.931   0.519
 8989SOL    HW227867   5.024   3.885   0.656
 8990SOL     OW27868   1.615   6.026   3.948
 8990SOL    HW127869   1.595   5.946   3.892
 8990SOL    HW227870   1.714   6.038   3.953
 8991SOL     OW27871   1.785   2.441   5.502
 8991SOL    HW127872   1.703   2.383   5.498
 8991SOL    HW227873   1.823   2.452   5.411
 8992SOL     OW27874   5.286   1.361   6.856
 8992SOL    HW127875   5.242   1.277   6.889
 8992SOL    HW227876   5.262   1.376   6.760
 8993SOL     OW27877   5.424   2.244   1.965
 8993SOL    HW127878   5.519   2.219   1.945
 8993SOL    HW227879   5.363   2.192   1.905
 8994SOL     OW27880   0.834   4.281   4.708
 8994SOL    HW127881   0.907   4.344   4.679
 8994SOL    HW227882   0.765   4.333   4.758
 8995SOL     OW27883   1.246   2.516   0.357
 8995SOL    HW127884   1.253   2.608   0.319
 8995SOL    HW227885   1.222   2.522   0.454
 8996SOL     OW27886   5.855   5.282   0.336
 8996SOL    HW127887   5.885   5.326   0.421
 8996SOL    HW227888   5.766   5.320   0.309
 8997SOL     OW27889   5.133   1.503   6.043
 8997SOL    HW127890   5.191   1.433   6.001
 8997SOL    HW227891   5.156   1.511   6.140
 8998SOL     OW27892   5.908   3.256   3.805
 8998SOL    HW127893   5.961   3.173   3.821
 8998SOL    HW227894   5.811   3.238   3.819
 8999SOL     OW27895   4.571   6.154   6.293
 8999SOL    HW127896   4.488   6.175   6.240
 8999SOL    HW227897   4.622   6.082   6.247
 9000SOL     OW27898   1.376   3.630   1.507
 9000SOL    HW127899   1.411   3.584   1.426
 9000SOL    HW227900   1.276   3.619   1.511
 9001SOL     OW27901   1.080   5.579   2.345
 9001SOL    HW127902   1.110   5.508   2.408
 9001SOL    HW227903   1.153   5.599   2.280
 9002SOL     OW27904   0.960   5.087   5.296
 9002SOL    HW127905   1.046   5.124   5.331
 9002SOL    HW227906   0.979   5.020   5.224
 9003SOL     OW27907   5.569   3.266   1.879
 9003SOL    HW127908   5.626   3.187   1.858
 9003SOL    HW227909   5.519   3.250   1.964
 9004SOL     OW27910   3.989   6.280   1.556
 9004SOL    HW127911   3.892   6.276   1.532
 9004SOL    HW227912   4.002   6.346   1.630
 9005SOL     OW27913   5.688   2.422   4.635
 9005SOL    HW127914   5.696   2.375   4.548
 9005SOL    HW227915   5.646   2.512   4.621
 9006SOL     OW27916   2.378   5.523   1.281
 9006SOL    HW127917   2.401   5.508   1.185
 9006SOL    HW227918   2.324   5.445   1.315
 9007SOL     OW27919   3.349   1.014   3.664
 9007SOL    HW127920   3.407   0.933   3.672
 9007SOL    HW227921   3.253   0.987   3.663
 9008SOL     OW27922   1.473   5.847   3.742
 9008SOL    HW127923   1.530   5.863   3.662
 9008SOL    HW227924   1.386   5.897   3.732
 9009SOL     OW27925   3.095   6.623   0.760
 9009SOL    HW127926   3.131   6.633   0.667
 9009SOL    HW227927   3.015   6.563   0.758
 9010SOL     OW27928   1.699   6.414   4.092
 9010SOL    HW127929   1.659   6.391   4.003
 9010SOL    HW227930   1.769   6.485   4.079
 9011SOL     OW27931   4.881   1.744   2.099
 9011SOL    HW127932   4.830   1.681   2.040
 9011SOL    HW227933   4.837   1.834   2.097
 9012SOL     OW27934   2.188   3.935   0.584
 9012SOL    HW127935   2.188   3.933   0.484
 9012SOL    HW227936   2.282   3.924   0.617
 9013SOL     OW27937   0.456   6.667   5.689
 9013SOL    HW127938   0.405   6.698   5.609
 9013SOL    HW227939   0.398   6.606   5.743
 9014SOL     OW27940   6.592   1.723   0.313
 9014SOL    HW127941   6.584   1.692   0.408
 9014SOL    HW227942   6.502   1.751   0.279
 9015SOL     OW27943   3.962   1.775   1.799
 9015SOL    HW127944   3.957   1.797   1.896
 9015SOL    HW227945   4.027   1.700   1.784
 9016SOL     OW27946   0.417   6.766   6.756
 9016SOL    HW127947   0.347   6.734   6.692
 9016SOL    HW227948   0.396   6.734   6.848
 9017SOL     OW27949   4.204   2.035   3.746
 9017SOL    HW127950   4.212   2.056   3.844
 9017SOL    HW227951   4.210   1.936   3.733
 9018SOL     OW27952   3.321   3.048   0.043
 9018SOL    HW127953   3.286   2.955   0.055
 9018SOL    HW227954   3.325   3.069   6.968
 9019SOL     OW27955   1.248   5.638   2.120
 9019SOL    HW127956   1.226   5.574   2.046
 9019SOL    HW227957   1.263   5.729   2.082
 9020SOL     OW27958   6.938   3.531   0.386
 9020SOL    HW127959   6.972   3.486   0.303
 9020SOL    HW227960   6.879   3.468   0.436
 9021SOL     OW27961   6.920   6.987   4.076
 9021SOL    HW127962   6.852   0.026   4.038
 9021SOL    HW227963   7.011   0.004   4.065
 9022SOL     OW27964   3.537   1.278   6.776
 9022SOL    HW127965   3.477   1.339   6.725
 9022SOL    HW227966   3.582   1.329   6.849
 9023SOL     OW27967   3.449   2.857   2.592
 9023SOL    HW127968   3.521   2.794   2.560
 9023SOL    HW227969   3.431   2.840   2.688
 9024SOL     OW27970   0.757   3.920   4.761
 9024SOL    HW127971   0.738   3.994   4.697
 9024SOL    HW227972   0.671   3.876   4.789
 9025SOL     OW27973   1.000   5.313   0.812
 9025SOL    HW127974   0.921   5.329   0.871
 9025SOL    HW227975   1.080   5.360   0.850
 9026SOL     OW27976   3.899   2.693   0.560
 9026SOL    HW127977   3.838   2.705   0.638
 9026SOL    HW227978   3.990   2.667   0.592
 9027SOL     OW27979   1.628   2.340   3.201
 9027SOL    HW127980   1.555   2.408   3.213
 9027SOL    HW227981   1.610   2.286   3.119
 9028SOL     OW27982   3.134   3.444   5.095
 9028SOL    HW127983   3.097   3.537   5.093
 9028SOL    HW227984   3.064   3.380   5.126
 9029SOL     OW27985   4.167   6.973   4.803
 9029SOL    HW127986   4.099   6.909   4.839
 9029SOL    HW227987   4.120   0.024   4.755
 9030SOL     OW27988   2.999   1.459   3.831
 9030SOL    HW127989   2.980   1.517   3.752
 9030SOL    HW227990   3.042   1.514   3.903
 9031SOL     OW27991   4.341   6.327   4.517
 9031SOL    HW127992   4.355   6.244   4.463
 9031SOL    HW227993   4.300   6.397   4.459
 9032SOL     OW27994   3.753   3.409   1.052
 9032SOL    HW127995   3.665   3.379   1.087
 9032SOL    HW227996   3.816   3.426   1.128
 9033SOL     OW27997   0.089   3.908   2.940
 9033SOL    HW127998   0.145   3.906   2.857
 9033SOL    HW227999   0.025   3.984   2.936
 9034SOL     OW28000   2.949   6.608   5.085
 9034SOL    HW128001   3.036   6.576   5.122
 9034SOL    HW228002   2.891   6.529   5.064
 9035SOL     OW28003   2.201   4.945   6.772
 9035SOL    HW128004   2.103   4.929   6.787
 9035SOL    HW228005   2.251   4.921   6.855
 9036SOL     OW28006   2.031   1.868   5.529
 9036SOL    HW128007   2.092   1.935   5.487
 9036SOL    HW228008   2.022   1.888   5.627
 9037SOL     OW28009   1.127   4.085   4.671
 9037SOL    HW128010   1.172   4.161   4.718
 9037SOL    HW228011   1.032   4.080   4.700
 9038SOL     OW28012   3.914   0.943   5.990
 9038SOL    HW128013   3.962   1.031   5.986
 9038SOL    HW228014   3.871   0.932   6.079
 9039SOL     OW28015   2.174   5.871   5.630
 9039SOL    HW128016   2.183   5.829   5.720
 9039SOL    HW228017   2.081   5.855   5.596
 9040SOL     OW28018   3.681   2.091   2.979
 9040SOL    HW128019   3.630   2.033   2.916
 9040SOL    HW228020   3.756   2.136   2.930
 9041SOL     OW28021   1.370   2.086   1.901
 9041SOL    HW128022   1.450   2.116   1.848
 9041SOL    HW228023   1.336   2.162   1.956
 9042SOL     OW28024   3.761   6.599   5.302
 9042SOL    HW128025   3.842   6.611   5.360
 9042SOL    HW228026   3.689   6.553   5.354
 9043SOL     OW28027   0.959   0.070   0.025
 9043SOL    HW128028   0.951   7.009   0.077
 9043SOL    HW228029   1.032   0.061   6.980
 9044SOL     OW28030   6.161   0.312   0.426
 9044SOL    HW128031   6.175   0.404   0.389
 9044SOL    HW228032   6.121   0.319   0.517
 9045SOL     OW28033   2.475   1.993   2.593
 9045SOL    HW128034   2.530   1.998   2.677
 9045SOL    HW228035   2.380   2.015   2.615
 9046SOL     OW28036   3.423   3.525   2.978
 9046SOL    HW128037   3.396   3.433   2.950
 9046SOL    HW228038   3.493   3.559   2.915
 9047SOL     OW28039   2.102   4.154   5.056
 9047SOL    HW128040   2.033   4.090   5.088
 9047SOL    HW228041   2.183   4.103   5.024
 9048SOL     OW28042   5.853   3.586   5.885
 9048SOL    HW128043   5.900   3.674   5.887
 9048SOL    HW228044   5.799   3.580   5.801
 9049SOL     OW28045   3.585   6.493   5.942
 9049SOL    HW128046   3.571   6.446   6.029
 9049SOL    HW228047   3.615   6.587   5.960
 9050SOL     OW28048   0.628   2.923   1.079
 9050SOL    HW128049   0.560   2.852   1.099
 9050SOL    HW228050   0.672   2.904   0.991
 9051SOL     OW28051   4.012   0.497   1.097
 9051SOL    HW128052   4.085   0.459   1.155
 9051SOL    HW228053   3.927   0.503   1.151
 9052SOL     OW28054   2.657   2.163   4.170
 9052SOL    HW128055   2.608   2.112   4.241
 9052SOL    HW228056   2.747   2.190   4.205
 9053SOL     OW28057   1.800   0.975   2.817
 9053SOL    HW128058   1.721   1.010   2.767
 9053SOL    HW228059   1.848   0.908   2.760
 9054SOL     OW28060   2.863   5.840   3.805
 9054SOL    HW128061   2.778   5.839   3.753
 9054SOL    HW228062   2.906   5.930   3.796
 9055SOL     OW28063   6.294   2.830   4.679
 9055SOL    HW128064   6.239   2.911   4.659
 9055SOL    HW228065   6.276   2.799   4.772
 9056SOL     OW28066   0.797   2.563   1.809
 9056SOL    HW128067   0.852   2.607   1.738
 9056SOL    HW228068   0.705   2.603   1.808
 9057SOL     OW28069   4.755   3.352   6.160
 9057SOL    HW128070   4.736   3.417   6.086
 9057SOL    HW228071   4.690   3.366   6.235
 9058SOL     OW28072   2.211   1.140   1.963
 9058SOL    HW128073   2.159   1.198   1.901
 9058SOL    HW228074   2.299   1.184   1.983
 9059SOL     OW28075   1.414   1.520   3.431
 9059SOL    HW128076   1.468   1.545   3.351
 9059SOL    HW228077   1.382   1.602   3.477
 9060SOL     OW28078   6.216   2.929   4.197
 9060SOL    HW128079   6.225   2.844   4.249
 9060SOL    HW228080   6.123   2.938   4.163
 9061SOL     OW28081   2.258   5.570   1.826
 9061SOL    HW128082   2.162   5.583   1.801
 9061SOL    HW228083   2.307   5.533   1.748
 9062SOL     OW28084   1.743   6.409   2.059
 9062SOL    HW128085   1.693   6.496   2.068
 9062SOL    HW228086   1.833   6.426   2.021
 9063SOL     OW28087   3.369   0.510   3.997
 9063SOL    HW128088   3.295   0.561   3.953
 9063SOL    HW228089   3.407   0.564   4.072
 9064SOL     OW28090   6.172   2.484   5.627
 9064SOL    HW128091   6.270   2.469   5.637
 9064SOL    HW228092   6.124   2.397   5.640
 9065SOL     OW28093   4.332   0.582   6.569
 9065SOL    HW128094   4.249   0.577   6.514
 9065SOL    HW228095   4.322   0.524   6.649
 9066SOL     OW28096   5.399   6.386   0.842
 9066SOL    HW128097   5.381   6.382   0.940
 9066SOL    HW228098   5.312   6.385   0.793
 9067SOL     OW28099   0.915   0.334   4.484
 9067SOL    HW128100   0.921   0.275   4.564
 9067SOL    HW228101   0.931   0.280   4.401
 9068SOL     OW28102   2.482   6.339   4.515
 9068SOL    HW128103   2.442   6.371   4.601
 9068SOL    HW228104   2.448   6.395   4.440
 9069SOL     OW28105   1.466   3.154   1.628
 9069SOL    HW128106   1.546   3.214   1.639
 9069SOL    HW228107   1.412   3.184   1.549
 9070SOL     OW28108   1.317   3.230   4.978
 9070SOL    HW128109   1.370   3.294   4.922
 9070SOL    HW228110   1.271   3.164   4.918
 9071SOL     OW28111   6.339   6.818   1.941
 9071SOL    HW128112   6.280   6.876   1.998
 9071SOL    HW228113   6.363   6.867   1.858
 9072SOL     OW28114   0.033   2.123   1.195
 9072SOL    HW128115   7.013   2.039   1.161
 9072SOL    HW228116   0.022   2.195   1.127
 9073SOL     OW28117   2.767   6.846   2.628
 9073SOL    HW128118   2.674   6.811   2.636
 9073SOL    HW228119   2.813   6.839   2.717
 9074SOL     OW28120   1.350   1.252   1.803
 9074SOL    HW128121   1.270   1.215   1.755
 9074SOL    HW228122   1.418   1.282   1.736
 9075SOL     OW28123   6.792   1.121   2.238
 9075SOL    HW128124   6.797   1.197   2.173
 9075SOL    HW228125   6.812   1.155   2.330
 9076SOL     OW28126   0.179   2.925   5.579
 9076SOL    HW128127   0.156   2.992   5.510
 9076SOL    HW228128   0.269   2.886   5.559
 9077SOL     OW28129   5.026   0.318   0.426
 9077SOL    HW128130   5.099   0.337   0.360
 9077SOL    HW228131   4.982   0.231   0.404
 9078SOL     OW28132   3.889   3.293   5.066
 9078SOL    HW128133   3.984   3.284   5.095
 9078SOL    HW228134   3.878   3.379   5.015
 9079SOL     OW28135   2.497   0.506   4.298
 9079SOL    HW128136   2.430   0.564   4.253
 9079SOL    HW228137   2.555   0.561   4.358
 9080SOL     OW28138   4.795   2.611   6.011
 9080SOL    HW128139   4.816   2.655   5.925
 9080SOL    HW228140   4.782   2.680   6.082
 9081SOL     OW28141   3.936   0.374   2.402
 9081SOL    HW128142   3.891   0.290   2.372
 9081SOL    HW228143   3.966   0.364   2.497
 9082SOL     OW28144   2.129   0.286   5.429
 9082SOL    HW128145   2.133   0.325   5.521
 9082SOL    HW228146   2.118   0.359   5.362
 9083SOL     OW28147   3.573   5.170   6.120
 9083SOL    HW128148   3.578   5.270   6.119
 9083SOL    HW228149   3.480   5.141   6.144
 9084SOL     OW28150   3.597   3.765   3.219
 9084SOL    HW128151   3.619   3.688   3.159
 9084SOL    HW228152   3.499   3.787   3.210
 9085SOL     OW28153   2.412   0.385   1.523
 9085SOL    HW128154   2.427   0.465   1.582
 9085SOL    HW228155   2.492   0.372   1.464
 9086SOL     OW28156   0.660   4.515   0.085
 9086SOL    HW128157   0.577   4.516   0.028
 9086SOL    HW228158   0.671   4.604   0.129
 9087SOL     OW28159   4.980   2.286   1.487
 9087SOL    HW128160   4.937   2.375   1.502
 9087SOL    HW228161   4.968   2.229   1.568
 9088SOL     OW28162   0.194   6.906   1.495
 9088SOL    HW128163   0.159   6.959   1.418
 9088SOL    HW228164   0.126   6.837   1.522
 9089SOL     OW28165   5.256   5.959   5.435
 9089SOL    HW128166   5.240   6.057   5.449
 9089SOL    HW228167   5.334   5.947   5.374
 9090SOL     OW28168   5.840   0.948   4.859
 9090SOL    HW128169   5.891   0.895   4.926
 9090SOL    HW228170   5.844   1.045   4.883
 9091SOL     OW28171   2.861   4.339   0.238
 9091SOL    HW128172   2.796   4.414   0.222
 9091SOL    HW228173   2.954   4.375   0.238
 9092SOL     OW28174   6.560   1.011   6.951
 9092SOL    HW128175   6.512   0.969   6.874
 9092SOL    HW228176   6.655   1.030   6.925
 9093SOL     OW28177   1.717   5.922   5.579
 9093SOL    HW128178   1.705   5.853   5.508
 9093SOL    HW228179   1.743   6.009   5.537
 9094SOL     OW28180   5.982   4.696   3.155
 9094SOL    HW128181   5.898   4.728   3.111
 9094SOL    HW228182   5.964   4.610   3.202
 9095SOL     OW28183   4.864   4.855   6.465
 9095SOL    HW128184   4.912   4.929   6.512
 9095SOL    HW228185   4.929   4.793   6.423
 9096SOL     OW28186   6.491   4.901   2.591
 9096SOL    HW128187   6.565   4.963   2.563
 9096SOL    HW228188   6.527   4.835   2.657
 9097SOL     OW28189   2.180   2.213   0.723
 9097SOL    HW128190   2.126   2.231   0.641
 9097SOL    HW228191   2.123   2.223   0.804
 9098SOL     OW28192   3.099   1.906   4.729
 9098SOL    HW128193   3.124   2.001   4.744
 9098SOL    HW228194   3.038   1.899   4.650
 9099SOL     OW28195   2.523   3.162   5.675
 9099SOL    HW128196   2.509   3.148   5.773
 9099SOL    HW228197   2.556   3.255   5.659
 9100SOL     OW28198   0.630   3.308   3.047
 9100SOL    HW128199   0.706   3.364   3.079
 9100SOL    HW228200   0.632   3.302   2.947
 9101SOL     OW28201   2.512   2.118   1.904
 9101SOL    HW128202   2.519   2.039   1.965
 9101SOL    HW228203   2.524   2.202   1.956
 9102SOL     OW28204   3.253   6.609   1.777
 9102SOL    HW128205   3.232   6.599   1.680
 9102SOL    HW228206   3.352   6.622   1.788
 9103SOL     OW28207   5.636   2.018   0.377
 9103SOL    HW128208   5.546   1.977   0.367
 9103SOL    HW228209   5.634   2.087   0.450
 9104SOL     OW28210   0.115   6.666   1.617
 9104SOL    HW128211   0.162   6.624   1.539
 9104SOL    HW228212   0.152   6.630   1.702
 9105SOL     OW28213   1.094   0.300   5.482
 9105SOL    HW128214   0.997   0.323   5.485
 9105SOL    HW228215   1.121   0.259   5.570
 9106SOL     OW28216   6.265   2.830   0.791
 9106SOL    HW128217   6.326   2.899   0.752
 9106SOL    HW228218   6.203   2.796   0.721
 9107SOL     OW28219   2.255   0.851   6.715
 9107SOL    HW128220   2.263   0.879   6.810
 9107SOL    HW228221   2.172   0.891   6.675
 9108SOL     OW28222   4.696   4.209   5.626
 9108SOL    HW128223   4.775   4.241   5.574
 9108SOL    HW228224   4.638   4.287   5.649
 9109SOL     OW28225   4.868   3.369   3.036
 9109SOL    HW128226   4.855   3.466   3.056
 9109SOL    HW228227   4.885   3.357   2.938
 9110SOL     OW28228   1.149   5.583   4.320
 9110SOL    HW128229   1.194   5.604   4.406
 9110SOL    HW228230   1.218   5.572   4.248
 9111SOL     OW28231   4.478   2.922   6.505
 9111SOL    HW128232   4.398   2.916   6.565
 9111SOL    HW228233   4.548   2.859   6.537
 9112SOL     OW28234   1.413   5.197   2.528
 9112SOL    HW128235   1.350   5.171   2.601
 9112SOL    HW228236   1.393   5.143   2.446
 9113SOL     OW28237   5.168   2.405   2.890
 9113SOL    HW128238   5.246   2.466   2.873
 9113SOL    HW228239   5.191   2.312   2.862
 9114SOL     OW28240   0.587   5.776   3.767
 9114SOL    HW128241   0.679   5.795   3.801
 9114SOL    HW228242   0.572   5.826   3.682
 9115SOL     OW28243   5.781   5.620   4.899
 9115SOL    HW128244   5.865   5.658   4.860
 9115SOL    HW228245   5.791   5.521   4.908
 9116SOL     OW28246   0.061   0.173   2.875
 9116SOL    HW128247   0.105   0.221   2.799
 9116SOL    HW228248   6.985   0.183   2.869
 9117SOL     OW28249   3.912   2.572   6.588
 9117SOL    HW128250   3.947   2.621   6.508
 9117SOL    HW228251   3.954   2.481   6.591
 9118SOL     OW28252   6.515   3.293   0.071
 9118SOL    HW128253   6.508   3.379   0.020
 9118SOL    HW228254   6.424   3.251   0.077
 9119SOL     OW28255   4.212   1.296   1.393
 9119SOL    HW128256   4.255   1.212   1.426
 9119SOL    HW228257   4.225   1.304   1.295
 9120SOL     OW28258   6.468   2.953   5.505
 9120SOL    HW128259   6.451   2.899   5.588
 9120SOL    HW228260   6.478   2.892   5.427
 9121SOL     OW28261   3.769   6.922   5.592
 9121SOL    HW128262   3.709   7.001   5.601
 9121SOL    HW228263   3.821   6.929   5.507
 9122SOL     OW28264   2.208   3.991   2.059
 9122SOL    HW128265   2.255   4.075   2.088
 9122SOL    HW228266   2.229   3.918   2.124
 9123SOL     OW28267   1.765   0.290   4.184
 9123SOL    HW128268   1.845   0.233   4.205
 9123SOL    HW228269   1.684   0.232   4.178
 9124SOL     OW28270   3.631   5.363   1.897
 9124SOL    HW128271   3.540   5.382   1.935
 9124SOL    HW228272   3.677   5.294   1.953
 9125SOL     OW28273   3.722   4.372   0.912
 9125SOL    HW128274   3.635   4.378   0.961
 9125SOL    HW228275   3.766   4.462   0.912
 9126SOL     OW28276   4.700   3.792   0.962
 9126SOL    HW128277   4.738   3.711   1.006
 9126SOL    HW228278   4.766   3.867   0.968
 9127SOL     OW28279   6.459   2.733   5.315
 9127SOL    HW128280   6.500   2.721   5.225
 9127SOL    HW228281   6.383   2.669   5.326
 9128SOL     OW28282   6.035   2.393   4.573
 9128SOL    HW128283   6.122   2.356   4.540
 9128SOL    HW228284   5.961   2.327   4.556
 9129SOL     OW28285   0.681   2.114   0.687
 9129SOL    HW128286   0.697   2.210   0.665
 9129SOL    HW228287   0.627   2.072   0.613
 9130SOL     OW28288   0.578   4.101   6.208
 9130SOL    HW128289   0.481   4.082   6.193
 9130SOL    HW228290   0.633   4.034   6.158
 9131SOL     OW28291   5.352   3.401   0.113
 9131SOL    HW128292   5.293   3.320   0.121
 9131SOL    HW228293   5.341   3.459   0.193
 9132SOL     OW28294   0.639   4.675   4.215
 9132SOL    HW128295   0.581   4.609   4.167
 9132SOL    HW228296   0.713   4.704   4.154
 9133SOL     OW28297   3.421   0.932   1.072
 9133SOL    HW128298   3.501   0.968   1.120
 9133SOL    HW228299   3.360   0.888   1.138
 9134SOL     OW28300   4.003   5.516   0.791
 9134SOL    HW128301   4.055   5.550   0.870
 9134SOL    HW228302   4.005   5.585   0.718
 9135SOL     OW28303   1.442   6.440   1.744
 9135SOL    HW128304   1.372   6.489   1.796
 9135SOL    HW228305   1.462   6.490   1.660
 9136SOL     OW28306   4.384   5.901   5.829
 9136SOL    HW128307   4.367   5.859   5.919
 9136SOL    HW228308   4.480   5.889   5.804
 9137SOL     OW28309   4.167   6.980   5.944
 9137SOL    HW128310   4.193   6.900   5.890
 9137SOL    HW228311   4.213   6.976   6.033
 9138SOL     OW28312   2.187   3.237   0.279
 9138SOL    HW128313   2.245   3.302   0.328
 9138SOL    HW228314   2.119   3.200   0.342
 9139SOL     OW28315   1.079   1.445   1.523
 9139SOL    HW128316   1.041   1.537   1.535
 9139SOL    HW228317   1.010   1.377   1.547
 9140SOL     OW28318   0.610   4.968   2.311
 9140SOL    HW128319   0.662   5.037   2.362
 9140SOL    HW228320   0.634   4.974   2.214
 9141SOL     OW28321   0.037   6.024   6.638
 9141SOL    HW128322   7.019   5.989   6.722
 9141SOL    HW228323   0.008   6.119   6.624
 9142SOL     OW28324   0.034   2.690   2.930
 9142SOL    HW128325   0.000   2.750   2.858
 9142SOL    HW228326   6.988   2.681   3.002
 9143SOL     OW28327   0.617   4.021   1.301
 9143SOL    HW128328   0.561   4.012   1.383
 9143SOL    HW228329   0.637   3.930   1.264
 9144SOL     OW28330   2.833   4.876   4.585
 9144SOL    HW128331   2.846   4.846   4.679
 9144SOL    HW228332   2.756   4.827   4.545
 9145SOL     OW28333   1.326   6.982   6.706
 9145SOL    HW128334   1.361   6.941   6.622
 9145SOL    HW228335   1.334   6.917   6.781
 9146SOL     OW28336   5.341   2.685   3.038
 9146SOL    HW128337   5.248   2.705   3.005
 9146SOL    HW228338   5.347   2.706   3.136
 9147SOL     OW28339   6.174   0.463   4.987
 9147SOL    HW128340   6.160   0.523   5.065
 9147SOL    HW228341   6.137   0.372   5.007
 9148SOL     OW28342   5.779   0.030   1.824
 9148SOL    HW128343   5.877   0.038   1.805
 9148SOL    HW228344   5.733   0.115   1.800
 9149SOL     OW28345   5.377   2.766   2.372
 9149SOL    HW128346   5.375   2.682   2.317
 9149SOL    HW228347   5.326   2.838   2.325
 9150SOL     OW28348   3.111   4.366   0.628
 9150SOL    HW128349   3.120   4.459   0.663
 9150SOL    HW228350   3.200   4.332   0.598
 9151SOL     OW28351   2.347   4.278   3.809
 9151SOL    HW128352   2.300   4.307   3.726
 9151SOL    HW228353   2.325   4.183   3.829
 9152SOL     OW28354   1.830   4.522   4.533
 9152SOL    HW128355   1.915   4.535   4.584
 9152SOL    HW228356   1.832   4.433   4.488
 9153SOL     OW28357   0.623   3.270   6.470
 9153SOL    HW128358   0.619   3.226   6.380
 9153SOL    HW228359   0.553   3.340   6.477
 9154SOL     OW28360   4.722   5.197   3.155
 9154SOL    HW128361   4.784   5.238   3.088
 9154SOL    HW228362   4.770   5.189   3.243
 9155SOL     OW28363   1.575   4.536   2.979
 9155SOL    HW128364   1.624   4.565   3.061
 9155SOL    HW228365   1.637   4.536   2.901
 9156SOL     OW28366   6.702   2.710   1.058
 9156SOL    HW128367   6.631   2.647   1.025
 9156SOL    HW228368   6.751   2.667   1.134
 9157SOL     OW28369   3.214   3.942   6.315
 9157SOL    HW128370   3.271   4.003   6.260
 9157SOL    HW228371   3.181   3.867   6.258
 9158SOL     OW28372   6.486   4.498   4.217
 9158SOL    HW128373   6.574   4.545   4.231
 9158SOL    HW228374   6.503   4.408   4.177
 9159SOL     OW28375   1.909   6.757   3.074
 9159SOL    HW128376   1.819   6.802   3.070
 9159SOL    HW228377   1.979   6.822   3.045
 9160SOL     OW28378   0.375   5.116   6.861
 9160SOL    HW128379   0.283   5.093   6.828
 9160SOL    HW228380   0.413   5.190   6.806
 9161SOL     OW28381   5.725   4.786   3.005
 9161SOL    HW128382   5.776   4.871   2.990
 9161SOL    HW228383   5.628   4.806   3.015
 9162SOL     OW28384   3.893   0.998   3.159
 9162SOL    HW128385   3.814   0.946   3.128
 9162SOL    HW228386   3.976   0.946   3.142
 9163SOL     OW28387   6.929   2.326   1.908
 9163SOL    HW128388   6.991   2.249   1.895
 9163SOL    HW228389   6.892   2.324   2.001
 9164SOL     OW28390   2.123   0.492   0.220
 9164SOL    HW128391   2.038   0.474   0.171
 9164SOL    HW228392   2.168   0.573   0.179
 9165SOL     OW28393   5.042   2.479   6.008
 9165SOL    HW128394   4.952   2.522   5.997
 9165SOL    HW228395   5.031   2.383   6.032
 9166SOL     OW28396   4.142   5.628   1.003
 9166SOL    HW128397   4.240   5.616   0.984
 9166SOL    HW228398   4.129   5.639   1.102
 9167SOL     OW28399   1.164   1.932   6.860
 9167SOL    HW128400   1.212   1.899   6.779
 9167SOL    HW228401   1.070   1.956   6.836
 9168SOL     OW28402   6.509   5.283   6.056
 9168SOL    HW128403   6.556   5.210   6.007
 9168SOL    HW228404   6.553   5.300   6.144
 9169SOL     OW28405   0.039   6.451   6.316
 9169SOL    HW128406   7.017   6.512   6.251
 9169SOL    HW228407   0.079   6.374   6.266
 9170SOL     OW28408   2.009   1.925   6.337
 9170SOL    HW128409   1.925   1.889   6.297
 9170SOL    HW228410   2.082   1.922   6.269
 9171SOL     OW28411   2.522   5.355   1.126
 9171SOL    HW128412   2.614   5.341   1.089
 9171SOL    HW228413   2.527   5.413   1.207
 9172SOL     OW28414   4.726   1.544   5.025
 9172SOL    HW128415   4.669   1.523   4.945
 9172SOL    HW228416   4.797   1.475   5.035
 9173SOL     OW28417   6.839   3.147   4.376
 9173SOL    HW128418   6.839   3.242   4.346
 9173SOL    HW228419   6.879   3.141   4.468
 9174SOL     OW28420   0.666   5.822   6.912
 9174SOL    HW128421   0.724   5.750   6.950
 9174SOL    HW228422   0.643   5.888   6.984
 9175SOL     OW28423   1.484   6.231   0.134
 9175SOL    HW128424   1.453   6.302   0.071
 9175SOL    HW228425   1.571   6.194   0.103
 9176SOL     OW28426   2.137   0.461   2.837
 9176SOL    HW128427   2.141   0.426   2.744
 9176SOL    HW228428   2.087   0.548   2.838
 9177SOL     OW28429   1.391   3.160   3.523
 9177SOL    HW128430   1.369   3.062   3.522
 9177SOL    HW228431   1.306   3.213   3.517
 9178SOL     OW28432   2.160   5.708   6.499
 9178SOL    HW128433   2.102   5.734   6.576
 9178SOL    HW228434   2.256   5.707   6.529
 9179SOL     OW28435   3.658   6.123   4.804
 9179SOL    HW128436   3.609   6.107   4.719
 9179SOL    HW228437   3.592   6.144   4.877
 9180SOL     OW28438   6.435   1.815   4.220
 9180SOL    HW128439   6.526   1.790   4.187
 9180SOL    HW228440   6.390   1.873   4.152
 9181SOL     OW28441   4.922   2.549   3.620
 9181SOL    HW128442   4.900   2.451   3.620
 9181SOL    HW228443   4.843   2.601   3.652
 9182SOL     OW28444   2.461   1.231   2.755
 9182SOL    HW128445   2.489   1.270   2.667
 9182SOL    HW228446   2.362   1.218   2.756
 9183SOL     OW28447   4.729   3.271   6.633
 9183SOL    HW128448   4.815   3.308   6.669
 9183SOL    HW228449   4.712   3.181   6.672
 9184SOL     OW28450   3.142   2.002   1.007
 9184SOL    HW128451   3.225   2.041   0.966
 9184SOL    HW228452   3.138   1.904   0.989
 9185SOL     OW28453   0.315   6.914   6.264
 9185SOL    HW128454   0.248   6.863   6.210
 9185SOL    HW228455   0.279   6.931   6.356
 9186SOL     OW28456   4.739   0.481   5.944
 9186SOL    HW128457   4.750   0.578   5.922
 9186SOL    HW228458   4.823   0.445   5.984
 9187SOL     OW28459   4.494   2.112   6.846
 9187SOL    HW128460   4.444   2.047   6.903
 9187SOL    HW228461   4.547   2.174   6.904
 9188SOL     OW28462   1.602   0.764   1.422
 9188SOL    HW128463   1.543   0.826   1.369
 9188SOL    HW228464   1.586   0.670   1.393
 9189SOL     OW28465   3.271   1.038   3.300
 9189SOL    HW128466   3.294   1.087   3.216
 9189SOL    HW228467   3.207   0.964   3.280
 9190SOL     OW28468   6.068   3.962   5.564
 9190SOL    HW128469   5.973   3.944   5.588
 9190SOL    HW228470   6.072   4.026   5.486
 9191SOL     OW28471   5.105   6.519   0.110
 9191SOL    HW128472   5.128   6.456   0.037
 9191SOL    HW228473   5.140   6.484   0.197
 9192SOL     OW28474   5.998   4.269   5.595
 9192SOL    HW128475   5.996   4.270   5.695
 9192SOL    HW228476   5.947   4.347   5.560
 9193SOL     OW28477   2.936   3.510   3.833
 9193SOL    HW128478   2.913   3.607   3.820
 9193SOL    HW228479   2.900   3.479   3.921
 9194SOL     OW28480   3.503   6.339   2.187
 9194SOL    HW128481   3.556   6.281   2.125
 9194SOL    HW228482   3.407   6.311   2.186
 9195SOL     OW28483   1.047   2.922   3.664
 9195SOL    HW128484   1.127   2.904   3.606
 9195SOL    HW228485   1.066   2.890   3.757
 9196SOL     OW28486   4.093   6.899   4.203
 9196SOL    HW128487   4.168   6.920   4.266
 9196SOL    HW228488   4.044   6.983   4.180
 9197SOL     OW28489   3.014   3.434   0.576
 9197SOL    HW128490   2.995   3.527   0.605
 9197SOL    HW228491   3.111   3.426   0.551
 9198SOL     OW28492   5.793   4.530   6.208
 9198SOL    HW128493   5.809   4.446   6.260
 9198SOL    HW228494   5.695   4.550   6.206
 9199SOL     OW28495   1.036   3.531   6.361
 9199SOL    HW128496   1.087   3.566   6.283
 9199SOL    HW228497   0.983   3.451   6.333
 9200SOL     OW28498   0.502   6.039   0.562
 9200SOL    HW128499   0.580   6.079   0.610
 9200SOL    HW228500   0.493   5.943   0.589
 9201SOL     OW28501   0.472   4.233   1.873
 9201SOL    HW128502   0.563   4.237   1.830
 9201SOL    HW228503   0.426   4.148   1.847
 9202SOL     OW28504   2.227   5.474   4.736
 9202SOL    HW128505   2.243   5.399   4.800
 9202SOL    HW228506   2.138   5.462   4.692
 9203SOL     OW28507   5.154   1.833   6.121
 9203SOL    HW128508   5.247   1.821   6.157
 9203SOL    HW228509   5.088   1.818   6.195
 9204SOL     OW28510   5.598   4.028   3.172
 9204SOL    HW128511   5.550   3.997   3.254
 9204SOL    HW228512   5.541   4.012   3.092
 9205SOL     OW28513   5.171   3.428   2.842
 9205SOL    HW128514   5.104   3.355   2.855
 9205SOL    HW228515   5.210   3.453   2.931
 9206SOL     OW28516   2.975   6.851   4.649
 9206SOL    HW128517   3.058   6.903   4.629
 9206SOL    HW228518   2.997   6.777   4.713
 9207SOL     OW28519   3.698   6.230   5.879
 9207SOL    HW128520   3.632   6.302   5.860
 9207SOL    HW228521   3.790   6.269   5.886
 9208SOL     OW28522   4.905   3.420   2.276
 9208SOL    HW128523   4.876   3.329   2.249
 9208SOL    HW228524   4.907   3.480   2.196
 9209SOL     OW28525   3.939   1.034   1.994
 9209SOL    HW128526   3.864   1.041   1.929
 9209SOL    HW228527   4.026   1.041   1.944
 9210SOL     OW28528   2.481   0.129   1.934
 9210SOL    HW128529   2.579   0.129   1.917
 9210SOL    HW228530   2.460   0.067   2.011
 9211SOL     OW28531   5.821   1.782   6.110
 9211SOL    HW128532   5.846   1.702   6.163
 9211SOL    HW228533   5.724   1.804   6.126
 9212SOL     OW28534   4.585   4.402   4.818
 9212SOL    HW128535   4.562   4.424   4.723
 9212SOL    HW228536   4.523   4.452   4.879
 9213SOL     OW28537   5.560   0.151   4.629
 9213SOL    HW128538   5.557   0.108   4.539
 9213SOL    HW228539   5.656   0.161   4.658
 9214SOL     OW28540   1.695   2.260   4.774
 9214SOL    HW128541   1.653   2.337   4.822
 9214SOL    HW228542   1.645   2.243   4.689
 9215SOL     OW28543   6.944   4.385   2.309
 9215SOL    HW128544   6.913   4.477   2.285
 9215SOL    HW228545   0.020   4.383   2.316
 9216SOL     OW28546   2.692   6.166   4.445
 9216SOL    HW128547   2.707   6.128   4.536
 9216SOL    HW228548   2.636   6.249   4.452
 9217SOL     OW28549   5.090   0.982   6.459
 9217SOL    HW128550   5.148   0.964   6.379
 9217SOL    HW228551   5.001   0.939   6.445
 9218SOL     OW28552   4.624   0.146   6.268
 9218SOL    HW128553   4.609   0.069   6.207
 9218SOL    HW228554   4.616   0.231   6.217
 9219SOL     OW28555   3.904   2.915   5.342
 9219SOL    HW128556   3.990   2.966   5.338
 9219SOL    HW228557   3.842   2.960   5.407
 9220SOL     OW28558   2.486   6.025   3.031
 9220SOL    HW128559   2.445   6.007   2.941
 9220SOL    HW228560   2.500   5.939   3.079
 9221SOL     OW28561   2.351   0.824   6.025
 9221SOL    HW128562   2.386   0.908   5.983
 9221SOL    HW228563   2.416   0.750   6.010
 9222SOL     OW28564   2.515   4.538   4.252
 9222SOL    HW128565   2.518   4.563   4.155
 9222SOL    HW228566   2.563   4.608   4.306
 9223SOL     OW28567   0.954   3.346   4.066
 9223SOL    HW128568   0.929   3.410   4.139
 9223SOL    HW228569   0.933   3.252   4.096
 9224SOL     OW28570   1.063   3.655   3.794
 9224SOL    HW128571   1.107   3.653   3.884
 9224SOL    HW228572   1.015   3.569   3.778
 9225SOL     OW28573   3.844   6.797   6.011
 9225SOL    HW128574   3.881   6.889   5.996
 9225SOL    HW228575   3.747   6.803   6.031
 9226SOL     OW28576   1.276   0.064   1.461
 9226SOL    HW128577   1.298   0.114   1.378
 9226SOL    HW228578   1.346   0.081   1.530
 9227SOL     OW28579   1.532   5.783   1.216
 9227SOL    HW128580   1.441   5.768   1.255
 9227SOL    HW228581   1.600   5.729   1.267
 9228SOL     OW28582   2.061   2.866   5.960
 9228SOL    HW128583   2.110   2.804   5.898
 9228SOL    HW228584   2.007   2.812   6.025
 9229SOL     OW28585   1.200   4.892   6.790
 9229SOL    HW128586   1.201   4.904   6.691
 9229SOL    HW228587   1.152   4.970   6.832
 9230SOL     OW28588   4.978   2.184   4.368
 9230SOL    HW128589   4.959   2.164   4.464
 9230SOL    HW228590   5.055   2.128   4.337
 9231SOL     OW28591   0.359   5.189   5.434
 9231SOL    HW128592   0.302   5.126   5.382
 9231SOL    HW228593   0.301   5.245   5.493
 9232SOL     OW28594   1.893   5.060   1.798
 9232SOL    HW128595   1.817   4.996   1.811
 9232SOL    HW228596   1.917   5.065   1.701
 9233SOL     OW28597   0.950   6.279   0.653
 9233SOL    HW128598   0.914   6.221   0.581
 9233SOL    HW228599   0.946   6.231   0.740
 9234SOL     OW28600   2.482   5.092   1.256
 9234SOL    HW128601   2.479   5.179   1.206
 9234SOL    HW228602   2.462   5.017   1.193
 9235SOL     OW28603   2.380   2.656   3.258
 9235SOL    HW128604   2.394   2.558   3.262
 9235SOL    HW228605   2.431   2.701   3.331
 9236SOL     OW28606   1.960   3.633   0.104
 9236SOL    HW128607   1.861   3.631   0.088
 9236SOL    HW228608   1.982   3.576   0.182
 9237SOL     OW28609   6.925   5.863   3.022
 9237SOL    HW128610   6.840   5.835   2.978
 9237SOL    HW228611   6.915   5.956   3.057
 9238SOL     OW28612   2.224   2.913   5.642
 9238SOL    HW128613   2.302   2.952   5.592
 9238SOL    HW228614   2.246   2.820   5.670
 9239SOL     OW28615   6.932   4.629   6.833
 9239SOL    HW128616   6.913   4.725   6.851
 9239SOL    HW228617   6.922   4.611   6.735
 9240SOL     OW28618   5.160   3.300   3.124
 9240SOL    HW128619   5.062   3.303   3.105
 9240SOL    HW228620   5.194   3.207   3.106
 9241SOL     OW28621   0.410   5.623   6.835
 9241SOL    HW128622   0.444   5.563   6.907
 9241SOL    HW228623   0.487   5.658   6.781
 9242SOL     OW28624   1.676   2.593   1.829
 9242SOL    HW128625   1.746   2.643   1.778
 9242SOL    HW228626   1.586   2.616   1.793
 9243SOL     OW28627   1.065   6.770   1.853
 9243SOL    HW128628   1.098   6.859   1.885
 9243SOL    HW228629   1.024   6.781   1.763
 9244SOL     OW28630   2.906   6.544   5.660
 9244SOL    HW128631   2.833   6.600   5.622
 9244SOL    HW228632   2.936   6.584   5.747
 9245SOL     OW28633   1.001   4.033   3.292
 9245SOL    HW128634   1.095   4.051   3.320
 9245SOL    HW228635   1.001   3.978   3.208
 9246SOL     OW28636   6.169   0.296   4.284
 9246SOL    HW128637   6.233   0.219   4.293
 9246SOL    HW228638   6.090   0.268   4.230
 9247SOL     OW28639   4.084   5.337   2.890
 9247SOL    HW128640   3.984   5.329   2.887
 9247SOL    HW228641   4.123   5.257   2.935
 9248SOL     OW28642   2.869   0.936   4.993
 9248SOL    HW128643   2.925   0.854   5.007
 9248SOL    HW228644   2.776   0.909   4.969
 9249SOL     OW28645   3.738   4.697   1.608
 9249SOL    HW128646   3.684   4.695   1.524
 9249SOL    HW228647   3.682   4.665   1.685
 9250SOL     OW28648   6.632   4.229   3.409
 9250SOL    HW128649   6.628   4.129   3.404
 9250SOL    HW228650   6.726   4.258   3.427
 9251SOL     OW28651   3.602   2.619   1.507
 9251SOL    HW128652   3.643   2.708   1.488
 9251SOL    HW228653   3.602   2.603   1.606
 9252SOL     OW28654   4.483   0.591   5.007
 9252SOL    HW128655   4.547   0.527   4.965
 9252SOL    HW228656   4.392   0.578   4.968
 9253SOL     OW28657   5.597   4.991   5.847
 9253SOL    HW128658   5.601   4.940   5.933
 9253SOL    HW228659   5.521   5.056   5.851
 9254SOL     OW28660   5.495   4.403   2.529
 9254SOL    HW128661   5.568   4.376   2.591
 9254SOL    HW228662   5.468   4.325   2.473
 9255SOL     OW28663   5.706   3.448   6.645
 9255SOL    HW128664   5.749   3.504   6.716
 9255SOL    HW228665   5.725   3.352   6.661
 9256SOL     OW28666   1.995   0.066   1.840
 9256SOL    HW128667   1.930   0.073   1.764
 9256SOL    HW228668   2.012   0.157   1.878
 9257SOL     OW28669   6.125   5.747   3.514
 9257SOL    HW128670   6.127   5.847   3.510
 9257SOL    HW228671   6.052   5.714   3.454
 9258SOL     OW28672   3.590   3.341   0.630
 9258SOL    HW128673   3.565   3.403   0.556
 9258SOL    HW228674   3.572   3.384   0.718
 9259SOL     OW28675   2.067   1.758   0.418
 9259SOL    HW128676   2.089   1.700   0.340
 9259SOL    HW228677   2.118   1.728   0.498
 9260SOL     OW28678   6.747   3.052   6.088
 9260SOL    HW128679   6.748   3.152   6.087
 9260SOL    HW228680   6.773   3.019   6.179
 9261SOL     OW28681   4.669   1.300   0.322
 9261SOL    HW128682   4.730   1.263   0.391
 9261SOL    HW228683   4.675   1.400   0.322
 9262SOL     OW28684   0.612   6.673   4.781
 9262SOL    HW128685   0.516   6.660   4.805
 9262SOL    HW228686   0.668   6.606   4.830
 9263SOL     OW28687   3.201   5.580   2.978
 9263SOL    HW128688   3.181   5.514   2.907
 9263SOL    HW228689   3.214   5.670   2.937
 9264SOL     OW28690   5.380   3.474   6.754
 9264SOL    HW128691   5.298   3.511   6.799
 9264SOL    HW228692   5.352   3.412   6.680
 9265SOL     OW28693   3.680   2.400   6.571
 9265SOL    HW128694   3.737   2.480   6.590
 9265SOL    HW228695   3.699   2.366   6.479
 9266SOL     OW28696   0.407   5.557   1.106
 9266SOL    HW128697   0.323   5.559   1.051
 9266SOL    HW228698   0.389   5.600   1.195
 9267SOL     OW28699   0.812   1.587   4.096
 9267SOL    HW128700   0.763   1.510   4.139
 9267SOL    HW228701   0.752   1.667   4.092
 9268SOL     OW28702   1.092   6.630   2.492
 9268SOL    HW128703   1.054   6.688   2.419
 9268SOL    HW228704   1.149   6.686   2.552
 9269SOL     OW28705   4.390   0.317   6.504
 9269SOL    HW128706   4.342   0.404   6.505
 9269SOL    HW228707   4.337   0.248   6.553
 9270SOL     OW28708   3.394   1.134   5.688
 9270SOL    HW128709   3.444   1.184   5.618
 9270SOL    HW228710   3.347   1.056   5.647
 9271SOL     OW28711   0.630   6.796   0.614
 9271SOL    HW128712   0.623   6.708   0.567
 9271SOL    HW228713   0.580   6.792   0.701
 9272SOL     OW28714   0.813   6.743   6.481
 9272SOL    HW128715   0.757   6.762   6.401
 9272SOL    HW228716   0.853   6.652   6.473
 9273SOL     OW28717   5.155   6.137   4.035
 9273SOL    HW128718   5.224   6.111   3.968
 9273SOL    HW228719   5.085   6.066   4.039
 9274SOL     OW28720   0.113   3.152   0.359
 9274SOL    HW128721   0.037   3.214   0.336
 9274SOL    HW228722   0.191   3.206   0.390
 9275SOL     OW28723   0.478   6.342   0.800
 9275SOL    HW128724   0.511   6.293   0.881
 9275SOL    HW228725   0.412   6.412   0.829
 9276SOL     OW28726   2.983   4.837   0.109
 9276SOL    HW128727   2.959   4.848   0.205
 9276SOL    HW228728   3.065   4.892   0.089
 9277SOL     OW28729   4.172   4.737   2.949
 9277SOL    HW128730   4.239   4.664   2.939
 9277SOL    HW228731   4.136   4.737   3.043
 9278SOL     OW28732   0.058   0.592   5.181
 9278SOL    HW128733   0.117   0.511   5.183
 9278SOL    HW228734   0.114   0.674   5.173
 9279SOL     OW28735   3.727   6.300   1.678
 9279SOL    HW128736   3.715   6.265   1.585
 9279SOL    HW228737   3.743   6.225   1.741
 9280SOL     OW28738   2.270   2.068   2.214
 9280SOL    HW128739   2.356   2.109   2.244
 9280SOL    HW228740   2.226   2.023   2.291
 9281SOL     OW28741   3.399   3.891   5.708
 9281SOL    HW128742   3.368   3.796   5.699
 9281SOL    HW228743   3.437   3.905   5.800
 9282SOL     OW28744   4.385   0.825   4.560
 9282SOL    HW128745   4.285   0.830   4.557
 9282SOL    HW228746   4.419   0.795   4.470
 9283SOL     OW28747   5.671   0.173   6.575
 9283SOL    HW128748   5.583   0.132   6.553
 9283SOL    HW228749   5.686   0.170   6.674
 9284SOL     OW28750   3.133   3.714   4.856
 9284SOL    HW128751   3.142   3.807   4.821
 9284SOL    HW228752   3.045   3.676   4.829
 9285SOL     OW28753   5.266   3.172   1.751
 9285SOL    HW128754   5.287   3.078   1.776
 9285SOL    HW228755   5.332   3.205   1.684
 9286SOL     OW28756   5.080   5.831   0.560
 9286SOL    HW128757   5.012   5.816   0.631
 9286SOL    HW228758   5.051   5.907   0.501
 9287SOL     OW28759   1.858   4.187   5.492
 9287SOL    HW128760   1.802   4.109   5.523
 9287SOL    HW228761   1.955   4.161   5.495
 9288SOL     OW28762   4.460   2.491   3.424
 9288SOL    HW128763   4.426   2.492   3.330
 9288SOL    HW228764   4.511   2.407   3.440
 9289SOL     OW28765   4.585   0.406   6.145
 9289SOL    HW128766   4.621   0.483   6.199
 9289SOL    HW228767   4.599   0.425   6.048
 9290SOL     OW28768   5.756   0.657   3.793
 9290SOL    HW128769   5.791   0.691   3.706
 9290SOL    HW228770   5.828   0.660   3.862
 9291SOL     OW28771   1.300   6.295   5.673
 9291SOL    HW128772   1.351   6.212   5.649
 9291SOL    HW228773   1.202   6.277   5.666
 9292SOL     OW28774   1.922   1.236   6.598
 9292SOL    HW128775   1.891   1.309   6.538
 9292SOL    HW228776   2.005   1.265   6.646
 9293SOL     OW28777   4.752   2.770   6.291
 9293SOL    HW128778   4.653   2.759   6.293
 9293SOL    HW228779   4.795   2.694   6.341
 9294SOL     OW28780   5.217   1.515   0.493
 9294SOL    HW128781   5.166   1.548   0.572
 9294SOL    HW228782   5.281   1.444   0.522
 9295SOL     OW28783   0.476   0.810   4.971
 9295SOL    HW128784   0.473   0.882   4.902
 9295SOL    HW228785   0.461   0.721   4.926
 9296SOL     OW28786   2.707   3.641   0.899
 9296SOL    HW128787   2.772   3.577   0.860
 9296SOL    HW228788   2.736   3.667   0.992
 9297SOL     OW28789   0.674   5.871   2.978
 9297SOL    HW128790   0.625   5.921   3.049
 9297SOL    HW228791   0.656   5.774   2.987
 9298SOL     OW28792   1.376   6.744   5.813
 9298SOL    HW128793   1.396   6.646   5.809
 9298SOL    HW228794   1.284   6.758   5.850
 9299SOL     OW28795   2.200   1.339   4.264
 9299SOL    HW128796   2.205   1.274   4.340
 9299SOL    HW228797   2.123   1.316   4.205
 9300SOL     OW28798   0.633   5.880   4.965
 9300SOL    HW128799   0.712   5.831   5.004
 9300SOL    HW228800   0.549   5.837   4.996
 9301SOL     OW28801   0.257   4.363   4.462
 9301SOL    HW128802   0.179   4.395   4.516
 9301SOL    HW228803   0.226   4.338   4.370
 9302SOL     OW28804   2.319   2.751   4.698
 9302SOL    HW128805   2.337   2.720   4.605
 9302SOL    HW228806   2.349   2.681   4.763
 9303SOL     OW28807   3.225   4.547   6.974
 9303SOL    HW128808   3.196   4.452   6.963
 9303SOL    HW228809   3.151   4.608   6.944
 9304SOL     OW28810   4.671   5.143   0.759
 9304SOL    HW128811   4.667   5.051   0.797
 9304SOL    HW228812   4.579   5.181   0.754
 9305SOL     OW28813   3.380   1.391   0.539
 9305SOL    HW128814   3.367   1.366   0.635
 9305SOL    HW228815   3.293   1.425   0.502
 9306SOL     OW28816   6.888   3.959   4.457
 9306SOL    HW128817   6.811   3.927   4.512
 9306SOL    HW228818   6.919   4.048   4.492
 9307SOL     OW28819   1.719   3.944   0.852
 9307SOL    HW128820   1.793   4.010   0.836
 9307SOL    HW228821   1.650   3.955   0.781
 9308SOL     OW28822   1.352   4.673   1.567
 9308SOL    HW128823   1.381   4.657   1.473
 9308SOL    HW228824   1.292   4.752   1.571
 9309SOL     OW28825   4.904   6.726   6.369
 9309SOL    HW128826   4.996   6.698   6.398
 9309SOL    HW228827   4.844   6.729   6.449
 9310SOL     OW28828   4.801   5.582   5.738
 9310SOL    HW128829   4.838   5.489   5.734
 9310SOL    HW228830   4.829   5.633   5.657
 9311SOL     OW28831   4.659   3.768   1.242
 9311SOL    HW128832   4.704   3.857   1.242
 9311SOL    HW228833   4.565   3.778   1.209
 9312SOL     OW28834   1.525   2.625   1.184
 9312SOL    HW128835   1.576   2.601   1.267
 9312SOL    HW228836   1.584   2.677   1.123
 9313SOL     OW28837   1.291   0.953   1.585
 9313SOL    HW128838   1.240   1.024   1.537
 9313SOL    HW228839   1.232   0.912   1.655
 9314SOL     OW28840   5.369   3.677   0.847
 9314SOL    HW128841   5.453   3.677   0.900
 9314SOL    HW228842   5.300   3.621   0.893
 9315SOL     OW28843   5.622   0.807   6.559
 9315SOL    HW128844   5.554   0.847   6.499
 9315SOL    HW228845   5.674   0.737   6.510
 9316SOL     OW28846   5.816   0.160   4.961
 9316SOL    HW128847   5.784   0.221   5.034
 9316SOL    HW228848   5.808   0.206   4.873
 9317SOL     OW28849   3.233   5.248   3.312
 9317SOL    HW128850   3.218   5.264   3.215
 9317SOL    HW228851   3.297   5.317   3.348
 9318SOL     OW28852   5.132   5.581   0.343
 9318SOL    HW128853   5.209   5.630   0.385
 9318SOL    HW228854   5.048   5.632   0.359
 9319SOL     OW28855   2.614   3.674   1.182
 9319SOL    HW128856   2.615   3.578   1.154
 9319SOL    HW228857   2.520   3.708   1.179
 9320SOL     OW28858   4.988   0.012   5.829
 9320SOL    HW128859   4.931   6.955   5.846
 9320SOL    HW228860   4.930   0.094   5.825
 9321SOL     OW28861   1.130   1.887   5.317
 9321SOL    HW128862   1.046   1.880   5.372
 9321SOL    HW228863   1.126   1.969   5.260
 9322SOL     OW28864   6.246   4.734   6.369
 9322SOL    HW128865   6.332   4.723   6.318
 9322SOL    HW228866   6.202   4.645   6.379
 9323SOL     OW28867   2.084   2.564   4.068
 9323SOL    HW128868   2.142   2.483   4.077
 9323SOL    HW228869   2.074   2.608   4.157
 9324SOL     OW28870   1.526   3.906   0.640
 9324SOL    HW128871   1.528   3.876   0.544
 9324SOL    HW228872   1.432   3.899   0.674
 9325SOL     OW28873   1.926   6.290   1.503
 9325SOL    HW128874   1.980   6.333   1.576
 9325SOL    HW228875   1.859   6.229   1.543
 9326SOL     OW28876   3.818   5.089   0.422
 9326SOL    HW128877   3.753   5.136   0.481
 9326SOL    HW228878   3.784   4.997   0.400
 9327SOL     OW28879   4.413   0.218   3.054
 9327SOL    HW128880   4.383   0.302   3.008
 9327SOL    HW228881   4.507   0.197   3.027
 9328SOL     OW28882   2.294   6.891   5.177
 9328SOL    HW128883   2.309   6.975   5.125
 9328SOL    HW228884   2.351   6.892   5.260
 9329SOL     OW28885   0.319   5.852   6.755
 9329SOL    HW128886   0.341   5.929   6.815
 9329SOL    HW228887   0.351   5.767   6.797
 9330SOL     OW28888   0.608   0.128   6.701
 9330SOL    HW128889   0.640   0.222   6.717
 9330SOL    HW228890   0.677   0.079   6.649
 9331SOL     OW28891   1.879   2.655   4.943
 9331SOL    HW128892   1.860   2.655   4.844
 9331SOL    HW228893   1.931   2.737   4.967
 9332SOL     OW28894   4.293   5.833   0.517
 9332SOL    HW128895   4.379   5.794   0.484
 9332SOL    HW228896   4.308   5.879   0.604
 9333SOL     OW28897   3.303   5.984   0.893
 9333SOL    HW128898   3.238   5.970   0.819
 9333SOL    HW228899   3.317   6.082   0.907
 9334SOL     OW28900   4.968   0.416   4.344
 9334SOL    HW128901   4.958   0.513   4.325
 9334SOL    HW228902   4.884   0.368   4.321
 9335SOL     OW28903   1.861   2.394   0.896
 9335SOL    HW128904   1.887   2.491   0.889
 9335SOL    HW228905   1.773   2.387   0.942
 9336SOL     OW28906   5.891   6.993   4.327
 9336SOL    HW128907   5.912   6.953   4.416
 9336SOL    HW228908   5.857   0.063   4.340
 9337SOL     OW28909   4.955   0.304   6.883
 9337SOL    HW128910   4.912   0.236   6.942
 9337SOL    HW228911   4.949   0.275   6.788
 9338SOL     OW28912   0.358   6.055   6.938
 9338SOL    HW128913   0.450   6.028   6.965
 9338SOL    HW228914   0.360   6.147   6.898
 9339SOL     OW28915   5.514   5.446   7.001
 9339SOL    HW128916   5.435   5.388   7.020
 9339SOL    HW228917   5.533   5.503   0.058
 9340SOL     OW28918   3.909   5.013   2.525
 9340SOL    HW128919   3.908   5.005   2.625
 9340SOL    HW228920   3.825   4.974   2.488
 9341SOL     OW28921   6.231   4.407   6.612
 9341SOL    HW128922   6.191   4.408   6.704
 9341SOL    HW228923   6.278   4.494   6.596
 9342SOL     OW28924   3.339   0.210   4.623
 9342SOL    HW128925   3.306   0.241   4.713
 9342SOL    HW228926   3.288   0.257   4.551
 9343SOL     OW28927   4.886   3.905   2.100
 9343SOL    HW128928   4.883   3.858   2.012
 9343SOL    HW228929   4.863   4.002   2.087
 9344SOL     OW28930   5.606   5.352   6.564
 9344SOL    HW128931   5.525   5.341   6.621
 9344SOL    HW228932   5.590   5.425   6.497
 9345SOL     OW28933   6.697   6.090   6.760
 9345SOL    HW128934   6.738   6.002   6.738
 9345SOL    HW228935   6.662   6.087   6.854
 9346SOL     OW28936   5.004   5.922   2.774
 9346SOL    HW128937   4.954   5.968   2.700
 9346SOL    HW228938   5.062   5.850   2.736
 9347SOL     OW28939   3.297   5.539   0.802
 9347SOL    HW128940   3.392   5.542   0.834
 9347SOL    HW228941   3.237   5.516   0.878
 9348SOL     OW28942   2.418   5.395   3.298
 9348SOL    HW128943   2.411   5.443   3.210
 9348SOL    HW228944   2.475   5.314   3.287
 9349SOL     OW28945   6.607   5.468   2.222
 9349SOL    HW128946   6.618   5.495   2.317
 9349SOL    HW228947   6.622   5.546   2.162
 9350SOL     OW28948   6.883   1.465   4.070
 9350SOL    HW128949   6.802   1.504   4.112
 9350SOL    HW228950   6.943   1.427   4.141
 9351SOL     OW28951   2.052   1.108   5.703
 9351SOL    HW128952   2.011   1.128   5.792
 9351SOL    HW228953   2.060   1.193   5.650
 9352SOL     OW28954   1.566   2.639   5.314
 9352SOL    HW128955   1.495   2.594   5.366
 9352SOL    HW228956   1.600   2.718   5.366
 9353SOL     OW28957   1.096   4.065   2.220
 9353SOL    HW128958   1.042   4.006   2.280
 9353SOL    HW228959   1.178   4.015   2.190
 9354SOL     OW28960   6.620   1.779   1.116
 9354SOL    HW128961   6.590   1.711   1.183
 9354SOL    HW228962   6.640   1.865   1.162
 9355SOL     OW28963   6.376   1.192   3.930
 9355SOL    HW128964   6.359   1.149   4.019
 9355SOL    HW228965   6.290   1.200   3.880
 9356SOL     OW28966   4.703   5.141   2.199
 9356SOL    HW128967   4.640   5.158   2.123
 9356SOL    HW228968   4.652   5.135   2.284
 9357SOL     OW28969   2.098   4.203   0.294
 9357SOL    HW128970   2.049   4.135   0.240
 9357SOL    HW228971   2.196   4.191   0.281
 9358SOL     OW28972   5.648   3.505   1.779
 9358SOL    HW128973   5.609   3.420   1.815
 9358SOL    HW228974   5.593   3.582   1.809
 9359SOL     OW28975   0.079   3.619   5.408
 9359SOL    HW128976   0.135   3.536   5.400
 9359SOL    HW228977   0.139   3.699   5.414
 9360SOL     OW28978   1.661   0.069   6.001
 9360SOL    HW128979   1.568   0.038   5.978
 9360SOL    HW228980   1.663   0.101   6.095
 9361SOL     OW28981   2.692   0.007   3.420
 9361SOL    HW128982   2.724   0.001   3.515
 9361SOL    HW228983   2.704   0.101   3.387
 9362SOL     OW28984   1.553   1.087   1.591
 9362SOL    HW128985   1.468   1.036   1.604
 9362SOL    HW228986   1.533   1.174   1.546
 9363SOL     OW28987   4.012   5.387   1.852
 9363SOL    HW128988   3.990   5.475   1.809
 9363SOL    HW228989   4.056   5.327   1.785
 9364SOL     OW28990   3.498   3.188   6.202
 9364SOL    HW128991   3.505   3.141   6.290
 9364SOL    HW228992   3.588   3.195   6.160
 9365SOL     OW28993   2.464   2.142   4.568
 9365SOL    HW128994   2.548   2.126   4.515
 9365SOL    HW228995   2.486   2.185   4.655
 9366SOL     OW28996   3.139   1.760   6.777
 9366SOL    HW128997   3.169   1.854   6.763
 9366SOL    HW228998   3.039   1.757   6.776
 9367SOL     OW28999   6.845   6.095   3.576
 9367SOL    HW129000   6.893   6.082   3.662
 9367SOL    HW229001   6.796   6.012   3.551
 9368SOL     OW29002   3.212   1.759   3.071
 9368SOL    HW129003   3.170   1.704   3.000
 9368SOL    HW229004   3.305   1.725   3.089
 9369SOL     OW29005   0.171   0.502   5.845
 9369SOL    HW129006   0.234   0.431   5.877
 9369SOL    HW229007   0.186   0.519   5.748
 9370SOL     OW29008   5.545   0.298   2.167
 9370SOL    HW129009   5.497   0.276   2.083
 9370SOL    HW229010   5.624   0.237   2.177
 9371SOL     OW29011   2.345   5.029   0.336
 9371SOL    HW129012   2.250   5.033   0.308
 9371SOL    HW229013   2.352   5.055   0.433
 9372SOL     OW29014   5.879   6.092   2.670
 9372SOL    HW129015   5.940   6.089   2.591
 9372SOL    HW229016   5.813   6.017   2.664
 9373SOL     OW29017   4.697   1.871   2.946
 9373SOL    HW129018   4.793   1.889   2.923
 9373SOL    HW229019   4.691   1.836   3.039
 9374SOL     OW29020   6.065   3.067   6.897
 9374SOL    HW129021   6.036   3.113   6.813
 9374SOL    HW229022   5.989   3.016   6.935
 9375SOL     OW29023   6.982   1.577   3.693
 9375SOL    HW129024   6.921   1.585   3.614
 9375SOL    HW229025   7.017   1.667   3.718
 9376SOL     OW29026   2.842   3.797   1.128
 9376SOL    HW129027   2.752   3.784   1.170
 9376SOL    HW229028   2.882   3.883   1.160
 9377SOL     OW29029   1.124   5.525   3.959
 9377SOL    HW129030   1.046   5.584   3.977
 9377SOL    HW229031   1.207   5.568   3.994
 9378SOL     OW29032   1.309   0.451   5.368
 9378SOL    HW129033   1.314   0.516   5.444
 9378SOL    HW229034   1.245   0.378   5.392
 9379SOL     OW29035   4.559   5.036   5.167
 9379SOL    HW129036   4.531   5.132   5.169
 9379SOL    HW229037   4.538   4.993   5.254
 9380SOL     OW29038   5.881   5.085   4.471
 9380SOL    HW129039   5.837   5.175   4.465
 9380SOL    HW229040   5.981   5.097   4.473
 9381SOL     OW29041   2.154   3.200   5.745
 9381SOL    HW129042   2.187   3.111   5.713
 9381SOL    HW229043   2.186   3.271   5.682
 9382SOL     OW29044   3.421   1.449   2.915
 9382SOL    HW129045   3.486   1.374   2.900
 9382SOL    HW229046   3.471   1.534   2.929
 9383SOL     OW29047   3.087   6.109   4.736
 9383SOL    HW129048   3.174   6.064   4.755
 9383SOL    HW229049   3.012   6.047   4.756
 9384SOL     OW29050   4.012   6.439   1.293
 9384SOL    HW129051   4.089   6.376   1.295
 9384SOL    HW229052   4.010   6.494   1.377
 9385SOL     OW29053   4.321   1.227   2.371
 9385SOL    HW129054   4.401   1.270   2.328
 9385SOL    HW229055   4.346   1.196   2.463
 9386SOL     OW29056   2.182   6.150   5.127
 9386SOL    HW129057   2.246   6.170   5.054
 9386SOL    HW229058   2.103   6.102   5.089
 9387SOL     OW29059   4.190   6.983   0.086
 9387SOL    HW129060   4.226   0.052   0.093
 9387SOL    HW229061   4.099   6.987   0.045
 9388SOL     OW29062   1.790   5.499   2.558
 9388SOL    HW129063   1.700   5.541   2.548
 9388SOL    HW229064   1.793   5.413   2.507
 9389SOL     OW29065   2.078   0.340   5.718
 9389SOL    HW129066   2.172   0.329   5.752
 9389SOL    HW229067   2.015   0.291   5.779
 9390SOL     OW29068   4.429   6.001   4.673
 9390SOL    HW129069   4.486   5.923   4.645
 9390SOL    HW229070   4.348   5.968   4.721
 9391SOL     OW29071   2.312   1.146   5.443
 9391SOL    HW129072   2.393   1.124   5.497
 9391SOL    HW229073   2.262   1.220   5.487
 9392SOL     OW29074   6.912   0.373   4.900
 9392SOL    HW129075   6.919   0.282   4.942
 9392SOL    HW229076   7.003   0.405   4.874
 9393SOL     OW29077   3.483   0.677   5.180
 9393SOL    HW129078   3.523   0.653   5.269
 9393SOL    HW229079   3.384   0.684   5.190
 9394SOL     OW29080   6.473   1.786   2.406
 9394SOL    HW129081   6.455   1.747   2.316
 9394SOL    HW229082   6.405   1.856   2.426
 9395SOL     OW29083   2.601   2.896   0.468
 9395SOL    HW129084   2.542   2.884   0.388
 9395SOL    HW229085   2.694   2.867   0.446
 9396SOL     OW29086   0.312   5.739   3.879
 9396SOL    HW129087   0.324   5.667   3.948
 9396SOL    HW229088   0.401   5.772   3.849
 9397SOL     OW29089   2.640   0.174   0.277
 9397SOL    HW129090   2.561   0.179   0.217
 9397SOL    HW229091   2.711   0.117   0.235
 9398SOL     OW29092   1.842   0.323   5.583
 9398SOL    HW129093   1.882   0.318   5.491
 9398SOL    HW229094   1.915   0.323   5.651
 9399SOL     OW29095   0.609   1.259   0.103
 9399SOL    HW129096   0.605   1.359   0.098
 9399SOL    HW229097   0.547   1.220   0.035
 9400SOL     OW29098   5.438   2.895   1.497
 9400SOL    HW129099   5.371   2.966   1.474
 9400SOL    HW229100   5.393   2.806   1.496
 9401SOL     OW29101   3.909   6.770   3.110
 9401SOL    HW129102   3.905   6.679   3.151
 9401SOL    HW229103   3.863   6.835   3.171
 9402SOL     OW29104   1.025   5.322   4.363
 9402SOL    HW129105   1.071   5.411   4.353
 9402SOL    HW229106   0.964   5.325   4.442
 9403SOL     OW29107   5.486   1.541   2.883
 9403SOL    HW129108   5.492   1.442   2.888
 9403SOL    HW229109   5.497   1.580   2.975
 9404SOL     OW29110   0.746   3.600   6.049
 9404SOL    HW129111   0.732   3.645   5.960
 9404SOL    HW229112   0.844   3.588   6.065
 9405SOL     OW29113   0.128   6.723   2.276
 9405SOL    HW129114   0.215   6.709   2.228
 9405SOL    HW229115   0.070   6.785   2.223
 9406SOL     OW29116   7.011   2.949   5.996
 9406SOL    HW129117   6.921   2.974   6.029
 9406SOL    HW229118   0.002   2.851   6.009
 9407SOL     OW29119   2.540   5.107   3.623
 9407SOL    HW129120   2.457   5.088   3.571
 9407SOL    HW229121   2.619   5.101   3.562
 9408SOL     OW29122   3.925   2.097   6.443
 9408SOL    HW129123   3.983   2.081   6.363
 9408SOL    HW229124   3.856   2.166   6.421
 9409SOL     OW29125   5.787   4.842   6.478
 9409SOL    HW129126   5.851   4.919   6.485
 9409SOL    HW229127   5.800   4.795   6.391
 9410SOL     OW29128   3.874   6.126   1.918
 9410SOL    HW129129   3.792   6.085   1.959
 9410SOL    HW229130   3.875   6.225   1.937
 9411SOL     OW29131   3.796   3.765   1.293
 9411SOL    HW129132   3.742   3.786   1.374
 9411SOL    HW229133   3.886   3.808   1.301
 9412SOL     OW29134   6.997   3.270   1.694
 9412SOL    HW129135   7.004   3.349   1.755
 9412SOL    HW229136   6.975   3.302   1.602
 9413SOL     OW29137   4.236   6.285   4.771
 9413SOL    HW129138   4.169   6.211   4.761
 9413SOL    HW229139   4.274   6.308   4.681
 9414SOL     OW29140   3.540   1.146   3.823
 9414SOL    HW129141   3.464   1.105   3.774
 9414SOL    HW229142   3.605   1.075   3.850
 9415SOL     OW29143   2.654   0.105   2.649
 9415SOL    HW129144   2.586   0.062   2.709
 9415SOL    HW229145   2.704   0.034   2.599
 9416SOL     OW29146   0.876   1.701   1.100
 9416SOL    HW129147   0.803   1.678   1.165
 9416SOL    HW229148   0.875   1.637   1.023
 9417SOL     OW29149   3.909   0.018   5.911
 9417SOL    HW129150   3.885   0.019   5.814
 9417SOL    HW229151   4.007   7.021   5.921
 9418SOL     OW29152   3.214   6.845   0.962
 9418SOL    HW129153   3.257   6.814   0.877
 9418SOL    HW229154   3.115   6.838   0.953
 9419SOL     OW29155   3.153   5.278   5.781
 9419SOL    HW129156   3.128   5.268   5.684
 9419SOL    HW229157   3.073   5.305   5.834
 9420SOL     OW29158   6.771   2.257   4.654
 9420SOL    HW129159   6.859   2.266   4.607
 9420SOL    HW229160   6.741   2.347   4.685
 9421SOL     OW29161   2.401   6.339   5.065
 9421SOL    HW129162   2.445   6.333   5.155
 9421SOL    HW229163   2.397   6.434   5.036
 9422SOL     OW29164   4.456   6.114   2.623
 9422SOL    HW129165   4.515   6.192   2.643
 9422SOL    HW229166   4.508   6.029   2.635
 9423SOL     OW29167   4.232   0.877   3.333
 9423SOL    HW129168   4.178   0.854   3.252
 9423SOL    HW229169   4.172   0.878   3.414
 9424SOL     OW29170   4.568   0.657   5.501
 9424SOL    HW129171   4.637   0.706   5.447
 9424SOL    HW229172   4.601   0.644   5.594
 9425SOL     OW29173   0.197   4.006   5.991
 9425SOL    HW129174   0.257   3.998   6.071
 9425SOL    HW229175   0.196   3.919   5.942
 9426SOL     OW29176   2.529   2.263   0.387
 9426SOL    HW129177   2.432   2.282   0.377
 9426SOL    HW229178   2.576   2.344   0.421
 9427SOL     OW29179   3.323   5.150   4.665
 9427SOL    HW129180   3.245   5.111   4.616
 9427SOL    HW229181   3.395   5.080   4.673
 9428SOL     OW29182   5.277   1.024   0.689
 9428SOL    HW129183   5.202   1.004   0.626
 9428SOL    HW229184   5.306   0.939   0.733
 9429SOL     OW29185   1.795   4.625   2.267
 9429SOL    HW129186   1.761   4.560   2.199
 9429SOL    HW229187   1.854   4.577   2.332
 9430SOL     OW29188   0.286   5.103   2.046
 9430SOL    HW129189   0.296   5.182   1.985
 9430SOL    HW229190   0.351   5.109   2.121
 9431SOL     OW29191   5.637   4.476   0.921
 9431SOL    HW129192   5.577   4.397   0.911
 9431SOL    HW229193   5.636   4.507   1.016
 9432SOL     OW29194   5.452   0.620   2.592
 9432SOL    HW129195   5.381   0.690   2.598
 9432SOL    HW229196   5.433   0.561   2.513
 9433SOL     OW29197   3.205   4.871   3.337
 9433SOL    HW129198   3.186   4.867   3.435
 9433SOL    HW229199   3.304   4.863   3.323
 9434SOL     OW29200   5.602   5.183   2.985
 9434SOL    HW129201   5.595   5.220   3.078
 9434SOL    HW229202   5.698   5.167   2.963
 9435SOL     OW29203   0.975   1.602   4.327
 9435SOL    HW129204   0.979   1.507   4.356
 9435SOL    HW229205   0.925   1.608   4.240
 9436SOL     OW29206   1.137   3.813   2.024
 9436SOL    HW129207   1.178   3.743   2.082
 9436SOL    HW229208   1.173   3.806   1.932
 9437SOL     OW29209   1.557   6.339   3.856
 9437SOL    HW129210   1.630   6.276   3.829
 9437SOL    HW229211   1.494   6.293   3.920
 9438SOL     OW29212   1.259   6.825   1.255
 9438SOL    HW129213   1.256   6.905   1.315
 9438SOL    HW229214   1.337   6.834   1.193
 9439SOL     OW29215   0.320   2.760   2.483
 9439SOL    HW129216   0.251   2.733   2.416
 9439SOL    HW229217   0.405   2.781   2.435
 9440SOL     OW29218   4.568   5.676   4.143
 9440SOL    HW129219   4.614   5.588   4.141
 9440SOL    HW229220   4.518   5.691   4.058
 9441SOL     OW29221   1.281   3.610   4.827
 9441SOL    HW129222   1.208   3.548   4.856
 9441SOL    HW229223   1.257   3.703   4.852
 9442SOL     OW29224   5.161   3.371   0.312
 9442SOL    HW129225   5.116   3.301   0.366
 9442SOL    HW229226   5.117   3.459   0.327
 9443SOL     OW29227   2.858   5.760   1.596
 9443SOL    HW129228   2.935   5.707   1.560
 9443SOL    HW229229   2.834   5.727   1.687
 9444SOL     OW29230   1.346   3.891   6.385
 9444SOL    HW129231   1.370   3.877   6.289
 9444SOL    HW229232   1.429   3.891   6.440
 9445SOL     OW29233   5.578   3.696   2.769
 9445SOL    HW129234   5.490   3.652   2.754
 9445SOL    HW229235   5.652   3.632   2.748
 9446SOL     OW29236   6.342   6.838   4.093
 9446SOL    HW129237   6.263   6.894   4.117
 9446SOL    HW229238   6.374   6.790   4.174
 9447SOL     OW29239   5.871   3.141   3.359
 9447SOL    HW129240   5.948   3.143   3.295
 9447SOL    HW229241   5.803   3.075   3.327
 9448SOL     OW29242   6.944   6.594   6.104
 9448SOL    HW129243   6.986   6.543   6.029
 9448SOL    HW229244   6.844   6.592   6.093
 9449SOL     OW29245   0.182   5.806   6.528
 9449SOL    HW129246   0.134   5.874   6.584
 9449SOL    HW229247   0.254   5.762   6.582
 9450SOL     OW29248   3.444   4.910   4.552
 9450SOL    HW129249   3.355   4.874   4.579
 9450SOL    HW229250   3.513   4.880   4.618
 9451SOL     OW29251   4.027   6.090   6.015
 9451SOL    HW129252   3.979   6.177   6.001
 9451SOL    HW229253   4.027   6.068   6.112
 9452SOL     OW29254   0.821   3.769   0.816
 9452SOL    HW129255   0.872   3.801   0.736
 9452SOL    HW229256   0.769   3.845   0.855
 9453SOL     OW29257   1.817   4.865   3.664
 9453SOL    HW129258   1.844   4.779   3.621
 9453SOL    HW229259   1.837   4.941   3.602
 9454SOL     OW29260   1.638   3.410   5.677
 9454SOL    HW129261   1.628   3.428   5.580
 9454SOL    HW229262   1.555   3.368   5.713
 9455SOL     OW29263   3.516   1.704   2.943
 9455SOL    HW129264   3.589   1.742   2.887
 9455SOL    HW229265   3.526   1.738   3.037
 9456SOL     OW29266   1.041   3.696   0.239
 9456SOL    HW129267   1.062   3.757   0.162
 9456SOL    HW229268   1.102   3.617   0.235
 9457SOL     OW29269   2.142   4.039   5.488
 9457SOL    HW129270   2.098   3.964   5.438
 9457SOL    HW229271   2.114   4.036   5.584
 9458SOL     OW29272   0.934   3.285   6.263
 9458SOL    HW129273   0.982   3.281   6.175
 9458SOL    HW229274   0.837   3.268   6.248
 9459SOL     OW29275   5.751   4.374   2.666
 9459SOL    HW129276   5.848   4.349   2.672
 9459SOL    HW229277   5.739   4.440   2.592
 9460SOL     OW29278   6.916   1.387   4.533
 9460SOL    HW129279   6.913   1.485   4.518
 9460SOL    HW229280   7.001   1.363   4.581
 9461SOL     OW29281   6.480   1.894   2.968
 9461SOL    HW129282   6.470   1.960   3.043
 9461SOL    HW229283   6.415   1.915   2.896
 9462SOL     OW29284   2.094   3.501   3.406
 9462SOL    HW129285   2.104   3.422   3.466
 9462SOL    HW229286   2.107   3.585   3.458
 9463SOL     OW29287   0.299   0.941   1.407
 9463SOL    HW129288   0.209   0.928   1.449
 9463SOL    HW229289   0.287   0.977   1.314
 9464SOL     OW29290   5.849   6.245   0.536
 9464SOL    HW129291   5.936   6.270   0.579
 9464SOL    HW229292   5.773   6.286   0.587
 9465SOL     OW29293   0.329   6.464   3.434
 9465SOL    HW129294   0.391   6.439   3.509
 9465SOL    HW229295   0.358   6.417   3.350
 9466SOL     OW29296   3.566   4.181   5.015
 9466SOL    HW129297   3.553   4.279   5.029
 9466SOL    HW229298   3.658   4.154   5.042
 9467SOL     OW29299   1.195   2.735   1.991
 9467SOL    HW129300   1.293   2.715   1.993
 9467SOL    HW229301   1.168   2.760   1.899
 9468SOL     OW29302   5.810   2.504   5.766
 9468SOL    HW129303   5.850   2.556   5.842
 9468SOL    HW229304   5.760   2.566   5.706
 9469SOL     OW29305   5.950   5.927   1.142
 9469SOL    HW129306   5.862   5.966   1.170
 9469SOL    HW229307   6.019   5.999   1.139
 9470SOL     OW29308   4.636   3.675   5.783
 9470SOL    HW129309   4.625   3.774   5.793
 9470SOL    HW229310   4.701   3.655   5.710
 9471SOL     OW29311   6.261   1.349   4.659
 9471SOL    HW129312   6.290   1.272   4.601
 9471SOL    HW229313   6.183   1.395   4.617
 9472SOL     OW29314   6.051   2.891   4.523
 9472SOL    HW129315   6.013   2.846   4.442
 9472SOL    HW229316   6.144   2.922   4.503
 9473SOL     OW29317   2.565   4.940   5.492
 9473SOL    HW129318   2.588   4.845   5.512
 9473SOL    HW229319   2.627   5.001   5.540
 9474SOL     OW29320   6.331   2.597   7.007
 9474SOL    HW129321   6.301   2.505   0.009
 9474SOL    HW229322   6.279   2.664   0.037
 9475SOL     OW29323   3.324   3.740   0.463
 9475SOL    HW129324   3.405   3.799   0.454
 9475SOL    HW229325   3.274   3.765   0.546
 9476SOL     OW29326   2.957   3.200   4.846
 9476SOL    HW129327   2.971   3.110   4.887
 9476SOL    HW229328   2.914   3.260   4.913
 9477SOL     OW29329   0.402   3.183   2.660
 9477SOL    HW129330   0.364   3.093   2.683
 9477SOL    HW229331   0.497   3.172   2.631
 9478SOL     OW29332   4.404   3.567   6.013
 9478SOL    HW129333   4.372   3.594   5.923
 9478SOL    HW229334   4.442   3.647   6.060
 9479SOL     OW29335   5.408   6.367   6.797
 9479SOL    HW129336   5.437   6.272   6.798
 9479SOL    HW229337   5.451   6.417   6.872
 9480SOL     OW29338   4.881   4.607   0.137
 9480SOL    HW129339   4.862   4.520   0.183
 9480SOL    HW229340   4.978   4.613   0.117
 9481SOL     OW29341   5.736   3.539   1.323
 9481SOL    HW129342   5.683   3.510   1.243
 9481SOL    HW229343   5.675   3.580   1.390
 9482SOL     OW29344   6.451   0.935   3.109
 9482SOL    HW129345   6.449   0.874   3.030
 9482SOL    HW229346   6.529   0.912   3.167
 9483SOL     OW29347   1.550   1.983   1.090
 9483SOL    HW129348   1.626   2.020   1.143
 9483SOL    HW229349   1.566   2.000   0.993
 9484SOL     OW29350   4.315   1.549   3.069
 9484SOL    HW129351   4.218   1.555   3.095
 9484SOL    HW229352   4.338   1.624   3.007
 9485SOL     OW29353   0.666   0.142   2.486
 9485SOL    HW129354   0.614   0.068   2.529
 9485SOL    HW229355   0.760   0.140   2.521
 9486SOL     OW29356   2.526   4.975   1.487
 9486SOL    HW129357   2.491   5.008   1.399
 9486SOL    HW229358   2.519   4.876   1.490
 9487SOL     OW29359   3.018   3.677   2.553
 9487SOL    HW129360   3.035   3.595   2.609
 9487SOL    HW229361   3.038   3.656   2.457
 9488SOL     OW29362   2.713   6.279   0.852
 9488SOL    HW129363   2.623   6.313   0.880
 9488SOL    HW229364   2.701   6.199   0.793
 9489SOL     OW29365   3.909   4.011   1.508
 9489SOL    HW129366   3.818   4.044   1.481
 9489SOL    HW229367   3.911   3.997   1.606
 9490SOL     OW29368   6.203   6.321   0.814
 9490SOL    HW129369   6.188   6.243   0.753
 9490SOL    HW229370   6.142   6.396   0.788
 9491SOL     OW29371   6.844   4.036   3.464
 9491SOL    HW129372   6.879   4.026   3.371
 9491SOL    HW229373   6.917   4.070   3.523
 9492SOL     OW29374   3.583   3.298   2.742
 9492SOL    HW129375   3.578   3.225   2.674
 9492SOL    HW229376   3.679   3.325   2.756
 9493SOL     OW29377   4.169   5.293   4.265
 9493SOL    HW129378   4.202   5.371   4.212
 9493SOL    HW229379   4.085   5.258   4.224
 9494SOL     OW29380   4.599   4.263   1.655
 9494SOL    HW129381   4.518   4.265   1.714
 9494SOL    HW229382   4.642   4.173   1.660
 9495SOL     OW29383   5.532   1.776   4.776
 9495SOL    HW129384   5.573   1.691   4.742
 9495SOL    HW229385   5.605   1.837   4.807
 9496SOL     OW29386   5.484   5.046   0.658
 9496SOL    HW129387   5.400   5.087   0.694
 9496SOL    HW229388   5.476   4.947   0.659
 9497SOL     OW29389   5.788   4.613   0.353
 9497SOL    HW129390   5.768   4.699   0.400
 9497SOL    HW229391   5.861   4.628   0.286
 9498SOL     OW29392   5.390   0.311   5.603
 9498SOL    HW129393   5.428   0.220   5.583
 9498SOL    HW229394   5.464   0.375   5.620
 9499SOL     OW29395   2.345   4.192   6.211
 9499SOL    HW129396   2.293   4.274   6.187
 9499SOL    HW229397   2.437   4.197   6.172
 9500SOL     OW29398   4.196   0.392   1.542
 9500SOL    HW129399   4.239   0.418   1.628
 9500SOL    HW229400   4.098   0.377   1.557
 9501SOL     OW29401   2.940   1.190   4.876
 9501SOL    HW129402   2.930   1.204   4.777
 9501SOL    HW229403   2.935   1.092   4.896
 9502SOL     OW29404   0.228   1.971   4.373
 9502SOL    HW129405   0.200   2.066   4.363
 9502SOL    HW229406   0.272   1.940   4.288
 9503SOL     OW29407   0.673   1.674   1.319
 9503SOL    HW129408   0.691   1.600   1.384
 9503SOL    HW229409   0.719   1.758   1.350
 9504SOL     OW29410   0.231   1.441   0.732
 9504SOL    HW129411   0.156   1.479   0.787
 9504SOL    HW229412   0.284   1.517   0.694
 9505SOL     OW29413   5.556   3.986   4.179
 9505SOL    HW129414   5.652   3.962   4.193
 9505SOL    HW229415   5.545   4.085   4.189
 9506SOL     OW29416   0.406   3.433   6.579
 9506SOL    HW129417   0.396   3.504   6.649
 9506SOL    HW229418   0.326   3.373   6.581
 9507SOL     OW29419   1.179   1.079   3.632
 9507SOL    HW129420   1.167   1.177   3.614
 9507SOL    HW229421   1.276   1.059   3.643
 9508SOL     OW29422   5.625   3.240   0.952
 9508SOL    HW129423   5.703   3.227   1.013
 9508SOL    HW229424   5.658   3.256   0.859
 9509SOL     OW29425   1.102   0.245   5.788
 9509SOL    HW129426   1.077   0.158   5.831
 9509SOL    HW229427   1.082   0.320   5.850
 9510SOL     OW29428   1.046   4.562   1.924
 9510SOL    HW129429   0.972   4.600   1.979
 9510SOL    HW229430   1.114   4.520   1.983
 9511SOL     OW29431   0.487   1.162   6.900
 9511SOL    HW129432   0.430   1.234   6.860
 9511SOL    HW229433   0.525   1.105   6.826
 9512SOL     OW29434   5.733   0.742   2.160
 9512SOL    HW129435   5.796   0.665   2.163
 9512SOL    HW229436   5.732   0.788   2.249
 9513SOL     OW29437   1.564   3.207   4.808
 9513SOL    HW129438   1.578   3.214   4.906
 9513SOL    HW229439   1.638   3.255   4.760
 9514SOL     OW29440   2.255   4.441   0.078
 9514SOL    HW129441   2.162   4.450   0.115
 9514SOL    HW229442   2.261   4.491   7.015
 9515SOL     OW29443   1.296   5.590   0.572
 9515SOL    HW129444   1.349   5.505   0.573
 9515SOL    HW229445   1.355   5.667   0.595
 9516SOL     OW29446   5.201   3.946   5.048
 9516SOL    HW129447   5.117   3.891   5.050
 9516SOL    HW229448   5.266   3.905   4.984
 9517SOL     OW29449   1.698   4.895   0.300
 9517SOL    HW129450   1.671   4.968   0.238
 9517SOL    HW229451   1.778   4.847   0.264
 9518SOL     OW29452   1.156   2.189   7.011
 9518SOL    HW129453   1.069   2.165   0.031
 9518SOL    HW229454   1.182   2.118   6.946
 9519SOL     OW29455   3.968   3.183   3.971
 9519SOL    HW129456   3.928   3.274   3.977
 9519SOL    HW229457   3.947   3.132   4.054
 9520SOL     OW29458   0.127   0.743   2.937
 9520SOL    HW129459   0.084   0.833   2.935
 9520SOL    HW229460   0.197   0.737   2.866
 9521SOL     OW29461   3.699   4.125   1.136
 9521SOL    HW129462   3.602   4.112   1.116
 9521SOL    HW229463   3.753   4.053   1.093
 9522SOL     OW29464   4.237   6.245   2.562
 9522SOL    HW129465   4.170   6.205   2.498
 9522SOL    HW229466   4.313   6.181   2.574
 9523SOL     OW29467   2.931   4.869   4.843
 9523SOL    HW129468   2.921   4.942   4.911
 9523SOL    HW229469   2.882   4.788   4.875
 9524SOL     OW29470   1.966   2.754   0.534
 9524SOL    HW129471   2.004   2.662   0.533
 9524SOL    HW229472   2.035   2.818   0.570
 9525SOL     OW29473   1.975   2.153   5.267
 9525SOL    HW129474   1.891   2.099   5.271
 9525SOL    HW229475   1.956   2.247   5.294
 9526SOL     OW29476   6.370   4.400   1.554
 9526SOL    HW129477   6.457   4.447   1.547
 9526SOL    HW229478   6.325   4.424   1.640
 9527SOL     OW29479   2.490   0.785   5.399
 9527SOL    HW129480   2.511   0.692   5.368
 9527SOL    HW229481   2.459   0.782   5.494
 9528SOL     OW29482   6.886   1.686   6.920
 9528SOL    HW129483   6.869   1.732   7.007
 9528SOL    HW229484   6.846   1.741   6.846
 9529SOL     OW29485   6.559   3.582   6.378
 9529SOL    HW129486   6.604   3.501   6.416
 9529SOL    HW229487   6.477   3.603   6.431
 9530SOL     OW29488   1.207   3.371   3.537
 9530SOL    HW129489   1.287   3.411   3.583
 9530SOL    HW229490   1.149   3.324   3.604
 9531SOL     OW29491   5.117   4.162   2.328
 9531SOL    HW129492   5.101   4.063   2.338
 9531SOL    HW229493   5.030   4.208   2.312
 9532SOL     OW29494   0.294   5.329   0.909
 9532SOL    HW129495   0.268   5.426   0.907
 9532SOL    HW229496   0.386   5.319   0.874
 9533SOL     OW29497   1.078   6.090   4.084
 9533SOL    HW129498   0.996   6.146   4.098
 9533SOL    HW229499   1.088   6.070   3.986
 9534SOL     OW29500   5.986   4.396   5.158
 9534SOL    HW129501   5.955   4.488   5.178
 9534SOL    HW229502   6.067   4.400   5.099
 9535SOL     OW29503   2.152   0.648   5.692
 9535SOL    HW129504   2.132   0.655   5.594
 9535SOL    HW229505   2.190   0.735   5.724
 9536SOL     OW29506   2.929   3.711   5.152
 9536SOL    HW129507   2.872   3.683   5.229
 9536SOL    HW229508   2.917   3.809   5.136
 9537SOL     OW29509   2.282   0.770   4.532
 9537SOL    HW129510   2.362   0.829   4.539
 9537SOL    HW229511   2.307   0.677   4.557
 9538SOL     OW29512   5.175   0.767   4.153
 9538SOL    HW129513   5.142   0.713   4.230
 9538SOL    HW229514   5.275   0.770   4.155
 9539SOL     OW29515   3.370   4.217   4.398
 9539SOL    HW129516   3.284   4.174   4.372
 9539SOL    HW229517   3.390   4.197   4.494
 9540SOL     OW29518   5.689   4.945   4.272
 9540SOL    HW129519   5.597   4.935   4.233
 9540SOL    HW229520   5.743   5.006   4.214
 9541SOL     OW29521   2.934   0.552   6.131
 9541SOL    HW129522   2.912   0.582   6.038
 9541SOL    HW229523   2.908   0.456   6.142
 9542SOL     OW29524   5.154   4.657   5.418
 9542SOL    HW129525   5.110   4.569   5.405
 9542SOL    HW229526   5.144   4.713   5.336
 9543SOL     OW29527   3.791   0.807   6.227
 9543SOL    HW129528   3.797   0.722   6.279
 9543SOL    HW229529   3.725   0.869   6.270
 9544SOL     OW29530   5.689   2.766   4.098
 9544SOL    HW129531   5.598   2.766   4.141
 9544SOL    HW229532   5.699   2.683   4.043
 9545SOL     OW29533   5.680   5.561   3.278
 9545SOL    HW129534   5.583   5.583   3.287
 9545SOL    HW229535   5.697   5.522   3.188
 9546SOL     OW29536   3.658   2.156   6.352
 9546SOL    HW129537   3.627   2.240   6.307
 9546SOL    HW229538   3.661   2.081   6.286
 9547SOL     OW29539   2.513   5.420   4.255
 9547SOL    HW129540   2.418   5.390   4.246
 9547SOL    HW229541   2.543   5.409   4.350
 9548SOL     OW29542   6.953   4.598   5.149
 9548SOL    HW129543   6.989   4.509   5.120
 9548SOL    HW229544   0.005   4.655   5.181
 9549SOL     OW29545   3.042   2.062   1.439
 9549SOL    HW129546   3.051   2.154   1.400
 9549SOL    HW229547   3.003   2.070   1.531
 9550SOL     OW29548   0.260   0.682   0.339
 9550SOL    HW129549   0.300   0.614   0.278
 9550SOL    HW229550   0.180   0.643   0.385
 9551SOL     OW29551   5.998   3.118   6.051
 9551SOL    HW129552   5.957   3.145   6.139
 9551SOL    HW229553   6.022   3.201   6.000
 9552SOL     OW29554   2.378   5.936   5.002
 9552SOL    HW129555   2.476   5.928   5.020
 9552SOL    HW229556   2.328   5.944   5.088
 9553SOL     OW29557   5.583   2.585   6.804
 9553SOL    HW129558   5.663   2.574   6.863
 9553SOL    HW229559   5.503   2.607   6.859
 9554SOL     OW29560   2.578   6.422   2.823
 9554SOL    HW129561   2.608   6.446   2.730
 9554SOL    HW229562   2.648   6.366   2.867
 9555SOL     OW29563   0.871   1.570   2.073
 9555SOL    HW129564   0.792   1.510   2.066
 9555SOL    HW229565   0.948   1.519   2.113
 9556SOL     OW29566   1.785   4.338   2.334
 9556SOL    HW129567   1.700   4.329   2.386
 9556SOL    HW229568   1.856   4.376   2.392
 9557SOL     OW29569   6.728   6.343   1.539
 9557SOL    HW129570   6.697   6.434   1.512
 9557SOL    HW229571   6.655   6.295   1.588
 9558SOL     OW29572   6.016   5.935   5.667
 9558SOL    HW129573   5.947   5.874   5.707
 9558SOL    HW229574   5.975   6.025   5.650
 9559SOL     OW29575   0.472   4.582   0.914
 9559SOL    HW129576   0.439   4.672   0.884
 9559SOL    HW229577   0.543   4.594   0.982
 9560SOL     OW29578   2.740   1.383   3.058
 9560SOL    HW129579   2.649   1.351   3.085
 9560SOL    HW229580   2.756   1.474   3.096
 9561SOL     OW29581   1.869   0.719   1.022
 9561SOL    HW129582   1.913   0.634   0.994
 9561SOL    HW229583   1.769   0.708   1.014
 9562SOL     OW29584   2.870   0.648   5.901
 9562SOL    HW129585   2.909   0.740   5.888
 9562SOL    HW229586   2.806   0.629   5.826
 9563SOL     OW29587   0.212   6.654   0.233
 9563SOL    HW129588   0.168   6.564   0.230
 9563SOL    HW229589   0.142   6.726   0.233
 9564SOL     OW29590   2.559   1.408   0.736
 9564SOL    HW129591   2.461   1.408   0.720
 9564SOL    HW229592   2.604   1.350   0.669
 9565SOL     OW29593   4.600   1.049   4.833
 9565SOL    HW129594   4.562   1.009   4.750
 9565SOL    HW229595   4.531   1.050   4.905
 9566SOL     OW29596   2.996   5.545   6.620
 9566SOL    HW129597   3.060   5.613   6.585
 9566SOL    HW229598   2.962   5.574   6.710
 9567SOL     OW29599   4.774   5.155   0.509
 9567SOL    HW129600   4.860   5.205   0.523
 9567SOL    HW229601   4.729   5.143   0.598
 9568SOL     OW29602   4.382   2.497   6.040
 9568SOL    HW129603   4.301   2.437   6.039
 9568SOL    HW229604   4.360   2.584   5.997
 9569SOL     OW29605   6.528   0.927   2.595
 9569SOL    HW129606   6.566   0.963   2.510
 9569SOL    HW229607   6.428   0.926   2.589
 9570SOL     OW29608   0.439   3.252   1.790
 9570SOL    HW129609   0.397   3.305   1.717
 9570SOL    HW229610   0.537   3.270   1.792
 9571SOL     OW29611   3.774   3.878   6.492
 9571SOL    HW129612   3.787   3.976   6.504
 9571SOL    HW229613   3.851   3.828   6.532
 9572SOL     OW29614   2.317   4.668   2.129
 9572SOL    HW129615   2.406   4.690   2.089
 9572SOL    HW229616   2.250   4.736   2.100
 9573SOL     OW29617   0.933   2.365   6.504
 9573SOL    HW129618   0.883   2.420   6.437
 9573SOL    HW229619   1.004   2.421   6.546
 9574SOL     OW29620   4.125   3.430   2.977
 9574SOL    HW129621   4.217   3.407   2.943
 9574SOL    HW229622   4.107   3.379   3.061
 9575SOL     OW29623   0.932   0.868   1.644
 9575SOL    HW129624   0.935   0.798   1.715
 9575SOL    HW229625   0.859   0.933   1.662
 9576SOL     OW29626   1.935   1.601   1.176
 9576SOL    HW129627   1.876   1.637   1.248
 9576SOL    HW229628   1.953   1.673   1.109
 9577SOL     OW29629   1.190   0.127   6.130
 9577SOL    HW129630   1.158   0.091   6.218
 9577SOL    HW229631   1.175   0.226   6.127
 9578SOL     OW29632   1.139   4.093   2.753
 9578SOL    HW129633   1.149   4.000   2.788
 9578SOL    HW229634   1.084   4.146   2.818
 9579SOL     OW29635   0.916   4.562   3.234
 9579SOL    HW129636   0.962   4.642   3.271
 9579SOL    HW229637   0.825   4.588   3.203
 9580SOL     OW29638   4.496   3.338   0.721
 9580SOL    HW129639   4.538   3.421   0.755
 9580SOL    HW229640   4.435   3.299   0.790
 9581SOL     OW29641   0.713   6.577   5.656
 9581SOL    HW129642   0.763   6.662   5.645
 9581SOL    HW229643   0.615   6.596   5.660
 9582SOL     OW29644   4.328   5.071   5.900
 9582SOL    HW129645   4.425   5.062   5.926
 9582SOL    HW229646   4.309   5.165   5.873
 9583SOL     OW29647   3.629   4.396   1.450
 9583SOL    HW129648   3.608   4.384   1.547
 9583SOL    HW229649   3.670   4.312   1.414
 9584SOL     OW29650   0.190   5.402   6.605
 9584SOL    HW129651   0.289   5.390   6.612
 9584SOL    HW229652   0.168   5.451   6.520
 9585SOL     OW29653   6.587   6.714   4.702
 9585SOL    HW129654   6.526   6.649   4.746
 9585SOL    HW229655   6.542   6.803   4.694
 9586SOL     OW29656   5.290   4.758   2.247
 9586SOL    HW129657   5.312   4.708   2.331
 9586SOL    HW229658   5.214   4.714   2.200
 9587SOL     OW29659   0.810   0.438   1.719
 9587SOL    HW129660   0.747   0.462   1.645
 9587SOL    HW229661   0.904   0.436   1.683
 9588SOL     OW29662   6.904   0.722   1.279
 9588SOL    HW129663   6.900   0.754   1.185
 9588SOL    HW229664   6.832   0.654   1.295
 9589SOL     OW29665   2.363   5.170   6.765
 9589SOL    HW129666   2.301   5.092   6.765
 9589SOL    HW229667   2.422   5.166   6.684
 9590SOL     OW29668   6.325   2.675   2.036
 9590SOL    HW129669   6.238   2.676   2.085
 9590SOL    HW229670   6.367   2.766   2.041
 9591SOL     OW29671   3.040   5.957   5.764
 9591SOL    HW129672   2.948   5.960   5.725
 9591SOL    HW229673   3.057   5.866   5.802
 9592SOL     OW29674   3.525   4.561   0.688
 9592SOL    HW129675   3.441   4.551   0.635
 9592SOL    HW229676   3.520   4.504   0.770
 9593SOL     OW29677   0.400   0.719   5.775
 9593SOL    HW129678   0.338   0.690   5.702
 9593SOL    HW229679   0.445   0.639   5.815
 9594SOL     OW29680   1.075   5.405   2.815
 9594SOL    HW129681   0.992   5.436   2.767
 9594SOL    HW229682   1.097   5.471   2.887
 9595SOL     OW29683   0.498   3.148   4.662
 9595SOL    HW129684   0.458   3.239   4.666
 9595SOL    HW229685   0.500   3.108   4.754
 9596SOL     OW29686   0.111   5.556   6.089
 9596SOL    HW129687   0.168   5.610   6.027
 9596SOL    HW229688   0.062   5.487   6.036
 9597SOL     OW29689   1.095   4.336   1.119
 9597SOL    HW129690   1.016   4.374   1.168
 9597SOL    HW229691   1.063   4.284   1.040
 9598SOL     OW29692   1.454   4.080   3.750
 9598SOL    HW129693   1.528   4.031   3.796
 9598SOL    HW229694   1.373   4.021   3.745
 9599SOL     OW29695   3.223   6.984   4.661
 9599SOL    HW129696   3.301   6.930   4.693
 9599SOL    HW229697   3.256   0.042   4.612
 9600SOL     OW29698   2.505   6.678   6.727
 9600SOL    HW129699   2.409   6.697   6.751
 9600SOL    HW229700   2.538   6.747   6.664
 9601SOL     OW29701   4.677   3.878   0.624
 9601SOL    HW129702   4.697   3.813   0.551
 9601SOL    HW229703   4.760   3.930   0.646
 9602SOL     OW29704   6.349   4.873   5.870
 9602SOL    HW129705   6.388   4.940   5.807
 9602SOL    HW229706   6.325   4.918   5.956
 9603SOL     OW29707   3.682   1.694   4.141
 9603SOL    HW129708   3.693   1.705   4.240
 9603SOL    HW229709   3.737   1.763   4.094
 9604SOL     OW29710   4.874   0.042   6.422
 9604SOL    HW129711   4.928   6.993   6.465
 9604SOL    HW229712   4.806   0.001   6.362
 9605SOL     OW29713   0.446   5.586   3.626
 9605SOL    HW129714   0.469   5.648   3.702
 9605SOL    HW229715   0.530   5.547   3.588
 9606SOL     OW29716   1.802   6.493   6.662
 9606SOL    HW129717   1.900   6.502   6.679
 9606SOL    HW229718   1.775   6.557   6.590
 9607SOL     OW29719   1.844   1.945   0.372
 9607SOL    HW129720   1.832   2.022   0.434
 9607SOL    HW229721   1.930   1.898   0.393
 9608SOL     OW29722   6.745   5.310   2.652
 9608SOL    HW129723   6.689   5.294   2.733
 9608SOL    HW229724   6.783   5.403   2.655
 9609SOL     OW29725   2.748   4.461   6.846
 9609SOL    HW129726   2.710   4.530   6.908
 9609SOL    HW229727   2.675   4.401   6.814
 9610SOL     OW29728   1.075   4.431   4.202
 9610SOL    HW129729   1.100   4.375   4.280
 9610SOL    HW229730   1.000   4.493   4.227
 9611SOL     OW29731   0.865   6.170   6.721
 9611SOL    HW129732   0.929   6.138   6.651
 9611SOL    HW229733   0.874   6.269   6.731
 9612SOL     OW29734   0.658   4.018   1.646
 9612SOL    HW129735   0.741   3.973   1.614
 9612SOL    HW229736   0.677   4.114   1.665
 9613SOL     OW29737   5.394   6.605   3.411
 9613SOL    HW129738   5.353   6.639   3.495
 9613SOL    HW229739   5.326   6.606   3.338
 9614SOL     OW29740   3.176   2.342   0.902
 9614SOL    HW129741   3.159   2.440   0.895
 9614SOL    HW229742   3.259   2.319   0.850
 9615SOL     OW29743   1.546   6.839   0.146
 9615SOL    HW129744   1.603   6.803   0.072
 9615SOL    HW229745   1.488   6.912   0.111
 9616SOL     OW29746   4.391   3.690   1.404
 9616SOL    HW129747   4.314   3.714   1.463
 9616SOL    HW229748   4.372   3.720   1.311
 9617SOL     OW29749   1.924   2.702   3.067
 9617SOL    HW129750   1.933   2.667   2.973
 9617SOL    HW229751   2.004   2.675   3.120
 9618SOL     OW29752   4.194   0.130   5.691
 9618SOL    HW129753   4.214   0.072   5.612
 9618SOL    HW229754   4.196   0.076   5.774
 9619SOL     OW29755   1.264   0.058   0.325
 9619SOL    HW129756   1.175   0.043   0.367
 9619SOL    HW229757   1.335   0.012   0.379
 9620SOL     OW29758   4.928   2.050   6.177
 9620SOL    HW129759   4.915   1.960   6.219
 9620SOL    HW229760   4.912   2.043   6.078
 9621SOL     OW29761   1.103   1.093   1.786
 9621SOL    HW129762   1.082   1.080   1.689
 9621SOL    HW229763   1.146   1.010   1.822
 9622SOL     OW29764   6.737   1.234   0.090
 9622SOL    HW129765   6.819   1.242   0.033
 9622SOL    HW229766   6.725   1.139   0.117
 9623SOL     OW29767   2.715   4.375   6.302
 9623SOL    HW129768   2.665   4.321   6.234
 9623SOL    HW229769   2.762   4.450   6.255
 9624SOL     OW29770   6.951   4.658   2.259
 9624SOL    HW129771   6.903   4.709   2.330
 9624SOL    HW229772   6.935   4.703   2.170
 9625SOL     OW29773   5.092   5.336   0.232
 9625SOL    HW129774   4.997   5.326   0.202
 9625SOL    HW229775   5.098   5.412   0.297
 9626SOL     OW29776   2.971   5.811   0.093
 9626SOL    HW129777   3.059   5.854   0.077
 9626SOL    HW229778   2.962   5.788   0.190
 9627SOL     OW29779   6.458   6.193   3.253
 9627SOL    HW129780   6.546   6.162   3.287
 9627SOL    HW229781   6.392   6.197   3.328
 9628SOL     OW29782   5.386   4.809   0.474
 9628SOL    HW129783   5.479   4.837   0.497
 9628SOL    HW229784   5.388   4.744   0.398
 9629SOL     OW29785   0.634   0.069   2.096
 9629SOL    HW129786   0.605   0.156   2.137
 9629SOL    HW229787   0.674   0.011   2.167
 9630SOL     OW29788   6.272   6.036   5.639
 9630SOL    HW129789   6.292   6.050   5.542
 9630SOL    HW229790   6.183   5.991   5.649
 9631SOL     OW29791   6.369   0.105   6.851
 9631SOL    HW129792   6.438   0.164   6.809
 9631SOL    HW229793   6.411   0.049   6.921
 9632SOL     OW29794   2.376   5.704   2.522
 9632SOL    HW129795   2.325   5.667   2.599
 9632SOL    HW229796   2.334   5.790   2.493
 9633SOL     OW29797   5.283   5.296   0.022
 9633SOL    HW129798   5.212   5.322   0.087
 9633SOL    HW229799   5.300   5.197   0.030
 9634SOL     OW29800   1.238   6.850   3.571
 9634SOL    HW129801   1.319   6.845   3.630
 9634SOL    HW229802   1.170   6.783   3.603
 9635SOL     OW29803   1.447   4.977   5.531
 9635SOL    HW129804   1.545   4.993   5.519
 9635SOL    HW229805   1.433   4.914   5.607
 9636SOL     OW29806   3.568   2.119   6.633
 9636SOL    HW129807   3.585   2.201   6.687
 9636SOL    HW229808   3.608   2.129   6.543
 9637SOL     OW29809   3.077   1.890   6.262
 9637SOL    HW129810   3.075   1.987   6.285
 9637SOL    HW229811   3.168   1.867   6.227
 9638SOL     OW29812   6.848   3.320   6.565
 9638SOL    HW129813   6.882   3.226   6.572
 9638SOL    HW229814   6.754   3.319   6.530
 9639SOL     OW29815   3.911   1.757   2.545
 9639SOL    HW129816   3.842   1.801   2.602
 9639SOL    HW229817   3.995   1.812   2.546
 9640SOL     OW29818   2.682   1.876   2.801
 9640SOL    HW129819   2.675   1.921   2.891
 9640SOL    HW229820   2.603   1.816   2.788
 9641SOL     OW29821   5.085   6.008   1.110
 9641SOL    HW129822   5.042   5.918   1.117
 9641SOL    HW229823   5.045   6.069   1.178
 9642SOL     OW29824   3.407   6.269   5.654
 9642SOL    HW129825   3.333   6.289   5.590
 9642SOL    HW229826   3.442   6.177   5.637
 9643SOL     OW29827   5.812   5.318   4.271
 9643SOL    HW129828   5.827   5.230   4.227
 9643SOL    HW229829   5.898   5.350   4.312
 9644SOL     OW29830   0.903   4.726   5.451
 9644SOL    HW129831   0.982   4.752   5.396
 9644SOL    HW229832   0.933   4.668   5.527
 9645SOL     OW29833   4.114   4.821   3.450
 9645SOL    HW129834   4.149   4.782   3.536
 9645SOL    HW229835   4.088   4.916   3.465
 9646SOL     OW29836   2.876   4.788   2.147
 9646SOL    HW129837   2.889   4.716   2.078
 9646SOL    HW229838   2.809   4.854   2.115
 9647SOL     OW29839   6.448   5.204   1.396
 9647SOL    HW129840   6.406   5.235   1.311
 9647SOL    HW229841   6.542   5.236   1.401
 9648SOL     OW29842   3.863   2.168   6.821
 9648SOL    HW129843   3.835   2.073   6.833
 9648SOL    HW229844   3.807   2.227   6.880
 9649SOL     OW29845   2.639   5.670   6.995
 9649SOL    HW129846   2.563   5.621   6.951
 9649SOL    HW229847   2.694   5.715   6.925
 9650SOL     OW29848   5.460   4.786   2.696
 9650SOL    HW129849   5.559   4.791   2.698
 9650SOL    HW229850   5.429   4.711   2.754
 9651SOL     OW29851   6.994   0.539   6.405
 9651SOL    HW129852   0.060   0.516   6.366
 9651SOL    HW229853   6.934   0.459   6.401
 9652SOL     OW29854   2.153   4.949   0.827
 9652SOL    HW129855   2.184   4.887   0.756
 9652SOL    HW229856   2.071   4.998   0.795
 9653SOL     OW29857   4.142   5.137   4.754
 9653SOL    HW129858   4.155   5.154   4.656
 9653SOL    HW229859   4.045   5.121   4.772
 9654SOL     OW29860   3.747   3.382   1.658
 9654SOL    HW129861   3.677   3.429   1.712
 9654SOL    HW229862   3.725   3.390   1.561
 9655SOL     OW29863   0.337   1.516   6.815
 9655SOL    HW129864   0.303   1.476   6.730
 9655SOL    HW229865   0.315   1.456   6.891
 9656SOL     OW29866   2.930   2.588   1.193
 9656SOL    HW129867   3.021   2.560   1.222
 9656SOL    HW229868   2.899   2.665   1.250
 9657SOL     OW29869   6.638   1.762   3.911
 9657SOL    HW129870   6.593   1.676   3.887
 9657SOL    HW229871   6.624   1.828   3.837
 9658SOL     OW29872   5.923   1.185   2.813
 9658SOL    HW129873   6.015   1.167   2.848
 9658SOL    HW229874   5.895   1.278   2.838
 9659SOL     OW29875   6.789   4.412   0.222
 9659SOL    HW129876   6.827   4.503   0.234
 9659SOL    HW229877   6.788   4.388   0.125
 9660SOL     OW29878   0.311   5.652   1.336
 9660SOL    HW129879   0.345   5.707   1.412
 9660SOL    HW229880   0.247   5.583   1.370
 9661SOL     OW29881   3.841   6.389   1.977
 9661SOL    HW129882   3.920   6.449   1.984
 9661SOL    HW229883   3.769   6.421   2.039
 9662SOL     OW29884   5.049   2.840   5.195
 9662SOL    HW129885   5.087   2.748   5.194
 9662SOL    HW229886   4.968   2.844   5.136
 9663SOL     OW29887   1.026   6.463   4.364
 9663SOL    HW129888   1.018   6.406   4.282
 9663SOL    HW229889   1.116   6.448   4.406
 9664SOL     OW29890   6.060   6.569   3.725
 9664SOL    HW129891   6.151   6.602   3.699
 9664SOL    HW229892   6.038   6.602   3.817
 9665SOL     OW29893   5.489   6.097   6.803
 9665SOL    HW129894   5.449   6.069   6.891
 9665SOL    HW229895   5.561   6.032   6.778
 9666SOL     OW29896   5.798   4.379   1.402
 9666SOL    HW129897   5.771   4.287   1.430
 9666SOL    HW229898   5.884   4.403   1.446
 9667SOL     OW29899   3.411   3.889   4.070
 9667SOL    HW129900   3.496   3.842   4.095
 9667SOL    HW229901   3.381   3.858   3.980
 9668SOL     OW29902   5.915   1.767   6.861
 9668SOL    HW129903   5.941   1.693   6.923
 9668SOL    HW229904   5.951   1.748   6.770
 9669SOL     OW29905   1.158   6.958   2.021
 9669SOL    HW129906   1.254   6.964   2.050
 9669SOL    HW229907   1.118   0.026   2.020
 9670SOL     OW29908   5.232   4.959   6.651
 9670SOL    HW129909   5.214   4.901   6.572
 9670SOL    HW229910   5.284   5.039   6.622
 9671SOL     OW29911   6.175   5.166   6.476
 9671SOL    HW129912   6.247   5.110   6.518
 9671SOL    HW229913   6.206   5.197   6.386
 9672SOL     OW29914   1.158   6.116   4.574
 9672SOL    HW129915   1.130   6.127   4.670
 9672SOL    HW229916   1.180   6.206   4.536
 9673SOL     OW29917   5.888   3.637   0.484
 9673SOL    HW129918   5.945   3.689   0.547
 9673SOL    HW229919   5.944   3.605   0.407
 9674SOL     OW29920   2.338   5.630   3.506
 9674SOL    HW129921   2.343   5.592   3.598
 9674SOL    HW229922   2.368   5.562   3.440
 9675SOL     OW29923   5.909   1.988   0.809
 9675SOL    HW129924   5.895   1.930   0.729
 9675SOL    HW229925   6.006   2.014   0.814
 9676SOL     OW29926   1.361   3.490   5.254
 9676SOL    HW129927   1.420   3.512   5.332
 9676SOL    HW229928   1.393   3.405   5.212
 9677SOL     OW29929   1.811   5.708   5.419
 9677SOL    HW129930   1.787   5.664   5.505
 9677SOL    HW229931   1.895   5.667   5.383
 9678SOL     OW29932   3.303   3.321   2.803
 9678SOL    HW129933   3.300   3.256   2.879
 9678SOL    HW229934   3.394   3.318   2.760
 9679SOL     OW29935   2.139   1.270   2.726
 9679SOL    HW129936   2.159   1.176   2.700
 9679SOL    HW229937   2.170   1.332   2.654
 9680SOL     OW29938   6.055   0.419   3.755
 9680SOL    HW129939   6.078   0.506   3.798
 9680SOL    HW229940   6.088   0.418   3.660
 9681SOL     OW29941   3.683   1.194   0.498
 9681SOL    HW129942   3.626   1.172   0.577
 9681SOL    HW229943   3.625   1.228   0.424
 9682SOL     OW29944   5.264   5.289   3.866
 9682SOL    HW129945   5.314   5.374   3.851
 9682SOL    HW229946   5.315   5.231   3.929
 9683SOL     OW29947   2.817   5.350   0.980
 9683SOL    HW129948   2.825   5.445   0.949
 9683SOL    HW229949   2.898   5.325   1.032
 9684SOL     OW29950   0.264   1.902   4.802
 9684SOL    HW129951   0.202   1.979   4.788
 9684SOL    HW229952   0.358   1.935   4.810
 9685SOL     OW29953   1.806   3.647   0.986
 9685SOL    HW129954   1.728   3.654   0.925
 9685SOL    HW229955   1.806   3.725   1.049
 9686SOL     OW29956   6.835   2.113   0.654
 9686SOL    HW129957   6.773   2.122   0.576
 9686SOL    HW229958   6.797   2.047   0.719
 9687SOL     OW29959   1.832   1.239   3.828
 9687SOL    HW129960   1.825   1.334   3.859
 9687SOL    HW229961   1.846   1.237   3.729
 9688SOL     OW29962   6.611   1.972   3.388
 9688SOL    HW129963   6.606   2.017   3.478
 9688SOL    HW229964   6.698   1.922   3.381
 9689SOL     OW29965   1.482   5.780   0.586
 9689SOL    HW129966   1.562   5.807   0.640
 9689SOL    HW229967   1.440   5.861   0.545
 9690SOL     OW29968   5.817   5.925   6.475
 9690SOL    HW129969   5.782   5.911   6.568
 9690SOL    HW229970   5.886   5.855   6.454
 9691SOL     OW29971   2.903   4.986   1.876
 9691SOL    HW129972   2.959   5.051   1.823
 9691SOL    HW229973   2.956   4.902   1.891
 9692SOL     OW29974   2.984   5.290   2.622
 9692SOL    HW129975   2.961   5.255   2.531
 9692SOL    HW229976   3.014   5.215   2.681
 9693SOL     OW29977   6.384   5.851   1.228
 9693SOL    HW129978   6.415   5.896   1.312
 9693SOL    HW229979   6.452   5.783   1.200
 9694SOL     OW29980   2.400   0.796   6.482
 9694SOL    HW129981   2.341   0.817   6.560
 9694SOL    HW229982   2.434   0.882   6.442
 9695SOL     OW29983   6.749   4.079   2.045
 9695SOL    HW129984   6.655   4.059   2.017
 9695SOL    HW229985   6.792   3.995   2.080
 9696SOL     OW29986   5.118   2.734   1.090
 9696SOL    HW129987   5.041   2.799   1.088
 9696SOL    HW229988   5.111   2.672   1.011
 9697SOL     OW29989   0.200   6.302   6.778
 9697SOL    HW129990   0.234   6.389   6.743
 9697SOL    HW229991   0.127   6.269   6.719
 9698SOL     OW29992   4.922   2.066   5.896
 9698SOL    HW129993   5.009   2.112   5.879
 9698SOL    HW229994   4.915   1.985   5.837
 9699SOL     OW29995   0.336   4.527   6.620
 9699SOL    HW129996   0.303   4.576   6.700
 9699SOL    HW229997   0.418   4.572   6.584
 9700SOL     OW29998   4.271   5.216   5.373
 9700SOL    HW129999   4.332   5.179   5.444
 9700SOL    HW230000   4.182   5.173   5.380
 9701SOL     OW30001   3.792   5.046   5.005
 9701SOL    HW130002   3.778   5.136   4.964
 9701SOL    HW230003   3.874   5.003   4.967
 9702SOL     OW30004   4.971   0.721   6.887
 9702SOL    HW130005   5.029   0.722   6.805
 9702SOL    HW230006   4.930   0.811   6.900
 9703SOL     OW30007   4.289   5.057   4.509
 9703SOL    HW130008   4.223   5.031   4.438
 9703SOL    HW230009   4.286   4.991   4.583
 9704SOL     OW30010   2.967   1.193   3.044
 9704SOL    HW130011   3.060   1.228   3.055
 9704SOL    HW230012   2.903   1.270   3.041
 9705SOL     OW30013   4.838   5.495   6.296
 9705SOL    HW130014   4.777   5.566   6.262
 9705SOL    HW230015   4.871   5.520   6.387
 9706SOL     OW30016   0.878   2.272   0.917
 9706SOL    HW130017   0.829   2.253   0.832
 9706SOL    HW230018   0.883   2.371   0.931
 9707SOL     OW30019   6.169   4.276   1.430
 9707SOL    HW130020   6.249   4.317   1.474
 9707SOL    HW230021   6.181   4.278   1.330
 9708SOL     OW30022   1.156   2.245   2.331
 9708SOL    HW130023   1.212   2.327   2.337
 9708SOL    HW230024   1.215   2.165   2.318
 9709SOL     OW30025   6.029   5.997   2.435
 9709SOL    HW130026   6.121   5.967   2.463
 9709SOL    HW230027   5.989   5.928   2.375
 9710SOL     OW30028   0.796   1.624   1.788
 9710SOL    HW130029   0.698   1.615   1.808
 9710SOL    HW230030   0.849   1.617   1.872
 9711SOL     OW30031   1.846   4.103   6.280
 9711SOL    HW130032   1.862   4.198   6.254
 9711SOL    HW230033   1.889   4.042   6.213
 9712SOL     OW30034   6.102   4.732   5.859
 9712SOL    HW130035   6.187   4.784   5.862
 9712SOL    HW230036   6.073   4.711   5.953
 9713SOL     OW30037   1.173   5.190   3.399
 9713SOL    HW130038   1.231   5.110   3.417
 9713SOL    HW230039   1.096   5.189   3.463
 9714SOL     OW30040   2.880   0.980   1.807
 9714SOL    HW130041   2.901   1.078   1.813
 9714SOL    HW230042   2.931   0.940   1.732
 9715SOL     OW30043   5.566   4.231   6.375
 9715SOL    HW130044   5.524   4.306   6.426
 9715SOL    HW230045   5.662   4.252   6.357
 9716SOL     OW30046   4.064   2.645   6.318
 9716SOL    HW130047   4.119   2.561   6.314
 9716SOL    HW230048   4.125   2.723   6.331
 9717SOL     OW30049   5.941   5.304   5.685
 9717SOL    HW130050   6.015   5.247   5.721
 9717SOL    HW230051   5.929   5.384   5.744
 9718SOL     OW30052   5.127   2.608   1.839
 9718SOL    HW130053   5.159   2.517   1.866
 9718SOL    HW230054   5.060   2.599   1.766
 9719SOL     OW30055   0.385   1.971   6.586
 9719SOL    HW130056   0.361   1.876   6.569
 9719SOL    HW230057   0.470   1.974   6.640
 9720SOL     OW30058   6.884   5.697   2.218
 9720SOL    HW130059   6.941   5.625   2.179
 9720SOL    HW230060   6.803   5.709   2.161
 9721SOL     OW30061   0.516   3.381   1.096
 9721SOL    HW130062   0.512   3.304   1.159
 9721SOL    HW230063   0.611   3.405   1.078
 9722SOL     OW30064   0.298   0.294   3.732
 9722SOL    HW130065   0.201   0.312   3.747
 9722SOL    HW230066   0.316   0.288   3.634
 9723SOL     OW30067   2.060   6.109   3.735
 9723SOL    HW130068   2.148   6.129   3.692
 9723SOL    HW230069   1.993   6.178   3.708
 9724SOL     OW30070   2.055   3.509   0.342
 9724SOL    HW130071   2.056   3.564   0.425
 9724SOL    HW230072   2.143   3.463   0.331
 9725SOL     OW30073   4.041   4.431   6.869
 9725SOL    HW130074   4.014   4.504   6.805
 9725SOL    HW230075   3.976   4.355   6.861
 9726SOL     OW30076   4.778   0.288   3.931
 9726SOL    HW130077   4.864   0.239   3.912
 9726SOL    HW230078   4.794   0.386   3.929
 9727SOL     OW30079   0.530   3.544   5.010
 9727SOL    HW130080   0.605   3.609   5.002
 9727SOL    HW230081   0.566   3.451   5.017
 9728SOL     OW30082   0.066   0.184   5.986
 9728SOL    HW130083   7.011   0.193   5.925
 9728SOL    HW230084   0.049   0.235   6.070
 9729SOL     OW30085   1.190   4.385   3.080
 9729SOL    HW130086   1.229   4.293   3.086
 9729SOL    HW230087   1.142   4.394   2.993
 9730SOL     OW30088   0.246   3.187   2.916
 9730SOL    HW130089   0.299   3.166   2.834
 9730SOL    HW230090   0.276   3.274   2.954
 9731SOL     OW30091   4.396   3.641   0.899
 9731SOL    HW130092   4.311   3.594   0.872
 9731SOL    HW230093   4.424   3.608   0.990
 9732SOL     OW30094   5.606   5.922   3.415
 9732SOL    HW130095   5.606   5.827   3.447
 9732SOL    HW230096   5.511   5.953   3.402
 9733SOL     OW30097   5.283   5.165   0.378
 9733SOL    HW130098   5.360   5.225   0.402
 9733SOL    HW230099   5.206   5.221   0.347
 9734SOL     OW30100   5.710   1.434   3.127
 9734SOL    HW130101   5.803   1.407   3.155
 9734SOL    HW230102   5.703   1.533   3.129
 9735SOL     OW30103   1.849   4.568   3.132
 9735SOL    HW130104   1.796   4.494   3.173
 9735SOL    HW230105   1.946   4.542   3.129
 9736SOL     OW30106   5.948   2.029   6.069
 9736SOL    HW130107   5.889   1.956   6.103
 9736SOL    HW230108   5.901   2.117   6.078
 9737SOL     OW30109   6.527   3.181   4.707
 9737SOL    HW130110   6.527   3.098   4.763
 9737SOL    HW230111   6.593   3.247   4.744
 9738SOL     OW30112   2.174   6.977   2.761
 9738SOL    HW130113   2.146   6.968   2.857
 9738SOL    HW230114   2.105   0.007   2.711
 9739SOL     OW30115   6.443   5.326   2.046
 9739SOL    HW130116   6.493   5.251   2.002
 9739SOL    HW230117   6.505   5.377   2.106
 9740SOL     OW30118   6.264   2.367   4.021
 9740SOL    HW130119   6.340   2.430   4.003
 9740SOL    HW230120   6.300   2.286   4.067
 9741SOL     OW30121   4.882   1.995   2.627
 9741SOL    HW130122   4.800   1.950   2.591
 9741SOL    HW230123   4.959   1.975   2.566
 9742SOL     OW30124   3.710   0.146   2.045
 9742SOL    HW130125   3.655   0.069   2.014
 9742SOL    HW230126   3.785   0.162   1.981
 9743SOL     OW30127   1.445   1.457   4.629
 9743SOL    HW130128   1.509   1.381   4.620
 9743SOL    HW230129   1.355   1.423   4.653
 9744SOL     OW30130   0.592   0.258   2.866
 9744SOL    HW130131   0.617   0.325   2.796
 9744SOL    HW230132   0.649   0.176   2.854
 9745SOL     OW30133   6.549   3.271   6.248
 9745SOL    HW130134   6.631   3.294   6.196
 9745SOL    HW230135   6.493   3.207   6.195
 9746SOL     OW30136   6.579   1.154   6.180
 9746SOL    HW130137   6.567   1.201   6.267
 9746SOL    HW230138   6.556   1.216   6.105
 9747SOL     OW30139   1.747   0.244   1.731
 9747SOL    HW130140   1.668   0.206   1.682
 9747SOL    HW230141   1.803   0.297   1.668
 9748SOL     OW30142   0.961   0.986   3.479
 9748SOL    HW130143   0.926   0.893   3.492
 9748SOL    HW230144   1.044   0.998   3.534
 9749SOL     OW30145   2.109   1.610   4.933
 9749SOL    HW130146   2.044   1.662   4.987
 9749SOL    HW230147   2.149   1.669   4.863
 9750SOL     OW30148   5.496   4.742   3.365
 9750SOL    HW130149   5.595   4.740   3.380
 9750SOL    HW230150   5.459   4.826   3.405
 9751SOL     OW30151   1.688   1.275   0.557
 9751SOL    HW130152   1.611   1.210   0.552
 9751SOL    HW230153   1.730   1.269   0.648
 9752SOL     OW30154   5.229   1.844   6.997
 9752SOL    HW130155   5.298   1.882   6.935
 9752SOL    HW230156   5.261   1.756   0.009
 9753SOL     OW30157   6.073   5.107   5.274
 9753SOL    HW130158   6.047   5.197   5.309
 9753SOL    HW230159   6.023   5.037   5.326
 9754SOL     OW30160   0.783   1.521   6.479
 9754SOL    HW130161   0.853   1.590   6.501
 9754SOL    HW230162   0.828   1.435   6.457
 9755SOL     OW30163   3.856   3.726   5.442
 9755SOL    HW130164   3.887   3.636   5.414
 9755SOL    HW230165   3.816   3.774   5.364
 9756SOL     OW30166   5.960   3.267   0.147
 9756SOL    HW130167   5.995   3.187   0.194
 9756SOL    HW230168   5.860   3.267   0.149
 9757SOL     OW30169   5.472   3.649   3.240
 9757SOL    HW130170   5.516   3.718   3.298
 9757SOL    HW230171   5.377   3.676   3.222
 9758SOL     OW30172   2.801   0.010   0.141
 9758SOL    HW130173   2.890   0.004   0.186
 9758SOL    HW230174   2.785   6.952   0.086
 9759SOL     OW30175   2.202   6.993   6.679
 9759SOL    HW130176   2.178   7.004   6.583
 9759SOL    HW230177   2.294   0.005   6.695
 9760SOL     OW30178   4.557   3.570   5.364
 9760SOL    HW130179   4.592   3.557   5.272
 9760SOL    HW230180   4.548   3.481   5.409
 9761SOL     OW30181   6.027   0.108   1.741
 9761SOL    HW130182   6.115   0.080   1.703
 9761SOL    HW230183   6.037   0.196   1.787
 9762SOL     OW30184   2.745   2.451   4.229
 9762SOL    HW130185   2.699   2.370   4.193
 9762SOL    HW230186   2.818   2.424   4.292
 9763SOL     OW30187   4.353   2.256   1.819
 9763SOL    HW130188   4.323   2.213   1.905
 9763SOL    HW230189   4.412   2.193   1.769
 9764SOL     OW30190   0.775   2.465   3.184
 9764SOL    HW130191   0.756   2.372   3.153
 9764SOL    HW230192   0.693   2.521   3.176
 9765SOL     OW30193   6.455   2.097   3.150
 9765SOL    HW130194   6.507   2.063   3.228
 9765SOL    HW230195   6.490   2.188   3.124
 9766SOL     OW30196   2.809   0.536   2.934
 9766SOL    HW130197   2.803   0.479   2.852
 9766SOL    HW230198   2.717   0.551   2.971
 9767SOL     OW30199   5.030   2.077   4.907
 9767SOL    HW130200   5.115   2.087   4.856
 9767SOL    HW230201   5.045   2.020   4.987
 9768SOL     OW30202   4.530   1.400   2.294
 9768SOL    HW130203   4.526   1.470   2.223
 9768SOL    HW230204   4.523   1.442   2.384
 9769SOL     OW30205   1.936   1.234   2.107
 9769SOL    HW130206   2.015   1.284   2.072
 9769SOL    HW230207   1.967   1.153   2.157
 9770SOL     OW30208   5.443   0.340   6.836
 9770SOL    HW130209   5.539   0.323   6.858
 9770SOL    HW230210   5.437   0.378   6.743
 9771SOL     OW30211   3.550   4.872   1.468
 9771SOL    HW130212   3.477   4.816   1.507
 9771SOL    HW230213   3.542   4.966   1.502
 9772SOL     OW30214   1.252   6.090   2.570
 9772SOL    HW130215   1.251   6.190   2.578
 9772SOL    HW230216   1.275   6.049   2.658
 9773SOL     OW30217   5.512   6.955   4.383
 9773SOL    HW130218   5.488   6.906   4.467
 9773SOL    HW230219   5.494   6.897   4.304
 9774SOL     OW30220   6.105   4.811   1.843
 9774SOL    HW130221   6.006   4.807   1.840
 9774SOL    HW230222   6.143   4.787   1.754
 9775SOL     OW30223   2.788   1.291   3.529
 9775SOL    HW130224   2.877   1.279   3.485
 9775SOL    HW230225   2.794   1.262   3.625
 9776SOL     OW30226   6.867   5.822   4.215
 9776SOL    HW130227   6.816   5.890   4.269
 9776SOL    HW230228   6.892   5.745   4.274
 9777SOL     OW30229   5.537   4.968   6.495
 9777SOL    HW130230   5.522   5.034   6.421
 9777SOL    HW230231   5.629   4.929   6.487
 9778SOL     OW30232   0.309   0.868   3.322
 9778SOL    HW130233   0.281   0.954   3.364
 9778SOL    HW230234   0.379   0.825   3.379
 9779SOL     OW30235   2.152   1.418   4.729
 9779SOL    HW130236   2.144   1.444   4.825
 9779SOL    HW230237   2.233   1.462   4.689
 9780SOL     OW30238   2.242   1.902   1.179
 9780SOL    HW130239   2.274   1.847   1.256
 9780SOL    HW230240   2.316   1.963   1.149
 9781SOL     OW30241   1.268   3.887   3.722
 9781SOL    HW130242   1.212   3.969   3.731
 9781SOL    HW230243   1.211   3.806   3.740
 9782SOL     OW30244   0.105   0.596   1.346
 9782SOL    HW130245   0.021   0.640   1.315
 9782SOL    HW230246   0.142   0.540   1.272
 9783SOL     OW30247   5.064   2.326   2.288
 9783SOL    HW130248   5.033   2.405   2.341
 9783SOL    HW230249   5.143   2.353   2.232
 9784SOL     OW30250   4.316   1.444   3.912
 9784SOL    HW130251   4.253   1.441   3.835
 9784SOL    HW230252   4.326   1.538   3.943
 9785SOL     OW30253   6.975   4.322   5.101
 9785SOL    HW130254   6.979   4.231   5.060
 9785SOL    HW230255   6.913   4.321   5.179
 9786SOL     OW30256   2.385   4.863   6.486
 9786SOL    HW130257   2.438   4.943   6.514
 9786SOL    HW230258   2.397   4.789   6.553
 9787SOL     OW30259   4.766   3.706   1.572
 9787SOL    HW130260   4.701   3.655   1.628
 9787SOL    HW230261   4.728   3.796   1.551
 9788SOL     OW30262   0.589   0.716   3.763
 9788SOL    HW130263   0.685   0.741   3.762
 9788SOL    HW230264   0.550   0.732   3.672
 9789SOL     OW30265   1.355   5.945   6.851
 9789SOL    HW130266   1.290   5.869   6.857
 9789SOL    HW230267   1.331   6.003   6.774
 9790SOL     OW30268   5.892   3.964   5.980
 9790SOL    HW130269   5.796   3.973   5.952
 9790SOL    HW230270   5.931   3.882   5.939
 9791SOL     OW30271   0.414   1.118   2.980
 9791SOL    HW130272   0.499   1.159   2.947
 9791SOL    HW230273   0.430   1.023   3.005
 9792SOL     OW30274   5.345   5.437   1.528
 9792SOL    HW130275   5.294   5.484   1.600
 9792SOL    HW230276   5.437   5.414   1.562
 9793SOL     OW30277   5.576   5.290   3.687
 9793SOL    HW130278   5.563   5.330   3.596
 9793SOL    HW230279   5.674   5.284   3.706
 9794SOL     OW30280   6.597   3.954   6.211
 9794SOL    HW130281   6.559   4.026   6.155
 9794SOL    HW230282   6.531   3.927   6.281
 9795SOL     OW30283   1.376   1.771   4.183
 9795SOL    HW130284   1.322   1.733   4.258
 9795SOL    HW230285   1.373   1.709   4.105
 9796SOL     OW30286   3.897   2.973   0.991
 9796SOL    HW130287   3.942   3.018   1.068
 9796SOL    HW230288   3.870   3.041   0.923
 9797SOL     OW30289   3.276   4.505   6.493
 9797SOL    HW130290   3.207   4.486   6.423
 9797SOL    HW230291   3.245   4.581   6.550
 9798SOL     OW30292   2.136   0.921   0.809
 9798SOL    HW130293   2.165   0.847   0.870
 9798SOL    HW230294   2.213   0.981   0.791
 9799SOL     OW30295   3.525   3.379   3.250
 9799SOL    HW130296   3.470   3.309   3.203
 9799SOL    HW230297   3.570   3.437   3.182
 9800SOL     OW30298   3.206   6.256   5.464
 9800SOL    HW130299   3.181   6.326   5.397
 9800SOL    HW230300   3.246   6.177   5.417
 9801SOL     OW30301   4.266   4.977   0.733
 9801SOL    HW130302   4.203   4.906   0.702
 9801SOL    HW230303   4.357   4.959   0.696
 9802SOL     OW30304   0.646   2.578   2.587
 9802SOL    HW130305   0.665   2.540   2.497
 9802SOL    HW230306   0.694   2.665   2.598
 9803SOL     OW30307   6.185   1.592   6.938
 9803SOL    HW130308   6.091   1.560   6.921
 9803SOL    HW230309   6.223   1.630   6.853
 9804SOL     OW30310   0.624   5.914   3.234
 9804SOL    HW130311   0.541   5.962   3.261
 9804SOL    HW230312   0.620   5.819   3.265
 9805SOL     OW30313   1.407   5.579   5.880
 9805SOL    HW130314   1.492   5.628   5.858
 9805SOL    HW230315   1.417   5.535   5.969
 9806SOL     OW30316   1.309   1.845   0.511
 9806SOL    HW130317   1.405   1.823   0.530
 9806SOL    HW230318   1.267   1.884   0.592
 9807SOL     OW30319   2.170   2.391   6.875
 9807SOL    HW130320   2.084   2.340   6.873
 9807SOL    HW230321   2.184   2.427   6.967
 9808SOL     OW30322   5.600   1.012   5.567
 9808SOL    HW130323   5.646   1.025   5.655
 9808SOL    HW230324   5.602   0.915   5.543
 9809SOL     OW30325   0.880   1.683   6.228
 9809SOL    HW130326   0.938   1.603   6.218
 9809SOL    HW230327   0.913   1.739   6.304
 9810SOL     OW30328   2.692   2.393   3.754
 9810SOL    HW130329   2.609   2.441   3.782
 9810SOL    HW230330   2.769   2.425   3.809
 9811SOL     OW30331   6.218   5.557   3.941
 9811SOL    HW130332   6.139   5.610   3.970
 9811SOL    HW230333   6.253   5.594   3.855
 9812SOL     OW30334   3.397   2.639   6.168
 9812SOL    HW130335   3.421   2.727   6.209
 9812SOL    HW230336   3.301   2.640   6.141
 9813SOL     OW30337   5.752   6.202   6.548
 9813SOL    HW130338   5.809   6.266   6.496
 9813SOL    HW230339   5.716   6.132   6.486
 9814SOL     OW30340   0.643   0.913   6.556
 9814SOL    HW130341   0.717   0.907   6.489
 9814SOL    HW230342   0.614   1.009   6.566
 9815SOL     OW30343   6.821   2.352   2.155
 9815SOL    HW130344   6.733   2.307   2.140
 9815SOL    HW230345   6.810   2.422   2.226
 9816SOL     OW30346   6.291   1.539   6.641
 9816SOL    HW130347   6.294   1.444   6.610
 9816SOL    HW230348   6.340   1.596   6.575
 9817SOL     OW30349   3.080   5.683   1.952
 9817SOL    HW130350   3.158   5.734   1.988
 9817SOL    HW230351   2.999   5.742   1.952
 9818SOL     OW30352   1.445   1.051   3.709
 9818SOL    HW130353   1.444   0.961   3.664
 9818SOL    HW230354   1.512   1.049   3.783
 9819SOL     OW30355   4.906   3.317   5.005
 9819SOL    HW130356   5.004   3.317   4.988
 9819SOL    HW230357   4.867   3.404   4.974
 9820SOL     OW30358   3.448   3.072   6.450
 9820SOL    HW130359   3.495   3.119   6.524
 9820SOL    HW230360   3.350   3.088   6.456
 9821SOL     OW30361   4.197   1.785   0.956
 9821SOL    HW130362   4.109   1.806   0.999
 9821SOL    HW230363   4.221   1.858   0.892
 9822SOL     OW30364   3.659   5.433   4.233
 9822SOL    HW130365   3.636   5.428   4.136
 9822SOL    HW230366   3.752   5.470   4.243
 9823SOL     OW30367   1.597   0.248   2.155
 9823SOL    HW130368   1.506   0.286   2.139
 9823SOL    HW230369   1.629   0.275   2.246
 9824SOL     OW30370   2.278   5.930   5.383
 9824SOL    HW130371   2.191   5.940   5.336
 9824SOL    HW230372   2.264   5.940   5.482
 9825SOL     OW30373   5.685   5.972   4.881
 9825SOL    HW130374   5.662   6.005   4.790
 9825SOL    HW230375   5.626   5.894   4.904
 9826SOL     OW30376   3.378   6.150   5.273
 9826SOL    HW130377   3.384   6.202   5.189
 9826SOL    HW230378   3.466   6.152   5.320
 9827SOL     OW30379   2.108   4.408   3.241
 9827SOL    HW130380   2.150   4.347   3.174
 9827SOL    HW230381   2.063   4.354   3.312
 9828SOL     OW30382   3.320   2.065   5.023
 9828SOL    HW130383   3.260   2.141   4.998
 9828SOL    HW230384   3.270   1.978   5.014
 9829SOL     OW30385   4.636   5.681   6.227
 9829SOL    HW130386   4.546   5.680   6.271
 9829SOL    HW230387   4.624   5.684   6.128
 9830SOL     OW30388   5.074   1.574   1.937
 9830SOL    HW130389   5.064   1.554   1.840
 9830SOL    HW230390   5.034   1.663   1.957
 9831SOL     OW30391   0.743   4.608   1.600
 9831SOL    HW130392   0.815   4.662   1.557
 9831SOL    HW230393   0.707   4.542   1.535
 9832SOL     OW30394   4.490   5.214   3.510
 9832SOL    HW130395   4.452   5.266   3.586
 9832SOL    HW230396   4.588   5.232   3.502
 9833SOL     OW30397   3.468   3.230   3.651
 9833SOL    HW130398   3.429   3.308   3.700
 9833SOL    HW230399   3.543   3.261   3.593
 9834SOL     OW30400   1.954   4.776   5.623
 9834SOL    HW130401   1.981   4.865   5.659
 9834SOL    HW230402   1.931   4.715   5.699
 9835SOL     OW30403   3.546   2.928   4.120
 9835SOL    HW130404   3.512   3.021   4.104
 9835SOL    HW230405   3.498   2.864   4.061
 9836SOL     OW30406   0.476   4.237   4.717
 9836SOL    HW130407   0.522   4.323   4.740
 9836SOL    HW230408   0.509   4.205   4.628
 9837SOL     OW30409   5.523   1.623   2.414
 9837SOL    HW130410   5.535   1.524   2.420
 9837SOL    HW230411   5.489   1.659   2.501
 9838SOL     OW30412   1.630   0.049   0.693
 9838SOL    HW130413   1.681   6.986   0.697
 9838SOL    HW230414   1.695   0.125   0.686
 9839SOL     OW30415   4.348   0.064   3.299
 9839SOL    HW130416   4.383   0.096   3.387
 9839SOL    HW230417   4.376   0.128   3.227
 9840SOL     OW30418   4.583   1.906   0.187
 9840SOL    HW130419   4.505   1.945   0.138
 9840SOL    HW230420   4.561   1.812   0.215
 9841SOL     OW30421   0.818   4.969   3.496
 9841SOL    HW130422   0.797   5.065   3.517
 9841SOL    HW230423   0.885   4.965   3.422
 9842SOL     OW30424   3.844   3.261   0.364
 9842SOL    HW130425   3.829   3.165   0.389
 9842SOL    HW230426   3.774   3.290   0.299
 9843SOL     OW30427   6.854   0.587   1.967
 9843SOL    HW130428   6.889   0.494   1.974
 9843SOL    HW230429   6.930   0.652   1.975
 9844SOL     OW30430   6.360   0.748   3.960
 9844SOL    HW130431   6.388   0.793   3.875
 9844SOL    HW230432   6.374   0.810   4.037
 9845SOL     OW30433   0.755   2.713   2.922
 9845SOL    HW130434   0.756   2.620   2.886
 9845SOL    HW230435   0.686   2.767   2.874
 9846SOL     OW30436   5.119   1.400   0.251
 9846SOL    HW130437   5.159   1.441   0.333
 9846SOL    HW230438   5.188   1.347   0.202
 9847SOL     OW30439   3.907   2.990   2.245
 9847SOL    HW130440   3.862   2.968   2.332
 9847SOL    HW230441   4.006   2.998   2.260
 9848SOL     OW30442   3.412   4.623   5.337
 9848SOL    HW130443   3.454   4.537   5.310
 9848SOL    HW230444   3.313   4.618   5.325
 9849SOL     OW30445   0.789   6.961   6.642
 9849SOL    HW130446   0.753   6.955   6.736
 9849SOL    HW230447   0.784   6.871   6.599
 9850SOL     OW30448   6.942   0.197   3.656
 9850SOL    HW130449   6.997   0.181   3.575
 9850SOL    HW230450   6.942   0.294   3.679
 9851SOL     OW30451   3.009   6.115   4.461
 9851SOL    HW130452   2.991   6.113   4.560
 9851SOL    HW230453   2.933   6.161   4.415
 9852SOL     OW30454   0.910   1.492   5.598
 9852SOL    HW130455   0.886   1.483   5.501
 9852SOL    HW230456   0.962   1.576   5.611
 9853SOL     OW30457   6.821   3.765   5.074
 9853SOL    HW130458   6.771   3.800   5.153
 9853SOL    HW230459   6.812   3.665   5.070
 9854SOL     OW30460   0.896   5.176   4.769
 9854SOL    HW130461   0.951   5.127   4.701
 9854SOL    HW230462   0.870   5.113   4.843
 9855SOL     OW30463   1.104   3.349   0.796
 9855SOL    HW130464   1.194   3.391   0.783
 9855SOL    HW230465   1.033   3.410   0.762
 9856SOL     OW30466   6.180   4.462   3.836
 9856SOL    HW130467   6.207   4.526   3.764
 9856SOL    HW230468   6.088   4.484   3.868
 9857SOL     OW30469   5.586   2.819   2.983
 9857SOL    HW130470   5.499   2.773   2.995
 9857SOL    HW230471   5.574   2.918   2.995
 9858SOL     OW30472   1.468   6.751   1.880
 9858SOL    HW130473   1.431   6.843   1.892
 9858SOL    HW230474   1.395   6.684   1.893
 9859SOL     OW30475   6.526   4.984   4.814
 9859SOL    HW130476   6.557   4.899   4.771
 9859SOL    HW230477   6.584   5.060   4.782
 9860SOL     OW30478   1.792   1.994   4.760
 9860SOL    HW130479   1.766   2.086   4.790
 9860SOL    HW230480   1.880   1.999   4.712
 9861SOL     OW30481   3.062   0.906   3.647
 9861SOL    HW130482   3.110   0.821   3.625
 9861SOL    HW230483   2.997   0.889   3.721
 9862SOL     OW30484   3.053   4.084   0.753
 9862SOL    HW130485   3.005   4.169   0.731
 9862SOL    HW230486   3.027   4.013   0.688
 9863SOL     OW30487   3.387   5.870   1.295
 9863SOL    HW130488   3.441   5.787   1.286
 9863SOL    HW230489   3.323   5.877   1.219
 9864SOL     OW30490   2.995   6.845   5.462
 9864SOL    HW130491   3.017   6.901   5.382
 9864SOL    HW230492   3.071   6.782   5.479
 9865SOL     OW30493   0.519   6.240   5.334
 9865SOL    HW130494   0.538   6.338   5.340
 9865SOL    HW230495   0.587   6.196   5.276
 9866SOL     OW30496   6.164   4.520   4.871
 9866SOL    HW130497   6.212   4.442   4.912
 9866SOL    HW230498   6.103   4.486   4.799
 9867SOL     OW30499   5.863   2.229   2.945
 9867SOL    HW130500   5.796   2.203   3.015
 9867SOL    HW230501   5.826   2.209   2.854
 9868SOL     OW30502   0.771   3.615   3.858
 9868SOL    HW130503   0.867   3.636   3.837
 9868SOL    HW230504   0.764   3.588   3.954
 9869SOL     OW30505   0.350   2.313   1.126
 9869SOL    HW130506   0.343   2.215   1.139
 9869SOL    HW230507   0.394   2.332   1.038
 9870SOL     OW30508   4.394   0.846   2.793
 9870SOL    HW130509   4.347   0.785   2.730
 9870SOL    HW230510   4.453   0.908   2.741
 9871SOL     OW30511   6.936   3.231   6.260
 9871SOL    HW130512   0.008   3.257   6.243
 9871SOL    HW230513   6.930   3.186   6.349
 9872SOL     OW30514   2.341   5.355   5.183
 9872SOL    HW130515   2.422   5.309   5.221
 9872SOL    HW230516   2.263   5.292   5.187
 9873SOL     OW30517   2.114   2.497   6.052
 9873SOL    HW130518   2.126   2.432   5.977
 9873SOL    HW230519   2.199   2.546   6.069
 9874SOL     OW30520   0.638   3.089   4.436
 9874SOL    HW130521   0.711   3.021   4.445
 9874SOL    HW230522   0.601   3.109   4.527
 9875SOL     OW30523   0.118   5.986   1.657
 9875SOL    HW130524   0.087   5.970   1.563
 9875SOL    HW230525   0.101   6.082   1.681
 9876SOL     OW30526   4.467   6.936   3.996
 9876SOL    HW130527   4.502   6.868   4.061
 9876SOL    HW230528   4.412   7.003   4.045
 9877SOL     OW30529   6.843   4.370   4.199
 9877SOL    HW130530   6.783   4.308   4.249
 9877SOL    HW230531   6.792   4.416   4.127
 9878SOL     OW30532   1.689   3.276   6.653
 9878SOL    HW130533   1.659   3.337   6.726
 9878SOL    HW230534   1.631   3.290   6.573
 9879SOL     OW30535   0.708   4.708   5.870
 9879SOL    HW130536   0.808   4.719   5.869
 9879SOL    HW230537   0.674   4.703   5.776
 9880SOL     OW30538   2.702   1.019   0.210
 9880SOL    HW130539   2.678   1.045   0.117
 9880SOL    HW230540   2.674   1.091   0.273
 9881SOL     OW30541   5.277   0.529   4.696
 9881SOL    HW130542   5.184   0.565   4.693
 9881SOL    HW230543   5.285   0.452   4.633
 9882SOL     OW30544   3.575   3.654   4.480
 9882SOL    HW130545   3.555   3.604   4.564
 9882SOL    HW230546   3.525   3.741   4.480
 9883SOL     OW30547   2.114   6.419   1.706
 9883SOL    HW130548   2.202   6.398   1.663
 9883SOL    HW230549   2.107   6.370   1.792
 9884SOL     OW30550   2.806   2.987   6.775
 9884SOL    HW130551   2.854   2.923   6.715
 9884SOL    HW230552   2.725   2.944   6.813
 9885SOL     OW30553   0.895   3.157   3.609
 9885SOL    HW130554   0.879   3.131   3.514
 9885SOL    HW230555   0.965   3.099   3.649
 9886SOL     OW30556   6.227   0.027   2.018
 9886SOL    HW130557   6.264   0.109   1.974
 9886SOL    HW230558   6.127   0.032   2.018
 9887SOL     OW30559   3.652   0.312   0.516
 9887SOL    HW130560   3.746   0.346   0.514
 9887SOL    HW230561   3.626   0.278   0.426
 9888SOL     OW30562   6.037   6.034   3.134
 9888SOL    HW130563   6.020   6.090   3.053
 9888SOL    HW230564   5.955   6.031   3.192
 9889SOL     OW30565   0.558   4.902   2.776
 9889SOL    HW130566   0.480   4.947   2.732
 9889SOL    HW230567   0.541   4.897   2.875
 9890SOL     OW30568   6.278   2.797   0.473
 9890SOL    HW130569   6.348   2.848   0.525
 9890SOL    HW230570   6.290   2.814   0.376
 9891SOL     OW30571   5.414   5.002   1.279
 9891SOL    HW130572   5.492   5.064   1.279
 9891SOL    HW230573   5.344   5.037   1.341
 9892SOL     OW30574   2.517   5.183   3.881
 9892SOL    HW130575   2.434   5.234   3.903
 9892SOL    HW230576   2.522   5.168   3.783
 9893SOL     OW30577   6.781   5.598   2.802
 9893SOL    HW130578   6.829   5.641   2.726
 9893SOL    HW230579   6.764   5.666   2.874
 9894SOL     OW30580   2.897   1.649   6.540
 9894SOL    HW130581   2.945   1.646   6.453
 9894SOL    HW230582   2.898   1.742   6.576
 9895SOL     OW30583   5.878   2.359   6.081
 9895SOL    HW130584   5.869   2.457   6.101
 9895SOL    HW230585   5.973   2.331   6.094
 9896SOL     OW30586   4.009   2.699   0.893
 9896SOL    HW130587   3.998   2.600   0.888
 9896SOL    HW230588   3.921   2.742   0.911
 9897SOL     OW30589   5.307   1.125   2.585
 9897SOL    HW130590   5.211   1.127   2.557
 9897SOL    HW230591   5.312   1.114   2.685
 9898SOL     OW30592   0.696   4.887   5.335
 9898SOL    HW130593   0.773   4.839   5.378
 9898SOL    HW230594   0.678   4.972   5.384
 9899SOL     OW30595   6.122   3.986   2.060
 9899SOL    HW130596   6.158   3.936   1.982
 9899SOL    HW230597   6.191   3.990   2.133
 9900SOL     OW30598   1.695   2.017   2.736
 9900SOL    HW130599   1.676   1.932   2.786
 9900SOL    HW230600   1.724   2.087   2.801
 9901SOL     OW30601   1.453   2.166   6.850
 9901SOL    HW130602   1.441   2.153   6.949
 9901SOL    HW230603   1.470   2.263   6.831
 9902SOL     OW30604   3.589   3.058   0.566
 9902SOL    HW130605   3.571   3.003   0.648
 9902SOL    HW230606   3.598   3.154   0.592
 9903SOL     OW30607   4.957   0.222   2.420
 9903SOL    HW130608   5.055   0.229   2.435
 9903SOL    HW230609   4.929   0.286   2.348
 9904SOL     OW30610   0.510   3.859   6.725
 9904SOL    HW130611   0.460   3.893   6.805
 9904SOL    HW230612   0.478   3.906   6.643
 9905SOL     OW30613   1.376   6.595   0.459
 9905SOL    HW130614   1.334   6.505   0.471
 9905SOL    HW230615   1.337   6.640   0.379
 9906SOL     OW30616   1.303   3.273   6.447
 9906SOL    HW130617   1.223   3.332   6.459
 9906SOL    HW230618   1.373   3.320   6.393
 9907SOL     OW30619   2.860   6.100   3.307
 9907SOL    HW130620   2.838   6.081   3.211
 9907SOL    HW230621   2.803   6.044   3.366
 9908SOL     OW30622   0.674   3.236   6.203
 9908SOL    HW130623   0.687   3.205   6.109
 9908SOL    HW230624   0.646   3.331   6.203
 9909SOL     OW30625   3.597   1.209   3.059
 9909SOL    HW130626   3.640   1.128   3.099
 9909SOL    HW230627   3.650   1.290   3.083
 9910SOL     OW30628   0.243   5.085   1.653
 9910SOL    HW130629   0.310   5.157   1.667
 9910SOL    HW230630   0.289   4.997   1.644
 9911SOL     OW30631   5.069   5.504   2.903
 9911SOL    HW130632   5.169   5.512   2.906
 9911SOL    HW230633   5.028   5.581   2.951
 9912SOL     OW30634   3.758   0.600   2.486
 9912SOL    HW130635   3.667   0.559   2.490
 9912SOL    HW230636   3.824   0.532   2.453
 9913SOL     OW30637   5.709   3.236   2.160
 9913SOL    HW130638   5.779   3.235   2.089
 9913SOL    HW230639   5.655   3.152   2.156
 9914SOL     OW30640   1.210   0.587   5.564
 9914SOL    HW130641   1.139   0.588   5.493
 9914SOL    HW230642   1.167   0.584   5.654
 9915SOL     OW30643   5.634   3.501   4.123
 9915SOL    HW130644   5.564   3.520   4.054
 9915SOL    HW230645   5.724   3.515   4.082
 9916SOL     OW30646   2.858   2.290   3.185
 9916SOL    HW130647   2.941   2.236   3.195
 9916SOL    HW230648   2.840   2.339   3.270
 9917SOL     OW30649   3.442   3.338   4.976
 9917SOL    HW130650   3.518   3.368   4.917
 9917SOL    HW230651   3.416   3.245   4.952
 9918SOL     OW30652   1.620   1.162   0.089
 9918SOL    HW130653   1.686   1.187   0.019
 9918SOL    HW230654   1.530   1.199   0.065
 9919SOL     OW30655   2.039   4.784   2.403
 9919SOL    HW130656   1.995   4.802   2.315
 9919SOL    HW230657   2.136   4.768   2.389
 9920SOL     OW30658   3.698   0.214   2.536
 9920SOL    HW130659   3.783   0.248   2.577
 9920SOL    HW230660   3.715   0.189   2.441
 9921SOL     OW30661   6.453   6.199   3.766
 9921SOL    HW130662   6.495   6.263   3.702
 9921SOL    HW230663   6.399   6.132   3.715
 9922SOL     OW30664   4.350   4.254   1.088
 9922SOL    HW130665   4.260   4.265   1.045
 9922SOL    HW230666   4.401   4.340   1.081
 9923SOL     OW30667   6.621   2.578   0.012
 9923SOL    HW130668   6.636   2.481   0.031
 9923SOL    HW230669   6.528   2.591   6.998
 9924SOL     OW30670   5.628   1.628   1.761
 9924SOL    HW130671   5.545   1.586   1.798
 9924SOL    HW230672   5.661   1.698   1.825
 9925SOL     OW30673   1.963   3.865   5.381
 9925SOL    HW130674   1.971   3.873   5.281
 9925SOL    HW230675   1.869   3.884   5.408
 9926SOL     OW30676   3.043   2.287   1.278
 9926SOL    HW130677   2.990   2.236   1.210
 9926SOL    HW230678   3.125   2.324   1.235
 9927SOL     OW30679   0.870   2.295   1.691
 9927SOL    HW130680   0.864   2.375   1.750
 9927SOL    HW230681   0.913   2.320   1.604
 9928SOL     OW30682   6.260   3.996   2.301
 9928SOL    HW130683   6.352   3.961   2.319
 9928SOL    HW230684   6.192   3.938   2.347
 9929SOL     OW30685   2.863   4.268   5.620
 9929SOL    HW130686   2.925   4.190   5.615
 9929SOL    HW230687   2.821   4.283   5.531
 9930SOL     OW30688   6.880   0.492   5.603
 9930SOL    HW130689   6.957   0.458   5.548
 9930SOL    HW230690   6.862   0.587   5.579
 9931SOL     OW30691   0.218   5.871   4.974
 9931SOL    HW130692   0.253   5.962   4.998
 9931SOL    HW230693   0.286   5.802   5.000
 9932SOL     OW30694   1.697   2.300   0.388
 9932SOL    HW130695   1.673   2.323   0.294
 9932SOL    HW230696   1.645   2.220   0.417
 9933SOL     OW30697   2.763   0.915   3.481
 9933SOL    HW130698   2.761   0.920   3.381
 9933SOL    HW230699   2.853   0.944   3.514
 9934SOL     OW30700   5.869   1.874   0.553
 9934SOL    HW130701   5.868   1.962   0.506
 9934SOL    HW230702   5.845   1.802   0.487
 9935SOL     OW30703   2.967   2.208   1.024
 9935SOL    HW130704   3.006   2.283   0.971
 9935SOL    HW230705   3.031   2.131   1.024
 9936SOL     OW30706   5.429   4.487   6.474
 9936SOL    HW130707   5.506   4.521   6.421
 9936SOL    HW230708   5.384   4.564   6.521
 9937SOL     OW30709   0.934   0.949   2.850
 9937SOL    HW130710   1.016   0.904   2.815
 9937SOL    HW230711   0.914   0.915   2.941
 9938SOL     OW30712   5.511   0.568   3.797
 9938SOL    HW130713   5.502   0.501   3.724
 9938SOL    HW230714   5.605   0.600   3.801
 9939SOL     OW30715   1.381   3.551   1.014
 9939SOL    HW130716   1.344   3.517   0.927
 9939SOL    HW230717   1.308   3.554   1.082
 9940SOL     OW30718   0.329   0.339   3.468
 9940SOL    HW130719   0.423   0.310   3.454
 9940SOL    HW230720   0.307   0.414   3.405
 9941SOL     OW30721   3.785   5.363   5.301
 9941SOL    HW130722   3.775   5.268   5.332
 9941SOL    HW230723   3.787   5.424   5.380
 9942SOL     OW30724   4.855   4.609   2.643
 9942SOL    HW130725   4.769   4.559   2.655
 9942SOL    HW230726   4.896   4.582   2.556
 9943SOL     OW30727   0.920   4.477   6.164
 9943SOL    HW130728   0.979   4.406   6.203
 9943SOL    HW230729   0.824   4.456   6.185
 9944SOL     OW30730   0.122   5.604   6.361
 9944SOL    HW130731   0.140   5.605   6.263
 9944SOL    HW230732   0.159   5.687   6.403
 9945SOL     OW30733   5.962   4.012   6.919
 9945SOL    HW130734   6.038   3.987   6.859
 9945SOL    HW230735   5.877   4.015   6.865
 9946SOL     OW30736   6.142   0.038   3.306
 9946SOL    HW130737   6.185   0.088   3.381
 9946SOL    HW230738   6.043   0.034   3.321
 9947SOL     OW30739   1.402   1.533   3.771
 9947SOL    HW130740   1.478   1.573   3.719
 9947SOL    HW230741   1.320   1.532   3.715
 9948SOL     OW30742   6.806   5.598   5.154
 9948SOL    HW130743   6.846   5.509   5.178
 9948SOL    HW230744   6.770   5.642   5.236
 9949SOL     OW30745   0.128   4.976   4.151
 9949SOL    HW130746   0.155   4.939   4.063
 9949SOL    HW230747   0.044   5.031   4.140
 9950SOL     OW30748   6.829   4.928   6.019
 9950SOL    HW130749   6.870   4.882   5.941
 9950SOL    HW230750   6.787   4.860   6.080
 9951SOL     OW30751   1.477   2.509   2.626
 9951SOL    HW130752   1.452   2.553   2.539
 9951SOL    HW230753   1.576   2.514   2.638
 9952SOL     OW30754   0.697   3.677   1.982
 9952SOL    HW130755   0.747   3.591   1.978
 9952SOL    HW230756   0.612   3.664   2.034
 9953SOL     OW30757   6.491   2.523   3.966
 9953SOL    HW130758   6.589   2.504   3.959
 9953SOL    HW230759   6.456   2.551   3.876
 9954SOL     OW30760   2.467   1.621   4.962
 9954SOL    HW130761   2.399   1.587   4.898
 9954SOL    HW230762   2.522   1.692   4.918
 9955SOL     OW30763   4.937   3.407   0.020
 9955SOL    HW130764   4.906   3.333   0.080
 9955SOL    HW230765   4.917   3.384   6.949
 9956SOL     OW30766   0.484   4.413   2.256
 9956SOL    HW130767   0.506   4.480   2.326
 9956SOL    HW230768   0.537   4.433   2.173
 9957SOL     OW30769   5.343   6.894   1.269
 9957SOL    HW130770   5.253   6.911   1.228
 9957SOL    HW230771   5.357   6.956   1.346
 9958SOL     OW30772   3.242   5.405   6.223
 9958SOL    HW130773   3.278   5.465   6.151
 9958SOL    HW230774   3.318   5.374   6.281
 9959SOL     OW30775   4.327   3.513   1.718
 9959SOL    HW130776   4.287   3.601   1.742
 9959SOL    HW230777   4.269   3.439   1.753
 9960SOL     OW30778   6.963   6.252   1.477
 9960SOL    HW130779   7.018   6.237   1.559
 9960SOL    HW230780   6.869   6.273   1.504
 9961SOL     OW30781   1.738   4.714   2.542
 9961SOL    HW130782   1.642   4.702   2.567
 9961SOL    HW230783   1.745   4.725   2.442
 9962SOL     OW30784   3.858   0.625   1.879
 9962SOL    HW130785   3.814   0.577   1.955
 9962SOL    HW230786   3.835   0.722   1.883
 9963SOL     OW30787   2.688   2.434   0.776
 9963SOL    HW130788   2.597   2.394   0.768
 9963SOL    HW230789   2.708   2.454   0.872
 9964SOL     OW30790   3.812   5.041   6.175
 9964SOL    HW130791   3.714   5.061   6.172
 9964SOL    HW230792   3.833   4.991   6.259
 9965SOL     OW30793   4.065   5.628   4.999
 9965SOL    HW130794   4.060   5.580   4.912
 9965SOL    HW230795   3.986   5.689   5.008
 9966SOL     OW30796   2.684   4.974   2.110
 9966SOL    HW130797   2.680   5.021   2.198
 9966SOL    HW230798   2.690   5.041   2.036
 9967SOL     OW30799   6.160   5.639   3.146
 9967SOL    HW130800   6.208   5.722   3.118
 9967SOL    HW230801   6.064   5.645   3.117
 9968SOL     OW30802   4.730   5.641   6.849
 9968SOL    HW130803   4.702   5.595   6.934
 9968SOL    HW230804   4.651   5.690   6.811
 9969SOL     OW30805   1.475   3.335   4.521
 9969SOL    HW130806   1.568   3.356   4.553
 9969SOL    HW230807   1.462   3.236   4.522
 9970SOL     OW30808   5.764   4.764   1.863
 9970SOL    HW130809   5.785   4.674   1.824
 9970SOL    HW230810   5.734   4.752   1.958
 9971SOL     OW30811   1.282   2.611   1.290
 9971SOL    HW130812   1.368   2.592   1.243
 9971SOL    HW230813   1.206   2.572   1.238
 9972SOL     OW30814   2.922   4.045   1.198
 9972SOL    HW130815   2.907   4.140   1.172
 9972SOL    HW230816   2.883   4.028   1.289
 9973SOL     OW30817   4.817   2.912   4.633
 9973SOL    HW130818   4.838   2.815   4.647
 9973SOL    HW230819   4.814   2.959   4.721
 9974SOL     OW30820   6.794   1.782   3.265
 9974SOL    HW130821   6.729   1.735   3.206
 9974SOL    HW230822   6.828   1.864   3.218
 9975SOL     OW30823   0.976   5.281   6.529
 9975SOL    HW130824   0.924   5.199   6.554
 9975SOL    HW230825   1.053   5.255   6.470
 9976SOL     OW30826   0.706   5.256   5.704
 9976SOL    HW130827   0.684   5.205   5.787
 9976SOL    HW230828   0.797   5.296   5.712
 9977SOL     OW30829   5.435   4.451   6.019
 9977SOL    HW130830   5.503   4.516   5.984
 9977SOL    HW230831   5.346   4.474   5.980
 9978SOL     OW30832   0.158   2.165   5.576
 9978SOL    HW130833   0.250   2.185   5.610
 9978SOL    HW230834   0.129   2.238   5.513
 9979SOL     OW30835   5.829   4.287   6.326
 9979SOL    HW130836   5.865   4.302   6.418
 9979SOL    HW230837   5.893   4.231   6.274
 9980SOL     OW30838   2.280   0.292   1.196
 9980SOL    HW130839   2.298   0.231   1.274
 9980SOL    HW230840   2.184   0.321   1.199
 9981SOL     OW30841   1.607   2.317   0.999
 9981SOL    HW130842   1.524   2.323   1.055
 9981SOL    HW230843   1.598   2.243   0.932
 9982SOL     OW30844   1.587   1.180   4.620
 9982SOL    HW130845   1.670   1.225   4.588
 9982SOL    HW230846   1.588   1.085   4.590
 9983SOL     OW30847   6.690   1.938   2.499
 9983SOL    HW130848   6.617   1.889   2.451
 9983SOL    HW230849   6.672   1.938   2.597
 9984SOL     OW30850   0.449   5.986   0.308
 9984SOL    HW130851   0.448   6.021   0.402
 9984SOL    HW230852   0.486   5.894   0.307
 9985SOL     OW30853   3.096   5.216   0.814
 9985SOL    HW130854   3.076   5.257   0.903
 9985SOL    HW230855   3.061   5.274   0.742
 9986SOL     OW30856   5.983   4.683   0.682
 9986SOL    HW130857   6.079   4.708   0.670
 9986SOL    HW230858   5.964   4.599   0.631
 9987SOL     OW30859   5.484   2.478   1.876
 9987SOL    HW130860   5.475   2.385   1.910
 9987SOL    HW230861   5.453   2.542   1.946
 9988SOL     OW30862   6.775   4.968   4.295
 9988SOL    HW130863   6.730   4.891   4.250
 9988SOL    HW230864   6.821   5.024   4.226
 9989SOL     OW30865   5.884   3.744   1.913
 9989SOL    HW130866   5.978   3.714   1.929
 9989SOL    HW230867   5.834   3.671   1.867
 9990SOL     OW30868   2.243   6.345   3.353
 9990SOL    HW130869   2.267   6.307   3.263
 9990SOL    HW230870   2.254   6.445   3.350
 9991SOL     OW30871   2.183   3.246   3.533
 9991SOL    HW130872   2.274   3.203   3.538
 9991SOL    HW230873   2.134   3.230   3.619
 9992SOL     OW30874   3.357   3.588   0.968
 9992SOL    HW130875   3.290   3.514   0.957
 9992SOL    HW230876   3.335   3.641   1.050
 9993SOL     OW30877   3.602   6.061   3.935
 9993SOL    HW130878   3.509   6.029   3.920
 9993SOL    HW230879   3.662   6.027   3.862
 9994SOL     OW30880   6.936   3.754   3.087
 9994SOL    HW130881   7.012   3.788   3.032
 9994SOL    HW230882   6.850   3.794   3.056
 9995SOL     OW30883   3.285   1.573   3.320
 9995SOL    HW130884   3.361   1.515   3.350
 9995SOL    HW230885   3.256   1.632   3.395
 9996SOL     OW30886   3.303   4.167   0.888
 9996SOL    HW130887   3.234   4.107   0.848
 9996SOL    HW230888   3.375   4.112   0.929
 9997SOL     OW30889   5.577   0.855   3.098
 9997SOL    HW130890   5.489   0.883   3.135
 9997SOL    HW230891   5.590   0.757   3.114
 9998SOL     OW30892   5.333   3.897   2.044
 9998SOL    HW130893   5.372   3.826   2.102
 9998SOL    HW230894   5.309   3.976   2.100
 9999SOL     OW30895   0.133   6.239   4.717
 9999SOL    HW130896   0.220   6.288   4.725
 9999SOL    HW230897   0.135   6.156   4.773
10000SOL     OW30898   5.526   1.983   0.903
10000SOL    HW130899   5.444   2.001   0.957
10000SOL    HW230900   5.588   1.922   0.954
10001SOL     OW30901   3.453   0.218   1.824
10001SOL    HW130902   3.547   0.203   1.856
10001SOL    HW230903   3.392   0.224   1.904
10002SOL     OW30904   2.609   1.403   0.996
10002SOL    HW130905   2.541   1.452   1.050
10002SOL    HW230906   2.573   1.387   0.904
10003SOL     OW30907   3.290   2.119   2.800
10003SOL    HW130908   3.362   2.173   2.758
10003SOL    HW230909   3.295   2.024   2.769
10004SOL     OW30910   5.113   3.665   5.306
10004SOL    HW130911   5.142   3.718   5.386
10004SOL    HW230912   5.047   3.595   5.334
10005SOL     OW30913   3.807   5.361   2.904
10005SOL    HW130914   3.766   5.366   2.813
10005SOL    HW230915   3.740   5.392   2.972
10006SOL     OW30916   5.555   6.658   5.477
10006SOL    HW130917   5.549   6.749   5.435
10006SOL    HW230918   5.491   6.652   5.553
10007SOL     OW30919   1.068   3.540   4.495
10007SOL    HW130920   0.994   3.557   4.561
10007SOL    HW230921   1.137   3.483   4.538
10008SOL     OW30922   5.075   1.680   3.245
10008SOL    HW130923   5.065   1.780   3.244
10008SOL    HW230924   4.986   1.638   3.262
10009SOL     OW30925   2.224   4.391   1.848
10009SOL    HW130926   2.262   4.476   1.811
10009SOL    HW230927   2.300   4.332   1.878
10010SOL     OW30928   2.487   6.276   0.338
10010SOL    HW130929   2.512   6.225   0.256
10010SOL    HW230930   2.393   6.309   0.329
10011SOL     OW30931   0.239   4.186   6.894
10011SOL    HW130932   0.255   4.257   6.962
10011SOL    HW230933   0.298   4.107   6.913
10012SOL     OW30934   5.400   6.909   2.250
10012SOL    HW130935   5.337   6.833   2.262
10012SOL    HW230936   5.389   6.975   2.324
10013SOL     OW30937   1.379   3.077   3.860
10013SOL    HW130938   1.428   3.085   3.773
10013SOL    HW230939   1.382   3.165   3.908
10014SOL     OW30940   1.084   0.190   2.025
10014SOL    HW130941   1.019   0.180   1.950
10014SOL    HW230942   1.042   0.242   2.099
10015SOL     OW30943   4.255   5.422   0.467
10015SOL    HW130944   4.272   5.412   0.369
10015SOL    HW230945   4.157   5.423   0.484
10016SOL     OW30946   2.386   1.165   4.655
10016SOL    HW130947   2.301   1.210   4.625
10016SOL    HW230948   2.433   1.223   4.721
10017SOL     OW30949   1.481   1.567   2.797
10017SOL    HW130950   1.397   1.612   2.766
10017SOL    HW230951   1.521   1.515   2.721
10018SOL     OW30952   6.875   4.762   5.759
10018SOL    HW130953   6.899   4.674   5.718
10018SOL    HW230954   6.777   4.778   5.749
10019SOL     OW30955   0.054   1.698   3.129
10019SOL    HW130956   6.980   1.710   3.112
10019SOL    HW230957   0.081   1.605   3.105
10020SOL     OW30958   0.567   1.227   1.766
10020SOL    HW130959   0.512   1.167   1.708
10020SOL    HW230960   0.508   1.293   1.812
10021SOL     OW30961   0.703   3.102   2.599
10021SOL    HW130962   0.791   3.105   2.647
10021SOL    HW230963   0.719   3.081   2.503
10022SOL     OW30964   3.442   6.252   0.634
10022SOL    HW130965   3.415   6.161   0.605
10022SOL    HW230966   3.484   6.300   0.556
10023SOL     OW30967   1.825   5.428   4.877
10023SOL    HW130968   1.765   5.422   4.956
10023SOL    HW230969   1.896   5.496   4.893
10024SOL     OW30970   1.027   5.786   2.791
10024SOL    HW130971   1.124   5.810   2.779
10024SOL    HW230972   1.000   5.803   2.886
10025SOL     OW30973   0.946   3.024   2.183
10025SOL    HW130974   0.917   3.000   2.091
10025SOL    HW230975   1.034   2.980   2.203
10026SOL     OW30976   5.391   0.008   3.451
10026SOL    HW130977   5.416   0.095   3.408
10026SOL    HW230978   5.436   0.001   3.540
10027SOL     OW30979   0.660   2.264   5.000
10027SOL    HW130980   0.567   2.302   5.002
10027SOL    HW230981   0.726   2.336   5.021
10028SOL     OW30982   1.825   1.472   2.138
10028SOL    HW130983   1.908   1.527   2.136
10028SOL    HW230984   1.849   1.375   2.128
10029SOL     OW30985   1.705   2.544   3.834
10029SOL    HW130986   1.721   2.629   3.785
10029SOL    HW230987   1.638   2.488   3.784
10030SOL     OW30988   3.498   0.188   5.271
10030SOL    HW130989   3.454   0.267   5.315
10030SOL    HW230990   3.507   0.114   5.338
10031SOL     OW30991   5.179   4.829   4.548
10031SOL    HW130992   5.260   4.798   4.597
10031SOL    HW230993   5.118   4.877   4.612
10032SOL     OW30994   4.462   0.530   5.833
10032SOL    HW130995   4.554   0.493   5.845
10032SOL    HW230996   4.411   0.473   5.768
10033SOL     OW30997   4.616   2.593   4.122
10033SOL    HW130998   4.555   2.595   4.202
10033SOL    HW230999   4.686   2.664   4.132
10034SOL     OW31000   2.920   0.223   3.816
10034SOL    HW131001   2.874   0.289   3.875
10034SOL    HW231002   3.005   0.193   3.858
10035SOL     OW31003   6.645   4.664   0.864
10035SOL    HW131004   6.656   4.755   0.824
10035SOL    HW231005   6.590   4.670   0.947
10036SOL     OW31006   6.736   0.776   0.971
10036SOL    HW131007   6.825   0.820   0.970
10036SOL    HW231008   6.665   0.843   0.952
10037SOL     OW31009   6.466   0.640   0.257
10037SOL    HW131010   6.483   0.553   0.212
10037SOL    HW231011   6.482   0.715   0.193
10038SOL     OW31012   4.284   0.117   6.660
10038SOL    HW131013   4.254   0.029   6.696
10038SOL    HW231014   4.231   0.190   6.703
10039SOL     OW31015   5.086   6.485   5.532
10039SOL    HW131016   5.125   6.509   5.443
10039SOL    HW231017   5.024   6.407   5.520
10040SOL     OW31018   4.249   5.826   6.081
10040SOL    HW131019   4.176   5.883   6.044
10040SOL    HW231020   4.229   5.730   6.066
10041SOL     OW31021   5.155   5.531   6.375
10041SOL    HW131022   5.069   5.555   6.421
10041SOL    HW231023   5.182   5.605   6.314
10042SOL     OW31024   0.872   1.659   5.062
10042SOL    HW131025   0.828   1.595   4.999
10042SOL    HW231026   0.969   1.668   5.037
10043SOL     OW31027   0.032   1.395   4.265
10043SOL    HW131028   0.127   1.405   4.297
10043SOL    HW231029   6.993   1.409   4.342
10044SOL     OW31030   2.500   2.407   3.333
10044SOL    HW131031   2.480   2.463   3.414
10044SOL    HW231032   2.582   2.353   3.350
10045SOL     OW31033   5.026   6.988   3.598
10045SOL    HW131034   5.047   6.979   3.695
10045SOL    HW231035   5.042   0.059   3.569
10046SOL     OW31036   1.130   3.426   1.502
10046SOL    HW131037   1.092   3.342   1.539
10046SOL    HW231038   1.228   3.416   1.488
10047SOL     OW31039   5.653   3.887   4.961
10047SOL    HW131040   5.723   3.843   5.017
10047SOL    HW231041   5.618   3.822   4.894
10048SOL     OW31042   4.145   1.835   2.359
10048SOL    HW131043   4.225   1.865   2.307
10048SOL    HW231044   4.082   1.786   2.298
10049SOL     OW31045   0.371   0.294   6.529
10049SOL    HW131046   0.316   0.370   6.563
10049SOL    HW231047   0.452   0.329   6.482
10050SOL     OW31048   6.303   2.359   5.300
10050SOL    HW131049   6.236   2.433   5.291
10050SOL    HW231050   6.308   2.330   5.395
10051SOL     OW31051   6.375   2.173   5.517
10051SOL    HW131052   6.333   2.112   5.583
10051SOL    HW231053   6.414   2.119   5.442
10052SOL     OW31054   2.914   2.146   2.935
10052SOL    HW131055   2.970   2.191   2.865
10052SOL    HW231056   2.889   2.212   3.006
10053SOL     OW31057   3.716   5.593   1.816
10053SOL    HW131058   3.809   5.585   1.779
10053SOL    HW231059   3.690   5.506   1.859
10054SOL     OW31060   4.418   5.396   6.266
10054SOL    HW131061   4.423   5.495   6.252
10054SOL    HW231062   4.392   5.377   6.360
10055SOL     OW31063   5.917   2.208   5.395
10055SOL    HW131064   5.948   2.216   5.490
10055SOL    HW231065   5.868   2.292   5.369
10056SOL     OW31066   5.770   4.775   1.286
10056SOL    HW131067   5.810   4.792   1.376
10056SOL    HW231068   5.670   4.780   1.293
10057SOL     OW31069   3.813   2.049   4.598
10057SOL    HW131070   3.747   2.063   4.525
10057SOL    HW231071   3.765   2.034   4.684
10058SOL     OW31072   0.528   3.916   4.463
10058SOL    HW131073   0.581   3.997   4.485
10058SOL    HW231074   0.460   3.938   4.394
10059SOL     OW31075   5.374   6.338   1.115
10059SOL    HW131076   5.302   6.355   1.183
10059SOL    HW231077   5.456   6.391   1.139
10060SOL     OW31078   2.058   1.614   2.162
10060SOL    HW131079   2.138   1.625   2.221
10060SOL    HW231080   2.032   1.704   2.126
10061SOL     OW31081   5.809   1.426   4.933
10061SOL    HW131082   5.871   1.368   4.880
10061SOL    HW231083   5.727   1.445   4.879
10062SOL     OW31084   6.678   0.113   4.342
10062SOL    HW131085   6.640   0.095   4.433
10062SOL    HW231086   6.777   0.099   4.345
10063SOL     OW31087   1.629   1.076   3.920
10063SOL    HW131088   1.719   1.100   3.884
10063SOL    HW231089   1.588   1.156   3.964
10064SOL     OW31090   5.241   6.141   0.116
10064SOL    HW131091   5.237   6.216   0.051
10064SOL    HW231092   5.319   6.082   0.094
10065SOL     OW31093   2.246   6.698   2.687
10065SOL    HW131094   2.239   6.785   2.735
10065SOL    HW231095   2.239   6.623   2.752
10066SOL     OW31096   0.673   0.852   3.420
10066SOL    HW131097   0.757   0.812   3.456
10066SOL    HW231098   0.694   0.938   3.374
10067SOL     OW31099   6.246   4.325   5.041
10067SOL    HW131100   6.343   4.339   5.062
10067SOL    HW231101   6.220   4.231   5.065
10068SOL     OW31102   6.060   3.135   3.171
10068SOL    HW131103   6.153   3.151   3.206
10068SOL    HW231104   6.035   3.209   3.109
10069SOL     OW31105   2.086   5.365   3.763
10069SOL    HW131106   2.049   5.455   3.740
10069SOL    HW231107   2.124   5.368   3.856
10070SOL     OW31108   6.441   6.965   4.673
10070SOL    HW131109   6.511   0.011   4.659
10070SOL    HW231110   6.353   7.010   4.691
10071SOL     OW31111   6.097   5.293   3.921
10071SOL    HW131112   6.020   5.306   3.858
10071SOL    HW231113   6.146   5.379   3.930
10072SOL     OW31114   0.534   6.357   3.606
10072SOL    HW131115   0.491   6.274   3.642
10072SOL    HW231116   0.613   6.332   3.550
10073SOL     OW31117   6.004   4.691   4.980
10073SOL    HW131118   6.041   4.743   5.057
10073SOL    HW231119   6.073   4.625   4.949
10074SOL     OW31120   1.325   0.758   5.346
10074SOL    HW131121   1.266   0.684   5.313
10074SOL    HW231122   1.270   0.824   5.398
10075SOL     OW31123   1.136   2.739   3.305
10075SOL    HW131124   1.065   2.669   3.312
10075SOL    HW231125   1.152   2.761   3.208
10076SOL     OW31126   6.756   0.470   3.287
10076SOL    HW131127   6.723   0.447   3.379
10076SOL    HW231128   6.794   0.563   3.287
10077SOL     OW31129   3.756   3.294   6.059
10077SOL    HW131130   3.841   3.296   6.111
10077SOL    HW231131   3.728   3.387   6.036
10078SOL     OW31132   0.139   5.918   3.768
10078SOL    HW131133   0.042   5.913   3.795
10078SOL    HW231134   0.189   5.843   3.811
10079SOL     OW31135   0.302   3.975   2.106
10079SOL    HW131136   0.391   3.967   2.060
10079SOL    HW231137   0.286   4.070   2.131
10080SOL     OW31138   3.416   1.320   5.451
10080SOL    HW131139   3.439   1.413   5.477
10080SOL    HW231140   3.321   1.316   5.419
10081SOL     OW31141   6.949   6.857   0.700
10081SOL    HW131142   6.978   6.761   0.706
10081SOL    HW231143   0.001   6.917   0.727
10082SOL     OW31144   0.292   4.862   1.937
10082SOL    HW131145   0.357   4.846   1.862
10082SOL    HW231146   0.285   4.961   1.954
10083SOL     OW31147   4.984   0.551   3.126
10083SOL    HW131148   5.040   0.469   3.140
10083SOL    HW231149   5.025   0.607   3.054
10084SOL     OW31150   3.073   1.033   5.743
10084SOL    HW131151   3.122   1.013   5.659
10084SOL    HW231152   3.108   1.117   5.784
10085SOL     OW31153   1.254   6.336   1.981
10085SOL    HW131154   1.184   6.265   1.987
10085SOL    HW231155   1.342   6.299   2.011
10086SOL     OW31156   5.732   5.472   2.176
10086SOL    HW131157   5.675   5.396   2.208
10086SOL    HW231158   5.784   5.509   2.253
10087SOL     OW31159   0.317   6.837   3.756
10087SOL    HW131160   0.299   6.818   3.852
10087SOL    HW231161   0.246   6.795   3.699
10088SOL     OW31162   6.771   0.293   0.310
10088SOL    HW131163   6.762   0.295   0.409
10088SOL    HW231164   6.696   0.240   0.270
10089SOL     OW31165   3.119   2.089   2.448
10089SOL    HW131166   3.147   1.999   2.414
10089SOL    HW231167   3.068   2.137   2.377
10090SOL     OW31168   1.109   4.889   0.867
10090SOL    HW131169   1.129   4.908   0.770
10090SOL    HW231170   1.134   4.795   0.888
10091SOL     OW31171   1.161   3.765   5.615
10091SOL    HW131172   1.243   3.756   5.560
10091SOL    HW231173   1.080   3.749   5.558
10092SOL     OW31174   1.781   3.031   4.905
10092SOL    HW131175   1.748   3.112   4.953
10092SOL    HW231176   1.814   3.058   4.814
10093SOL     OW31177   6.852   3.901   4.838
10093SOL    HW131178   6.804   3.984   4.810
10093SOL    HW231179   6.812   3.866   4.922
10094SOL     OW31180   1.950   5.719   1.939
10094SOL    HW131181   1.956   5.799   1.879
10094SOL    HW231182   1.915   5.641   1.887
10095SOL     OW31183   6.215   1.754   5.129
10095SOL    HW131184   6.232   1.773   5.226
10095SOL    HW231185   6.123   1.783   5.105
10096SOL     OW31186   5.265   4.940   2.481
10096SOL    HW131187   5.300   4.895   2.399
10096SOL    HW231188   5.306   4.897   2.562
10097SOL     OW31189   0.961   0.895   0.698
10097SOL    HW131190   0.978   0.895   0.796
10097SOL    HW231191   0.912   0.812   0.672
10098SOL     OW31192   2.536   0.691   5.143
10098SOL    HW131193   2.633   0.675   5.160
10098SOL    HW231194   2.507   0.776   5.187
10099SOL     OW31195   6.920   4.941   1.137
10099SOL    HW131196   6.879   4.948   1.228
10099SOL    HW231197   6.969   4.855   1.129
10100SOL     OW31198   4.944   0.142   4.612
10100SOL    HW131199   5.002   0.157   4.692
10100SOL    HW231200   4.997   0.156   4.529
10101SOL     OW31201   5.733   4.103   1.490
10101SOL    HW131202   5.768   4.057   1.408
10101SOL    HW231203   5.770   4.059   1.571
10102SOL     OW31204   1.445   0.754   1.932
10102SOL    HW131205   1.532   0.729   1.974
10102SOL    HW231206   1.438   0.854   1.926
10103SOL     OW31207   2.671   1.594   6.442
10103SOL    HW131208   2.693   1.625   6.349
10103SOL    HW231209   2.755   1.590   6.496
10104SOL     OW31210   1.603   2.233   4.012
10104SOL    HW131211   1.541   2.262   4.085
10104SOL    HW231212   1.646   2.147   4.038
10105SOL     OW31213   1.379   0.782   0.592
10105SOL    HW131214   1.339   0.720   0.659
10105SOL    HW231215   1.312   0.851   0.566
10106SOL     OW31216   4.339   6.853   0.709
10106SOL    HW131217   4.288   6.882   0.628
10106SOL    HW231218   4.428   6.817   0.681
10107SOL     OW31219   0.183   1.114   6.706
10107SOL    HW131220   0.227   1.202   6.691
10107SOL    HW231221   0.154   1.076   6.618
10108SOL     OW31222   6.684   6.342   0.252
10108SOL    HW131223   6.648   6.270   0.312
10108SOL    HW231224   6.610   6.403   0.225
10109SOL     OW31225   4.985   0.401   0.707
10109SOL    HW131226   5.001   0.373   0.613
10109SOL    HW231227   4.901   0.360   0.741
10110SOL     OW31228   4.709   5.957   4.965
10110SOL    HW131229   4.746   5.877   4.918
10110SOL    HW231230   4.688   6.028   4.897
10111SOL     OW31231   5.305   3.718   3.539
10111SOL    HW131232   5.235   3.731   3.610
10111SOL    HW231233   5.366   3.797   3.539
10112SOL     OW31234   5.693   3.753   3.698
10112SOL    HW131235   5.779   3.789   3.661
10112SOL    HW231236   5.693   3.761   3.797
10113SOL     OW31237   4.467   0.200   5.905
10113SOL    HW131238   4.447   0.251   5.822
10113SOL    HW231239   4.386   0.147   5.932
10114SOL     OW31240   6.197   1.245   0.923
10114SOL    HW131241   6.137   1.317   0.959
10114SOL    HW231242   6.142   1.175   0.877
10115SOL     OW31243   4.047   1.619   4.353
10115SOL    HW131244   4.147   1.612   4.362
10115SOL    HW231245   4.021   1.612   4.257
10116SOL     OW31246   0.204   5.825   0.755
10116SOL    HW131247   0.227   5.922   0.762
10116SOL    HW231248   0.105   5.813   0.764
10117SOL     OW31249   6.522   5.922   5.516
10117SOL    HW131250   6.486   5.842   5.467
10117SOL    HW231251   6.451   5.960   5.575
10118SOL     OW31252   1.998   5.225   2.929
10118SOL    HW131253   1.997   5.289   3.006
10118SOL    HW231254   1.996   5.277   2.844
10119SOL     OW31255   0.748   5.983   4.301
10119SOL    HW131256   0.841   5.959   4.328
10119SOL    HW231257   0.711   6.049   4.367
10120SOL     OW31258   1.742   3.965   4.832
10120SOL    HW131259   1.646   3.993   4.835
10120SOL    HW231260   1.794   4.032   4.779
10121SOL     OW31261   6.443   4.154   6.546
10121SOL    HW131262   6.528   4.130   6.594
10121SOL    HW231263   6.420   4.249   6.565
10122SOL     OW31264   6.177   3.090   1.492
10122SOL    HW131265   6.269   3.104   1.454
10122SOL    HW231266   6.141   3.004   1.457
10123SOL     OW31267   5.689   6.886   0.150
10123SOL    HW131268   5.751   6.952   0.192
10123SOL    HW231269   5.615   6.934   0.104
10124SOL     OW31270   1.600   4.007   0.130
10124SOL    HW131271   1.654   4.050   0.058
10124SOL    HW231272   1.520   3.962   0.090
10125SOL     OW31273   1.855   1.479   2.427
10125SOL    HW131274   1.839   1.470   2.329
10125SOL    HW231275   1.949   1.450   2.448
10126SOL     OW31276   0.437   6.914   5.968
10126SOL    HW131277   0.398   6.918   6.059
10126SOL    HW231278   0.468   6.821   5.949
10127SOL     OW31279   2.798   4.916   6.484
10127SOL    HW131280   2.789   4.817   6.471
10127SOL    HW231281   2.892   4.944   6.465
10128SOL     OW31282   2.445   1.436   1.678
10128SOL    HW131283   2.394   1.469   1.758
10128SOL    HW231284   2.384   1.380   1.622
10129SOL     OW31285   5.641   1.823   2.274
10129SOL    HW131286   5.581   1.903   2.279
10129SOL    HW231287   5.596   1.744   2.315
10130SOL     OW31288   1.357   3.504   1.785
10130SOL    HW131289   1.326   3.584   1.836
10130SOL    HW231290   1.387   3.532   1.694
10131SOL     OW31291   1.510   6.675   4.099
10131SOL    HW131292   1.447   6.710   4.168
10131SOL    HW231293   1.559   6.596   4.135
10132SOL     OW31294   3.330   0.102   5.078
10132SOL    HW131295   3.377   0.139   5.159
10132SOL    HW231296   3.398   0.067   5.014
10133SOL     OW31297   3.920   6.562   1.080
10133SOL    HW131298   3.941   6.514   1.166
10133SOL    HW231299   3.825   6.545   1.056
10134SOL     OW31300   0.073   6.676   3.681
10134SOL    HW131301   0.061   6.586   3.639
10134SOL    HW231302   0.022   6.744   3.629
10135SOL     OW31303   4.893   3.369   3.416
10135SOL    HW131304   4.886   3.341   3.512
10135SOL    HW231305   4.896   3.288   3.358
10136SOL     OW31306   5.175   0.644   2.904
10136SOL    HW131307   5.231   0.563   2.893
10136SOL    HW231308   5.209   0.699   2.980
10137SOL     OW31309   5.978   4.019   4.036
10137SOL    HW131310   5.961   3.934   3.987
10137SOL    HW231311   6.057   4.066   3.996
10138SOL     OW31312   4.980   3.441   0.652
10138SOL    HW131313   4.912   3.371   0.632
10138SOL    HW231314   4.938   3.514   0.706
10139SOL     OW31315   3.478   4.168   3.475
10139SOL    HW131316   3.535   4.250   3.485
10139SOL    HW231317   3.528   4.099   3.423
10140SOL     OW31318   5.759   6.206   6.816
10140SOL    HW131319   5.695   6.255   6.875
10140SOL    HW231320   5.753   6.242   6.723
10141SOL     OW31321   3.409   1.572   5.137
10141SOL    HW131322   3.411   1.475   5.111
10141SOL    HW231323   3.503   1.606   5.147
10142SOL     OW31324   6.138   6.287   5.041
10142SOL    HW131325   6.079   6.207   5.037
10142SOL    HW231326   6.133   6.327   5.133
10143SOL     OW31327   4.734   1.371   6.290
10143SOL    HW131328   4.665   1.441   6.269
10143SOL    HW231329   4.780   1.394   6.376
10144SOL     OW31330   3.785   0.305   6.339
10144SOL    HW131331   3.758   0.265   6.251
10144SOL    HW231332   3.716   0.283   6.408
10145SOL     OW31333   2.647   5.425   4.519
10145SOL    HW131334   2.744   5.449   4.525
10145SOL    HW231335   2.598   5.467   4.595
10146SOL     OW31336   4.424   4.749   4.845
10146SOL    HW131337   4.388   4.662   4.881
10146SOL    HW231338   4.471   4.798   4.918
10147SOL     OW31339   5.057   4.034   5.444
10147SOL    HW131340   5.071   3.948   5.493
10147SOL    HW231341   5.140   4.057   5.393
10148SOL     OW31342   5.050   5.323   6.848
10148SOL    HW131343   5.145   5.315   6.879
10148SOL    HW231344   4.992   5.264   6.904
10149SOL     OW31345   5.937   3.340   0.594
10149SOL    HW131346   6.025   3.370   0.631
10149SOL    HW231347   5.928   3.370   0.500
10150SOL     OW31348   3.964   4.011   0.429
10150SOL    HW131349   3.870   4.030   0.456
10150SOL    HW231350   3.973   4.025   0.330
10151SOL     OW31351   0.852   6.431   6.830
10151SOL    HW131352   0.758   6.461   6.845
10151SOL    HW231353   0.909   6.510   6.807
10152SOL     OW31354   6.701   5.986   4.414
10152SOL    HW131355   6.742   6.077   4.425
10152SOL    HW231356   6.709   5.936   4.500
10153SOL     OW31357   4.658   6.154   3.734
10153SOL    HW131358   4.737   6.214   3.724
10153SOL    HW231359   4.599   6.162   3.653
10154SOL     OW31360   4.828   6.801   5.850
10154SOL    HW131361   4.732   6.789   5.875
10154SOL    HW231362   4.842   6.767   5.757
10155SOL     OW31363   3.987   2.325   5.578
10155SOL    HW131364   3.911   2.274   5.537
10155SOL    HW231365   3.968   2.340   5.675
10156SOL     OW31366   5.811   0.843   2.754
10156SOL    HW131367   5.774   0.779   2.687
10156SOL    HW231368   5.878   0.796   2.812
10157SOL     OW31369   6.894   1.910   1.132
10157SOL    HW131370   6.840   1.913   1.047
10157SOL    HW231371   6.833   1.919   1.211
10158SOL     OW31372   5.675   4.860   0.514
10158SOL    HW131373   5.748   4.917   0.479
10158SOL    HW231374   5.687   4.848   0.613
10159SOL     OW31375   2.464   3.695   0.128
10159SOL    HW131376   2.386   3.680   0.188
10159SOL    HW231377   2.479   3.793   0.116
10160SOL     OW31378   1.871   2.902   2.335
10160SOL    HW131379   1.880   2.982   2.276
10160SOL    HW231380   1.924   2.916   2.419
10161SOL     OW31381   2.835   2.771   0.432
10161SOL    HW131382   2.900   2.754   0.506
10161SOL    HW231383   2.853   2.708   0.357
10162SOL     OW31384   3.621   4.737   0.925
10162SOL    HW131385   3.585   4.759   0.835
10162SOL    HW231386   3.553   4.685   0.977
10163SOL     OW31387   6.170   4.148   6.524
10163SOL    HW131388   6.155   4.245   6.546
10163SOL    HW231389   6.268   4.131   6.514
10164SOL     OW31390   5.995   3.806   4.552
10164SOL    HW131391   5.960   3.736   4.615
10164SOL    HW231392   5.983   3.775   4.458
10165SOL     OW31393   6.869   1.913   3.007
10165SOL    HW131394   6.809   1.834   2.992
10165SOL    HW231395   6.893   1.954   2.920
10166SOL     OW31396   3.184   1.974   2.036
10166SOL    HW131397   3.173   2.069   2.007
10166SOL    HW231398   3.262   1.933   1.988
10167SOL     OW31399   2.082   4.030   6.748
10167SOL    HW131400   2.064   4.031   6.650
10167SOL    HW231401   2.075   3.937   6.784
10168SOL     OW31402   5.920   3.244   6.315
10168SOL    HW131403   5.866   3.299   6.252
10168SOL    HW231404   5.940   3.297   6.397
10169SOL     OW31405   6.688   4.150   3.717
10169SOL    HW131406   6.774   4.183   3.680
10169SOL    HW231407   6.684   4.050   3.708
10170SOL     OW31408   0.244   5.729   5.901
10170SOL    HW131409   0.230   5.776   5.814
10170SOL    HW231410   0.342   5.713   5.914
10171SOL     OW31411   0.044   2.556   4.968
10171SOL    HW131412   0.118   2.572   5.033
10171SOL    HW231413   6.989   2.517   5.017
10172SOL     OW31414   6.932   5.696   4.731
10172SOL    HW131415   7.023   5.656   4.734
10172SOL    HW231416   6.923   5.762   4.807
10173SOL     OW31417   1.288   3.114   0.716
10173SOL    HW131418   1.194   3.134   0.687
10173SOL    HW231419   1.352   3.153   0.650
10174SOL     OW31420   5.246   5.104   3.146
10174SOL    HW131421   5.199   5.062   3.068
10174SOL    HW231422   5.179   5.147   3.206
10175SOL     OW31423   5.772   1.327   3.773
10175SOL    HW131424   5.857   1.306   3.726
10175SOL    HW231425   5.753   1.257   3.841
10176SOL     OW31426   0.261   3.754   4.864
10176SOL    HW131427   0.217   3.796   4.943
10176SOL    HW231428   0.191   3.726   4.798
10177SOL     OW31429   2.689   0.628   1.423
10177SOL    HW131430   2.675   0.726   1.410
10177SOL    HW231431   2.688   0.583   1.334
10178SOL     OW31432   0.680   0.669   5.901
10178SOL    HW131433   0.769   0.697   5.865
10178SOL    HW231434   0.665   0.709   5.991
10179SOL     OW31435   0.816   2.268   6.734
10179SOL    HW131436   0.860   2.181   6.758
10179SOL    HW231437   0.866   2.311   6.659
10180SOL     OW31438   4.265   0.729   5.809
10180SOL    HW131439   4.223   0.720   5.899
10180SOL    HW231440   4.344   0.668   5.803
10181SOL     OW31441   6.757   3.331   1.105
10181SOL    HW131442   6.847   3.287   1.095
10181SOL    HW231443   6.712   3.335   1.016
10182SOL     OW31444   4.723   0.929   1.913
10182SOL    HW131445   4.663   0.961   1.987
10182SOL    HW231446   4.674   0.862   1.857
10183SOL     OW31447   0.073   2.703   6.455
10183SOL    HW131448   6.996   2.707   6.461
10183SOL    HW231449   0.102   2.607   6.454
10184SOL     OW31450   4.393   1.279   5.655
10184SOL    HW131451   4.448   1.254   5.735
10184SOL    HW231452   4.422   1.369   5.622
10185SOL     OW31453   6.382   6.098   2.697
10185SOL    HW131454   6.477   6.103   2.728
10185SOL    HW231455   6.376   6.135   2.605
10186SOL     OW31456   5.658   3.226   3.886
10186SOL    HW131457   5.566   3.187   3.888
10186SOL    HW231458   5.686   3.251   3.979
10187SOL     OW31459   1.311   3.544   0.707
10187SOL    HW131460   1.364   3.534   0.623
10187SOL    HW231461   1.289   3.641   0.721
10188SOL     OW31462   4.015   5.723   0.593
10188SOL    HW131463   3.947   5.792   0.570
10188SOL    HW231464   4.107   5.761   0.578
10189SOL     OW31465   1.212   1.091   5.879
10189SOL    HW131466   1.231   1.042   5.964
10189SOL    HW231467   1.164   1.176   5.899
10190SOL     OW31468   4.962   3.570   2.049
10190SOL    HW131469   4.932   3.633   1.977
10190SOL    HW231470   5.017   3.620   2.115
10191SOL     OW31471   4.859   6.004   6.572
10191SOL    HW131472   4.929   5.963   6.513
10191SOL    HW231473   4.795   5.934   6.602
10192SOL     OW31474   4.337   1.692   4.909
10192SOL    HW131475   4.359   1.632   4.832
10192SOL    HW231476   4.260   1.654   4.960
10193SOL     OW31477   4.001   3.525   2.115
10193SOL    HW131478   4.024   3.457   2.185
10193SOL    HW231479   3.952   3.481   2.040
10194SOL     OW31480   5.793   6.160   5.448
10194SOL    HW131481   5.809   6.077   5.394
10194SOL    HW231482   5.820   6.145   5.543
10195SOL     OW31483   5.972   5.961   0.558
10195SOL    HW131484   6.005   5.880   0.510
10195SOL    HW231485   5.873   5.966   0.553
10196SOL     OW31486   4.816   1.636   3.813
10196SOL    HW131487   4.757   1.565   3.774
10196SOL    HW231488   4.886   1.661   3.746
10197SOL     OW31489   5.995   1.238   5.325
10197SOL    HW131490   6.058   1.197   5.259
10197SOL    HW231491   5.932   1.168   5.358
10198SOL     OW31492   2.687   6.470   2.589
10198SOL    HW131493   2.658   6.565   2.578
10198SOL    HW231494   2.728   6.437   2.505
10199SOL     OW31495   2.087   3.664   0.544
10199SOL    HW131496   2.093   3.758   0.579
10199SOL    HW231497   2.067   3.601   0.618
10200SOL     OW31498   4.880   2.535   6.386
10200SOL    HW131499   4.855   2.447   6.345
10200SOL    HW231500   4.969   2.564   6.353
10201SOL     OW31501   1.639   5.157   0.772
10201SOL    HW131502   1.724   5.110   0.797
10201SOL    HW231503   1.562   5.095   0.784
10202SOL     OW31504   3.439   4.806   1.199
10202SOL    HW131505   3.456   4.709   1.212
10202SOL    HW231506   3.453   4.855   1.285
10203SOL     OW31507   6.240   2.588   2.776
10203SOL    HW131508   6.193   2.636   2.851
10203SOL    HW231509   6.189   2.602   2.691
10204SOL     OW31510   5.125   6.119   0.676
10204SOL    HW131511   5.144   6.137   0.580
10204SOL    HW231512   5.196   6.058   0.713
10205SOL     OW31513   2.175   0.316   2.174
10205SOL    HW131514   2.172   0.228   2.127
10205SOL    HW231515   2.197   0.389   2.109
10206SOL     OW31516   6.268   0.585   6.898
10206SOL    HW131517   6.349   0.623   6.854
10206SOL    HW231518   6.259   0.488   6.876
10207SOL     OW31519   1.133   1.885   0.304
10207SOL    HW131520   1.181   1.867   0.390
10207SOL    HW231521   1.039   1.851   0.311
10208SOL     OW31522   6.181   4.679   3.629
10208SOL    HW131523   6.252   4.712   3.567
10208SOL    HW231524   6.095   4.727   3.609
10209SOL     OW31525   0.212   6.975   0.721
10209SOL    HW131526   0.262   0.024   0.672
10209SOL    HW231527   0.251   6.886   0.697
10210SOL     OW31528   4.627   0.081   2.093
10210SOL    HW131529   4.540   0.040   2.066
10210SOL    HW231530   4.636   0.078   2.192
10211SOL     OW31531   4.106   6.366   5.011
10211SOL    HW131532   4.132   6.306   5.087
10211SOL    HW231533   4.160   6.342   4.930
10212SOL     OW31534   0.334   0.794   5.219
10212SOL    HW131535   0.408   0.790   5.152
10212SOL    HW231536   0.355   0.863   5.289
10213SOL     OW31537   5.772   2.587   1.511
10213SOL    HW131538   5.859   2.592   1.559
10213SOL    HW231539   5.714   2.517   1.553
10214SOL     OW31540   0.974   1.696   1.586
10214SOL    HW131541   0.930   1.758   1.521
10214SOL    HW231542   0.913   1.678   1.663
10215SOL     OW31543   3.952   3.114   3.511
10215SOL    HW131544   3.936   3.074   3.601
10215SOL    HW231545   3.994   3.204   3.521
10216SOL     OW31546   0.480   1.366   1.355
10216SOL    HW131547   0.567   1.355   1.308
10216SOL    HW231548   0.493   1.419   1.438
10217SOL     OW31549   3.153   1.400   3.137
10217SOL    HW131550   3.094   1.353   3.203
10217SOL    HW231551   3.219   1.456   3.186
10218SOL     OW31552   1.527   1.780   1.976
10218SOL    HW131553   1.459   1.843   2.014
10218SOL    HW231554   1.552   1.712   2.045
10219SOL     OW31555   0.578   1.637   3.810
10219SOL    HW131556   0.669   1.636   3.769
10219SOL    HW231557   0.516   1.581   3.755
10220SOL     OW31558   4.984   2.012   0.766
10220SOL    HW131559   4.961   2.049   0.856
10220SOL    HW231560   5.082   1.991   0.762
10221SOL     OW31561   0.901   4.505   3.947
10221SOL    HW131562   0.968   4.444   3.989
10221SOL    HW231563   0.834   4.451   3.897
10222SOL     OW31564   3.003   4.051   5.571
10222SOL    HW131565   2.979   3.984   5.641
10222SOL    HW231566   3.035   4.003   5.489
10223SOL     OW31567   1.769   4.660   1.354
10223SOL    HW131568   1.822   4.670   1.438
10223SOL    HW231569   1.818   4.601   1.291
10224SOL     OW31570   5.984   3.148   5.454
10224SOL    HW131571   5.925   3.082   5.500
10224SOL    HW231572   5.989   3.127   5.357
10225SOL     OW31573   0.908   5.033   5.572
10225SOL    HW131574   0.808   5.025   5.572
10225SOL    HW231575   0.940   5.043   5.478
10226SOL     OW31576   2.530   0.560   6.007
10226SOL    HW131577   2.455   0.574   5.941
10226SOL    HW231578   2.521   0.469   6.047
10227SOL     OW31579   5.509   5.153   1.033
10227SOL    HW131580   5.557   5.169   1.119
10227SOL    HW231581   5.555   5.082   0.981
10228SOL     OW31582   0.268   6.498   1.991
10228SOL    HW131583   0.288   6.517   1.895
10228SOL    HW231584   0.275   6.583   2.044
10229SOL     OW31585   1.902   3.056   4.649
10229SOL    HW131586   1.977   3.104   4.694
10229SOL    HW231587   1.873   3.107   4.568
10230SOL     OW31588   5.950   6.318   3.050
10230SOL    HW131589   6.042   6.294   3.019
10230SOL    HW231590   5.884   6.296   2.978
10231SOL     OW31591   6.568   4.872   5.203
10231SOL    HW131592   6.495   4.816   5.242
10231SOL    HW231593   6.653   4.819   5.200
10232SOL     OW31594   3.373   1.441   3.672
10232SOL    HW131595   3.407   1.451   3.579
10232SOL    HW231596   3.419   1.506   3.732
10233SOL     OW31597   3.954   4.023   4.833
10233SOL    HW131598   3.955   4.121   4.809
10233SOL    HW231599   3.906   3.972   4.761
10234SOL     OW31600   6.386   1.064   0.739
10234SOL    HW131601   6.287   1.054   0.745
10234SOL    HW231602   6.417   1.034   0.649
10235SOL     OW31603   2.681   2.536   1.338
10235SOL    HW131604   2.695   2.559   1.241
10235SOL    HW231605   2.647   2.616   1.387
10236SOL     OW31606   2.405   0.977   0.486
10236SOL    HW131607   2.477   0.909   0.474
10236SOL    HW231608   2.367   1.001   0.397
10237SOL     OW31609   0.889   4.058   6.705
10237SOL    HW131610   0.809   4.117   6.718
10237SOL    HW231611   0.866   3.965   6.732
10238SOL     OW31612   3.861   4.237   1.728
10238SOL    HW131613   3.784   4.300   1.736
10238SOL    HW231614   3.850   4.161   1.793
10239SOL     OW31615   1.641   3.200   5.073
10239SOL    HW131616   1.649   3.283   5.129
10239SOL    HW231617   1.566   3.144   5.107
10240SOL     OW31618   1.859   5.025   2.169
10240SOL    HW131619   1.836   5.105   2.113
10240SOL    HW231620   1.868   5.054   2.265
10241SOL     OW31621   6.702   6.594   3.249
10241SOL    HW131622   6.718   6.545   3.163
10241SOL    HW231623   6.657   6.533   3.314
10242SOL     OW31624   0.316   1.336   1.003
10242SOL    HW131625   0.244   1.394   1.039
10242SOL    HW231626   0.318   1.344   0.903
10243SOL     OW31627   1.982   4.527   2.437
10243SOL    HW131628   2.076   4.493   2.426
10243SOL    HW231629   1.984   4.627   2.445
10244SOL     OW31630   1.841   4.185   0.716
10244SOL    HW131631   1.911   4.198   0.647
10244SOL    HW231632   1.869   4.228   0.802
10245SOL     OW31633   3.427   3.951   1.334
10245SOL    HW131634   3.494   3.914   1.399
10245SOL    HW231635   3.336   3.944   1.374
10246SOL     OW31636   3.586   3.475   3.988
10246SOL    HW131637   3.664   3.416   3.970
10246SOL    HW231638   3.592   3.557   3.930
10247SOL     OW31639   6.621   4.168   5.362
10247SOL    HW131640   6.559   4.246   5.366
10247SOL    HW231641   6.574   4.090   5.320
10248SOL     OW31642   1.880   6.101   2.493
10248SOL    HW131643   1.785   6.072   2.481
10248SOL    HW231644   1.902   6.172   2.426
10249SOL     OW31645   4.210   6.287   6.780
10249SOL    HW131646   4.226   6.271   6.682
10249SOL    HW231647   4.123   6.335   6.792
10250SOL     OW31648   6.723   3.201   1.897
10250SOL    HW131649   6.747   3.186   1.993
10250SOL    HW231650   6.800   3.178   1.838
10251SOL     OW31651   2.017   1.703   5.287
10251SOL    HW131652   2.106   1.714   5.243
10251SOL    HW231653   2.019   1.748   5.377
10252SOL     OW31654   4.388   4.361   6.444
10252SOL    HW131655   4.360   4.275   6.485
10252SOL    HW231656   4.458   4.404   6.501
10253SOL     OW31657   2.914   6.146   0.538
10253SOL    HW131658   2.845   6.194   0.485
10253SOL    HW231659   2.991   6.208   0.557
10254SOL     OW31660   4.670   0.990   5.656
10254SOL    HW131661   4.716   1.045   5.586
10254SOL    HW231662   4.571   0.996   5.643
10255SOL     OW31663   2.803   6.359   1.401
10255SOL    HW131664   2.889   6.336   1.355
10255SOL    HW231665   2.786   6.457   1.392
10256SOL     OW31666   4.568   2.122   2.208
10256SOL    HW131667   4.514   2.205   2.190
10256SOL    HW231668   4.603   2.125   2.302
10257SOL     OW31669   1.772   5.149   4.010
10257SOL    HW131670   1.793   5.247   4.013
10257SOL    HW231671   1.805   5.105   4.093
10258SOL     OW31672   3.601   2.083   3.476
10258SOL    HW131673   3.581   2.091   3.378
10258SOL    HW231674   3.695   2.111   3.493
10259SOL     OW31675   0.784   4.247   2.467
10259SOL    HW131676   0.692   4.212   2.451
10259SOL    HW231677   0.815   4.298   2.387
10260SOL     OW31678   1.345   1.168   3.269
10260SOL    HW131679   1.252   1.147   3.301
10260SOL    HW231680   1.399   1.205   3.345
10261SOL     OW31681   6.474   4.730   1.397
10261SOL    HW131682   6.429   4.792   1.461
10261SOL    HW231683   6.554   4.690   1.440
10262SOL     OW31684   2.229   6.776   5.513
10262SOL    HW131685   2.316   6.793   5.468
10262SOL    HW231686   2.168   6.854   5.499
10263SOL     OW31687   5.343   0.321   0.554
10263SOL    HW131688   5.298   0.287   0.471
10263SOL    HW231689   5.393   0.246   0.597
10264SOL     OW31690   6.225   6.925   6.711
10264SOL    HW131691   6.279   6.990   6.763
10264SOL    HW231692   6.225   6.836   6.758
10265SOL     OW31693   2.768   2.714   1.710
10265SOL    HW131694   2.792   2.620   1.689
10265SOL    HW231695   2.850   2.766   1.734
10266SOL     OW31696   3.374   2.871   3.903
10266SOL    HW131697   3.348   2.935   3.831
10266SOL    HW231698   3.295   2.814   3.927
10267SOL     OW31699   5.347   2.727   0.219
10267SOL    HW131700   5.385   2.680   0.298
10267SOL    HW231701   5.421   2.757   0.159
10268SOL     OW31702   6.639   6.162   2.457
10268SOL    HW131703   6.580   6.241   2.439
10268SOL    HW231704   6.720   6.192   2.508
10269SOL     OW31705   0.766   3.788   6.722
10269SOL    HW131706   0.764   3.739   6.634
10269SOL    HW231707   0.674   3.822   6.742
10270SOL     OW31708   2.926   4.798   2.414
10270SOL    HW131709   2.928   4.803   2.315
10270SOL    HW231710   2.836   4.765   2.444
10271SOL     OW31711   3.895   3.112   6.481
10271SOL    HW131712   3.851   3.196   6.448
10271SOL    HW231713   3.890   3.041   6.411
10272SOL     OW31714   1.225   1.012   5.521
10272SOL    HW131715   1.291   1.006   5.596
10272SOL    HW231716   1.242   1.094   5.467
10273SOL     OW31717   3.288   5.839   2.848
10273SOL    HW131718   3.318   5.880   2.762
10273SOL    HW231719   3.211   5.890   2.885
10274SOL     OW31720   0.608   5.126   5.926
10274SOL    HW131721   0.641   5.032   5.933
10274SOL    HW231722   0.595   5.164   6.018
10275SOL     OW31723   0.627   6.547   2.193
10275SOL    HW131724   0.603   6.516   2.101
10275SOL    HW231725   0.726   6.540   2.205
10276SOL     OW31726   5.217   5.721   5.283
10276SOL    HW131727   5.226   5.791   5.354
10276SOL    HW231728   5.123   5.687   5.282
10277SOL     OW31729   1.982   6.009   5.024
10277SOL    HW131730   1.987   5.910   5.015
10277SOL    HW231731   1.918   6.046   4.956
10278SOL     OW31732   1.668   1.857   3.523
10278SOL    HW131733   1.683   1.956   3.531
10278SOL    HW231734   1.724   1.821   3.449
10279SOL     OW31735   1.514   4.558   4.265
10279SOL    HW131736   1.571   4.568   4.183
10279SOL    HW231737   1.421   4.536   4.237
10280SOL     OW31738   0.053   2.532   6.928
10280SOL    HW131739   0.043   2.448   6.874
10280SOL    HW231740   0.113   2.596   6.879
10281SOL     OW31741   5.344   0.971   3.232
10281SOL    HW131742   5.342   1.067   3.203
10281SOL    HW231743   5.274   0.955   3.302
10282SOL     OW31744   5.315   3.375   4.519
10282SOL    HW131745   5.384   3.349   4.452
10282SOL    HW231746   5.342   3.341   4.610
10283SOL     OW31747   1.897   3.393   1.134
10283SOL    HW131748   1.863   3.467   1.076
10283SOL    HW231749   1.829   3.319   1.138
10284SOL     OW31750   4.836   2.533   5.318
10284SOL    HW131751   4.821   2.439   5.286
10284SOL    HW231752   4.756   2.589   5.297
10285SOL     OW31753   5.398   6.651   2.517
10285SOL    HW131754   5.481   6.685   2.562
10285SOL    HW231755   5.351   6.588   2.578
10286SOL     OW31756   3.104   2.160   3.725
10286SOL    HW131757   3.051   2.234   3.766
10286SOL    HW231758   3.153   2.110   3.797
10287SOL     OW31759   3.179   6.050   1.945
10287SOL    HW131760   3.243   6.090   1.878
10287SOL    HW231761   3.214   5.962   1.976
10288SOL     OW31762   4.794   5.637   3.176
10288SOL    HW131763   4.780   5.654   3.078
10288SOL    HW231764   4.722   5.576   3.210
10289SOL     OW31765   2.645   6.311   6.998
10289SOL    HW131766   2.704   6.388   7.022
10289SOL    HW231767   2.549   6.340   7.000
10290SOL     OW31768   2.935   3.784   2.802
10290SOL    HW131769   2.954   3.710   2.866
10290SOL    HW231770   2.965   3.757   2.710
10291SOL     OW31771   4.050   1.326   2.531
10291SOL    HW131772   4.005   1.383   2.462
10291SOL    HW231773   4.147   1.317   2.508
10292SOL     OW31774   1.615   2.164   5.387
10292SOL    HW131775   1.591   2.238   5.324
10292SOL    HW231776   1.537   2.102   5.398
10293SOL     OW31777   1.822   3.468   2.487
10293SOL    HW131778   1.771   3.385   2.505
10293SOL    HW231779   1.915   3.445   2.458
10294SOL     OW31780   5.097   2.603   3.321
10294SOL    HW131781   5.169   2.672   3.308
10294SOL    HW231782   5.073   2.599   3.418
10295SOL     OW31783   0.336   3.493   5.814
10295SOL    HW131784   0.304   3.529   5.902
10295SOL    HW231785   0.339   3.567   5.747
10296SOL     OW31786   5.055   1.721   6.628
10296SOL    HW131787   5.014   1.808   6.654
10296SOL    HW231788   5.011   1.647   6.678
10297SOL     OW31789   1.927   0.765   6.466
10297SOL    HW131790   1.999   0.713   6.420
10297SOL    HW231791   1.851   0.704   6.488
10298SOL     OW31792   2.636   4.350   0.897
10298SOL    HW131793   2.681   4.409   0.829
10298SOL    HW231794   2.549   4.318   0.859
10299SOL     OW31795   4.689   4.872   3.292
10299SOL    HW131796   4.733   4.783   3.309
10299SOL    HW231797   4.589   4.861   3.297
10300SOL     OW31798   0.959   3.872   2.334
10300SOL    HW131799   0.987   3.797   2.275
10300SOL    HW231800   0.869   3.852   2.373
10301SOL     OW31801   5.253   2.056   4.062
10301SOL    HW131802   5.248   2.087   4.157
10301SOL    HW231803   5.218   2.127   4.001
10302SOL     OW31804   2.281   6.364   4.771
10302SOL    HW131805   2.237   6.382   4.859
10302SOL    HW231806   2.289   6.266   4.757
10303SOL     OW31807   1.386   5.699   2.785
10303SOL    HW131808   1.324   5.702   2.707
10303SOL    HW231809   1.431   5.610   2.789
10304SOL     OW31810   5.383   0.020   1.510
10304SOL    HW131811   5.320   6.991   1.567
10304SOL    HW231812   5.476   7.012   1.527
10305SOL     OW31813   1.397   4.399   6.383
10305SOL    HW131814   1.446   4.322   6.424
10305SOL    HW231815   1.318   4.364   6.332
10306SOL     OW31816   4.921   5.698   0.164
10306SOL    HW131817   4.852   5.771   0.155
10306SOL    HW231818   4.971   5.689   0.077
10307SOL     OW31819   2.880   2.339   5.306
10307SOL    HW131820   2.838   2.424   5.337
10307SOL    HW231821   2.970   2.358   5.267
10308SOL     OW31822   1.623   3.959   3.057
10308SOL    HW131823   1.702   3.931   3.003
10308SOL    HW231824   1.547   3.896   3.040
10309SOL     OW31825   6.679   1.836   6.819
10309SOL    HW131826   6.717   1.903   6.756
10309SOL    HW231827   6.608   1.783   6.773
10310SOL     OW31828   3.246   3.744   0.740
10310SOL    HW131829   3.257   3.701   0.830
10310SOL    HW231830   3.322   3.807   0.725
10311SOL     OW31831   6.709   5.877   0.591
10311SOL    HW131832   6.625   5.851   0.638
10311SOL    HW231833   6.731   5.807   0.522
10312SOL     OW31834   3.571   5.241   2.740
10312SOL    HW131835   3.472   5.248   2.754
10312SOL    HW231836   3.592   5.151   2.703
10313SOL     OW31837   4.671   6.587   2.292
10313SOL    HW131838   4.754   6.532   2.285
10313SOL    HW231839   4.659   6.642   2.209
10314SOL     OW31840   6.427   0.558   1.638
10314SOL    HW131841   6.416   0.462   1.611
10314SOL    HW231842   6.348   0.610   1.605
10315SOL     OW31843   5.149   5.306   5.052
10315SOL    HW131844   5.152   5.354   5.140
10315SOL    HW231845   5.212   5.350   4.988
10316SOL     OW31846   5.665   1.190   5.332
10316SOL    HW131847   5.591   1.234   5.281
10316SOL    HW231848   5.628   1.145   5.413
10317SOL     OW31849   4.905   5.739   5.516
10317SOL    HW131850   4.836   5.774   5.452
10317SOL    HW231851   4.940   5.651   5.483
10318SOL     OW31852   5.571   6.807   6.182
10318SOL    HW131853   5.564   6.780   6.085
10318SOL    HW231854   5.533   6.734   6.239
10319SOL     OW31855   1.104   2.490   5.291
10319SOL    HW131856   1.072   2.409   5.341
10319SOL    HW231857   1.153   2.461   5.209
10320SOL     OW31858   0.395   0.483   2.247
10320SOL    HW131859   0.417   0.540   2.168
10320SOL    HW231860   0.458   0.406   2.252
10321SOL     OW31861   3.623   1.956   1.946
10321SOL    HW131862   3.604   2.052   1.969
10321SOL    HW231863   3.662   1.910   2.026
10322SOL     OW31864   6.383   5.460   5.547
10322SOL    HW131865   6.328   5.483   5.628
10322SOL    HW231866   6.355   5.371   5.511
10323SOL     OW31867   5.850   3.671   5.386
10323SOL    HW131868   5.946   3.692   5.399
10323SOL    HW231869   5.827   3.586   5.433
10324SOL     OW31870   3.191   3.297   2.046
10324SOL    HW131871   3.125   3.299   1.971
10324SOL    HW231872   3.215   3.202   2.066
10325SOL     OW31873   6.583   4.001   2.452
10325SOL    HW131874   6.563   3.959   2.541
10325SOL    HW231875   6.586   3.930   2.382
10326SOL     OW31876   3.618   5.284   0.708
10326SOL    HW131877   3.695   5.333   0.667
10326SOL    HW231878   3.608   5.312   0.804
10327SOL     OW31879   2.173   1.502   1.189
10327SOL    HW131880   2.157   1.435   1.116
10327SOL    HW231881   2.086   1.543   1.216
10328SOL     OW31882   6.370   2.110   1.097
10328SOL    HW131883   6.460   2.124   1.058
10328SOL    HW231884   6.309   2.186   1.071
10329SOL     OW31885   3.772   0.612   3.751
10329SOL    HW131886   3.760   0.622   3.850
10329SOL    HW231887   3.723   0.531   3.720
10330SOL     OW31888   4.889   0.791   2.268
10330SOL    HW131889   4.981   0.754   2.256
10330SOL    HW231890   4.823   0.717   2.274
10331SOL     OW31891   6.503   0.609   5.902
10331SOL    HW131892   6.515   0.663   5.986
10331SOL    HW231893   6.583   0.550   5.889
10332SOL     OW31894   6.944   6.901   1.392
10332SOL    HW131895   7.006   6.980   1.393
10332SOL    HW231896   6.899   6.895   1.304
10333SOL     OW31897   6.600   4.756   4.684
10333SOL    HW131898   6.563   4.710   4.765
10333SOL    HW231899   6.538   4.742   4.606
10334SOL     OW31900   3.574   0.316   3.745
10334SOL    HW131901   3.592   0.376   3.823
10334SOL    HW231902   3.603   0.223   3.768
10335SOL     OW31903   2.950   4.345   6.716
10335SOL    HW131904   2.910   4.276   6.655
10335SOL    HW231905   2.878   4.405   6.750
10336SOL     OW31906   6.682   0.179   1.906
10336SOL    HW131907   6.727   0.147   1.989
10336SOL    HW231908   6.720   0.268   1.880
10337SOL     OW31909   0.223   6.623   5.909
10337SOL    HW131910   0.185   6.706   5.870
10337SOL    HW231911   0.219   6.549   5.842
10338SOL     OW31912   2.353   6.524   2.928
10338SOL    HW131913   2.309   6.469   2.999
10338SOL    HW231914   2.425   6.471   2.884
10339SOL     OW31915   3.527   4.462   6.936
10339SOL    HW131916   3.427   4.459   6.934
10339SOL    HW231917   3.564   4.418   6.855
10340SOL     OW31918   1.842   4.080   1.299
10340SOL    HW131919   1.910   4.150   1.277
10340SOL    HW231920   1.844   4.063   1.398
10341SOL     OW31921   2.143   3.017   2.160
10341SOL    HW131922   2.234   3.032   2.199
10341SOL    HW231923   2.152   2.964   2.076
10342SOL     OW31924   0.989   0.353   5.193
10342SOL    HW131925   0.914   0.416   5.174
10342SOL    HW231926   1.076   0.397   5.167
10343SOL     OW31927   3.455   6.041   7.021
10343SOL    HW131928   3.510   5.958   0.005
10343SOL    HW231929   3.470   6.083   6.931
10344SOL     OW31930   4.367   3.972   1.497
10344SOL    HW131931   4.466   3.980   1.484
10344SOL    HW231932   4.320   4.015   1.420
10345SOL     OW31933   1.613   1.446   6.675
10345SOL    HW131934   1.648   1.514   6.739
10345SOL    HW231935   1.589   1.363   6.725
10346SOL     OW31936   6.667   5.949   1.772
10346SOL    HW131937   6.766   5.939   1.757
10346SOL    HW231938   6.623   5.860   1.767
10347SOL     OW31939   4.811   1.974   3.417
10347SOL    HW131940   4.879   1.943   3.484
10347SOL    HW231941   4.720   1.947   3.447
10348SOL     OW31942   6.318   1.805   0.360
10348SOL    HW131943   6.253   1.808   0.283
10348SOL    HW231944   6.279   1.855   0.438
10349SOL     OW31945   0.756   0.428   0.829
10349SOL    HW131946   0.817   0.445   0.906
10349SOL    HW231947   0.697   0.508   0.815
10350SOL     OW31948   1.904   6.943   5.270
10350SOL    HW131949   1.962   7.014   5.228
10350SOL    HW231950   1.862   6.888   5.199
10351SOL     OW31951   4.303   4.987   6.301
10351SOL    HW131952   4.259   5.001   6.390
10351SOL    HW231953   4.233   4.983   6.230
10352SOL     OW31954   3.956   1.813   6.110
10352SOL    HW131955   4.008   1.762   6.043
10352SOL    HW231956   4.014   1.832   6.190
10353SOL     OW31957   6.707   2.516   5.737
10353SOL    HW131958   6.790   2.461   5.726
10353SOL    HW231959   6.696   2.575   5.657
10354SOL     OW31960   5.725   2.365   2.125
10354SOL    HW131961   5.692   2.275   2.098
10354SOL    HW231962   5.756   2.415   2.044
10355SOL     OW31963   1.955   0.083   2.352
10355SOL    HW131964   1.943   0.070   2.450
10355SOL    HW231965   1.924   0.174   2.326
10356SOL     OW31966   0.654   4.402   6.265
10356SOL    HW131967   0.602   4.325   6.228
10356SOL    HW231968   0.686   4.380   6.357
10357SOL     OW31969   1.723   3.588   6.079
10357SOL    HW131970   1.759   3.507   6.033
10357SOL    HW231971   1.658   3.634   6.019
10358SOL     OW31972   6.058   2.663   3.232
10358SOL    HW131973   6.004   2.734   3.187
10358SOL    HW231974   6.058   2.581   3.176
10359SOL     OW31975   0.393   1.639   1.453
10359SOL    HW131976   0.437   1.709   1.397
10359SOL    HW231977   0.333   1.583   1.396
10360SOL     OW31978   5.062   5.670   3.240
10360SOL    HW131979   4.967   5.653   3.212
10360SOL    HW231980   5.063   5.724   3.323
10361SOL     OW31981   3.034   0.248   3.342
10361SOL    HW131982   3.124   0.292   3.340
10361SOL    HW231983   2.984   0.279   3.423
10362SOL     OW31984   0.289   4.953   4.803
10362SOL    HW131985   0.257   5.048   4.810
10362SOL    HW231986   0.218   4.891   4.838
10363SOL     OW31987   5.046   1.448   1.684
10363SOL    HW131988   5.126   1.507   1.670
10363SOL    HW231989   5.072   1.373   1.746
10364SOL     OW31990   3.474   3.548   1.524
10364SOL    HW131991   3.418   3.477   1.484
10364SOL    HW231992   3.483   3.533   1.623
10365SOL     OW31993   4.718   4.477   6.171
10365SOL    HW131994   4.707   4.379   6.155
10365SOL    HW231995   4.734   4.494   6.269
10366SOL     OW31996   3.836   0.145   4.325
10366SOL    HW131997   3.749   0.098   4.311
10366SOL    HW231998   3.818   0.237   4.359
10367SOL     OW31999   6.264   1.754   2.657
10367SOL    HW132000   6.357   1.717   2.650
10367SOL    HW232001   6.211   1.722   2.578
10368SOL     OW32002   1.802   1.272   1.710
10368SOL    HW132003   1.718   1.313   1.745
10368SOL    HW232004   1.813   1.297   1.613
10369SOL     OW32005   3.729   1.425   5.307
10369SOL    HW132006   3.748   1.502   5.248
10369SOL    HW232007   3.684   1.353   5.254
10370SOL     OW32008   5.498   1.673   5.296
10370SOL    HW132009   5.468   1.721   5.378
10370SOL    HW232010   5.548   1.736   5.237
10371SOL     OW32011   2.765   6.023   4.677
10371SOL    HW132012   2.752   6.074   4.762
10371SOL    HW232013   2.820   5.941   4.696
10372SOL     OW32014   1.041   1.534   0.147
10372SOL    HW132015   1.132   1.569   0.126
10372SOL    HW232016   1.009   1.476   0.072
10373SOL     OW32017   2.251   6.100   4.807
10373SOL    HW132018   2.206   6.039   4.742
10373SOL    HW232019   2.290   6.047   4.882
10374SOL     OW32020   3.939   1.046   2.602
10374SOL    HW132021   3.959   1.124   2.543
10374SOL    HW232022   3.887   1.077   2.682
10375SOL     OW32023   2.844   1.878   6.064
10375SOL    HW132024   2.886   1.933   6.136
10375SOL    HW232025   2.816   1.938   5.989
10376SOL     OW32026   1.559   6.287   4.291
10376SOL    HW132027   1.508   6.366   4.327
10376SOL    HW232028   1.604   6.313   4.206
10377SOL     OW32029   0.118   0.501   3.983
10377SOL    HW132030   0.135   0.595   4.011
10377SOL    HW232031   0.121   0.441   4.064
10378SOL     OW32032   6.670   6.898   6.132
10378SOL    HW132033   6.766   6.923   6.148
10378SOL    HW232034   6.664   6.799   6.117
10379SOL     OW32035   3.391   6.413   4.814
10379SOL    HW132036   3.334   6.495   4.818
10379SOL    HW232037   3.441   6.411   4.728
10380SOL     OW32038   0.247   1.243   4.084
10380SOL    HW132039   0.229   1.341   4.075
10380SOL    HW232040   0.316   1.215   4.018
10381SOL     OW32041   4.491   5.989   6.500
10381SOL    HW132042   4.459   5.910   6.448
10381SOL    HW232043   4.500   6.067   6.437
10382SOL     OW32044   2.095   4.663   0.416
10382SOL    HW132045   2.183   4.667   0.370
10382SOL    HW232046   2.048   4.578   0.392
10383SOL     OW32047   0.511   3.737   0.445
10383SOL    HW132048   0.571   3.814   0.464
10383SOL    HW232049   0.564   3.661   0.406
10384SOL     OW32050   1.112   0.379   1.190
10384SOL    HW132051   1.106   0.316   1.267
10384SOL    HW232052   1.025   0.379   1.140
10385SOL     OW32053   3.768   7.014   6.636
10385SOL    HW132054   3.695   0.050   6.670
10385SOL    HW232055   3.829   0.043   6.577
10386SOL     OW32056   6.044   3.389   5.202
10386SOL    HW132057   6.141   3.365   5.189
10386SOL    HW232058   5.989   3.306   5.204
10387SOL     OW32059   4.059   2.189   2.267
10387SOL    HW132060   4.039   2.133   2.348
10387SOL    HW232061   3.990   2.172   2.197
10388SOL     OW32062   1.658   5.843   2.956
10388SOL    HW132063   1.658   5.859   2.857
10388SOL    HW232064   1.623   5.752   2.976
10389SOL     OW32065   0.762   6.988   1.454
10389SOL    HW132066   0.676   6.945   1.481
10389SOL    HW232067   0.745   0.058   1.421
10390SOL     OW32068   1.647   3.393   1.771
10390SOL    HW132069   1.557   3.429   1.793
10390SOL    HW232070   1.717   3.458   1.799
10391SOL     OW32071   1.575   5.908   5.092
10391SOL    HW132072   1.506   5.890   5.022
10391SOL    HW232073   1.536   5.970   5.161
10392SOL     OW32074   6.675   4.168   0.414
10392SOL    HW132075   6.612   4.215   0.476
10392SOL    HW232076   6.670   4.210   0.323
10393SOL     OW32077   2.245   2.343   2.846
10393SOL    HW132078   2.319   2.409   2.831
10393SOL    HW232079   2.271   2.280   2.919
10394SOL     OW32080   2.690   6.680   5.591
10394SOL    HW132081   2.679   6.717   5.499
10394SOL    HW232082   2.686   6.755   5.658
10395SOL     OW32083   6.333   0.317   3.753
10395SOL    HW132084   6.393   0.240   3.732
10395SOL    HW232085   6.332   0.334   3.851
10396SOL     OW32086   2.304   0.498   4.661
10396SOL    HW132087   2.298   0.462   4.568
10396SOL    HW232088   2.365   0.441   4.716
10397SOL     OW32089   3.098   2.144   3.228
10397SOL    HW132090   3.104   2.050   3.260
10397SOL    HW232091   3.143   2.153   3.139
10398SOL     OW32092   5.730   2.955   0.814
10398SOL    HW132093   5.643   3.003   0.810
10398SOL    HW232094   5.769   2.963   0.906
10399SOL     OW32095   4.274   1.810   4.602
10399SOL    HW132096   4.372   1.791   4.595
10399SOL    HW232097   4.247   1.812   4.698
10400SOL     OW32098   3.606   5.755   2.031
10400SOL    HW132099   3.642   5.848   2.027
10400SOL    HW232100   3.659   5.696   1.969
10401SOL     OW32101   6.909   0.433   2.361
10401SOL    HW132102   6.818   0.410   2.326
10401SOL    HW232103   6.924   0.387   2.449
10402SOL     OW32104   0.267   2.676   5.110
10402SOL    HW132105   0.240   2.763   5.152
10402SOL    HW232106   0.310   2.618   5.179
10403SOL     OW32107   5.183   1.545   2.404
10403SOL    HW132108   5.141   1.604   2.334
10403SOL    HW232109   5.222   1.464   2.361
10404SOL     OW32110   0.804   6.530   3.408
10404SOL    HW132111   0.755   6.572   3.485
10404SOL    HW232112   0.789   6.431   3.409
10405SOL     OW32113   1.153   5.563   4.649
10405SOL    HW132114   1.065   5.603   4.623
10405SOL    HW232115   1.226   5.606   4.595
10406SOL     OW32116   2.104   3.787   5.019
10406SOL    HW132117   2.171   3.858   4.998
10406SOL    HW232118   2.140   3.725   5.089
10407SOL     OW32119   1.671   0.674   6.549
10407SOL    HW132120   1.719   0.659   6.635
10407SOL    HW232121   1.603   0.746   6.560
10408SOL     OW32122   4.080   6.067   2.425
10408SOL    HW132123   4.097   6.054   2.327
10408SOL    HW232124   4.092   5.980   2.473
10409SOL     OW32125   0.868   4.369   0.816
10409SOL    HW132126   0.936   4.331   0.754
10409SOL    HW232127   0.842   4.301   0.884
10410SOL     OW32128   5.414   1.684   1.432
10410SOL    HW132129   5.507   1.678   1.395
10410SOL    HW232130   5.393   1.778   1.456
10411SOL     OW32131   3.467   5.278   3.857
10411SOL    HW132132   3.401   5.252   3.927
10411SOL    HW232133   3.495   5.373   3.871
10412SOL     OW32134   0.383   1.363   0.468
10412SOL    HW132135   0.415   1.440   0.524
10412SOL    HW232136   0.462   1.314   0.432
10413SOL     OW32137   0.333   1.999   0.709
10413SOL    HW132138   0.334   2.091   0.669
10413SOL    HW232139   0.331   1.932   0.635
10414SOL     OW32140   4.913   6.155   5.721
10414SOL    HW132141   4.894   6.221   5.647
10414SOL    HW232142   4.851   6.172   5.797
10415SOL     OW32143   2.135   5.090   3.996
10415SOL    HW132144   2.084   5.061   3.915
10415SOL    HW232145   2.085   5.062   4.078
10416SOL     OW32146   0.020   1.398   5.752
10416SOL    HW132147   6.953   1.382   5.712
10416SOL    HW232148   0.028   1.347   5.838
10417SOL     OW32149   4.665   4.394   4.071
10417SOL    HW132150   4.706   4.485   4.069
10417SOL    HW232151   4.736   4.325   4.050
10418SOL     OW32152   6.468   4.406   5.380
10418SOL    HW132153   6.463   4.404   5.280
10418SOL    HW232154   6.380   4.378   5.418
10419SOL     OW32155   2.940   0.490   5.615
10419SOL    HW132156   3.027   0.440   5.616
10419SOL    HW232157   2.925   0.530   5.525
10420SOL     OW32158   0.157   3.567   3.453
10420SOL    HW132159   0.097   3.603   3.525
10420SOL    HW232160   0.242   3.536   3.494
10421SOL     OW32161   1.229   3.280   3.989
10421SOL    HW132162   1.139   3.293   4.032
10421SOL    HW232163   1.257   3.366   3.946
10422SOL     OW32164   6.717   4.060   5.938
10422SOL    HW132165   6.618   4.076   5.930
10422SOL    HW232166   6.734   3.961   5.944
10423SOL     OW32167   4.036   4.914   4.911
10423SOL    HW132168   4.092   4.911   4.828
10423SOL    HW232169   4.003   4.822   4.932
10424SOL     OW32170   4.856   2.163   6.957
10424SOL    HW132171   4.816   2.183   0.024
10424SOL    HW232172   4.834   2.237   6.894
10425SOL     OW32173   0.810   6.514   1.440
10425SOL    HW132174   0.903   6.492   1.412
10425SOL    HW232175   0.761   6.429   1.461
10426SOL     OW32176   5.060   3.515   5.608
10426SOL    HW132177   5.059   3.529   5.707
10426SOL    HW232178   5.027   3.423   5.588
10427SOL     OW32179   5.364   5.830   5.648
10427SOL    HW132180   5.353   5.876   5.560
10427SOL    HW232181   5.279   5.835   5.700
10428SOL     OW32182   1.273   1.736   3.929
10428SOL    HW132183   1.285   1.834   3.914
10428SOL    HW232184   1.329   1.685   3.864
10429SOL     OW32185   1.530   3.668   2.898
10429SOL    HW132186   1.480   3.713   2.825
10429SOL    HW232187   1.628   3.670   2.878
10430SOL     OW32188   3.442   6.070   4.328
10430SOL    HW132189   3.489   6.029   4.250
10430SOL    HW232190   3.343   6.063   4.314
10431SOL     OW32191   2.810   0.686   3.959
10431SOL    HW132192   2.710   0.688   3.969
10431SOL    HW232193   2.852   0.703   4.048
10432SOL     OW32194   0.607   0.841   5.326
10432SOL    HW132195   0.680   0.832   5.394
10432SOL    HW232196   0.646   0.830   5.234
10433SOL     OW32197   0.724   6.264   1.467
10433SOL    HW132198   0.674   6.183   1.500
10433SOL    HW232199   0.772   6.242   1.382
10434SOL     OW32200   4.898   6.419   4.570
10434SOL    HW132201   4.954   6.493   4.532
10434SOL    HW232202   4.912   6.336   4.518
10435SOL     OW32203   1.452   1.853   6.154
10435SOL    HW132204   1.405   1.941   6.167
10435SOL    HW232205   1.441   1.824   6.059
10436SOL     OW32206   6.122   3.471   4.149
10436SOL    HW132207   6.211   3.518   4.156
10436SOL    HW232208   6.136   3.379   4.114
10437SOL     OW32209   5.425   5.088   5.255
10437SOL    HW132210   5.350   5.121   5.313
10437SOL    HW232211   5.436   4.990   5.266
10438SOL     OW32212   0.305   6.429   5.747
10438SOL    HW132213   0.294   6.350   5.808
10438SOL    HW232214   0.301   6.399   5.652
10439SOL     OW32215   5.893   0.723   4.470
10439SOL    HW132216   5.812   0.768   4.432
10439SOL    HW232217   5.864   0.647   4.528
10440SOL     OW32218   0.009   0.544   0.008
10440SOL    HW132219   6.944   0.589   0.000
10440SOL    HW232220   0.011   0.465   6.970
10441SOL     OW32221   2.880   1.440   0.847
10441SOL    HW132222   2.822   1.460   0.926
10441SOL    HW232223   2.974   1.424   0.878
10442SOL     OW32224   3.866   0.946   5.000
10442SOL    HW132225   3.899   1.012   5.067
10442SOL    HW232226   3.938   0.880   4.980
10443SOL     OW32227   6.726   2.223   2.926
10443SOL    HW132228   6.657   2.280   2.971
10443SOL    HW232229   6.766   2.160   2.993
10444SOL     OW32230   3.209   4.889   3.043
10444SOL    HW132231   3.221   4.828   3.121
10444SOL    HW232232   3.279   4.960   3.046
10445SOL     OW32233   0.430   3.652   2.396
10445SOL    HW132234   0.365   3.724   2.372
10445SOL    HW232235   0.380   3.571   2.428
10446SOL     OW32236   1.798   4.570   6.073
10446SOL    HW132237   1.858   4.501   6.114
10446SOL    HW232238   1.722   4.590   6.135
10447SOL     OW32239   6.302   0.839   1.901
10447SOL    HW132240   6.360   0.765   1.936
10447SOL    HW232241   6.301   0.836   1.801
10448SOL     OW32242   3.207   0.672   3.295
10448SOL    HW132243   3.304   0.647   3.292
10448SOL    HW232244   3.156   0.618   3.229
10449SOL     OW32245   3.569   5.669   6.807
10449SOL    HW132246   3.650   5.698   6.858
10449SOL    HW232247   3.556   5.570   6.819
10450SOL     OW32248   6.554   0.683   6.207
10450SOL    HW132249   6.486   0.670   6.280
10450SOL    HW232250   6.550   0.777   6.175
10451SOL     OW32251   3.058   0.523   3.085
10451SOL    HW132252   2.959   0.506   3.083
10451SOL    HW232253   3.107   0.439   3.061
10452SOL     OW32254   0.007   2.424   2.902
10452SOL    HW132255   6.990   2.412   2.812
10452SOL    HW232256   0.021   2.521   2.920
10453SOL     OW32257   4.616   6.043   2.904
10453SOL    HW132258   4.601   5.987   2.822
10453SOL    HW232259   4.535   6.038   2.962
10454SOL     OW32260   6.205   1.201   0.336
10454SOL    HW132261   6.261   1.274   0.297
10454SOL    HW232262   6.115   1.203   0.292
10455SOL     OW32263   6.530   5.972   4.197
10455SOL    HW132264   6.592   6.003   4.270
10455SOL    HW232265   6.435   5.983   4.227
10456SOL     OW32266   0.112   5.641   0.267
10456SOL    HW132267   0.046   5.574   0.299
10456SOL    HW232268   0.160   5.681   0.345
10457SOL     OW32269   4.319   3.452   7.010
10457SOL    HW132270   4.348   3.433   6.916
10457SOL    HW232271   4.398   3.479   0.041
10458SOL     OW32272   6.577   0.445   6.388
10458SOL    HW132273   6.583   0.521   6.324
10458SOL    HW232274   6.488   0.400   6.380
10459SOL     OW32275   5.741   5.168   0.624
10459SOL    HW132276   5.646   5.138   0.635
10459SOL    HW232277   5.785   5.114   0.552
10460SOL     OW32278   0.060   3.806   1.771
10460SOL    HW132279   0.098   3.780   1.860
10460SOL    HW232280   6.985   3.822   1.780
10461SOL     OW32281   6.457   4.504   5.634
10461SOL    HW132282   6.492   4.461   5.551
10461SOL    HW232283   6.365   4.472   5.652
10462SOL     OW32284   4.545   1.744   2.247
10462SOL    HW132285   4.511   1.683   2.318
10462SOL    HW232286   4.583   1.691   2.172
10463SOL     OW32287   4.752   1.674   6.215
10463SOL    HW132288   4.813   1.677   6.136
10463SOL    HW232289   4.675   1.613   6.196
10464SOL     OW32290   5.651   5.700   1.991
10464SOL    HW132291   5.657   5.628   2.060
10464SOL    HW232292   5.737   5.705   1.940
10465SOL     OW32293   5.022   4.861   2.668
10465SOL    HW132294   4.992   4.771   2.636
10465SOL    HW232295   5.086   4.849   2.744
10466SOL     OW32296   4.702   4.357   6.646
10466SOL    HW132297   4.607   4.351   6.675
10466SOL    HW232298   4.761   4.321   6.719
10467SOL     OW32299   1.632   2.795   0.186
10467SOL    HW132300   1.565   2.845   0.131
10467SOL    HW232301   1.607   2.800   0.282
10468SOL     OW32302   3.737   4.888   3.216
10468SOL    HW132303   3.640   4.911   3.227
10468SOL    HW232304   3.779   4.874   3.306
10469SOL     OW32305   4.612   4.252   6.091
10469SOL    HW132306   4.612   4.201   6.178
10469SOL    HW232307   4.535   4.222   6.035
10470SOL     OW32308   2.480   1.686   3.446
10470SOL    HW132309   2.503   1.639   3.531
10470SOL    HW232310   2.535   1.650   3.372
10471SOL     OW32311   3.204   0.426   0.325
10471SOL    HW132312   3.106   0.410   0.318
10471SOL    HW232313   3.245   0.416   0.234
10472SOL     OW32314   2.684   5.425   1.364
10472SOL    HW132315   2.749   5.492   1.399
10472SOL    HW232316   2.680   5.347   1.427
10473SOL     OW32317   5.936   6.484   5.603
10473SOL    HW132318   6.025   6.529   5.602
10473SOL    HW232319   5.877   6.526   5.534
10474SOL     OW32320   4.748   1.266   3.673
10474SOL    HW132321   4.663   1.317   3.663
10474SOL    HW232322   4.744   1.208   3.753
10475SOL     OW32323   2.851   6.862   1.825
10475SOL    HW132324   2.810   6.802   1.893
10475SOL    HW232325   2.950   6.849   1.824
10476SOL     OW32326   4.989   6.394   6.192
10476SOL    HW132327   4.918   6.409   6.262
10476SOL    HW232328   5.064   6.459   6.206
10477SOL     OW32329   0.153   0.488   4.765
10477SOL    HW132330   0.150   0.457   4.670
10477SOL    HW232331   0.105   0.576   4.773
10478SOL     OW32332   6.949   6.700   0.214
10478SOL    HW132333   6.933   6.621   0.273
10478SOL    HW232334   6.864   6.753   0.206
10479SOL     OW32335   6.469   1.657   2.108
10479SOL    HW132336   6.502   1.663   2.014
10479SOL    HW232337   6.372   1.680   2.111
10480SOL     OW32338   1.492   0.469   1.843
10480SOL    HW132339   1.468   0.522   1.762
10480SOL    HW232340   1.589   0.444   1.840
10481SOL     OW32341   2.161   5.841   2.850
10481SOL    HW132342   2.120   5.829   2.940
10481SOL    HW232343   2.098   5.892   2.791
10482SOL     OW32344   6.310   5.290   4.661
10482SOL    HW132345   6.377   5.333   4.601
10482SOL    HW232346   6.249   5.232   4.606
10483SOL     OW32347   5.329   5.729   0.544
10483SOL    HW132348   5.231   5.745   0.560
10483SOL    HW232349   5.353   5.764   0.453
10484SOL     OW32350   4.301   1.897   1.559
10484SOL    HW132351   4.274   1.836   1.485
10484SOL    HW232352   4.221   1.950   1.588
10485SOL     OW32353   3.373   4.764   0.027
10485SOL    HW132354   3.417   4.719   0.106
10485SOL    HW232355   3.318   4.697   7.001
10486SOL     OW32356   6.974   1.136   0.273
10486SOL    HW132357   0.015   1.060   0.264
10486SOL    HW232358   6.925   1.149   0.187
10487SOL     OW32359   4.992   6.500   2.318
10487SOL    HW132360   5.022   6.411   2.352
10487SOL    HW232361   4.964   6.557   2.395
10488SOL     OW32362   2.955   2.183   6.133
10488SOL    HW132363   2.957   2.191   6.033
10488SOL    HW232364   3.018   2.249   6.173
10489SOL     OW32365   0.522   6.663   5.136
10489SOL    HW132366   0.496   6.568   5.118
10489SOL    HW232367   0.585   6.667   5.214
10490SOL     OW32368   6.130   1.374   1.913
10490SOL    HW132369   6.078   1.368   1.828
10490SOL    HW232370   6.185   1.292   1.925
10491SOL     OW32371   1.424   3.307   0.030
10491SOL    HW132372   1.380   3.233   0.080
10491SOL    HW232373   1.445   3.382   0.093
10492SOL     OW32374   5.842   3.956   6.255
10492SOL    HW132375   5.852   3.959   6.155
10492SOL    HW232376   5.746   3.968   6.280
10493SOL     OW32377   3.160   1.068   1.271
10493SOL    HW132378   3.091   1.115   1.327
10493SOL    HW232379   3.228   1.134   1.239
10494SOL     OW32380   4.441   3.502   5.731
10494SOL    HW132381   4.407   3.562   5.658
10494SOL    HW232382   4.523   3.541   5.771
10495SOL     OW32383   1.995   6.676   0.433
10495SOL    HW132384   2.092   6.675   0.409
10495SOL    HW232385   1.977   6.605   0.500
10496SOL     OW32386   0.326   5.424   0.504
10496SOL    HW132387   0.421   5.398   0.490
10496SOL    HW232388   0.281   5.356   0.563
10497SOL     OW32389   2.521   0.269   2.447
10497SOL    HW132390   2.436   0.226   2.417
10497SOL    HW232391   2.534   0.254   2.545
10498SOL     OW32392   3.573   6.516   1.503
10498SOL    HW132393   3.507   6.450   1.467
10498SOL    HW232394   3.565   6.520   1.603
10499SOL     OW32395   3.570   6.763   2.748
10499SOL    HW132396   3.497   6.700   2.723
10499SOL    HW232397   3.530   6.850   2.778
10500SOL     OW32398   0.235   0.501   6.672
10500SOL    HW132399   0.157   0.506   6.609
10500SOL    HW232400   0.261   0.594   6.701
10501SOL     OW32401   1.874   5.035   3.464
10501SOL    HW132402   1.912   5.113   3.514
10501SOL    HW232403   1.937   5.009   3.391
10502SOL     OW32404   2.808   0.684   0.781
10502SOL    HW132405   2.903   0.679   0.814
10502SOL    HW232406   2.792   0.774   0.739
10503SOL     OW32407   4.289   3.150   6.922
10503SOL    HW132408   4.215   3.121   6.984
10503SOL    HW232409   4.250   3.203   6.847
10504SOL     OW32410   2.191   2.084   0.070
10504SOL    HW132411   2.092   2.098   0.063
10504SOL    HW232412   2.221   2.023   7.020
10505SOL     OW32413   5.766   5.684   0.613
10505SOL    HW132414   5.800   5.674   0.707
10505SOL    HW232415   5.686   5.745   0.613
10506SOL     OW32416   0.049   5.149   6.558
10506SOL    HW132417   0.078   5.069   6.504
10506SOL    HW232418   0.108   5.226   6.537
10507SOL     OW32419   2.474   6.932   6.917
10507SOL    HW132420   2.530   6.905   6.996
10507SOL    HW232421   2.425   6.853   6.882
10508SOL     OW32422   6.031   6.120   4.534
10508SOL    HW132423   5.955   6.179   4.507
10508SOL    HW232424   6.114   6.151   4.488
10509SOL     OW32425   1.030   6.078   5.412
10509SOL    HW132426   1.030   5.978   5.411
10509SOL    HW232427   1.003   6.110   5.503
10510SOL     OW32428   5.035   5.745   5.982
10510SOL    HW132429   5.022   5.842   6.002
10510SOL    HW232430   5.007   5.726   5.888
10511SOL     OW32431   4.480   2.139   1.239
10511SOL    HW132432   4.446   2.232   1.250
10511SOL    HW232433   4.408   2.074   1.264
10512SOL     OW32434   3.981   0.325   5.767
10512SOL    HW132435   3.961   0.366   5.856
10512SOL    HW232436   4.067   0.274   5.774
10513SOL     OW32437   6.675   2.494   4.726
10513SOL    HW132438   6.601   2.527   4.667
10513SOL    HW232439   6.646   2.502   4.822
10514SOL     OW32440   6.951   3.801   0.323
10514SOL    HW132441   6.970   3.711   0.361
10514SOL    HW232442   6.870   3.840   0.368
10515SOL     OW32443   6.849   2.724   3.150
10515SOL    HW132444   6.850   2.820   3.122
10515SOL    HW232445   6.860   2.717   3.249
10516SOL     OW32446   4.363   1.176   6.976
10516SOL    HW132447   4.278   1.131   6.950
10516SOL    HW232448   4.441   1.122   6.944
10517SOL     OW32449   0.037   2.019   2.768
10517SOL    HW132450   0.111   1.988   2.707
10517SOL    HW232451   0.058   2.111   2.801
10518SOL     OW32452   0.943   4.950   6.311
10518SOL    HW132453   0.966   4.946   6.214
10518SOL    HW232454   0.929   4.858   6.346
10519SOL     OW32455   2.467   2.503   6.463
10519SOL    HW132456   2.406   2.492   6.542
10519SOL    HW232457   2.451   2.593   6.422
10520SOL     OW32458   1.913   2.664   6.143
10520SOL    HW132459   1.833   2.604   6.133
10520SOL    HW232460   1.997   2.610   6.132
10521SOL     OW32461   5.888   5.671   1.823
10521SOL    HW132462   5.930   5.762   1.831
10521SOL    HW232463   5.950   5.603   1.863
10522SOL     OW32464   5.848   0.654   0.184
10522SOL    HW132465   5.891   0.593   0.117
10522SOL    HW232466   5.906   0.734   0.198
10523SOL     OW32467   0.600   5.469   4.664
10523SOL    HW132468   0.523   5.410   4.640
10523SOL    HW232469   0.575   5.565   4.649
10524SOL     OW32470   2.140   0.876   5.067
10524SOL    HW132471   2.059   0.925   5.035
10524SOL    HW232472   2.179   0.924   5.146
10525SOL     OW32473   3.139   7.012   5.841
10525SOL    HW132474   3.126   0.082   5.807
10525SOL    HW232475   3.050   6.967   5.847
10526SOL     OW32476   0.414   0.131   2.664
10526SOL    HW132477   0.335   0.187   2.638
10526SOL    HW232478   0.452   0.166   2.750
10527SOL     OW32479   6.333   2.419   4.834
10527SOL    HW132480   6.324   2.320   4.846
10527SOL    HW232481   6.245   2.463   4.848
10528SOL     OW32482   0.767   3.181   5.946
10528SOL    HW132483   0.856   3.218   5.919
10528SOL    HW232484   0.694   3.238   5.908
10529SOL     OW32485   2.293   6.179   3.599
10529SOL    HW132486   2.369   6.224   3.646
10529SOL    HW232487   2.283   6.217   3.507
10530SOL     OW32488   2.232   1.354   6.225
10530SOL    HW132489   2.263   1.304   6.145
10530SOL    HW232490   2.176   1.293   6.282
10531SOL     OW32491   1.098   2.701   4.224
10531SOL    HW132492   1.131   2.770   4.288
10531SOL    HW232493   1.176   2.646   4.192
10532SOL     OW32494   2.188   4.286   6.783
10532SOL    HW132495   2.209   4.306   6.879
10532SOL    HW232496   2.138   4.200   6.777
10533SOL     OW32497   3.177   1.448   4.612
10533SOL    HW132498   3.104   1.465   4.545
10533SOL    HW232499   3.147   1.479   4.703
10534SOL     OW32500   6.004   5.379   1.342
10534SOL    HW132501   6.014   5.430   1.256
10534SOL    HW232502   5.953   5.435   1.408
10535SOL     OW32503   0.861   1.544   0.889
10535SOL    HW132504   0.897   1.470   0.946
10535SOL    HW232505   0.863   1.516   0.793
10536SOL     OW32506   3.904   0.696   2.942
10536SOL    HW132507   3.870   0.748   2.864
10536SOL    HW232508   3.865   0.604   2.940
10537SOL     OW32509   3.500   5.198   4.177
10537SOL    HW132510   3.413   5.235   4.146
10537SOL    HW232511   3.559   5.272   4.209
10538SOL     OW32512   4.499   2.669   6.878
10538SOL    HW132513   4.415   2.715   6.905
10538SOL    HW232514   4.572   2.692   6.943
10539SOL     OW32515   0.631   4.204   6.816
10539SOL    HW132516   0.631   4.127   6.880
10539SOL    HW232517   0.538   4.223   6.788
10540SOL     OW32518   1.364   1.934   5.474
10540SOL    HW132519   1.280   1.917   5.422
10540SOL    HW232520   1.431   1.864   5.452
10541SOL     OW32521   3.692   3.684   1.944
10541SOL    HW132522   3.724   3.596   1.979
10541SOL    HW232523   3.593   3.691   1.955
10542SOL     OW32524   6.339   1.939   6.673
10542SOL    HW132525   6.415   2.003   6.683
10542SOL    HW232526   6.255   1.989   6.653
10543SOL     OW32527   6.596   1.375   5.150
10543SOL    HW132528   6.605   1.473   5.134
10543SOL    HW232529   6.637   1.351   5.238
10544SOL     OW32530   1.339   0.003   2.730
10544SOL    HW132531   1.298   6.939   2.755
10544SOL    HW232532   1.389   0.040   2.808
10545SOL     OW32533   5.815   1.455   2.829
10545SOL    HW132534   5.858   1.519   2.893
10545SOL    HW232535   5.716   1.461   2.837
10546SOL     OW32536   0.574   0.800   6.143
10546SOL    HW132537   0.482   0.767   6.121
10546SOL    HW232538   0.599   0.768   6.235
10547SOL     OW32539   4.564   2.432   1.877
10547SOL    HW132540   4.470   2.419   1.845
10547SOL    HW232541   4.615   2.347   1.867
10548SOL     OW32542   4.994   4.162   5.159
10548SOL    HW132543   5.057   4.186   5.085
10548SOL    HW232544   5.045   4.151   5.244
10549SOL     OW32545   6.290   0.210   2.495
10549SOL    HW132546   6.240   0.291   2.462
10549SOL    HW232547   6.339   0.232   2.579
10550SOL     OW32548   4.416   6.582   5.363
10550SOL    HW132549   4.419   6.571   5.462
10550SOL    HW232550   4.505   6.616   5.331
10551SOL     OW32551   1.768   2.701   5.619
10551SOL    HW132552   1.760   2.602   5.610
10551SOL    HW232553   1.859   2.730   5.588
10552SOL     OW32554   4.143   2.310   6.057
10552SOL    HW132555   4.192   2.225   6.040
10552SOL    HW232556   4.085   2.332   5.979
10553SOL     OW32557   1.156   5.000   1.530
10553SOL    HW132558   1.224   4.971   1.462
10553SOL    HW232559   1.112   5.084   1.499
10554SOL     OW32560   4.885   5.161   6.985
10554SOL    HW132561   4.803   5.139   6.933
10554SOL    HW232562   4.923   5.078   0.001
10555SOL     OW32563   2.357   3.499   0.872
10555SOL    HW132564   2.409   3.476   0.954
10555SOL    HW232565   2.402   3.459   0.791
10556SOL     OW32566   2.139   2.307   5.115
10556SOL    HW132567   2.096   2.238   5.173
10556SOL    HW232568   2.073   2.341   5.049
10557SOL     OW32569   1.827   2.170   2.970
10557SOL    HW132570   1.860   2.263   2.987
10557SOL    HW232571   1.860   2.109   3.042
10558SOL     OW32572   4.186   0.566   4.299
10558SOL    HW132573   4.188   0.523   4.390
10558SOL    HW232574   4.107   0.627   4.293
10559SOL     OW32575   4.575   0.869   1.049
10559SOL    HW132576   4.605   0.957   1.014
10559SOL    HW232577   4.508   0.884   1.122
10560SOL     OW32578   2.860   6.831   3.752
10560SOL    HW132579   2.891   6.740   3.723
10560SOL    HW232580   2.895   6.850   3.843
10561SOL     OW32581   2.773   4.485   0.713
10561SOL    HW132582   2.802   4.429   0.636
10561SOL    HW232583   2.841   4.556   0.730
10562SOL     OW32584   5.574   5.911   0.538
10562SOL    HW132585   5.557   5.963   0.454
10562SOL    HW232586   5.510   5.835   0.542
10563SOL     OW32587   0.921   0.503   3.888
10563SOL    HW132588   0.891   0.595   3.864
10563SOL    HW232589   0.963   0.504   3.978
10564SOL     OW32590   5.767   6.439   2.256
10564SOL    HW132591   5.724   6.447   2.167
10564SOL    HW232592   5.824   6.520   2.273
10565SOL     OW32593   0.127   0.848   5.655
10565SOL    HW132594   0.113   0.903   5.573
10565SOL    HW232595   0.124   0.751   5.631
10566SOL     OW32596   4.094   2.773   6.711
10566SOL    HW132597   4.064   2.682   6.685
10566SOL    HW232598   4.016   2.836   6.711
10567SOL     OW32599   2.350   2.128   4.327
10567SOL    HW132600   2.338   2.028   4.327
10567SOL    HW232601   2.406   2.155   4.405
10568SOL     OW32602   5.846   2.214   1.362
10568SOL    HW132603   5.824   2.282   1.292
10568SOL    HW232604   5.927   2.244   1.413
10569SOL     OW32605   6.205   2.463   1.346
10569SOL    HW132606   6.178   2.519   1.424
10569SOL    HW232607   6.128   2.455   1.282
10570SOL     OW32608   1.674   4.730   3.283
10570SOL    HW132609   1.748   4.695   3.226
10570SOL    HW232610   1.610   4.656   3.305
10571SOL     OW32611   0.071   4.482   4.642
10571SOL    HW132612   0.113   4.441   4.723
10571SOL    HW232613   0.067   4.582   4.654
10572SOL     OW32614   6.924   4.191   3.957
10572SOL    HW132615   6.826   4.187   3.936
10572SOL    HW232616   6.945   4.275   4.005
10573SOL     OW32617   4.514   6.286   4.922
10573SOL    HW132618   4.444   6.333   4.869
10573SOL    HW232619   4.556   6.214   4.867
10574SOL     OW32620   1.226   1.342   4.284
10574SOL    HW132621   1.250   1.432   4.320
10574SOL    HW232622   1.165   1.353   4.205
10575SOL     OW32623   0.016   1.170   3.109
10575SOL    HW132624   0.010   1.180   3.209
10575SOL    HW232625   0.109   1.189   3.079
10576SOL     OW32626   0.286   6.324   5.480
10576SOL    HW132627   0.200   6.365   5.452
10576SOL    HW232628   0.340   6.301   5.399
10577SOL     OW32629   1.705   2.466   6.899
10577SOL    HW132630   1.734   2.549   6.853
10577SOL    HW232631   1.613   2.440   6.869
10578SOL     OW32632   6.497   0.528   3.203
10578SOL    HW132633   6.592   0.498   3.206
10578SOL    HW232634   6.438   0.450   3.183
10579SOL     OW32635   3.620   1.550   0.587
10579SOL    HW132636   3.623   1.473   0.651
10579SOL    HW232637   3.525   1.577   0.572
10580SOL     OW32638   6.908   0.524   0.280
10580SOL    HW132639   6.846   0.445   0.281
10580SOL    HW232640   6.933   0.545   0.185
10581SOL     OW32641   6.258   6.726   3.048
10581SOL    HW132642   6.174   6.671   3.045
10581SOL    HW232643   6.337   6.664   3.053
10582SOL     OW32644   4.150   4.996   6.888
10582SOL    HW132645   4.217   4.967   6.819
10582SOL    HW232646   4.059   4.963   6.862
10583SOL     OW32647   3.658   1.179   5.507
10583SOL    HW132648   3.653   1.102   5.443
10583SOL    HW232649   3.576   1.236   5.497
10584SOL     OW32650   6.490   6.706   1.411
10584SOL    HW132651   6.430   6.678   1.486
10584SOL    HW232652   6.454   6.790   1.370
10585SOL     OW32653   1.824   3.208   5.354
10585SOL    HW132654   1.887   3.157   5.296
10585SOL    HW232655   1.820   3.166   5.444
10586SOL     OW32656   0.843   5.633   4.923
10586SOL    HW132657   0.877   5.632   5.017
10586SOL    HW232658   0.828   5.539   4.892
10587SOL     OW32659   6.041   4.191   0.416
10587SOL    HW132660   6.038   4.124   0.491
10587SOL    HW232661   6.076   4.147   0.333
10588SOL     OW32662   0.269   3.861   2.337
10588SOL    HW132663   0.267   3.942   2.396
10588SOL    HW232664   0.267   3.889   2.241
10589SOL     OW32665   6.006   1.478   4.625
10589SOL    HW132666   5.962   1.453   4.539
10589SOL    HW232667   6.040   1.572   4.618
10590SOL     OW32668   1.363   0.280   1.642
10590SOL    HW132669   1.395   0.194   1.683
10590SOL    HW232670   1.313   0.333   1.711
10591SOL     OW32671   1.358   1.453   6.315
10591SOL    HW132672   1.373   1.547   6.346
10591SOL    HW232673   1.293   1.408   6.376
10592SOL     OW32674   6.490   2.597   0.416
10592SOL    HW132675   6.415   2.646   0.459
10592SOL    HW232676   6.551   2.663   0.371
10593SOL     OW32677   2.733   5.420   0.662
10593SOL    HW132678   2.722   5.437   0.564
10593SOL    HW232679   2.689   5.333   0.686
10594SOL     OW32680   5.258   0.830   2.512
10594SOL    HW132681   5.250   0.910   2.572
10594SOL    HW232682   5.187   0.834   2.442
10595SOL     OW32683   3.561   0.362   6.097
10595SOL    HW132684   3.646   0.322   6.065
10595SOL    HW232685   3.573   0.461   6.110
10596SOL     OW32686   5.130   0.084   0.626
10596SOL    HW132687   5.059   0.014   0.634
10596SOL    HW232688   5.144   0.107   0.529
10597SOL     OW32689   3.277   0.918   5.048
10597SOL    HW132690   3.242   0.844   4.989
10597SOL    HW232691   3.274   1.004   4.998
10598SOL     OW32692   2.910   2.796   6.583
10598SOL    HW132693   2.932   2.705   6.548
10598SOL    HW232694   2.853   2.845   6.517
10599SOL     OW32695   4.839   2.387   6.787
10599SOL    HW132696   4.760   2.348   6.739
10599SOL    HW232697   4.873   2.466   6.735
10600SOL     OW32698   1.723   3.063   0.550
10600SOL    HW132699   1.708   3.037   0.455
10600SOL    HW232700   1.702   2.986   0.610
10601SOL     OW32701   1.667   4.981   6.628
10601SOL    HW132702   1.587   5.032   6.594
10601SOL    HW232703   1.748   5.010   6.578
10602SOL     OW32704   5.247   1.605   3.070
10602SOL    HW132705   5.174   1.624   3.135
10602SOL    HW232706   5.296   1.690   3.050
10603SOL     OW32707   2.352   5.707   3.959
10603SOL    HW132708   2.408   5.790   3.953
10603SOL    HW232709   2.404   5.630   3.924
10604SOL     OW32710   6.029   4.133   5.301
10604SOL    HW132711   6.081   4.090   5.227
10604SOL    HW232712   6.015   4.229   5.280
10605SOL     OW32713   1.988   5.013   1.079
10605SOL    HW132714   1.925   4.986   1.006
10605SOL    HW232715   1.944   4.997   1.168
10606SOL     OW32716   6.361   0.357   3.047
10606SOL    HW132717   6.343   0.417   2.969
10606SOL    HW232718   6.450   0.314   3.036
10607SOL     OW32719   3.922   4.054   6.006
10607SOL    HW132720   3.933   4.154   6.007
10607SOL    HW232721   3.884   4.024   6.094
10608SOL     OW32722   5.525   1.784   5.566
10608SOL    HW132723   5.529   1.878   5.533
10608SOL    HW232724   5.560   1.779   5.660
10609SOL     OW32725   3.643   6.695   1.917
10609SOL    HW132726   3.658   6.638   1.998
10609SOL    HW232727   3.590   6.777   1.943
10610SOL     OW32728   0.415   3.616   6.393
10610SOL    HW132729   0.505   3.588   6.357
10610SOL    HW232730   0.378   3.544   6.451
10611SOL     OW32731   4.369   4.021   5.487
10611SOL    HW132732   4.467   4.000   5.486
10611SOL    HW232733   4.340   4.045   5.580
10612SOL     OW32734   2.860   7.007   5.652
10612SOL    HW132735   2.896   7.015   5.745
10612SOL    HW232736   2.907   6.933   5.604
10613SOL     OW32737   6.911   0.632   4.971
10613SOL    HW132738   6.956   0.623   5.059
10613SOL    HW232739   6.881   0.542   4.939
10614SOL     OW32740   6.554   2.096   4.678
10614SOL    HW132741   6.632   2.158   4.677
10614SOL    HW232742   6.493   2.119   4.602
10615SOL     OW32743   3.260   6.002   5.939
10615SOL    HW132744   3.181   5.982   5.997
10615SOL    HW232745   3.229   6.028   5.848
10616SOL     OW32746   2.842   6.467   0.698
10616SOL    HW132747   2.798   6.443   0.612
10616SOL    HW232748   2.817   6.401   0.769
10617SOL     OW32749   2.458   2.790   0.720
10617SOL    HW132750   2.409   2.872   0.751
10617SOL    HW232751   2.456   2.786   0.620
10618SOL     OW32752   5.800   3.612   6.847
10618SOL    HW132753   5.879   3.569   6.892
10618SOL    HW232754   5.832   3.675   6.777
10619SOL     OW32755   0.296   4.034   1.782
10619SOL    HW132756   0.355   3.973   1.835
10619SOL    HW232757   0.256   3.984   1.705
10620SOL     OW32758   1.214   5.508   5.697
10620SOL    HW132759   1.254   5.423   5.664
10620SOL    HW232760   1.279   5.557   5.754
10621SOL     OW32761   1.082   6.635   1.117
10621SOL    HW132762   1.136   6.671   1.193
10621SOL    HW232763   1.054   6.710   1.057
10622SOL     OW32764   5.317   1.366   0.938
10622SOL    HW132765   5.362   1.437   0.993
10622SOL    HW232766   5.370   1.281   0.944
10623SOL     OW32767   6.733   4.743   4.149
10623SOL    HW132768   6.662   4.792   4.098
10623SOL    HW232769   6.770   4.669   4.092
10624SOL     OW32770   0.702   1.513   4.904
10624SOL    HW132771   0.678   1.419   4.928
10624SOL    HW232772   0.618   1.563   4.879
10625SOL     OW32773   0.606   4.969   0.182
10625SOL    HW132774   0.543   5.017   0.244
10625SOL    HW232775   0.553   4.906   0.125
10626SOL     OW32776   0.797   2.936   1.296
10626SOL    HW132777   0.873   2.876   1.272
10626SOL    HW232778   0.738   2.947   1.216
10627SOL     OW32779   5.170   5.897   1.787
10627SOL    HW132780   5.144   5.993   1.796
10627SOL    HW232781   5.178   5.855   1.877
10628SOL     OW32782   5.403   5.164   5.908
10628SOL    HW132783   5.368   5.097   5.973
10628SOL    HW232784   5.335   5.236   5.893
10629SOL     OW32785   2.533   4.621   4.879
10629SOL    HW132786   2.626   4.645   4.905
10629SOL    HW232787   2.469   4.664   4.942
10630SOL     OW32788   6.437   1.249   3.510
10630SOL    HW132789   6.427   1.239   3.411
10630SOL    HW232790   6.533   1.267   3.532
10631SOL     OW32791   1.644   4.861   4.907
10631SOL    HW132792   1.722   4.812   4.945
10631SOL    HW232793   1.560   4.818   4.936
10632SOL     OW32794   5.651   1.644   4.072
10632SOL    HW132795   5.578   1.691   4.022
10632SOL    HW232796   5.724   1.709   4.094
10633SOL     OW32797   2.422   4.010   1.400
10633SOL    HW132798   2.434   3.985   1.496
10633SOL    HW232799   2.417   3.927   1.345
10634SOL     OW32800   3.063   5.299   1.112
10634SOL    HW132801   3.110   5.382   1.142
10634SOL    HW232802   3.091   5.222   1.168
10635SOL     OW32803   3.527   1.501   1.163
10635SOL    HW132804   3.459   1.552   1.111
10635SOL    HW232805   3.615   1.549   1.160
10636SOL     OW32806   1.301   2.306   1.408
10636SOL    HW132807   1.376   2.365   1.440
10636SOL    HW232808   1.328   2.210   1.417
10637SOL     OW32809   3.329   5.038   5.396
10637SOL    HW132810   3.409   4.997   5.352
10637SOL    HW232811   3.315   4.994   5.486
10638SOL     OW32812   0.172   5.625   2.818
10638SOL    HW132813   0.096   5.644   2.757
10638SOL    HW232814   0.158   5.673   2.905
10639SOL     OW32815   0.258   2.436   3.233
10639SOL    HW132816   0.317   2.492   3.292
10639SOL    HW232817   0.263   2.470   3.139
10640SOL     OW32818   4.086   0.258   6.243
10640SOL    HW132819   4.041   0.196   6.180
10640SOL    HW232820   4.185   0.241   6.242
10641SOL     OW32821   3.366   1.871   7.020
10641SOL    HW132822   3.301   1.941   6.990
10641SOL    HW232823   3.456   1.913   0.011
10642SOL     OW32824   0.250   2.351   1.994
10642SOL    HW132825   0.338   2.304   2.003
10642SOL    HW232826   0.193   2.303   1.928
10643SOL     OW32827   1.932   4.659   5.365
10643SOL    HW132828   1.885   4.718   5.299
10643SOL    HW232829   1.967   4.716   5.440
10644SOL     OW32830   5.549   1.941   3.190
10644SOL    HW132831   5.586   2.019   3.140
10644SOL    HW232832   5.557   1.957   3.288
10645SOL     OW32833   0.553   0.996   4.781
10645SOL    HW132834   0.483   1.005   4.710
10645SOL    HW232835   0.614   0.920   4.757
10646SOL     OW32836   0.589   1.512   5.416
10646SOL    HW132837   0.616   1.429   5.465
10646SOL    HW232838   0.496   1.537   5.441
10647SOL     OW32839   4.250   5.833   6.779
10647SOL    HW132840   4.290   5.812   6.690
10647SOL    HW232841   4.237   5.748   6.830
10648SOL     OW32842   4.587   3.695   6.659
10648SOL    HW132843   4.586   3.758   6.581
10648SOL    HW232844   4.681   3.682   6.690
10649SOL     OW32845   0.350   4.300   3.112
10649SOL    HW132846   0.404   4.324   3.194
10649SOL    HW232847   0.372   4.207   3.084
10650SOL     OW32848   1.157   6.221   2.965
10650SOL    HW132849   1.240   6.261   3.004
10650SOL    HW232850   1.174   6.194   2.870
10651SOL     OW32851   5.296   6.972   5.809
10651SOL    HW132852   5.267   6.889   5.856
10651SOL    HW232853   5.220   0.014   5.805
10652SOL     OW32854   3.640   0.249   6.550
10652SOL    HW132855   3.649   0.322   6.619
10652SOL    HW232856   3.544   0.238   6.526
10653SOL     OW32857   5.260   4.660   4.315
10653SOL    HW132858   5.223   4.569   4.298
10653SOL    HW232859   5.207   4.705   4.386
10654SOL     OW32860   4.363   1.075   0.648
10654SOL    HW132861   4.460   1.052   0.652
10654SOL    HW232862   4.322   1.030   0.569
10655SOL     OW32863   2.897   5.442   1.574
10655SOL    HW132864   2.821   5.454   1.637
10655SOL    HW232865   2.983   5.448   1.624
10656SOL     OW32866   5.913   2.294   0.646
10656SOL    HW132867   5.822   2.284   0.687
10656SOL    HW232868   5.920   2.233   0.567
10657SOL     OW32869   6.078   6.461   6.962
10657SOL    HW132870   6.049   6.367   6.978
10657SOL    HW232871   6.047   6.519   0.014
10658SOL     OW32872   6.647   3.915   4.584
10658SOL    HW132873   6.615   4.010   4.584
10658SOL    HW232874   6.593   3.862   4.518
10659SOL     OW32875   6.470   6.701   0.843
10659SOL    HW132876   6.408   6.622   0.838
10659SOL    HW232877   6.551   6.676   0.896
10660SOL     OW32878   5.081   4.719   6.370
10660SOL    HW132879   5.043   4.650   6.431
10660SOL    HW232880   5.179   4.728   6.387
10661SOL     OW32881   0.369   6.705   2.176
10661SOL    HW132882   0.386   6.797   2.141
10661SOL    HW232883   0.456   6.658   2.191
10662SOL     OW32884   5.594   0.772   1.932
10662SOL    HW132885   5.636   0.737   2.015
10662SOL    HW232886   5.650   0.846   1.895
10663SOL     OW32887   0.265   6.238   1.263
10663SOL    HW132888   0.269   6.317   1.324
10663SOL    HW232889   0.319   6.163   1.301
10664SOL     OW32890   1.850   4.043   5.862
10664SOL    HW132891   1.758   4.079   5.849
10664SOL    HW232892   1.856   3.952   5.822
10665SOL     OW32893   1.161   0.507   0.440
10665SOL    HW132894   1.135   0.604   0.436
10665SOL    HW232895   1.247   0.498   0.490
10666SOL     OW32896   3.988   4.618   0.138
10666SOL    HW132897   4.034   4.530   0.127
10666SOL    HW232898   3.889   4.605   0.134
10667SOL     OW32899   3.550   2.243   5.738
10667SOL    HW132900   3.541   2.181   5.660
10667SOL    HW232901   3.461   2.283   5.759
10668SOL     OW32902   1.330   1.482   5.009
10668SOL    HW132903   1.359   1.430   5.090
10668SOL    HW232904   1.410   1.522   4.964
10669SOL     OW32905   6.430   6.551   0.613
10669SOL    HW132906   6.530   6.550   0.621
10669SOL    HW232907   6.395   6.640   0.643
10670SOL     OW32908   5.018   4.323   5.764
10670SOL    HW132909   4.960   4.276   5.831
10670SOL    HW232910   4.990   4.298   5.671
10671SOL     OW32911   2.151   2.604   2.554
10671SOL    HW132912   2.239   2.575   2.591
10671SOL    HW232913   2.164   2.676   2.486
10672SOL     OW32914   6.828   2.747   0.694
10672SOL    HW132915   6.917   2.769   0.733
10672SOL    HW232916   6.816   2.647   0.692
10673SOL     OW32917   1.761   2.179   5.823
10673SOL    HW132918   1.749   2.099   5.883
10673SOL    HW232919   1.769   2.148   5.728
10674SOL     OW32920   4.012   3.395   0.532
10674SOL    HW132921   3.968   3.483   0.550
10674SOL    HW232922   3.950   3.337   0.478
10675SOL     OW32923   2.120   1.151   6.357
10675SOL    HW132924   2.036   1.098   6.360
10675SOL    HW232925   2.196   1.092   6.330
10676SOL     OW32926   6.140   0.097   6.376
10676SOL    HW132927   6.060   0.103   6.317
10676SOL    HW232928   6.181   0.006   6.368
10677SOL     OW32929   0.694   0.526   1.955
10677SOL    HW132930   0.710   0.464   1.879
10677SOL    HW232931   0.714   0.620   1.926
10678SOL     OW32932   3.540   5.300   3.172
10678SOL    HW132933   3.499   5.325   3.260
10678SOL    HW232934   3.542   5.380   3.112
10679SOL     OW32935   5.165   4.459   5.947
10679SOL    HW132936   5.100   4.510   6.004
10679SOL    HW232937   5.115   4.415   5.872
10680SOL     OW32938   2.185   2.313   4.178
10680SOL    HW132939   2.246   2.262   4.238
10680SOL    HW232940   2.090   2.291   4.201
10681SOL     OW32941   0.111   3.915   6.748
10681SOL    HW132942   0.156   3.946   6.665
10681SOL    HW232943   0.107   3.990   6.814
10682SOL     OW32944   1.615   1.801   3.134
10682SOL    HW132945   1.616   1.797   3.034
10682SOL    HW232946   1.664   1.722   3.171
10683SOL     OW32947   2.962   1.893   4.149
10683SOL    HW132948   3.016   1.826   4.097
10683SOL    HW232949   2.872   1.902   4.108
10684SOL     OW32950   4.428   3.803   0.316
10684SOL    HW132951   4.425   3.796   0.416
10684SOL    HW232952   4.378   3.728   0.275
10685SOL     OW32953   6.925   3.984   2.435
10685SOL    HW132954   6.944   3.965   2.339
10685SOL    HW232955   6.827   4.002   2.447
10686SOL     OW32956   4.305   6.234   6.250
10686SOL    HW132957   4.303   6.302   6.176
10686SOL    HW232958   4.239   6.162   6.230
10687SOL     OW32959   6.984   5.205   2.139
10687SOL    HW132960   7.021   5.143   2.070
10687SOL    HW232961   0.002   5.185   2.228
10688SOL     OW32962   5.905   4.148   2.470
10688SOL    HW132963   5.827   4.188   2.519
10688SOL    HW232964   5.990   4.176   2.514
10689SOL     OW32965   0.238   0.219   3.130
10689SOL    HW132966   0.202   0.193   3.040
10689SOL    HW232967   0.161   0.245   3.189
10690SOL     OW32968   6.023   5.473   3.582
10690SOL    HW132969   6.082   5.553   3.591
10690SOL    HW232970   6.033   5.433   3.491
10691SOL     OW32971   0.244   1.995   2.103
10691SOL    HW132972   0.333   1.995   2.057
10691SOL    HW232973   0.250   2.051   2.186
10692SOL     OW32974   3.025   5.217   3.503
10692SOL    HW132975   3.114   5.183   3.536
10692SOL    HW232976   3.023   5.213   3.403
10693SOL     OW32977   2.058   0.874   1.567
10693SOL    HW132978   2.085   0.781   1.541
10693SOL    HW232979   1.958   0.881   1.569
10694SOL     OW32980   3.658   6.135   0.981
10694SOL    HW132981   3.573   6.170   0.943
10694SOL    HW232982   3.727   6.207   0.980
10695SOL     OW32983   6.377   2.025   4.020
10695SOL    HW132984   6.451   2.091   4.025
10695SOL    HW232985   6.318   2.047   3.942
10696SOL     OW32986   6.702   4.962   1.668
10696SOL    HW132987   6.649   4.882   1.695
10696SOL    HW232988   6.792   4.958   1.711
10697SOL     OW32989   0.303   6.379   3.872
10697SOL    HW132990   0.317   6.286   3.907
10697SOL    HW232991   0.344   6.388   3.782
10698SOL     OW32992   3.389   6.473   3.994
10698SOL    HW132993   3.366   6.566   3.966
10698SOL    HW232994   3.468   6.441   3.941
10699SOL     OW32995   4.986   1.886   2.877
10699SOL    HW132996   4.973   1.935   2.791
10699SOL    HW232997   4.995   1.788   2.860
10700SOL     OW32998   1.390   0.429   0.606
10700SOL    HW132999   1.485   0.445   0.580
10700SOL    HW233000   1.371   0.330   0.606
10701SOL     OW33001   4.437   6.147   0.093
10701SOL    HW133002   4.446   6.194   0.181
10701SOL    HW233003   4.340   6.143   0.068
10702SOL     OW33004   5.252   2.358   1.462
10702SOL    HW133005   5.289   2.325   1.549
10702SOL    HW233006   5.153   2.362   1.467
10703SOL     OW33007   3.673   3.187   3.862
10703SOL    HW133008   3.740   3.118   3.890
10703SOL    HW233009   3.614   3.150   3.790
10704SOL     OW33010   4.835   6.415   2.051
10704SOL    HW133011   4.878   6.501   2.079
10704SOL    HW233012   4.876   6.340   2.102
10705SOL     OW33013   1.248   3.511   0.246
10705SOL    HW133014   1.182   3.436   0.249
10705SOL    HW233015   1.318   3.497   0.317
10706SOL     OW33016   4.758   0.475   1.454
10706SOL    HW133017   4.733   0.400   1.393
10706SOL    HW233018   4.719   0.458   1.544
10707SOL     OW33019   0.348   6.730   5.447
10707SOL    HW133020   0.262   6.780   5.440
10707SOL    HW233021   0.408   6.755   5.371
10708SOL     OW33022   4.866   1.141   1.457
10708SOL    HW133023   4.890   1.113   1.550
10708SOL    HW233024   4.871   1.062   1.396
10709SOL     OW33025   6.478   0.493   5.396
10709SOL    HW133026   6.479   0.559   5.472
10709SOL    HW233027   6.386   0.488   5.357
10710SOL     OW33028   0.496   6.393   5.028
10710SOL    HW133029   0.411   6.428   5.067
10710SOL    HW233030   0.511   6.299   5.060
10711SOL     OW33031   2.159   6.950   3.873
10711SOL    HW133032   2.137   7.012   3.797
10711SOL    HW233033   2.191   7.003   3.951
10712SOL     OW33034   3.949   1.104   3.863
10712SOL    HW133035   3.948   1.188   3.917
10712SOL    HW233036   3.897   1.119   3.779
10713SOL     OW33037   2.097   5.511   1.516
10713SOL    HW133038   2.188   5.473   1.536
10713SOL    HW233039   2.089   5.601   1.558
10714SOL     OW33040   0.023   4.091   4.919
10714SOL    HW133041   0.079   4.120   4.841
10714SOL    HW233042   7.003   4.003   4.898
10715SOL     OW33043   5.529   0.202   3.321
10715SOL    HW133044   5.521   0.172   3.225
10715SOL    HW233045   5.625   0.213   3.344
10716SOL     OW33046   6.782   1.557   3.506
10716SOL    HW133047   6.726   1.635   3.537
10716SOL    HW233048   6.740   1.516   3.425
10717SOL     OW33049   0.685   1.338   1.182
10717SOL    HW133050   0.676   1.293   1.093
10717SOL    HW233051   0.778   1.325   1.216
10718SOL     OW33052   6.849   5.154   0.508
10718SOL    HW133053   6.761   5.108   0.506
10718SOL    HW233054   6.876   5.179   0.415
10719SOL     OW33055   4.989   6.656   2.098
10719SOL    HW133056   4.946   6.746   2.107
10719SOL    HW233057   5.005   6.617   2.188
10720SOL     OW33058   6.780   3.438   5.791
10720SOL    HW133059   6.822   3.394   5.711
10720SOL    HW233060   6.696   3.485   5.763
10721SOL     OW33061   5.842   2.237   4.104
10721SOL    HW133062   5.789   2.155   4.084
10721SOL    HW233063   5.880   2.273   4.019
10722SOL     OW33064   0.118   3.672   0.116
10722SOL    HW133065   0.147   3.649   0.023
10722SOL    HW233066   0.120   3.772   0.127
10723SOL     OW33067   5.383   3.931   6.894
10723SOL    HW133068   5.345   3.914   6.985
10723SOL    HW233069   5.420   3.846   6.856
10724SOL     OW33070   4.103   6.772   6.277
10724SOL    HW133071   4.181   6.795   6.218
10724SOL    HW233072   4.105   6.830   6.359
10725SOL     OW33073   7.019   5.278   4.444
10725SOL    HW133074   0.010   5.240   4.352
10725SOL    HW233075   6.997   5.204   4.507
10726SOL     OW33076   5.811   0.521   5.020
10726SOL    HW133077   5.726   0.565   4.992
10726SOL    HW233078   5.793   0.459   5.097
10727SOL     OW33079   1.417   4.632   5.071
10727SOL    HW133080   1.455   4.709   5.121
10727SOL    HW233081   1.337   4.662   5.018
10728SOL     OW33082   5.566   6.817   3.005
10728SOL    HW133083   5.545   6.858   2.916
10728SOL    HW233084   5.481   6.795   3.052
10729SOL     OW33085   6.242   1.956   2.449
10729SOL    HW133086   6.221   2.054   2.454
10729SOL    HW233087   6.261   1.922   2.541
10730SOL     OW33088   2.307   5.876   1.966
10730SOL    HW133089   2.334   5.960   2.014
10730SOL    HW233090   2.283   5.806   2.033
10731SOL     OW33091   2.683   5.800   0.413
10731SOL    HW133092   2.750   5.794   0.488
10731SOL    HW233093   2.672   5.710   0.372
10732SOL     OW33094   6.649   6.899   3.332
10732SOL    HW133095   6.660   6.805   3.364
10732SOL    HW233096   6.558   6.911   3.293
10733SOL     OW33097   6.075   1.987   6.952
10733SOL    HW133098   6.003   1.938   6.904
10733SOL    HW233099   6.113   2.058   6.892
10734SOL     OW33100   0.641   0.181   6.330
10734SOL    HW133101   0.621   0.176   6.232
10734SOL    HW233102   0.597   0.261   6.370
10735SOL     OW33103   0.877   5.143   2.396
10735SOL    HW133104   0.927   5.119   2.479
10735SOL    HW233105   0.931   5.117   2.316
10736SOL     OW33106   0.484   0.673   3.465
10736SOL    HW133107   0.484   0.592   3.407
10736SOL    HW233108   0.547   0.741   3.428
10737SOL     OW33109   0.564   2.099   1.054
10737SOL    HW133110   0.648   2.046   1.052
10737SOL    HW233111   0.586   2.196   1.054
10738SOL     OW33112   2.350   0.620   2.936
10738SOL    HW133113   2.272   0.565   2.906
10738SOL    HW233114   2.393   0.575   3.014
10739SOL     OW33115   6.224   2.147   1.998
10739SOL    HW133116   6.198   2.072   2.059
10739SOL    HW233117   6.321   2.140   1.976
10740SOL     OW33118   1.569   6.573   5.573
10740SOL    HW133119   1.500   6.554   5.643
10740SOL    HW233120   1.543   6.528   5.487
10741SOL     OW33121   2.047   1.902   3.636
10741SOL    HW133122   2.119   1.833   3.633
10741SOL    HW233123   2.063   1.971   3.566
10742SOL     OW33124   5.862   6.173   1.979
10742SOL    HW133125   5.775   6.128   1.998
10742SOL    HW233126   5.909   6.193   2.065
10743SOL     OW33127   3.663   1.693   5.079
10743SOL    HW133128   3.663   1.764   5.150
10743SOL    HW233129   3.753   1.689   5.035
10744SOL     OW33130   2.928   1.366   2.229
10744SOL    HW133131   2.990   1.434   2.269
10744SOL    HW233132   2.980   1.284   2.204
10745SOL     OW33133   2.467   4.850   0.653
10745SOL    HW133134   2.517   4.792   0.588
10745SOL    HW233135   2.490   4.823   0.746
10746SOL     OW33136   2.204   5.774   1.293
10746SOL    HW133137   2.111   5.759   1.328
10746SOL    HW233138   2.266   5.708   1.335
10747SOL     OW33139   5.341   1.883   3.499
10747SOL    HW133140   5.279   1.872   3.422
10747SOL    HW233141   5.430   1.914   3.466
10748SOL     OW33142   5.201   5.733   1.367
10748SOL    HW133143   5.218   5.826   1.402
10748SOL    HW233144   5.276   5.707   1.306
10749SOL     OW33145   6.248   4.709   3.083
10749SOL    HW133146   6.258   4.628   3.025
10749SOL    HW233147   6.153   4.716   3.114
10750SOL     OW33148   4.841   4.233   4.584
10750SOL    HW133149   4.796   4.274   4.505
10750SOL    HW233150   4.785   4.245   4.665
10751SOL     OW33151   1.191   2.686   5.051
10751SOL    HW133152   1.277   2.731   5.025
10751SOL    HW233153   1.189   2.673   5.150
10752SOL     OW33154   5.777   4.739   6.998
10752SOL    HW133155   5.720   4.734   6.917
10752SOL    HW233156   5.845   4.665   6.997
10753SOL     OW33157   4.765   0.232   4.191
10753SOL    HW133158   4.675   0.266   4.218
10753SOL    HW233159   4.780   0.252   4.094
10754SOL     OW33160   0.515   2.695   1.885
10754SOL    HW133161   0.444   2.749   1.929
10754SOL    HW233162   0.484   2.665   1.795
10755SOL     OW33163   0.196   1.680   0.963
10755SOL    HW133164   0.176   1.778   0.955
10755SOL    HW233165   0.288   1.668   1.000
10756SOL     OW33166   6.635   2.326   0.067
10756SOL    HW133167   6.633   2.233   0.030
10756SOL    HW233168   6.569   2.334   0.141
10757SOL     OW33169   0.268   4.105   0.612
10757SOL    HW133170   0.211   4.130   0.690
10757SOL    HW233171   0.211   4.074   0.537
10758SOL     OW33172   0.528   5.654   5.795
10758SOL    HW133173   0.507   5.708   5.713
10758SOL    HW233174   0.598   5.701   5.848
10759SOL     OW33175   1.505   3.049   6.048
10759SOL    HW133176   1.436   3.046   5.976
10759SOL    HW233177   1.594   3.024   6.010
10760SOL     OW33178   1.301   5.746   0.870
10760SOL    HW133179   1.319   5.813   0.798
10760SOL    HW233180   1.207   5.753   0.901
10761SOL     OW33181   0.964   2.474   6.119
10761SOL    HW133182   1.058   2.478   6.154
10761SOL    HW233183   0.901   2.500   6.192
10762SOL     OW33184   4.545   0.786   5.998
10762SOL    HW133185   4.574   0.707   5.944
10762SOL    HW233186   4.617   0.856   5.997
10763SOL     OW33187   5.045   0.479   2.011
10763SOL    HW133188   5.032   0.505   1.915
10763SOL    HW233189   5.097   0.550   2.058
10764SOL     OW33190   5.178   1.287   5.562
10764SOL    HW133191   5.270   1.320   5.538
10764SOL    HW233192   5.131   1.357   5.616
10765SOL     OW33193   5.601   1.322   2.421
10765SOL    HW133194   5.699   1.333   2.432
10765SOL    HW233195   5.566   1.259   2.490
10766SOL     OW33196   1.788   4.493   0.471
10766SOL    HW133197   1.772   4.495   0.372
10766SOL    HW233198   1.860   4.426   0.492
10767SOL     OW33199   2.062   6.257   0.758
10767SOL    HW133200   2.099   6.345   0.731
10767SOL    HW233201   2.119   6.184   0.721
10768SOL     OW33202   5.018   5.301   0.528
10768SOL    HW133203   5.106   5.253   0.524
10768SOL    HW233204   5.012   5.351   0.614
10769SOL     OW33205   2.668   4.432   5.265
10769SOL    HW133206   2.733   4.507   5.250
10769SOL    HW233207   2.716   4.345   5.263
10770SOL     OW33208   5.274   0.317   4.532
10770SOL    HW133209   5.350   0.291   4.473
10770SOL    HW233210   5.214   0.238   4.544
10771SOL     OW33211   4.342   0.182   4.885
10771SOL    HW133212   4.253   0.228   4.892
10771SOL    HW233213   4.328   0.084   4.874
10772SOL     OW33214   6.761   6.520   3.837
10772SOL    HW133215   6.771   6.544   3.740
10772SOL    HW233216   6.768   6.604   3.892
10773SOL     OW33217   7.003   4.324   6.795
10773SOL    HW133218   0.051   4.344   6.863
10773SOL    HW233219   0.013   4.349   6.704
10774SOL     OW33220   1.713   2.592   1.425
10774SOL    HW133221   1.794   2.567   1.372
10774SOL    HW233222   1.719   2.688   1.453
10775SOL     OW33223   2.105   4.314   1.601
10775SOL    HW133224   2.040   4.243   1.626
10775SOL    HW233225   2.132   4.364   1.684
10776SOL     OW33226   0.258   6.883   2.450
10776SOL    HW133227   0.229   6.852   2.540
10776SOL    HW233228   0.220   6.823   2.380
10777SOL     OW33229   4.097   0.273   3.402
10777SOL    HW133230   4.119   0.348   3.339
10777SOL    HW233231   4.164   0.271   3.476
10778SOL     OW33232   6.543   5.810   5.045
10778SOL    HW133233   6.559   5.719   5.083
10778SOL    HW233234   6.486   5.863   5.108
10779SOL     OW33235   6.385   4.589   2.791
10779SOL    HW133236   6.387   4.533   2.708
10779SOL    HW233237   6.369   4.530   2.870
10780SOL     OW33238   6.919   5.524   4.338
10780SOL    HW133239   6.942   5.442   4.390
10780SOL    HW233240   6.980   5.532   4.259
10781SOL     OW33241   5.429   0.651   4.402
10781SOL    HW133242   5.442   0.687   4.495
10781SOL    HW233243   5.411   0.726   4.340
10782SOL     OW33244   6.236   3.281   4.365
10782SOL    HW133245   6.224   3.365   4.313
10782SOL    HW233246   6.160   3.270   4.429
10783SOL     OW33247   1.925   2.635   2.741
10783SOL    HW133248   1.971   2.634   2.652
10783SOL    HW233249   1.983   2.681   2.808
10784SOL     OW33250   2.449   6.087   1.769
10784SOL    HW133251   2.356   6.112   1.796
10784SOL    HW233252   2.513   6.111   1.842
10785SOL     OW33253   1.640   4.892   1.454
10785SOL    HW133254   1.545   4.923   1.453
10785SOL    HW233255   1.644   4.795   1.432
10786SOL     OW33256   4.129   2.016   2.565
10786SOL    HW133257   4.148   1.956   2.487
10786SOL    HW233258   4.199   2.002   2.635
10787SOL     OW33259   3.625   1.329   4.241
10787SOL    HW133260   3.654   1.377   4.158
10787SOL    HW233261   3.668   1.371   4.321
10788SOL     OW33262   1.684   4.192   0.301
10788SOL    HW133263   1.641   4.118   0.250
10788SOL    HW233264   1.649   4.192   0.395
10789SOL     OW33265   6.457   1.104   0.341
10789SOL    HW133266   6.524   1.178   0.334
10789SOL    HW233267   6.365   1.144   0.347
10790SOL     OW33268   6.752   1.461   5.697
10790SOL    HW133269   6.761   1.485   5.793
10790SOL    HW233270   6.670   1.405   5.684
10791SOL     OW33271   2.123   2.099   1.944
10791SOL    HW133272   2.183   2.152   2.005
10791SOL    HW233273   2.108   2.151   1.860
10792SOL     OW33274   3.556   2.769   1.257
10792SOL    HW133275   3.480   2.831   1.275
10792SOL    HW233276   3.530   2.676   1.283
10793SOL     OW33277   5.206   1.637   4.444
10793SOL    HW133278   5.155   1.565   4.397
10793SOL    HW233279   5.295   1.650   4.399
10794SOL     OW33280   3.793   3.704   1.682
10794SOL    HW133281   3.765   3.689   1.777
10794SOL    HW233282   3.884   3.664   1.668
10795SOL     OW33283   6.476   3.624   2.455
10795SOL    HW133284   6.410   3.695   2.480
10795SOL    HW233285   6.540   3.610   2.531
10796SOL     OW33286   4.655   6.862   6.303
10796SOL    HW133287   4.589   6.811   6.358
10796SOL    HW233288   4.742   6.813   6.301
10797SOL     OW33289   3.848   2.879   6.659
10797SOL    HW133290   3.891   2.954   6.608
10797SOL    HW233291   3.826   2.804   6.597
10798SOL     OW33292   2.555   0.110   6.457
10798SOL    HW133293   2.586   0.204   6.443
10798SOL    HW233294   2.520   0.099   6.550
10799SOL     OW33295   3.560   2.075   2.688
10799SOL    HW133296   3.650   2.103   2.654
10799SOL    HW233297   3.489   2.112   2.629
10800SOL     OW33298   2.611   6.704   1.082
10800SOL    HW133299   2.535   6.650   1.119
10800SOL    HW233300   2.616   6.790   1.132
10801SOL     OW33301   2.156   6.354   5.767
10801SOL    HW133302   2.146   6.254   5.773
10801SOL    HW233303   2.253   6.378   5.774
10802SOL     OW33304   1.866   3.135   3.931
10802SOL    HW133305   1.816   3.150   4.017
10802SOL    HW233306   1.821   3.062   3.880
10803SOL     OW33307   5.532   4.682   5.858
10803SOL    HW133308   5.468   4.738   5.805
10803SOL    HW233309   5.625   4.717   5.846
10804SOL     OW33310   6.589   3.811   0.933
10804SOL    HW133311   6.605   3.864   1.016
10804SOL    HW233312   6.633   3.722   0.941
10805SOL     OW33313   3.152   6.741   6.964
10805SOL    HW133314   3.145   6.655   7.014
10805SOL    HW233315   3.241   6.783   6.982
10806SOL     OW33316   6.273   3.917   0.262
10806SOL    HW133317   6.177   3.891   0.248
10806SOL    HW233318   6.287   4.011   0.230
10807SOL     OW33319   3.371   6.480   3.423
10807SOL    HW133320   3.404   6.417   3.493
10807SOL    HW233321   3.317   6.430   3.355
10808SOL     OW33322   0.687   3.994   7.020
10808SOL    HW133323   0.756   4.029   0.059
10808SOL    HW233324   0.690   3.894   7.020
10809SOL     OW33325   2.977   1.028   4.489
10809SOL    HW133326   2.910   0.969   4.536
10809SOL    HW233327   3.069   0.995   4.507
10810SOL     OW33328   0.308   1.001   5.909
10810SOL    HW133329   0.363   1.000   5.826
10810SOL    HW233330   0.215   0.969   5.888
10811SOL     OW33331   3.847   5.060   5.892
10811SOL    HW133332   3.793   5.141   5.871
10811SOL    HW233333   3.842   5.041   5.990
10812SOL     OW33334   0.386   2.533   2.648
10812SOL    HW133335   0.475   2.563   2.615
10812SOL    HW233336   0.314   2.590   2.608
10813SOL     OW33337   3.335   6.239   1.784
10813SOL    HW133338   3.282   6.239   1.699
10813SOL    HW233339   3.395   6.319   1.786
10814SOL     OW33340   1.729   0.619   6.037
10814SOL    HW133341   1.710   0.568   6.121
10814SOL    HW233342   1.653   0.680   6.016
10815SOL     OW33343   4.920   4.456   3.100
10815SOL    HW133344   4.885   4.528   3.040
10815SOL    HW233345   5.002   4.416   3.059
10816SOL     OW33346   1.436   1.286   2.134
10816SOL    HW133347   1.340   1.287   2.106
10816SOL    HW233348   1.471   1.192   2.131
10817SOL     OW33349   5.603   0.170   2.853
10817SOL    HW133350   5.573   0.263   2.834
10817SOL    HW233351   5.661   0.169   2.935
10818SOL     OW33352   5.656   2.884   6.706
10818SOL    HW133353   5.572   2.905   6.757
10818SOL    HW233354   5.643   2.799   6.656
10819SOL     OW33355   0.806   3.690   6.454
10819SOL    HW133356   0.760   3.775   6.430
10819SOL    HW233357   0.901   3.693   6.424
10820SOL     OW33358   0.199   0.130   4.076
10820SOL    HW133359   0.244   0.044   4.099
10820SOL    HW233360   0.171   0.128   3.980
10821SOL     OW33361   6.981   6.271   2.044
10821SOL    HW133362   6.915   6.213   2.092
10821SOL    HW233363   6.963   6.367   2.067
10822SOL     OW33364   1.409   3.475   2.458
10822SOL    HW133365   1.421   3.416   2.538
10822SOL    HW233366   1.434   3.569   2.482
10823SOL     OW33367   2.034   5.766   1.635
10823SOL    HW133368   1.942   5.775   1.598
10823SOL    HW233369   2.093   5.836   1.595
10824SOL     OW33370   5.248   6.786   3.575
10824SOL    HW133371   5.326   6.826   3.623
10824SOL    HW233372   5.187   6.859   3.544
10825SOL     OW33373   2.432   1.445   1.246
10825SOL    HW133374   2.481   1.488   1.321
10825SOL    HW233375   2.338   1.478   1.243
10826SOL     OW33376   6.761   3.695   2.206
10826SOL    HW133377   6.770   3.599   2.181
10826SOL    HW233378   6.665   3.718   2.219
10827SOL     OW33379   6.147   3.195   4.071
10827SOL    HW133380   6.131   3.142   3.987
10827SOL    HW233381   6.234   3.168   4.111
10828SOL     OW33382   0.993   6.036   1.579
10828SOL    HW133383   0.981   6.135   1.584
10828SOL    HW233384   0.958   6.002   1.492
10829SOL     OW33385   2.314   3.561   1.387
10829SOL    HW133386   2.336   3.593   1.479
10829SOL    HW233387   2.216   3.545   1.379
10830SOL     OW33388   5.831   3.095   4.544
10830SOL    HW133389   5.905   3.030   4.563
10830SOL    HW233390   5.868   3.176   4.498
10831SOL     OW33391   5.197   0.259   2.058
10831SOL    HW133392   5.137   0.332   2.026
10831SOL    HW233393   5.278   0.254   1.998
10832SOL     OW33394   0.804   2.347   0.583
10832SOL    HW133395   0.855   2.427   0.554
10832SOL    HW233396   0.819   2.272   0.519
10833SOL     OW33397   2.192   0.171   3.663
10833SOL    HW133398   2.252   0.176   3.583
10833SOL    HW233399   2.185   0.262   3.704
10834SOL     OW33400   0.380   1.686   5.199
10834SOL    HW133401   0.294   1.703   5.151
10834SOL    HW233402   0.364   1.618   5.272
10835SOL     OW33403   6.801   1.784   2.114
10835SOL    HW133404   6.779   1.759   2.209
10835SOL    HW233405   6.752   1.724   2.051
10836SOL     OW33406   7.015   1.558   5.297
10836SOL    HW133407   6.968   1.599   5.220
10836SOL    HW233408   6.978   1.595   5.383
10837SOL     OW33409   6.636   4.892   0.224
10837SOL    HW133410   6.728   4.930   0.223
10837SOL    HW233411   6.640   4.796   0.254
10838SOL     OW33412   5.633   0.401   5.730
10838SOL    HW133413   5.620   0.349   5.815
10838SOL    HW233414   5.607   0.496   5.745
10839SOL     OW33415   2.953   2.341   0.178
10839SOL    HW133416   2.984   2.273   0.244
10839SOL    HW233417   2.853   2.343   0.177
10840SOL     OW33418   3.835   5.981   1.405
10840SOL    HW133419   3.847   6.077   1.380
10840SOL    HW233420   3.922   5.943   1.433
10841SOL     OW33421   3.944   6.328   5.929
10841SOL    HW133422   3.974   6.334   5.834
10841SOL    HW233423   3.923   6.419   5.963
10842SOL     OW33424   6.590   2.922   1.199
10842SOL    HW133425   6.647   2.955   1.274
10842SOL    HW233426   6.642   2.859   1.142
10843SOL     OW33427   1.153   1.950   1.780
10843SOL    HW133428   1.239   1.991   1.812
10843SOL    HW233429   1.174   1.866   1.729
10844SOL     OW33430   6.569   6.153   4.775
10844SOL    HW133431   6.610   6.226   4.721
10844SOL    HW233432   6.612   6.150   4.865
10845SOL     OW33433   1.172   1.493   1.248
10845SOL    HW133434   1.194   1.590   1.232
10845SOL    HW233435   1.153   1.479   1.345
10846SOL     OW33436   5.135   1.834   0.477
10846SOL    HW133437   5.172   1.742   0.468
10846SOL    HW233438   5.056   1.832   0.538
10847SOL     OW33439   2.596   1.532   5.826
10847SOL    HW133440   2.572   1.622   5.791
10847SOL    HW233441   2.581   1.463   5.755
10848SOL     OW33442   2.703   1.803   0.270
10848SOL    HW133443   2.801   1.825   0.276
10848SOL    HW233444   2.653   1.882   0.236
10849SOL     OW33445   3.174   4.899   3.628
10849SOL    HW133446   3.195   4.983   3.578
10849SOL    HW233447   3.247   4.880   3.693
10850SOL     OW33448   3.885   6.816   0.057
10850SOL    HW133449   3.826   6.738   0.079
10850SOL    HW233450   3.840   6.874   7.012
10851SOL     OW33451   3.333   2.836   5.834
10851SOL    HW133452   3.391   2.755   5.844
10851SOL    HW233453   3.367   2.909   5.893
10852SOL     OW33454   0.209   0.523   6.284
10852SOL    HW133455   0.247   0.470   6.208
10852SOL    HW233456   0.245   0.616   6.281
10853SOL     OW33457   3.350   1.584   4.419
10853SOL    HW133458   3.327   1.527   4.340
10853SOL    HW233459   3.312   1.543   4.502
10854SOL     OW33460   5.664   0.560   6.878
10854SOL    HW133461   5.576   0.603   6.898
10854SOL    HW233462   5.666   0.529   6.783
10855SOL     OW33463   2.951   6.095   2.611
10855SOL    HW133464   2.877   6.030   2.594
10855SOL    HW233465   2.912   6.184   2.636
10856SOL     OW33466   6.193   0.131   0.787
10856SOL    HW133467   6.140   0.098   0.865
10856SOL    HW233468   6.288   0.102   0.797
10857SOL     OW33469   6.214   2.415   2.996
10857SOL    HW133470   6.119   2.443   3.012
10857SOL    HW233471   6.248   2.459   2.913
10858SOL     OW33472   1.689   3.599   7.013
10858SOL    HW133473   1.647   3.535   6.948
10858SOL    HW233474   1.627   3.613   0.067
10859SOL     OW33475   1.873   3.552   3.073
10859SOL    HW133476   1.858   3.608   2.992
10859SOL    HW233477   1.970   3.528   3.080
10860SOL     OW33478   6.517   1.383   0.102
10860SOL    HW133479   6.522   1.476   0.065
10860SOL    HW233480   6.597   1.331   0.074
10861SOL     OW33481   3.648   2.754   1.904
10861SOL    HW133482   3.619   2.761   1.999
10861SOL    HW233483   3.672   2.845   1.870
10862SOL     OW33484   2.453   2.226   6.424
10862SOL    HW133485   2.532   2.207   6.366
10862SOL    HW233486   2.448   2.324   6.444
10863SOL     OW33487   2.763   0.347   2.726
10863SOL    HW133488   2.753   0.421   2.660
10863SOL    HW233489   2.738   0.260   2.683
10864SOL     OW33490   2.540   4.556   1.079
10864SOL    HW133491   2.594   4.487   1.031
10864SOL    HW233492   2.472   4.512   1.137
10865SOL     OW33493   5.248   3.261   3.842
10865SOL    HW133494   5.185   3.186   3.825
10865SOL    HW233495   5.281   3.299   3.755
10866SOL     OW33496   6.136   3.000   1.136
10866SOL    HW133497   6.145   2.914   1.086
10866SOL    HW233498   6.067   2.990   1.207
10867SOL     OW33499   2.920   3.047   0.356
10867SOL    HW133500   2.895   3.108   0.431
10867SOL    HW233501   2.917   2.952   0.387
10868SOL     OW33502   1.246   2.342   3.237
10868SOL    HW133503   1.170   2.316   3.177
10868SOL    HW233504   1.273   2.263   3.292
10869NA      NA33505   0.708   1.807   6.092
10870NA      NA33506   4.509   4.396   5.169
10871NA      NA33507   1.914   5.004   2.934
10872NA      NA33508   5.327   4.266   3.882
10873NA      NA33509   4.312   2.431   5.292
10874NA      NA33510   2.955   4.910   1.376
10875NA      NA33511   1.311   4.948   0.521
10876NA      NA33512   4.050   4.275   1.597
10877NA      NA33513   4.535   3.790   0.789
10878NA      NA33514   3.366   1.208   5.920
10879NA      NA33515   4.988   5.698   2.121
10880NA      NA33516   1.611   0.370   5.575
10881NA      NA33517   4.987   5.027   1.809
10882NA      NA33518   3.160   3.375   0.289
   7.02333   7.02333   7.02333
