Generated by trjconv : CNT in water t= 113.00000
33518
    1C        C    1   2.842   2.765   4.740
    1C        C    2   2.892   2.714   4.861
    1C        C    3   2.830   2.761   4.978
    1C        C    4   2.843   2.767   4.253
    1C        C    5   2.895   2.720   4.375
    1C        C    6   2.838   2.765   4.496
    1C        C    7   3.006   2.634   4.621
    1C        C    8   2.890   2.714   4.617
    1C        C    9   3.072   2.604   4.743
    1C        C   10   3.006   2.630   4.865
    1C        C   11   3.176   2.483   4.970
    1C        C   12   3.059   2.559   4.974
    1C        C   13   2.850   2.770   3.767
    1C        C   14   2.899   2.717   3.889
    1C        C   15   2.848   2.768   4.010
    1C        C   16   3.011   2.636   4.133
    1C        C   17   2.896   2.717   4.132
    1C        C   18   3.075   2.607   4.256
    1C        C   19   3.010   2.638   4.378
    1C        C   20   3.202   2.552   4.502
    1C        C   21   3.069   2.599   4.500
    1C        C   22   3.274   2.529   4.622
    1C        C   23   3.203   2.548   4.742
    1C        C   24   3.407   2.473   4.860
    1C        C   25   3.266   2.498   4.859
    1C        C   26   3.484   2.472   4.977
    1C        C   27   2.846   2.764   3.277
    1C        C   28   2.903   2.719   3.398
    1C        C   29   2.848   2.764   3.521
    1C        C   30   3.015   2.638   3.646
    1C        C   31   2.900   2.719   3.645
    1C        C   32   3.074   2.598   3.768
    1C        C   33   3.011   2.631   3.890
    1C        C   34   3.204   2.544   4.012
    1C        C   35   3.073   2.597   4.012
    1C        C   36   3.271   2.527   4.135
    1C        C   37   3.205   2.552   4.257
    1C        C   38   3.409   2.502   4.377
    1C        C   39   3.271   2.531   4.380
    1C        C   40   3.482   2.495   4.498
    1C        C   41   3.412   2.501   4.620
    1C        C   42   3.625   2.475   4.739
    1C        C   43   3.483   2.475   4.740
    1C        C   44   3.701   2.484   4.858
    1C        C   45   3.623   2.486   4.975
    1C        C   46   2.839   2.752   2.789
    1C        C   47   2.891   2.704   2.911
    1C        C   48   2.840   2.757   3.032
    1C        C   49   3.014   2.635   3.156
    1C        C   50   2.896   2.713   3.154
    1C        C   51   3.074   2.598   3.278
    1C        C   52   3.014   2.632   3.401
    1C        C   53   3.202   2.536   3.523
    1C        C   54   3.076   2.600   3.524
    1C        C   55   3.271   2.521   3.645
    1C        C   56   3.203   2.541   3.767
    1C        C   57   3.411   2.499   3.889
    1C        C   58   3.271   2.521   3.889
    1C        C   59   3.480   2.492   4.012
    1C        C   60   3.410   2.500   4.134
    1C        C   61   3.622   2.488   4.253
    1C        C   62   3.481   2.490   4.256
    1C        C   63   3.696   2.496   4.374
    1C        C   64   3.623   2.490   4.495
    1C        C   65   3.828   2.538   4.616
    1C        C   66   3.693   2.498   4.618
    1C        C   67   3.903   2.553   4.735
    1C        C   68   3.836   2.523   4.856
    1C        C   69   4.043   2.585   4.975
    1C        C   70   3.916   2.526   4.971
    1C        C   71   2.818   2.730   2.303
    1C        C   72   2.881   2.690   2.422
    1C        C   73   2.829   2.741   2.544
    1C        C   74   3.006   2.624   2.666
    1C        C   75   2.887   2.700   2.666
    1C        C   76   3.068   2.589   2.787
    1C        C   77   3.006   2.623   2.910
    1C        C   78   3.199   2.537   3.032
    1C        C   79   3.071   2.597   3.032
    1C        C   80   3.268   2.518   3.154
    1C        C   81   3.204   2.542   3.278
    1C        C   82   3.408   2.495   3.398
    1C        C   83   3.268   2.515   3.400
    1C        C   84   3.479   2.484   3.520
    1C        C   85   3.410   2.496   3.643
    1C        C   86   3.620   2.495   3.764
    1C        C   87   3.479   2.488   3.766
    1C        C   88   3.691   2.502   3.886
    1C        C   89   3.622   2.493   4.008
    1C        C   90   3.827   2.541   4.129
    1C        C   91   3.691   2.506   4.131
    1C        C   92   3.895   2.568   4.250
    1C        C   93   3.831   2.538   4.372
    1C        C   94   4.022   2.627   4.492
    1C        C   95   3.896   2.562   4.495
    1C        C   96   4.084   2.663   4.614
    1C        C   97   4.030   2.617   4.736
    1C        C   98   4.181   2.763   4.853
    1C        C   99   4.096   2.648   4.858
    1C        C  100   4.207   2.840   4.967
    1C        C  101   2.819   2.728   2.065
    1C        C  102   2.983   2.586   2.183
    1C        C  103   2.867   2.670   2.183
    1C        C  104   3.060   2.572   2.302
    1C        C  105   3.001   2.615   2.423
    1C        C  106   3.196   2.528   2.544
    1C        C  107   3.067   2.585   2.545
    1C        C  108   3.263   2.506   2.666
    1C        C  109   3.196   2.529   2.788
    1C        C  110   3.404   2.487   2.907
    1C        C  111   3.265   2.510   2.910
    1C        C  112   3.476   2.487   3.029
    1C        C  113   3.408   2.498   3.152
    1C        C  114   3.619   2.492   3.274
    1C        C  115   3.478   2.491   3.275
    1C        C  116   3.691   2.496   3.396
    1C        C  117   3.621   2.487   3.518
    1C        C  118   3.826   2.535   3.638
    1C        C  119   3.690   2.500   3.640
    1C        C  120   3.892   2.560   3.761
    1C        C  121   3.828   2.535   3.884
    1C        C  122   4.018   2.630   4.007
    1C        C  123   3.895   2.562   4.006
    1C        C  124   4.080   2.672   4.127
    1C        C  125   4.022   2.629   4.249
    1C        C  126   4.188   2.761   4.369
    1C        C  127   4.083   2.666   4.371
    1C        C  128   4.233   2.818   4.490
    1C        C  129   4.185   2.762   4.610
    1C        C  130   4.322   2.926   4.732
    1C        C  131   4.234   2.814   4.732
    1C        C  132   4.355   2.994   4.852
    1C        C  133   4.285   2.955   4.967
    1C        C  134   3.168   2.463   2.077
    1C        C  135   3.033   2.501   2.080
    1C        C  136   3.257   2.475   2.184
    1C        C  137   3.190   2.516   2.302
    1C        C  138   3.402   2.477   2.422
    1C        C  139   3.262   2.500   2.422
    1C        C  140   3.473   2.470   2.544
    1C        C  141   3.402   2.479   2.666
    1C        C  142   3.618   2.483   2.786
    1C        C  143   3.477   2.476   2.786
    1C        C  144   3.689   2.493   2.907
    1C        C  145   3.617   2.489   3.029
    1C        C  146   3.827   2.521   3.149
    1C        C  147   3.688   2.495   3.151
    1C        C  148   3.896   2.546   3.270
    1C        C  149   3.828   2.529   3.393
    1C        C  150   4.018   2.624   3.516
    1C        C  151   3.892   2.559   3.515
    1C        C  152   4.074   2.665   3.639
    1C        C  153   4.013   2.632   3.762
    1C        C  154   4.185   2.758   3.882
    1C        C  155   4.072   2.674   3.884
    1C        C  156   4.238   2.809   4.002
    1C        C  157   4.187   2.764   4.126
    1C        C  158   4.330   2.921   4.248
    1C        C  159   4.242   2.810   4.248
    1C        C  160   4.370   2.981   4.369
    1C        C  161   4.323   2.927   4.491
    1C        C  162   4.428   3.114   4.611
    1C        C  163   4.358   2.991   4.612
    1C        C  164   4.459   3.180   4.732
    1C        C  165   4.432   3.111   4.852
    1C        C  166   4.512   3.312   4.963
    1C        C  167   4.478   3.177   4.967
    1C        C  168   3.471   2.427   2.067
    1C        C  169   3.395   2.445   2.184
    1C        C  170   3.614   2.463   2.302
    1C        C  171   3.472   2.453   2.302
    1C        C  172   3.686   2.484   2.421
    1C        C  173   3.614   2.477   2.542
    1C        C  174   3.822   2.534   2.660
    1C        C  175   3.686   2.493   2.663
    1C        C  176   3.889   2.555   2.782
    1C        C  177   3.826   2.528   2.905
    1C        C  178   4.016   2.620   3.027
    1C        C  179   3.893   2.549   3.027
    1C        C  180   4.078   2.654   3.149
    1C        C  181   4.020   2.614   3.271
    1C        C  182   4.189   2.744   3.393
    1C        C  183   4.078   2.657   3.392
    1C        C  184   4.235   2.801   3.514
    1C        C  185   4.183   2.756   3.637
    1C        C  186   4.326   2.914   3.755
    1C        C  187   4.235   2.806   3.759
    1C        C  188   4.363   2.976   3.877
    1C        C  189   4.326   2.920   4.002
    1C        C  190   4.441   3.098   4.122
    1C        C  191   4.367   2.977   4.124
    1C        C  192   4.467   3.165   4.243
    1C        C  193   4.437   3.105   4.367
    1C        C  194   4.505   3.309   4.487
    1C        C  195   4.461   3.174   4.487
    1C        C  196   4.524   3.382   4.606
    1C        C  197   4.502   3.315   4.728
    1C        C  198   4.555   3.529   4.845
    1C        C  199   4.532   3.388   4.847
    1C        C  200   4.573   3.614   4.959
    1C        C  201   3.610   2.409   2.069
    1C        C  202   3.820   2.508   2.176
    1C        C  203   3.687   2.456   2.180
    1C        C  204   3.892   2.538   2.296
    1C        C  205   3.823   2.518   2.418
    1C        C  206   4.016   2.613   2.538
    1C        C  207   3.892   2.547   2.538
    1C        C  208   4.077   2.652   2.660
    1C        C  209   4.017   2.616   2.782
    1C        C  210   4.189   2.741   2.903
    1C        C  211   4.073   2.659   2.904
    1C        C  212   4.239   2.789   3.026
    1C        C  213   4.187   2.745   3.149
    1C        C  214   4.327   2.904   3.265
    1C        C  215   4.241   2.792   3.271
    1C        C  216   4.360   2.966   3.388
    1C        C  217   4.321   2.913   3.513
    1C        C  218   4.431   3.097   3.631
    1C        C  219   4.367   2.972   3.633
    1C        C  220   4.461   3.162   3.753
    1C        C  221   4.429   3.101   3.876
    1C        C  222   4.498   3.300   3.999
    1C        C  223   4.461   3.164   3.998
    1C        C  224   4.510   3.373   4.119
    1C        C  225   4.501   3.303   4.241
    1C        C  226   4.523   3.515   4.359
    1C        C  227   4.515   3.374   4.362
    1C        C  228   4.520   3.591   4.478
    1C        C  229   4.530   3.523   4.602
    1C        C  230   4.506   3.737   4.718
    1C        C  231   4.538   3.598   4.721
    1C        C  232   4.492   3.817   4.834
    1C        C  233   4.533   3.748   4.948
    1C        C  234   4.011   2.604   2.058
    1C        C  235   3.889   2.539   2.058
    1C        C  236   4.081   2.641   2.173
    1C        C  237   4.020   2.600   2.294
    1C        C  238   4.193   2.728   2.415
    1C        C  239   4.077   2.646   2.414
    1C        C  240   4.249   2.774   2.536
    1C        C  241   4.190   2.736   2.659
    1C        C  242   4.332   2.896   2.778
    1C        C  243   4.240   2.788   2.780
    1C        C  244   4.369   2.956   2.900
    1C        C  245   4.329   2.899   3.023
    1C        C  246   4.428   3.090   3.142
    1C        C  247   4.366   2.963   3.143
    1C        C  248   4.452   3.156   3.265
    1C        C  249   4.422   3.093   3.387
    1C        C  250   4.491   3.298   3.506
    1C        C  251   4.451   3.162   3.507
    1C        C  252   4.503   3.366   3.629
    1C        C  253   4.494   3.300   3.753
    1C        C  254   4.517   3.509   3.872
    1C        C  255   4.511   3.368   3.876
    1C        C  256   4.521   3.584   3.992
    1C        C  257   4.518   3.514   4.114
    1C        C  258   4.487   3.724   4.234
    1C        C  259   4.514   3.585   4.236
    1C        C  260   4.465   3.795   4.354
    1C        C  261   4.486   3.728   4.477
    1C        C  262   4.424   3.933   4.596
    1C        C  263   4.473   3.801   4.597
    1C        C  264   4.393   4.004   4.714
    1C        C  265   4.426   3.942   4.836
    1C        C  266   4.306   4.121   4.952
    1C        C  267   4.384   4.005   4.953
    1C        C  268   4.262   2.768   2.060
    1C        C  269   4.192   2.728   2.175
    1C        C  270   4.343   2.883   2.292
    1C        C  271   4.251   2.774   2.294
    1C        C  272   4.380   2.945   2.414
    1C        C  273   4.332   2.888   2.534
    1C        C  274   4.440   3.075   2.653
    1C        C  275   4.373   2.950   2.654
    1C        C  276   4.459   3.146   2.773
    1C        C  277   4.431   3.083   2.897
    1C        C  278   4.495   3.287   3.018
    1C        C  279   4.457   3.151   3.018
    1C        C  280   4.501   3.360   3.138
    1C        C  281   4.486   3.293   3.262
    1C        C  282   4.509   3.506   3.383
    1C        C  283   4.501   3.365   3.382
    1C        C  284   4.511   3.578   3.505
    1C        C  285   4.516   3.507   3.627
    1C        C  286   4.488   3.718   3.746
    1C        C  287   4.511   3.579   3.749
    1C        C  288   4.467   3.787   3.867
    1C        C  289   4.486   3.721   3.991
    1C        C  290   4.425   3.926   4.108
    1C        C  291   4.469   3.792   4.112
    1C        C  292   4.391   3.992   4.229
    1C        C  293   4.412   3.926   4.352
    1C        C  294   4.318   4.117   4.472
    1C        C  295   4.389   3.995   4.473
    1C        C  296   4.277   4.181   4.591
    1C        C  297   4.317   4.125   4.715
    1C        C  298   4.189   4.304   4.832
    1C        C  299   4.271   4.187   4.834
    1C        C  300   4.160   4.389   4.944
    1C        C  301   4.353   2.873   2.055
    1C        C  302   4.470   3.060   2.170
    1C        C  303   4.397   2.937   2.172
    1C        C  304   4.479   3.133   2.292
    1C        C  305   4.448   3.069   2.413
    1C        C  306   4.503   3.278   2.531
    1C        C  307   4.476   3.139   2.533
    1C        C  308   4.518   3.349   2.652
    1C        C  309   4.504   3.280   2.774
    1C        C  310   4.519   3.494   2.894
    1C        C  311   4.517   3.353   2.895
    1C        C  312   4.510   3.569   3.013
    1C        C  313   4.510   3.501   3.138
    1C        C  314   4.487   3.712   3.257
    1C        C  315   4.511   3.573   3.259
    1C        C  316   4.473   3.783   3.379
    1C        C  317   4.491   3.718   3.503
    1C        C  318   4.420   3.919   3.620
    1C        C  319   4.471   3.788   3.624
    1C        C  320   4.389   3.983   3.742
    1C        C  321   4.418   3.920   3.864
    1C        C  322   4.311   4.104   3.985
    1C        C  323   4.386   3.985   3.986
    1C        C  324   4.273   4.166   4.106
    1C        C  325   4.316   4.112   4.229
    1C        C  326   4.178   4.276   4.347
    1C        C  327   4.274   4.173   4.350
    1C        C  328   4.132   4.332   4.468
    1C        C  329   4.192   4.293   4.590
    1C        C  330   4.019   4.429   4.707
    1C        C  331   4.137   4.348   4.707
    1C        C  332   3.963   4.484   4.824
    1C        C  333   4.047   4.472   4.936
    1C        C  334   4.544   3.260   2.057
    1C        C  335   4.534   3.120   2.057
    1C        C  336   4.536   3.343   2.169
    1C        C  337   4.513   3.271   2.289
    1C        C  338   4.514   3.488   2.406
    1C        C  339   4.515   3.347   2.408
    1C        C  340   4.516   3.560   2.528
    1C        C  341   4.524   3.490   2.650
    1C        C  342   4.493   3.703   2.767
    1C        C  343   4.514   3.563   2.771
    1C        C  344   4.470   3.774   2.887
    1C        C  345   4.488   3.708   3.010
    1C        C  346   4.420   3.908   3.133
    1C        C  347   4.469   3.776   3.133
    1C        C  348   4.386   3.976   3.253
    1C        C  349   4.424   3.915   3.374
    1C        C  350   4.315   4.099   3.496
    1C        C  351   4.392   3.980   3.496
    1C        C  352   4.273   4.160   3.616
    1C        C  353   4.315   4.104   3.739
    1C        C  354   4.173   4.261   3.860
    1C        C  355   4.269   4.158   3.861
    1C        C  356   4.121   4.312   3.981
    1C        C  357   4.175   4.268   4.104
    1C        C  358   4.005   4.396   4.223
    1C        C  359   4.124   4.321   4.224
    1C        C  360   3.945   4.436   4.344
    1C        C  361   4.013   4.409   4.465
    1C        C  362   3.824   4.510   4.583
    1C        C  363   3.955   4.456   4.585
    1C        C  364   3.757   4.539   4.704
    1C        C  365   3.830   4.531   4.825
    1C        C  366   3.621   4.579   4.943
    1C        C  367   3.760   4.568   4.940
    1C        C  368   4.501   3.558   2.051
    1C        C  369   4.521   3.483   2.167
    1C        C  370   4.502   3.701   2.282
    1C        C  371   4.518   3.561   2.285
    1C        C  372   4.482   3.771   2.403
    1C        C  373   4.494   3.700   2.525
    1C        C  374   4.426   3.904   2.644
    1C        C  375   4.477   3.772   2.644
    1C        C  376   4.390   3.967   2.765
    1C        C  377   4.420   3.906   2.889
    1C        C  378   4.318   4.092   3.006
    1C        C  379   4.394   3.973   3.010
    1C        C  380   4.275   4.153   3.126
    1C        C  381   4.310   4.094   3.250
    1C        C  382   4.170   4.252   3.371
    1C        C  383   4.268   4.151   3.373
    1C        C  384   4.120   4.302   3.493
    1C        C  385   4.172   4.259   3.617
    1C        C  386   4.002   4.388   3.735
    1C        C  387   4.117   4.307   3.738
    1C        C  388   3.938   4.423   3.857
    1C        C  389   4.002   4.388   3.978
    1C        C  390   3.813   4.484   4.099
    1C        C  391   3.943   4.428   4.100
    1C        C  392   3.748   4.515   4.221
    1C        C  393   3.817   4.496   4.343
    1C        C  394   3.611   4.547   4.467
    1C        C  395   3.750   4.526   4.464
    1C        C  396   3.540   4.562   4.589
    1C        C  397   3.618   4.562   4.707
    1C        C  398   3.404   4.546   4.833
    1C        C  399   3.544   4.565   4.827
    1C        C  400   3.336   4.503   4.948
    1C        C  401   4.508   3.697   2.047
    1C        C  402   4.451   3.910   2.161
    1C        C  403   4.492   3.775   2.162
    1C        C  404   4.409   3.970   2.282
    1C        C  405   4.427   3.901   2.404
    1C        C  406   4.324   4.091   2.520
    1C        C  407   4.400   3.971   2.523
    1C        C  408   4.273   4.143   2.640
    1C        C  409   4.311   4.085   2.763
    1C        C  410   4.170   4.244   2.882
    1C        C  411   4.273   4.147   2.884
    1C        C  412   4.116   4.291   3.004
    1C        C  413   4.171   4.248   3.127
    1C        C  414   3.997   4.372   3.246
    1C        C  415   4.116   4.297   3.248
    1C        C  416   3.936   4.405   3.369
    1C        C  417   4.000   4.377   3.491
    1C        C  418   3.809   4.472   3.611
    1C        C  419   3.938   4.416   3.612
    1C        C  420   3.744   4.506   3.733
    1C        C  421   3.810   4.482   3.855
    1C        C  422   3.606   4.536   3.982
    1C        C  423   3.742   4.499   3.978
    1C        C  424   3.535   4.543   4.104
    1C        C  425   3.609   4.536   4.224
    1C        C  426   3.397   4.542   4.349
    1C        C  427   3.538   4.548   4.346
    1C        C  428   3.328   4.536   4.473
    1C        C  429   3.400   4.552   4.594
    1C        C  430   3.188   4.517   4.715
    1C        C  431   3.327   4.543   4.715
    1C        C  432   3.117   4.488   4.835
    1C        C  433   3.197   4.488   4.950
    1C        C  434   4.375   4.117   2.044
    1C        C  435   4.439   3.992   2.048
    1C        C  436   4.300   4.157   2.159
    1C        C  437   4.332   4.089   2.280
    1C        C  438   4.177   4.243   2.396
    1C        C  439   4.282   4.148   2.398
    1C        C  440   4.119   4.290   2.516
    1C        C  441   4.170   4.240   2.638
    1C        C  442   3.999   4.368   2.760
    1C        C  443   4.115   4.287   2.760
    1C        C  444   3.937   4.406   2.881
    1C        C  445   3.997   4.368   3.003
    1C        C  446   3.805   4.463   3.124
    1C        C  447   3.934   4.405   3.124
    1C        C  448   3.741   4.488   3.247
    1C        C  449   3.809   4.468   3.369
    1C        C  450   3.602   4.522   3.491
    1C        C  451   3.740   4.492   3.490
    1C        C  452   3.535   4.538   3.615
    1C        C  453   3.606   4.536   3.737
    1C        C  454   3.395   4.538   3.859
    1C        C  455   3.536   4.544   3.859
    1C        C  456   3.325   4.528   3.981
    1C        C  457   3.394   4.535   4.104
    1C        C  458   3.189   4.497   4.230
    1C        C  459   3.326   4.530   4.228
    1C        C  460   3.122   4.475   4.353
    1C        C  461   3.191   4.503   4.473
    1C        C  462   2.993   4.427   4.597
    1C        C  463   3.120   4.489   4.594
    1C        C  464   2.923   4.394   4.715
    1C        C  465   2.985   4.434   4.836
    1C        C  466   2.794   4.335   4.953
    1C        C  467   2.901   4.426   4.952
    1C        C  468   4.119   4.284   2.038
    1C        C  469   4.186   4.244   2.154
    1C        C  470   4.003   4.363   2.271
    1C        C  471   4.126   4.291   2.274
    1C        C  472   3.938   4.395   2.393
    1C        C  473   4.001   4.366   2.516
    1C        C  474   3.808   4.459   2.636
    1C        C  475   3.936   4.398   2.637
    1C        C  476   3.741   4.489   2.757
    1C        C  477   3.808   4.464   2.879
    1C        C  478   3.602   4.516   3.001
    1C        C  479   3.741   4.488   3.001
    1C        C  480   3.532   4.524   3.124
    1C        C  481   3.603   4.521   3.246
    1C        C  482   3.392   4.532   3.370
    1C        C  483   3.533   4.530   3.368
    1C        C  484   3.324   4.524   3.493
    1C        C  485   3.393   4.536   3.615
    1C        C  486   3.185   4.497   3.741
    1C        C  487   3.323   4.528   3.737
    1C        C  488   3.121   4.471   3.864
    1C        C  489   3.189   4.492   3.987
    1C        C  490   2.999   4.399   4.109
    1C        C  491   3.120   4.472   4.109
    1C        C  492   2.939   4.369   4.233
    1C        C  493   2.996   4.411   4.355
    1C        C  494   2.826   4.289   4.478
    1C        C  495   2.933   4.381   4.478
    1C        C  496   2.766   4.250   4.600
    1C        C  497   2.812   4.305   4.721
    1C        C  498   2.653   4.162   4.838
    1C        C  499   2.744   4.269   4.840
    1C        C  500   2.587   4.113   4.952
    1C        C  501   3.994   4.346   2.032
    1C        C  502   3.810   4.457   2.151
    1C        C  503   3.935   4.391   2.151
    1C        C  504   3.740   4.473   2.272
    1C        C  505   3.809   4.453   2.393
    1C        C  506   3.602   4.508   2.513
    1C        C  507   3.740   4.477   2.514
    1C        C  508   3.531   4.512   2.635
    1C        C  509   3.601   4.512   2.758
    1C        C  510   3.390   4.520   2.880
    1C        C  511   3.531   4.521   2.879
    1C        C  512   3.321   4.518   3.003
    1C        C  513   3.391   4.522   3.125
    1C        C  514   3.185   4.483   3.249
    1C        C  515   3.321   4.524   3.248
    1C        C  516   3.121   4.459   3.373
    1C        C  517   3.188   4.484   3.494
    1C        C  518   2.999   4.398   3.620
    1C        C  519   3.123   4.465   3.618
    1C        C  520   2.940   4.361   3.743
    1C        C  521   3.001   4.398   3.865
    1C        C  522   2.830   4.271   3.989
    1C        C  523   2.942   4.357   3.987
    1C        C  524   2.784   4.222   4.114
    1C        C  525   2.831   4.278   4.235
    1C        C  526   2.687   4.124   4.360
    1C        C  527   2.777   4.233   4.358
    1C        C  528   2.641   4.069   4.482
    1C        C  529   2.677   4.140   4.599
    1C        C  530   2.574   3.956   4.727
    1C        C  531   2.629   4.087   4.721
    1C        C  532   2.529   3.896   4.849
    1C        C  533   2.521   3.989   4.957
    1C        C  534   3.617   4.548   2.033
    1C        C  535   3.750   4.505   2.034
    1C        C  536   3.533   4.529   2.148
    1C        C  537   3.602   4.509   2.271
    1C        C  538   3.389   4.514   2.390
    1C        C  539   3.530   4.517   2.392
    1C        C  540   3.319   4.505   2.513
    1C        C  541   3.390   4.506   2.635
    1C        C  542   3.181   4.479   2.762
    1C        C  543   3.319   4.509   2.758
    1C        C  544   3.118   4.455   2.886
    1C        C  545   3.185   4.480   3.008
    1C        C  546   2.991   4.389   3.128
    1C        C  547   3.116   4.454   3.129
    1C        C  548   2.932   4.357   3.252
    1C        C  549   2.995   4.394   3.373
    1C        C  550   2.830   4.270   3.500
    1C        C  551   2.938   4.360   3.498
    1C        C  552   2.779   4.220   3.622
    1C        C  553   2.828   4.274   3.742
    1C        C  554   2.693   4.113   3.867
    1C        C  555   2.781   4.224   3.866
    1C        C  556   2.654   4.055   3.990
    1C        C  557   2.694   4.113   4.112
    1C        C  558   2.585   3.939   4.239
    1C        C  559   2.655   4.061   4.238
    1C        C  560   2.555   3.874   4.362
    1C        C  561   2.579   3.942   4.483
    1C        C  562   2.520   3.746   4.610
    1C        C  563   2.549   3.885   4.608
    1C        C  564   2.508   3.676   4.732
    1C        C  565   2.517   3.754   4.851
    1C        C  566   2.519   3.541   4.973
    1C        C  567   2.523   3.680   4.970
    1C        C  568   3.322   4.460   2.034
    1C        C  569   3.393   4.504   2.147
    1C        C  570   3.182   4.467   2.275
    1C        C  571   3.319   4.502   2.268
    1C        C  572   3.115   4.445   2.397
    1C        C  573   3.182   4.470   2.519
    1C        C  574   2.988   4.386   2.641
    1C        C  575   3.114   4.452   2.641
    1C        C  576   2.931   4.349   2.765
    1C        C  577   2.993   4.390   2.886
    1C        C  578   2.821   4.261   3.012
    1C        C  579   2.932   4.347   3.006
    1C        C  580   2.768   4.214   3.135
    1C        C  581   2.824   4.265   3.254
    1C        C  582   2.686   4.111   3.378
    1C        C  583   2.778   4.218   3.379
    1C        C  584   2.648   4.051   3.500
    1C        C  585   2.691   4.108   3.622
    1C        C  586   2.587   3.928   3.752
    1C        C  587   2.656   4.052   3.746
    1C        C  588   2.552   3.865   3.873
    1C        C  589   2.583   3.933   3.994
    1C        C  590   2.529   3.733   4.122
    1C        C  591   2.556   3.872   4.118
    1C        C  592   2.512   3.668   4.246
    1C        C  593   2.515   3.739   4.368
    1C        C  594   2.504   3.530   4.493
    1C        C  595   2.507   3.671   4.492
    1C        C  596   2.510   3.460   4.616
    1C        C  597   2.507   3.534   4.737
    1C        C  598   2.526   3.321   4.857
    1C        C  599   2.516   3.461   4.857
    1C        C  600   2.532   3.245   4.975
    1C        C  601   3.187   4.433   2.038
    1C        C  602   2.976   4.385   2.154
    1C        C  603   3.111   4.435   2.156
    1C        C  604   2.920   4.350   2.280
    1C        C  605   2.987   4.383   2.399
    1C        C  606   2.820   4.254   2.521
    1C        C  607   2.927   4.346   2.521
    1C        C  608   2.769   4.209   2.645
    1C        C  609   2.822   4.259   2.766
    1C        C  610   2.678   4.106   2.890
    1C        C  611   2.772   4.211   2.889
    1C        C  612   2.642   4.047   3.013
    1C        C  613   2.678   4.106   3.137
    1C        C  614   2.580   3.920   3.261
    1C        C  615   2.640   4.048   3.260
    1C        C  616   2.556   3.859   3.387
    1C        C  617   2.584   3.926   3.508
    1C        C  618   2.515   3.726   3.631
    1C        C  619   2.559   3.860   3.631
    1C        C  620   2.506   3.660   3.756
    1C        C  621   2.516   3.729   3.879
    1C        C  622   2.500   3.520   4.006
    1C        C  623   2.509   3.660   4.002
    1C        C  624   2.501   3.452   4.130
    1C        C  625   2.501   3.528   4.250
    1C        C  626   2.530   3.318   4.374
    1C        C  627   2.506   3.457   4.372
    1C        C  628   2.549   3.250   4.496
    1C        C  629   2.531   3.321   4.617
    1C        C  630   2.592   3.113   4.738
    1C        C  631   2.547   3.248   4.737
    1C        C  632   2.610   3.041   4.860
    1C        C  633   2.555   3.107   4.975
    1C        C  634   2.775   4.300   2.052
    1C        C  635   2.888   4.383   2.042
    1C        C  636   2.741   4.224   2.164
    1C        C  637   2.803   4.269   2.283
    1C        C  638   2.670   4.099   2.405
    1C        C  639   2.756   4.211   2.402
    1C        C  640   2.636   4.040   2.529
    1C        C  641   2.681   4.099   2.649
    1C        C  642   2.576   3.914   2.771
    1C        C  643   2.640   4.040   2.771
    1C        C  644   2.546   3.854   2.895
    1C        C  645   2.579   3.920   3.016
    1C        C  646   2.512   3.720   3.142
    1C        C  647   2.555   3.855   3.139
    1C        C  648   2.503   3.651   3.265
    1C        C  649   2.522   3.722   3.387
    1C        C  650   2.499   3.513   3.513
    1C        C  651   2.506   3.654   3.510
    1C        C  652   2.508   3.451   3.639
    1C        C  653   2.504   3.519   3.763
    1C        C  654   2.523   3.308   3.882
    1C        C  655   2.502   3.448   3.885
    1C        C  656   2.543   3.245   4.007
    1C        C  657   2.532   3.314   4.130
    1C        C  658   2.607   3.118   4.252
    1C        C  659   2.554   3.249   4.254
    1C        C  660   2.636   3.055   4.375
    1C        C  661   2.602   3.119   4.496
    1C        C  662   2.705   2.932   4.619
    1C        C  663   2.630   3.051   4.617
    1C        C  664   2.748   2.872   4.740
    1C        C  665   2.696   2.927   4.860
    1C        C  666   2.736   2.864   4.979
    1C        C  667   2.666   4.016   2.050
    1C        C  668   2.672   4.100   2.161
    1C        C  669   2.587   3.904   2.286
    1C        C  670   2.637   4.037   2.282
    1C        C  671   2.548   3.843   2.408
    1C        C  672   2.569   3.916   2.527
    1C        C  673   2.507   3.713   2.653
    1C        C  674   2.544   3.850   2.649
    1C        C  675   2.500   3.646   2.777
    1C        C  676   2.514   3.716   2.899
    1C        C  677   2.502   3.506   3.022
    1C        C  678   2.504   3.647   3.022
    1C        C  679   2.501   3.438   3.146
    1C        C  680   2.498   3.510   3.268
    1C        C  681   2.523   3.302   3.395
    1C        C  682   2.497   3.441   3.391
    1C        C  683   2.549   3.240   3.519
    1C        C  684   2.532   3.311   3.639
    1C        C  685   2.605   3.111   3.765
    1C        C  686   2.549   3.241   3.761
    1C        C  687   2.632   3.049   3.888
    1C        C  688   2.594   3.113   4.008
    1C        C  689   2.711   2.935   4.133
    1C        C  690   2.632   3.052   4.129
    1C        C  691   2.752   2.876   4.254
    1C        C  692   2.712   2.936   4.376
    1C        C  693   2.752   2.877   4.498
    1C        C  694   2.617   3.885   2.050
    1C        C  695   2.512   3.699   2.169
    1C        C  696   2.570   3.828   2.169
    1C        C  697   2.490   3.632   2.292
    1C        C  698   2.512   3.707   2.410
    1C        C  699   2.475   3.501   2.536
    1C        C  700   2.488   3.642   2.533
    1C        C  701   2.487   3.432   2.659
    1C        C  702   2.495   3.505   2.779
    1C        C  703   2.521   3.294   2.905
    1C        C  704   2.497   3.433   2.901
    1C        C  705   2.543   3.231   3.029
    1C        C  706   2.524   3.299   3.151
    1C        C  707   2.600   3.103   3.276
    1C        C  708   2.541   3.231   3.274
    1C        C  709   2.640   3.045   3.399
    1C        C  710   2.606   3.110   3.520
    1C        C  711   2.717   2.931   3.646
    1C        C  712   2.637   3.047   3.643
    1C        C  713   2.755   2.875   3.770
    1C        C  714   2.711   2.932   3.891
    1C        C  715   2.752   2.872   4.013
    1C        C  716   2.440   3.494   2.058
    1C        C  717   2.488   3.625   2.053
    1C        C  718   2.459   3.416   2.177
    1C        C  719   2.469   3.492   2.296
    1C        C  720   2.505   3.285   2.422
    1C        C  721   2.474   3.422   2.419
    1C        C  722   2.532   3.217   2.543
    1C        C  723   2.516   3.294   2.661
    1C        C  724   2.590   3.095   2.788
    1C        C  725   2.536   3.225   2.783
    1C        C  726   2.622   3.033   2.911
    1C        C  727   2.591   3.098   3.033
    1C        C  728   2.704   2.918   3.154
    1C        C  729   2.627   3.036   3.155
    1C        C  730   2.753   2.870   3.277
    1C        C  731   2.714   2.925   3.401
    1C        C  732   2.756   2.870   3.524
    1C        C  733   2.489   3.196   2.065
    1C        C  734   2.487   3.275   2.181
    1C        C  735   2.572   3.078   2.302
    1C        C  736   2.518   3.210   2.303
    1C        C  737   2.608   3.016   2.424
    1C        C  738   2.584   3.085   2.544
    1C        C  739   2.699   2.910   2.664
    1C        C  740   2.620   3.027   2.668
    1C        C  741   2.742   2.855   2.787
    1C        C  742   2.700   2.915   2.908
    1C        C  743   2.744   2.861   3.031
    1C        C  744   2.533   3.064   2.069
    1C        C  745   2.678   2.894   2.182
    1C        C  746   2.598   3.010   2.181
    1C        C  747   2.723   2.836   2.302
    1C        C  748   2.681   2.895   2.423
    1C        C  749   2.732   2.843   2.544
    1C        C  750   2.734   2.839   2.066
    1C        C  751   3.664   2.300   1.984
    1C        O  752   3.709   2.197   2.041
    1C        O  753   3.718   2.320   1.857
    1C        C  754   4.627   3.044   1.970
    1C        O  755   4.612   3.041   1.845
    1C        O  756   4.759   3.022   2.012
    1C        C  757   4.438   4.222   1.961
    1C        O  758   4.467   4.339   1.998
    1C        O  759   4.453   4.207   1.823
    1C        C  760   3.585   4.656   1.937
    1C        O  761   3.608   4.778   1.958
    1C        O  762   3.606   4.625   1.803
    1C        C  763   2.885   4.486   1.935
    1C        O  764   2.940   4.469   1.822
    1C        O  765   2.791   4.589   1.933
    1C        C  766   2.318   3.484   1.975
    1C        O  767   2.319   3.510   1.852
    1C        O  768   2.195   3.517   2.033
    1C        C  769   4.682   3.593   5.057
    1C        O  770   4.675   3.526   5.164
    1C        O  771   4.809   3.649   5.046
    1C        C  772   4.258   4.439   5.042
    1C        O  773   4.237   4.428   5.166
    1C        O  774   4.332   4.557   5.030
    1C        C  775   4.123   2.546   5.093
    1C        O  776   4.192   2.441   5.081
    1C        O  777   4.087   2.571   5.226
    1C        C  778   2.888   4.538   5.049
    1C        O  779   2.848   4.650   5.008
    1C        O  780   2.870   4.533   5.187
    1C        C  781   2.466   3.033   5.067
    1C        O  782   2.364   2.969   5.029
    1C        O  783   2.447   3.063   5.201
    1C        C  784   2.416   3.979   5.060
    1C        O  785   2.295   4.007   5.037
    1C        O  786   2.446   3.915   5.181
    1C        C  787   2.948   2.415   1.995
    1C        O  788   2.983   2.389   1.877
    1C        O  789   2.891   2.302   2.053
    1C        C  790   3.181   2.357   5.048
    1C        O  791   3.145   2.243   5.008
    1C        O  792   3.236   2.354   5.176
    1C        H  793   4.336   2.971   5.060
    1C        H  794   4.152   2.831   5.058
    1C        H  795   4.506   3.117   5.051
    1C        H  796   4.485   3.370   5.049
    1C        H  797   4.563   3.804   5.034
    1C        H  798   4.416   3.971   5.049
    1C        H  799   4.271   4.158   5.047
    1C        H  800   4.021   4.522   5.027
    1C        H  801   3.810   4.629   5.013
    1C        H  802   3.574   4.623   5.028
    1C        H  803   3.387   4.482   5.039
    1C        H  804   3.151   4.449   5.039
    1C        H  805   3.890   2.463   5.053
    1C        H  806   3.670   2.494   5.070
    1C        H  807   3.001   2.570   5.063
    1C        H  808   3.433   2.443   5.066
    1C        H  809   2.860   2.718   5.071
    1C        H  810   2.688   2.883   5.072
    1C        H  811   2.585   3.288   5.057
    1C        H  812   2.557   3.499   5.064
    1C        H  813   2.538   3.724   5.067
    1C        H  814   2.607   4.156   5.048
    1C        H  815   2.787   4.279   5.044
    1C        H  816   2.693   2.868   1.971
    1C        H  817   2.837   2.679   1.972
    1C        H  818   3.203   2.404   1.994
    1C        H  819   3.421   2.393   1.979
    1C        H  820   3.854   2.489   1.969
    1C        H  821   4.056   2.617   1.961
    1C        H  822   4.287   2.688   1.995
    1C        H  823   4.398   2.898   1.961
    1C        H  824   4.563   3.301   1.960
    1C        H  825   4.491   3.509   1.956
    1C        H  826   4.561   3.732   1.961
    1C        H  827   3.820   4.539   1.961
    1C        H  828   3.981   4.396   1.939
    1C        H  829   4.181   4.302   1.953
    1C        H  830   4.483   3.955   1.957
    1C        H  831   2.677   3.814   1.996
    1C        H  832   2.730   4.036   1.966
    1C        H  833   2.711   4.291   1.967
    1C        H  834   3.379   4.405   1.962
    1C        H  835   3.138   4.407   1.947
    1C        H  836   2.499   2.995   1.994
    1C        H  837   2.429   3.224   1.981
    1C        H  838   2.482   3.679   1.960
    2V3OU   H29  839   2.803   3.533   1.553
    2V3OU   C27  840   2.778   3.496   1.656
    2V3OU   H27  841   2.714   3.572   1.708
    2V3OU   H28  842   2.710   3.407   1.648
    2V3OU   O11  843   2.905   3.468   1.715
    2V3OU   C15  844   2.914   3.392   1.830
    2V3OU   C13  845   3.045   3.368   1.877
    2V3OU   C14  846   3.072   3.265   1.967
    2V3OU   C16  847   2.966   3.188   2.014
    2V3OU    H6  848   2.988   3.092   2.064
    2V3OU   C12  849   3.209   3.225   2.009
    2V3OU    O2  850   3.235   3.118   2.068
    2V3OU   C10  851   3.321   3.304   1.955
    2V3OU    C8  852   3.453   3.269   1.980
    2V3OU   O10  853   3.482   3.149   2.037
    2V3OU   H26  854   3.398   3.113   2.068
    2V3OU    C6  855   3.561   3.347   1.929
    2V3OU    C5  856   3.534   3.464   1.858
    2V3OU    C4  857   3.696   3.285   1.927
    2V3OU    H4  858   3.714   3.225   2.021
    2V3OU    H5  859   3.706   3.215   1.838
    2V3OU    C2  860   3.807   3.390   1.914
    2V3OU    O6  861   3.804   3.467   2.035
    2V3OU   H21  862   3.756   3.549   2.014
    2V3OU    C3  863   3.778   3.490   1.802
    2V3OU    H2  864   3.864   3.562   1.798
    2V3OU    H3  865   3.774   3.434   1.705
    2V3OU   C25  866   3.944   3.325   1.892
    2V3OU    O7  867   3.987   3.285   1.784
    2V3OU   C26  868   4.025   3.288   2.015
    2V3OU   H22  869   4.074   3.380   2.054
    2V3OU   H23  870   4.109   3.219   1.985
    2V3OU    O8  871   3.961   3.209   2.113
    2V3OU   H24  872   3.926   3.264   2.185
    2V3OU    C1  873   3.645   3.560   1.825
    2V3OU    H1  874   3.618   3.614   1.730
    2V3OU    O3  875   3.654   3.650   1.936
    2V3OU   C19  876   3.613   3.787   1.930
    2V3OU    H9  877   3.515   3.805   1.877
    2V3OU    O4  878   3.711   3.843   1.846
    2V3OU   C20  879   3.841   3.869   1.897
    2V3OU   H10  880   3.894   3.770   1.905
    2V3OU   C24  881   3.601   3.847   2.071
    2V3OU   H16  882   3.535   3.784   2.135
    2V3OU   H17  883   3.563   3.952   2.064
    2V3OU   C23  884   3.739   3.870   2.132
    2V3OU   H15  885   3.780   3.767   2.158
    2V3OU    N1  886   3.731   3.949   2.254
    2V3OU   H19  887   3.803   3.931   2.321
    2V3OU   H20  888   3.646   3.936   2.304
    2V3OU   C21  889   3.838   3.939   2.033
    2V3OU   H11  890   3.942   3.923   2.074
    2V3OU    O5  891   3.820   4.080   2.027
    2V3OU   H18  892   3.778   4.097   2.113
    2V3OU   C22  893   3.912   3.941   1.784
    2V3OU   H12  894   3.870   4.045   1.773
    2V3OU   H13  895   3.904   3.882   1.689
    2V3OU   H14  896   4.019   3.957   1.811
    2V3OU   C11  897   3.151   3.468   1.860
    2V3OU    O1  898   3.131   3.585   1.822
    2V3OU    C9  899   3.290   3.424   1.885
    2V3OU    C7  900   3.397   3.501   1.841
    2V3OU    O9  901   3.380   3.604   1.751
    2V3OU   H25  902   3.286   3.618   1.735
    2V3OU   C17  903   2.810   3.309   1.877
    2V3OU    H7  904   2.707   3.335   1.855
    2V3OU   C18  905   2.836   3.209   1.970
    2V3OU    H8  906   2.757   3.132   1.973
    3SOL     OW  907   1.953   4.109   1.469
    3SOL    HW1  908   2.042   4.086   1.431
    3SOL    HW2  909   1.947   4.208   1.482
    4SOL     OW  910   5.794   0.204   1.637
    4SOL    HW1  911   5.816   0.132   1.703
    4SOL    HW2  912   5.714   0.178   1.584
    5SOL     OW  913   4.133   1.384   1.109
    5SOL    HW1  914   4.195   1.334   1.050
    5SOL    HW2  915   4.096   1.323   1.179
    6SOL     OW  916   3.196   1.952   2.151
    6SOL    HW1  917   3.125   2.014   2.184
    6SOL    HW2  918   3.192   1.947   2.052
    7SOL     OW  919   5.946   2.351   2.146
    7SOL    HW1  920   5.873   2.373   2.211
    7SOL    HW2  921   6.035   2.372   2.187
    8SOL     OW  922   2.434   6.677   4.192
    8SOL    HW1  923   2.364   6.616   4.230
    8SOL    HW2  924   2.426   6.679   4.092
    9SOL     OW  925   1.726   5.361   5.851
    9SOL    HW1  926   1.808   5.417   5.865
    9SOL    HW2  927   1.702   5.315   5.937
   10SOL     OW  928   0.553   4.653   6.184
   10SOL    HW1  929   0.525   4.748   6.200
   10SOL    HW2  930   0.628   4.652   6.117
   11SOL     OW  931   3.820   6.592   0.321
   11SOL    HW1  932   3.861   6.503   0.337
   11SOL    HW2  933   3.803   6.638   0.408
   12SOL     OW  934   5.042   5.510   3.182
   12SOL    HW1  935   4.998   5.503   3.092
   12SOL    HW2  936   4.973   5.537   3.250
   13SOL     OW  937   2.969   6.458   4.194
   13SOL    HW1  938   2.947   6.507   4.278
   13SOL    HW2  939   2.914   6.495   4.119
   14SOL     OW  940   3.683   5.759   6.762
   14SOL    HW1  941   3.722   5.682   6.814
   14SOL    HW2  942   3.754   5.827   6.746
   15SOL     OW  943   1.063   6.020   6.811
   15SOL    HW1  944   0.988   6.049   6.751
   15SOL    HW2  945   1.115   6.100   6.842
   16SOL     OW  946   6.793   1.860   5.898
   16SOL    HW1  947   6.792   1.943   5.841
   16SOL    HW2  948   6.739   1.876   5.980
   17SOL     OW  949   5.340   6.432   4.152
   17SOL    HW1  950   5.333   6.443   4.053
   17SOL    HW2  951   5.315   6.518   4.196
   18SOL     OW  952   2.050   2.075   5.813
   18SOL    HW1  953   2.000   2.157   5.786
   18SOL    HW2  954   2.149   2.092   5.806
   19SOL     OW  955   0.113   0.051   2.876
   19SOL    HW1  956   0.123   0.091   2.785
   19SOL    HW2  957   0.041   6.992   2.873
   20SOL     OW  958   3.487   1.580   4.185
   20SOL    HW1  959   3.506   1.508   4.117
   20SOL    HW2  960   3.395   1.569   4.221
   21SOL     OW  961   2.939   1.612   2.047
   21SOL    HW1  962   2.865   1.671   2.016
   21SOL    HW2  963   2.925   1.519   2.014
   22SOL     OW  964   2.260   6.462   6.550
   22SOL    HW1  965   2.204   6.542   6.571
   22SOL    HW2  966   2.214   6.405   6.482
   23SOL     OW  967   4.321   6.275   3.772
   23SOL    HW1  968   4.302   6.177   3.765
   23SOL    HW2  969   4.417   6.292   3.749
   24SOL     OW  970   5.269   0.948   4.347
   24SOL    HW1  971   5.287   0.926   4.251
   24SOL    HW2  972   5.247   0.864   4.396
   25SOL     OW  973   3.149   5.503   0.183
   25SOL    HW1  974   3.228   5.542   0.136
   25SOL    HW2  975   3.103   5.575   0.235
   26SOL     OW  976   6.425   1.397   1.681
   26SOL    HW1  977   6.336   1.352   1.688
   26SOL    HW2  978   6.433   1.440   1.591
   27SOL     OW  979   6.347   0.109   2.587
   27SOL    HW1  980   6.365   0.205   2.609
   27SOL    HW2  981   6.418   0.074   2.527
   28SOL     OW  982   4.117   0.926   6.636
   28SOL    HW1  983   4.189   0.922   6.567
   28SOL    HW2  984   4.063   1.009   6.623
   29SOL     OW  985   5.180   2.484   2.198
   29SOL    HW1  986   5.249   2.504   2.268
   29SOL    HW2  987   5.180   2.387   2.177
   30SOL     OW  988   2.660   0.032   5.442
   30SOL    HW1  989   2.759   0.019   5.443
   30SOL    HW2  990   2.625   0.013   5.350
   31SOL     OW  991   1.097   0.922   5.218
   31SOL    HW1  992   1.027   0.968   5.164
   31SOL    HW2  993   1.058   0.841   5.262
   32SOL     OW  994   0.749   2.056   2.583
   32SOL    HW1  995   0.731   2.119   2.659
   32SOL    HW2  996   0.797   1.975   2.618
   33SOL     OW  997   1.563   2.911   5.720
   33SOL    HW1  998   1.542   2.879   5.628
   33SOL    HW2  999   1.630   2.986   5.715
   34SOL     OW 1000   2.027   0.169   4.745
   34SOL    HW1 1001   1.968   0.089   4.759
   34SOL    HW2 1002   2.115   0.154   4.790
   35SOL     OW 1003   4.098   1.789   6.947
   35SOL    HW1 1004   4.035   1.769   6.872
   35SOL    HW2 1005   4.173   1.723   6.945
   36SOL     OW 1006   1.055   0.805   6.540
   36SOL    HW1 1007   1.093   0.891   6.507
   36SOL    HW2 1008   1.128   0.740   6.557
   37SOL     OW 1009   2.499   6.522   1.456
   37SOL    HW1 1010   2.427   6.543   1.390
   37SOL    HW2 1011   2.556   6.602   1.470
   38SOL     OW 1012   6.884   6.192   2.857
   38SOL    HW1 1013   6.952   6.144   2.913
   38SOL    HW2 1014   6.921   6.280   2.828
   39SOL     OW 1015   6.119   3.680   5.876
   39SOL    HW1 1016   6.143   3.660   5.971
   39SOL    HW2 1017   6.040   3.625   5.849
   40SOL     OW 1018   6.429   1.392   2.686
   40SOL    HW1 1019   6.357   1.360   2.748
   40SOL    HW2 1020   6.431   1.334   2.604
   41SOL     OW 1021   1.527   6.763   4.358
   41SOL    HW1 1022   1.565   6.712   4.281
   41SOL    HW2 1023   1.598   6.821   4.398
   42SOL     OW 1024   3.430   6.953   6.218
   42SOL    HW1 1025   3.337   6.953   6.182
   42SOL    HW2 1026   3.427   6.963   6.317
   43SOL     OW 1027   5.605   6.491   5.710
   43SOL    HW1 1028   5.606   6.586   5.739
   43SOL    HW2 1029   5.512   6.466   5.681
   44SOL     OW 1030   0.244   2.945   6.284
   44SOL    HW1 1031   0.228   3.043   6.287
   44SOL    HW2 1032   0.219   2.910   6.193
   45SOL     OW 1033   3.064   0.673   2.383
   45SOL    HW1 1034   3.060   0.766   2.347
   45SOL    HW2 1035   3.135   0.667   2.453
   46SOL     OW 1036   1.308   3.613   4.337
   46SOL    HW1 1037   1.261   3.701   4.330
   46SOL    HW2 1038   1.332   3.581   4.245
   47SOL     OW 1039   6.098   4.024   3.466
   47SOL    HW1 1040   6.029   3.952   3.458
   47SOL    HW2 1041   6.141   4.019   3.556
   48SOL     OW 1042   0.474   2.846   4.561
   48SOL    HW1 1043   0.435   2.828   4.471
   48SOL    HW2 1044   0.401   2.854   4.629
   49SOL     OW 1045   4.441   4.249   1.057
   49SOL    HW1 1046   4.484   4.176   1.003
   49SOL    HW2 1047   4.359   4.213   1.102
   50SOL     OW 1048   6.788   3.438   4.661
   50SOL    HW1 1049   6.731   3.439   4.579
   50SOL    HW2 1050   6.865   3.501   4.650
   51SOL     OW 1051   3.412   4.919   2.766
   51SOL    HW1 1052   3.340   4.892   2.702
   51SOL    HW2 1053   3.386   4.891   2.859
   52SOL     OW 1054   2.991   1.665   2.552
   52SOL    HW1 1055   2.961   1.607   2.627
   52SOL    HW2 1056   2.961   1.625   2.465
   53SOL     OW 1057   4.758   6.866   3.848
   53SOL    HW1 1058   4.852   6.852   3.879
   53SOL    HW2 1059   4.743   6.813   3.764
   54SOL     OW 1060   2.829   4.948   6.161
   54SOL    HW1 1061   2.872   4.898   6.086
   54SOL    HW2 1062   2.758   5.008   6.124
   55SOL     OW 1063   3.890   1.236   5.952
   55SOL    HW1 1064   3.956   1.161   5.941
   55SOL    HW2 1065   3.842   1.250   5.866
   56SOL     OW 1066   1.705   0.805   2.535
   56SOL    HW1 1067   1.631   0.746   2.566
   56SOL    HW2 1068   1.671   0.865   2.463
   57SOL     OW 1069   5.131   0.985   0.641
   57SOL    HW1 1070   5.062   1.013   0.574
   57SOL    HW2 1071   5.163   1.065   0.692
   58SOL     OW 1072   0.312   6.221   7.009
   58SOL    HW1 1073   0.404   6.194   6.983
   58SOL    HW2 1074   0.314   6.266   0.087
   59SOL     OW 1075   1.766   0.416   5.724
   59SOL    HW1 1076   1.755   0.436   5.822
   59SOL    HW2 1077   1.759   0.501   5.672
   60SOL     OW 1078   4.473   0.169   5.767
   60SOL    HW1 1079   4.422   0.247   5.802
   60SOL    HW2 1080   4.479   0.099   5.838
   61SOL     OW 1081   4.986   0.243   4.148
   61SOL    HW1 1082   4.995   0.211   4.054
   61SOL    HW2 1083   4.989   0.165   4.211
   62SOL     OW 1084   1.050   0.424   3.866
   62SOL    HW1 1085   1.110   0.445   3.788
   62SOL    HW2 1086   1.018   0.509   3.908
   63SOL     OW 1087   6.490   2.386   3.315
   63SOL    HW1 1088   6.435   2.430   3.386
   63SOL    HW2 1089   6.587   2.390   3.341
   64SOL     OW 1090   6.434   3.755   6.204
   64SOL    HW1 1091   6.483   3.784   6.286
   64SOL    HW2 1092   6.438   3.828   6.135
   65SOL     OW 1093   6.727   4.914   4.843
   65SOL    HW1 1094   6.733   4.956   4.934
   65SOL    HW2 1095   6.632   4.896   4.820
   66SOL     OW 1096   3.693   0.605   6.562
   66SOL    HW1 1097   3.602   0.639   6.588
   66SOL    HW2 1098   3.713   0.521   6.613
   67SOL     OW 1099   5.828   6.503   5.242
   67SOL    HW1 1100   5.862   6.524   5.334
   67SOL    HW2 1101   5.905   6.491   5.180
   68SOL     OW 1102   5.903   1.544   6.752
   68SOL    HW1 1103   5.908   1.513   6.847
   68SOL    HW2 1104   5.808   1.545   6.723
   69SOL     OW 1105   2.041   4.255   6.133
   69SOL    HW1 1106   2.033   4.312   6.051
   69SOL    HW2 1107   2.070   4.163   6.107
   70SOL     OW 1108   6.570   5.409   2.778
   70SOL    HW1 1109   6.477   5.404   2.741
   70SOL    HW2 1110   6.601   5.504   2.779
   71SOL     OW 1111   2.655   2.403   3.560
   71SOL    HW1 1112   2.734   2.345   3.582
   71SOL    HW2 1113   2.647   2.475   3.629
   72SOL     OW 1114   3.087   5.821   3.856
   72SOL    HW1 1115   3.182   5.826   3.888
   72SOL    HW2 1116   3.051   5.730   3.874
   73SOL     OW 1117   3.238   2.284   6.700
   73SOL    HW1 1118   3.167   2.265   6.632
   73SOL    HW2 1119   3.323   2.307   6.653
   74SOL     OW 1120   5.251   6.686   0.041
   74SOL    HW1 1121   5.249   6.756   6.981
   74SOL    HW2 1122   5.327   6.623   0.024
   75SOL     OW 1123   3.330   5.472   5.227
   75SOL    HW1 1124   3.254   5.410   5.212
   75SOL    HW2 1125   3.393   5.432   5.293
   76SOL     OW 1126   2.255   2.095   1.003
   76SOL    HW1 1127   2.284   2.021   0.942
   76SOL    HW2 1128   2.174   2.139   0.965
   77SOL     OW 1129   5.370   5.435   4.983
   77SOL    HW1 1130   5.346   5.353   5.035
   77SOL    HW2 1131   5.459   5.423   4.940
   78SOL     OW 1132   6.263   6.403   6.242
   78SOL    HW1 1133   6.172   6.371   6.265
   78SOL    HW2 1134   6.278   6.392   6.143
   79SOL     OW 1135   3.380   0.140   0.817
   79SOL    HW1 1136   3.293   0.189   0.814
   79SOL    HW2 1137   3.377   0.063   0.753
   80SOL     OW 1138   6.455   0.746   5.146
   80SOL    HW1 1139   6.445   0.806   5.067
   80SOL    HW2 1140   6.482   0.799   5.226
   81SOL     OW 1141   2.023   0.839   2.804
   81SOL    HW1 1142   1.929   0.868   2.821
   81SOL    HW2 1143   2.082   0.871   2.878
   82SOL     OW 1144   6.606   4.976   6.748
   82SOL    HW1 1145   6.655   4.982   6.661
   82SOL    HW2 1146   6.511   4.951   6.730
   83SOL     OW 1147   6.938   6.912   0.635
   83SOL    HW1 1148   6.853   6.940   0.679
   83SOL    HW2 1149   6.928   6.919   0.535
   84SOL     OW 1150   5.591   3.639   2.204
   84SOL    HW1 1151   5.586   3.543   2.233
   84SOL    HW2 1152   5.558   3.647   2.110
   85SOL     OW 1153   0.645   1.250   5.130
   85SOL    HW1 1154   0.705   1.259   5.210
   85SOL    HW2 1155   0.552   1.232   5.161
   86SOL     OW 1156   0.242   0.350   5.863
   86SOL    HW1 1157   0.241   0.450   5.871
   86SOL    HW2 1158   0.168   0.312   5.917
   87SOL     OW 1159   4.729   2.738   0.233
   87SOL    HW1 1160   4.749   2.836   0.240
   87SOL    HW2 1161   4.781   2.698   0.158
   88SOL     OW 1162   5.102   1.641   0.211
   88SOL    HW1 1163   5.041   1.563   0.198
   88SOL    HW2 1164   5.096   1.672   0.306
   89SOL     OW 1165   1.489   2.656   6.507
   89SOL    HW1 1166   1.446   2.656   6.597
   89SOL    HW2 1167   1.444   2.587   6.449
   90SOL     OW 1168   5.463   6.403   3.689
   90SOL    HW1 1169   5.405   6.338   3.641
   90SOL    HW2 1170   5.548   6.416   3.638
   91SOL     OW 1171   4.643   4.410   3.862
   91SOL    HW1 1172   4.620   4.386   3.957
   91SOL    HW2 1173   4.699   4.493   3.862
   92SOL     OW 1174   3.085   5.470   0.451
   92SOL    HW1 1175   3.111   5.474   0.355
   92SOL    HW2 1176   3.116   5.383   0.491
   93SOL     OW 1177   3.174   4.485   5.900
   93SOL    HW1 1178   3.084   4.443   5.911
   93SOL    HW2 1179   3.167   4.565   5.841
   94SOL     OW 1180   3.195   5.396   6.901
   94SOL    HW1 1181   3.284   5.357   6.922
   94SOL    HW2 1182   3.197   5.495   6.919
   95SOL     OW 1183   0.452   1.056   3.472
   95SOL    HW1 1184   0.513   1.025   3.400
   95SOL    HW2 1185   0.499   1.054   3.560
   96SOL     OW 1186   2.278   6.892   5.436
   96SOL    HW1 1187   2.256   6.936   5.523
   96SOL    HW2 1188   2.214   6.817   5.421
   97SOL     OW 1189   6.393   4.180   4.570
   97SOL    HW1 1190   6.320   4.247   4.582
   97SOL    HW2 1191   6.353   4.089   4.555
   98SOL     OW 1192   5.792   2.737   6.602
   98SOL    HW1 1193   5.888   2.737   6.576
   98SOL    HW2 1194   5.783   2.765   6.698
   99SOL     OW 1195   4.243   2.970   0.914
   99SOL    HW1 1196   4.201   3.004   0.830
   99SOL    HW2 1197   4.200   3.015   0.993
  100SOL     OW 1198   0.433   6.914   6.690
  100SOL    HW1 1199   0.469   6.982   6.626
  100SOL    HW2 1200   0.478   6.826   6.673
  101SOL     OW 1201   0.691   5.661   3.483
  101SOL    HW1 1202   0.782   5.700   3.466
  101SOL    HW2 1203   0.637   5.725   3.538
  102SOL     OW 1204   4.249   0.468   3.184
  102SOL    HW1 1205   4.160   0.452   3.227
  102SOL    HW2 1206   4.309   0.518   3.247
  103SOL     OW 1207   4.150   1.488   1.807
  103SOL    HW1 1208   4.115   1.553   1.739
  103SOL    HW2 1209   4.244   1.463   1.784
  104SOL     OW 1210   6.386   5.251   2.959
  104SOL    HW1 1211   6.431   5.287   2.877
  104SOL    HW2 1212   6.315   5.186   2.932
  105SOL     OW 1213   6.809   0.972   6.754
  105SOL    HW1 1214   6.839   1.020   6.837
  105SOL    HW2 1215   6.714   0.993   6.735
  106SOL     OW 1216   2.564   6.550   6.604
  106SOL    HW1 1217   2.498   6.475   6.615
  106SOL    HW2 1218   2.593   6.581   6.694
  107SOL     OW 1219   1.623   2.017   1.307
  107SOL    HW1 1220   1.598   1.962   1.386
  107SOL    HW2 1221   1.722   2.016   1.296
  108SOL     OW 1222   4.875   4.581   0.049
  108SOL    HW1 1223   4.813   4.513   0.010
  108SOL    HW2 1224   4.948   4.602   6.995
  109SOL     OW 1225   0.654   0.501   1.310
  109SOL    HW1 1226   0.747   0.536   1.315
  109SOL    HW2 1227   0.603   0.550   1.239
  110SOL     OW 1228   3.612   5.718   5.687
  110SOL    HW1 1229   3.600   5.690   5.592
  110SOL    HW2 1230   3.654   5.643   5.739
  111SOL     OW 1231   3.887   0.692   4.118
  111SOL    HW1 1232   3.882   0.791   4.107
  111SOL    HW2 1233   3.909   0.650   4.030
  112SOL     OW 1234   5.784   5.999   5.829
  112SOL    HW1 1235   5.713   6.065   5.855
  112SOL    HW2 1236   5.870   6.047   5.814
  113SOL     OW 1237   6.470   4.887   3.527
  113SOL    HW1 1238   6.431   4.875   3.619
  113SOL    HW2 1239   6.544   4.954   3.531
  114SOL     OW 1240   0.614   6.792   0.774
  114SOL    HW1 1241   0.653   6.881   0.750
  114SOL    HW2 1242   0.519   6.804   0.801
  115SOL     OW 1243   4.829   1.043   4.168
  115SOL    HW1 1244   4.762   1.066   4.097
  115SOL    HW2 1245   4.841   0.943   4.171
  116SOL     OW 1246   6.235   4.790   2.144
  116SOL    HW1 1247   6.315   4.731   2.157
  116SOL    HW2 1248   6.265   4.880   2.115
  117SOL     OW 1249   0.619   1.040   6.276
  117SOL    HW1 1250   0.649   0.970   6.212
  117SOL    HW2 1251   0.680   1.119   6.271
  118SOL     OW 1252   0.406   1.121   1.509
  118SOL    HW1 1253   0.495   1.166   1.498
  118SOL    HW2 1254   0.334   1.181   1.472
  119SOL     OW 1255   6.989   1.990   6.155
  119SOL    HW1 1256   7.004   1.981   6.253
  119SOL    HW2 1257   0.032   2.067   6.120
  120SOL     OW 1258   6.203   0.492   0.766
  120SOL    HW1 1259   6.132   0.442   0.717
  120SOL    HW2 1260   6.212   0.455   0.858
  121SOL     OW 1261   2.573   3.408   6.754
  121SOL    HW1 1262   2.590   3.449   6.843
  121SOL    HW2 1263   2.576   3.308   6.762
  122SOL     OW 1264   1.557   4.075   5.033
  122SOL    HW1 1265   1.628   4.134   5.071
  122SOL    HW2 1266   1.479   4.131   5.005
  123SOL     OW 1267   0.166   2.199   1.107
  123SOL    HW1 1268   0.234   2.203   1.034
  123SOL    HW2 1269   0.094   2.135   1.081
  124SOL     OW 1270   4.976   3.631   0.495
  124SOL    HW1 1271   4.907   3.655   0.427
  124SOL    HW2 1272   4.940   3.558   0.554
  125SOL     OW 1273   1.990   1.863   2.624
  125SOL    HW1 1274   1.927   1.936   2.599
  125SOL    HW2 1275   2.074   1.902   2.662
  126SOL     OW 1276   3.293   4.412   0.658
  126SOL    HW1 1277   3.253   4.321   0.665
  126SOL    HW2 1278   3.291   4.456   0.748
  127SOL     OW 1279   6.829   4.652   6.121
  127SOL    HW1 1280   6.824   4.586   6.196
  127SOL    HW2 1281   6.838   4.603   6.034
  128SOL     OW 1282   4.565   2.568   1.854
  128SOL    HW1 1283   4.573   2.542   1.950
  128SOL    HW2 1284   4.615   2.503   1.798
  129SOL     OW 1285   3.612   3.305   6.349
  129SOL    HW1 1286   3.604   3.388   6.294
  129SOL    HW2 1287   3.698   3.258   6.326
  130SOL     OW 1288   1.107   0.951   4.263
  130SOL    HW1 1289   1.020   0.999   4.265
  130SOL    HW2 1290   1.110   0.883   4.337
  131SOL     OW 1291   4.452   1.296   3.480
  131SOL    HW1 1292   4.528   1.287   3.416
  131SOL    HW2 1293   4.487   1.309   3.572
  132SOL     OW 1294   1.515   2.674   1.060
  132SOL    HW1 1295   1.421   2.646   1.041
  132SOL    HW2 1296   1.578   2.612   1.014
  133SOL     OW 1297   5.641   6.498   2.770
  133SOL    HW1 1298   5.698   6.476   2.691
  133SOL    HW2 1299   5.547   6.468   2.753
  134SOL     OW 1300   5.912   2.623   3.206
  134SOL    HW1 1301   5.893   2.720   3.193
  134SOL    HW2 1302   5.997   2.599   3.161
  135SOL     OW 1303   5.269   1.753   3.508
  135SOL    HW1 1304   5.360   1.782   3.537
  135SOL    HW2 1305   5.260   1.766   3.410
  136SOL     OW 1306   5.039   4.303   5.591
  136SOL    HW1 1307   5.121   4.337   5.637
  136SOL    HW2 1308   4.959   4.319   5.650
  137SOL     OW 1309   4.623   6.947   5.423
  137SOL    HW1 1310   4.605   0.023   5.468
  137SOL    HW2 1311   4.622   6.959   5.324
  138SOL     OW 1312   0.377   4.989   4.323
  138SOL    HW1 1313   0.463   4.938   4.328
  138SOL    HW2 1314   0.380   5.066   4.388
  139SOL     OW 1315   2.557   5.416   5.110
  139SOL    HW1 1316   2.569   5.515   5.112
  139SOL    HW2 1317   2.577   5.378   5.201
  140SOL     OW 1318   6.095   5.048   4.455
  140SOL    HW1 1319   6.160   5.110   4.410
  140SOL    HW2 1320   6.135   4.957   4.459
  141SOL     OW 1321   1.085   1.621   5.470
  141SOL    HW1 1322   1.051   1.678   5.545
  141SOL    HW2 1323   1.151   1.673   5.415
  142SOL     OW 1324   1.479   6.202   1.756
  142SOL    HW1 1325   1.469   6.105   1.777
  142SOL    HW2 1326   1.445   6.220   1.664
  143SOL     OW 1327   5.458   4.370   1.946
  143SOL    HW1 1328   5.445   4.271   1.940
  143SOL    HW2 1329   5.446   4.411   1.856
  144SOL     OW 1330   1.552   6.459   6.367
  144SOL    HW1 1331   1.623   6.404   6.324
  144SOL    HW2 1332   1.563   6.554   6.340
  145SOL     OW 1333   1.046   5.169   0.690
  145SOL    HW1 1334   0.973   5.144   0.754
  145SOL    HW2 1335   1.097   5.247   0.726
  146SOL     OW 1336   4.854   6.704   0.159
  146SOL    HW1 1337   4.950   6.727   0.171
  146SOL    HW2 1338   4.810   6.698   0.249
  147SOL     OW 1339   6.588   2.681   0.212
  147SOL    HW1 1340   6.581   2.771   0.170
  147SOL    HW2 1341   6.662   2.630   0.168
  148SOL     OW 1342   0.509   5.210   5.253
  148SOL    HW1 1343   0.570   5.225   5.331
  148SOL    HW2 1344   0.507   5.113   5.230
  149SOL     OW 1345   2.771   1.288   3.945
  149SOL    HW1 1346   2.786   1.375   3.898
  149SOL    HW2 1347   2.844   1.271   4.010
  150SOL     OW 1348   6.878   4.900   6.229
  150SOL    HW1 1349   6.878   4.806   6.195
  150SOL    HW2 1350   6.958   4.914   6.287
  151SOL     OW 1351   3.587   1.818   1.063
  151SOL    HW1 1352   3.646   1.861   1.130
  151SOL    HW2 1353   3.638   1.749   1.012
  152SOL     OW 1354   2.339   0.678   4.327
  152SOL    HW1 1355   2.356   0.760   4.381
  152SOL    HW2 1356   2.417   0.660   4.268
  153SOL     OW 1357   2.455   0.175   2.144
  153SOL    HW1 1358   2.456   0.232   2.062
  153SOL    HW2 1359   2.365   0.132   2.153
  154SOL     OW 1360   0.004   2.990   1.870
  154SOL    HW1 1361   0.023   2.908   1.815
  154SOL    HW2 1362   0.069   3.062   1.847
  155SOL     OW 1363   0.340   1.344   3.414
  155SOL    HW1 1364   0.404   1.421   3.413
  155SOL    HW2 1365   0.385   1.265   3.456
  156SOL     OW 1366   6.450   1.815   1.267
  156SOL    HW1 1367   6.384   1.777   1.202
  156SOL    HW2 1368   6.495   1.894   1.225
  157SOL     OW 1369   6.254   3.138   2.104
  157SOL    HW1 1370   6.276   3.099   2.015
  157SOL    HW2 1371   6.230   3.234   2.093
  158SOL     OW 1372   3.280   0.596   2.549
  158SOL    HW1 1373   3.248   0.510   2.589
  158SOL    HW2 1374   3.280   0.668   2.619
  159SOL     OW 1375   4.841   4.421   1.388
  159SOL    HW1 1376   4.934   4.445   1.362
  159SOL    HW2 1377   4.844   4.350   1.459
  160SOL     OW 1378   6.717   4.638   6.553
  160SOL    HW1 1379   6.793   4.660   6.615
  160SOL    HW2 1380   6.684   4.723   6.511
  161SOL     OW 1381   1.898   5.248   5.051
  161SOL    HW1 1382   1.910   5.148   5.054
  161SOL    HW2 1383   1.987   5.291   5.035
  162SOL     OW 1384   4.362   6.087   0.336
  162SOL    HW1 1385   4.273   6.107   0.377
  162SOL    HW2 1386   4.365   6.124   0.243
  163SOL     OW 1387   3.924   6.076   1.562
  163SOL    HW1 1388   4.000   6.015   1.542
  163SOL    HW2 1389   3.956   6.171   1.556
  164SOL     OW 1390   6.589   4.115   1.412
  164SOL    HW1 1391   6.528   4.046   1.452
  164SOL    HW2 1392   6.592   4.195   1.472
  165SOL     OW 1393   4.525   3.306   0.144
  165SOL    HW1 1394   4.522   3.228   0.207
  165SOL    HW2 1395   4.606   3.361   0.162
  166SOL     OW 1396   0.357   5.953   3.399
  166SOL    HW1 1397   0.392   5.988   3.486
  166SOL    HW2 1398   0.338   6.030   3.338
  167SOL     OW 1399   6.154   2.580   0.157
  167SOL    HW1 1400   6.116   2.505   0.211
  167SOL    HW2 1401   6.153   2.556   0.060
  168SOL     OW 1402   3.087   3.936   0.890
  168SOL    HW1 1403   3.074   4.023   0.937
  168SOL    HW2 1404   3.154   3.881   0.939
  169SOL     OW 1405   3.091   6.959   1.927
  169SOL    HW1 1406   3.101   0.031   1.873
  169SOL    HW2 1407   2.994   6.938   1.938
  170SOL     OW 1408   0.321   1.787   3.912
  170SOL    HW1 1409   0.397   1.773   3.974
  170SOL    HW2 1410   0.235   1.792   3.963
  171SOL     OW 1411   3.330   3.707   0.424
  171SOL    HW1 1412   3.261   3.760   0.373
  171SOL    HW2 1413   3.288   3.668   0.506
  172SOL     OW 1414   6.499   1.673   4.718
  172SOL    HW1 1415   6.431   1.652   4.787
  172SOL    HW2 1416   6.534   1.765   4.732
  173SOL     OW 1417   6.925   6.943   4.456
  173SOL    HW1 1418   6.827   6.935   4.439
  173SOL    HW2 1419   6.973   6.871   4.405
  174SOL     OW 1420   2.663   5.321   3.382
  174SOL    HW1 1421   2.598   5.301   3.456
  174SOL    HW2 1422   2.732   5.249   3.377
  175SOL     OW 1423   1.685   6.504   1.780
  175SOL    HW1 1424   1.710   6.408   1.774
  175SOL    HW2 1425   1.765   6.561   1.763
  176SOL     OW 1426   2.363   4.058   1.178
  176SOL    HW1 1427   2.432   4.065   1.250
  176SOL    HW2 1428   2.337   4.149   1.147
  177SOL     OW 1429   5.159   2.472   3.309
  177SOL    HW1 1430   5.171   2.436   3.217
  177SOL    HW2 1431   5.090   2.545   3.307
  178SOL     OW 1432   5.103   4.212   6.437
  178SOL    HW1 1433   5.024   4.258   6.396
  178SOL    HW2 1434   5.142   4.270   6.509
  179SOL     OW 1435   2.657   0.670   0.332
  179SOL    HW1 1436   2.676   0.714   0.245
  179SOL    HW2 1437   2.741   0.664   0.386
  180SOL     OW 1438   0.764   1.427   6.684
  180SOL    HW1 1439   0.740   1.508   6.630
  180SOL    HW2 1440   0.828   1.370   6.633
  181SOL     OW 1441   3.316   1.834   6.520
  181SOL    HW1 1442   3.323   1.900   6.446
  181SOL    HW2 1443   3.398   1.776   6.520
  182SOL     OW 1444   4.340   2.007   4.130
  182SOL    HW1 1445   4.427   1.959   4.139
  182SOL    HW2 1446   4.354   2.104   4.153
  183SOL     OW 1447   4.365   0.826   1.807
  183SOL    HW1 1448   4.362   0.897   1.736
  183SOL    HW2 1449   4.284   0.768   1.799
  184SOL     OW 1450   1.587   5.706   3.585
  184SOL    HW1 1451   1.594   5.805   3.578
  184SOL    HW2 1452   1.593   5.666   3.493
  185SOL     OW 1453   1.151   3.566   6.731
  185SOL    HW1 1454   1.193   3.559   6.640
  185SOL    HW2 1455   1.054   3.544   6.724
  186SOL     OW 1456   6.019   0.416   3.219
  186SOL    HW1 1457   6.018   0.388   3.315
  186SOL    HW2 1458   6.105   0.463   3.199
  187SOL     OW 1459   5.811   0.961   4.144
  187SOL    HW1 1460   5.888   0.947   4.207
  187SOL    HW2 1461   5.730   0.988   4.196
  188SOL     OW 1462   5.643   2.223   3.430
  188SOL    HW1 1463   5.699   2.301   3.401
  188SOL    HW2 1464   5.563   2.216   3.370
  189SOL     OW 1465   2.040   5.660   2.753
  189SOL    HW1 1466   2.131   5.626   2.732
  189SOL    HW2 1467   2.045   5.723   2.831
  190SOL     OW 1468   3.804   1.083   4.945
  190SOL    HW1 1469   3.845   1.174   4.939
  190SOL    HW2 1470   3.827   1.041   5.032
  191SOL     OW 1471   5.973   5.695   6.039
  191SOL    HW1 1472   5.897   5.679   6.103
  191SOL    HW2 1473   6.010   5.607   6.010
  192SOL     OW 1474   6.861   6.596   2.127
  192SOL    HW1 1475   6.939   6.538   2.103
  192SOL    HW2 1476   6.847   6.665   2.056
  193SOL     OW 1477   5.065   2.803   6.582
  193SOL    HW1 1478   5.140   2.779   6.521
  193SOL    HW2 1479   5.061   2.902   6.594
  194SOL     OW 1480   3.684   0.787   3.007
  194SOL    HW1 1481   3.682   0.873   3.058
  194SOL    HW2 1482   3.658   0.803   2.912
  195SOL     OW 1483   2.028   5.457   3.299
  195SOL    HW1 1484   2.057   5.368   3.267
  195SOL    HW2 1485   1.933   5.453   3.330
  196SOL     OW 1486   1.863   2.350   6.610
  196SOL    HW1 1487   1.959   2.326   6.597
  196SOL    HW2 1488   1.843   2.358   6.708
  197SOL     OW 1489   2.164   1.455   1.107
  197SOL    HW1 1490   2.094   1.421   1.044
  197SOL    HW2 1491   2.158   1.555   1.114
  198SOL     OW 1492   4.463   0.939   3.106
  198SOL    HW1 1493   4.472   0.903   3.013
  198SOL    HW2 1494   4.405   1.019   3.105
  199SOL     OW 1495   1.275   2.768   4.234
  199SOL    HW1 1496   1.207   2.697   4.255
  199SOL    HW2 1497   1.249   2.814   4.149
  200SOL     OW 1498   0.540   2.491   0.523
  200SOL    HW1 1499   0.523   2.589   0.512
  200SOL    HW2 1500   0.638   2.475   0.525
  201SOL     OW 1501   0.762   0.896   5.840
  201SOL    HW1 1502   0.666   0.868   5.831
  201SOL    HW2 1503   0.822   0.821   5.812
  202SOL     OW 1504   4.501   0.528   6.090
  202SOL    HW1 1505   4.464   0.480   6.011
  202SOL    HW2 1506   4.566   0.469   6.138
  203SOL     OW 1507   5.487   2.936   5.525
  203SOL    HW1 1508   5.497   2.858   5.463
  203SOL    HW2 1509   5.545   3.011   5.493
  204SOL     OW 1510   0.310   0.299   5.600
  204SOL    HW1 1511   0.278   0.289   5.694
  204SOL    HW2 1512   0.397   0.251   5.589
  205SOL     OW 1513   1.003   2.606   2.229
  205SOL    HW1 1514   0.957   2.517   2.227
  205SOL    HW2 1515   1.020   2.633   2.324
  206SOL     OW 1516   0.564   3.144   1.383
  206SOL    HW1 1517   0.494   3.176   1.447
  206SOL    HW2 1518   0.584   3.048   1.401
  207SOL     OW 1519   5.181   2.076   3.075
  207SOL    HW1 1520   5.195   2.072   3.174
  207SOL    HW2 1521   5.119   2.152   3.053
  208SOL     OW 1522   0.370   4.025   4.979
  208SOL    HW1 1523   0.426   4.066   4.907
  208SOL    HW2 1524   0.409   4.046   5.069
  209SOL     OW 1525   6.592   4.459   2.654
  209SOL    HW1 1526   6.510   4.454   2.711
  209SOL    HW2 1527   6.570   4.502   2.567
  210SOL     OW 1528   4.799   2.519   0.769
  210SOL    HW1 1529   4.874   2.512   0.703
  210SOL    HW2 1530   4.797   2.437   0.826
  211SOL     OW 1531   1.697   0.296   3.226
  211SOL    HW1 1532   1.617   0.302   3.286
  211SOL    HW2 1533   1.723   0.201   3.214
  212SOL     OW 1534   1.396   3.468   2.879
  212SOL    HW1 1535   1.474   3.521   2.846
  212SOL    HW2 1536   1.384   3.484   2.977
  213SOL     OW 1537   1.957   5.707   1.068
  213SOL    HW1 1538   1.929   5.712   0.972
  213SOL    HW2 1539   2.053   5.680   1.074
  214SOL     OW 1540   4.340   5.502   2.062
  214SOL    HW1 1541   4.414   5.439   2.086
  214SOL    HW2 1542   4.375   5.596   2.062
  215SOL     OW 1543   1.870   5.392   1.758
  215SOL    HW1 1544   1.786   5.395   1.812
  215SOL    HW2 1545   1.925   5.473   1.779
  216SOL     OW 1546   1.645   0.392   2.700
  216SOL    HW1 1547   1.689   0.392   2.790
  216SOL    HW2 1548   1.557   0.439   2.706
  217SOL     OW 1549   0.937   3.504   5.654
  217SOL    HW1 1550   1.037   3.503   5.654
  217SOL    HW2 1551   0.903   3.464   5.739
  218SOL     OW 1552   0.753   2.391   5.180
  218SOL    HW1 1553   0.743   2.431   5.088
  218SOL    HW2 1554   0.850   2.390   5.205
  219SOL     OW 1555   3.564   0.798   0.170
  219SOL    HW1 1556   3.575   0.893   0.200
  219SOL    HW2 1557   3.586   0.737   0.245
  220SOL     OW 1558   3.300   0.375   1.088
  220SOL    HW1 1559   3.234   0.382   1.014
  220SOL    HW2 1560   3.276   0.298   1.147
  221SOL     OW 1561   5.978   5.603   1.135
  221SOL    HW1 1562   5.935   5.602   1.045
  221SOL    HW2 1563   5.962   5.691   1.179
  222SOL     OW 1564   1.803   4.633   6.605
  222SOL    HW1 1565   1.864   4.555   6.591
  222SOL    HW2 1566   1.848   4.717   6.575
  223SOL     OW 1567   6.772   2.753   5.239
  223SOL    HW1 1568   6.817   2.764   5.150
  223SOL    HW2 1569   6.674   2.741   5.224
  224SOL     OW 1570   2.735   2.059   5.892
  224SOL    HW1 1571   2.638   2.075   5.874
  224SOL    HW2 1572   2.756   1.963   5.874
  225SOL     OW 1573   4.571   3.653   5.995
  225SOL    HW1 1574   4.548   3.672   5.900
  225SOL    HW2 1575   4.583   3.739   6.044
  226SOL     OW 1576   0.950   1.696   6.408
  226SOL    HW1 1577   0.953   1.762   6.333
  226SOL    HW2 1578   0.935   1.744   6.494
  227SOL     OW 1579   2.186   4.011   2.569
  227SOL    HW1 1580   2.235   4.085   2.523
  227SOL    HW2 1581   2.163   3.940   2.503
  228SOL     OW 1582   1.663   0.702   3.005
  228SOL    HW1 1583   1.746   0.728   2.955
  228SOL    HW2 1584   1.583   0.730   2.952
  229SOL     OW 1585   5.249   4.738   6.711
  229SOL    HW1 1586   5.206   4.789   6.637
  229SOL    HW2 1587   5.348   4.737   6.698
  230SOL     OW 1588   4.345   6.184   4.427
  230SOL    HW1 1589   4.318   6.262   4.369
  230SOL    HW2 1590   4.265   6.125   4.442
  231SOL     OW 1591   5.108   1.425   6.837
  231SOL    HW1 1592   5.087   1.399   6.743
  231SOL    HW2 1593   5.192   1.480   6.838
  232SOL     OW 1594   0.215   2.622   6.212
  232SOL    HW1 1595   0.293   2.562   6.193
  232SOL    HW2 1596   0.225   2.662   6.303
  233SOL     OW 1597   3.283   1.869   3.496
  233SOL    HW1 1598   3.199   1.831   3.534
  233SOL    HW2 1599   3.301   1.828   3.407
  234SOL     OW 1600   5.562   0.890   6.125
  234SOL    HW1 1601   5.589   0.986   6.137
  234SOL    HW2 1602   5.463   0.883   6.132
  235SOL     OW 1603   4.975   3.182   2.483
  235SOL    HW1 1604   4.931   3.172   2.394
  235SOL    HW2 1605   5.066   3.141   2.480
  236SOL     OW 1606   4.411   3.498   6.576
  236SOL    HW1 1607   4.456   3.409   6.588
  236SOL    HW2 1608   4.468   3.556   6.518
  237SOL     OW 1609   6.764   4.200   2.675
  237SOL    HW1 1610   6.724   4.116   2.641
  237SOL    HW2 1611   6.706   4.278   2.650
  238SOL     OW 1612   6.616   1.423   0.377
  238SOL    HW1 1613   6.617   1.408   0.476
  238SOL    HW2 1614   6.527   1.398   0.341
  239SOL     OW 1615   1.254   4.374   0.587
  239SOL    HW1 1616   1.290   4.428   0.662
  239SOL    HW2 1617   1.176   4.422   0.545
  240SOL     OW 1618   6.671   3.531   3.163
  240SOL    HW1 1619   6.630   3.440   3.161
  240SOL    HW2 1620   6.615   3.594   3.109
  241SOL     OW 1621   2.781   2.082   3.880
  241SOL    HW1 1622   2.705   2.118   3.826
  241SOL    HW2 1623   2.764   1.986   3.901
  242SOL     OW 1624   3.344   3.812   3.558
  242SOL    HW1 1625   3.439   3.781   3.553
  242SOL    HW2 1626   3.286   3.749   3.507
  243SOL     OW 1627   4.824   2.112   0.076
  243SOL    HW1 1628   4.920   2.084   0.082
  243SOL    HW2 1629   4.806   2.149   6.996
  244SOL     OW 1630   6.230   3.307   6.700
  244SOL    HW1 1631   6.182   3.393   6.716
  244SOL    HW2 1632   6.164   3.231   6.700
  245SOL     OW 1633   3.487   2.007   3.652
  245SOL    HW1 1634   3.411   2.025   3.715
  245SOL    HW2 1635   3.458   1.941   3.584
  246SOL     OW 1636   5.654   1.736   3.300
  246SOL    HW1 1637   5.645   1.641   3.331
  246SOL    HW2 1638   5.667   1.795   3.380
  247SOL     OW 1639   2.778   2.115   0.343
  247SOL    HW1 1640   2.866   2.069   0.357
  247SOL    HW2 1641   2.714   2.052   0.298
  248SOL     OW 1642   2.349   1.426   2.637
  248SOL    HW1 1643   2.448   1.436   2.627
  248SOL    HW2 1644   2.320   1.338   2.601
  249SOL     OW 1645   5.173   0.228   5.085
  249SOL    HW1 1646   5.200   0.199   4.993
  249SOL    HW2 1647   5.238   0.192   5.152
  250SOL     OW 1648   3.520   2.569   0.792
  250SOL    HW1 1649   3.583   2.504   0.750
  250SOL    HW2 1650   3.528   2.657   0.745
  251SOL     OW 1651   4.727   3.391   5.619
  251SOL    HW1 1652   4.726   3.302   5.572
  251SOL    HW2 1653   4.803   3.446   5.584
  252SOL     OW 1654   6.350   6.938   5.633
  252SOL    HW1 1655   6.446   6.933   5.663
  252SOL    HW2 1656   6.313   0.016   5.658
  253SOL     OW 1657   3.981   4.760   5.811
  253SOL    HW1 1658   3.904   4.807   5.770
  253SOL    HW2 1659   4.025   4.701   5.743
  254SOL     OW 1660   6.708   2.647   4.209
  254SOL    HW1 1661   6.761   2.571   4.174
  254SOL    HW2 1662   6.756   2.733   4.192
  255SOL     OW 1663   1.194   4.540   6.125
  255SOL    HW1 1664   1.196   4.459   6.184
  255SOL    HW2 1665   1.277   4.594   6.140
  256SOL     OW 1666   5.030   3.056   6.091
  256SOL    HW1 1667   5.068   3.053   6.184
  256SOL    HW2 1668   5.105   3.055   6.025
  257SOL     OW 1669   4.909   6.438   2.773
  257SOL    HW1 1670   4.961   6.467   2.693
  257SOL    HW2 1671   4.850   6.361   2.749
  258SOL     OW 1672   2.482   4.026   5.607
  258SOL    HW1 1673   2.450   4.092   5.674
  258SOL    HW2 1674   2.427   4.034   5.523
  259SOL     OW 1675   4.747   0.739   2.561
  259SOL    HW1 1676   4.741   0.720   2.463
  259SOL    HW2 1677   4.655   0.736   2.601
  260SOL     OW 1678   3.897   4.992   3.318
  260SOL    HW1 1679   3.847   5.069   3.279
  260SOL    HW2 1680   3.989   4.988   3.278
  261SOL     OW 1681   5.187   5.248   0.927
  261SOL    HW1 1682   5.150   5.324   0.873
  261SOL    HW2 1683   5.165   5.262   1.024
  262SOL     OW 1684   2.070   3.553   1.321
  262SOL    HW1 1685   1.974   3.576   1.306
  262SOL    HW2 1686   2.109   3.615   1.389
  263SOL     OW 1687   1.235   6.953   3.947
  263SOL    HW1 1688   1.265   6.881   4.009
  263SOL    HW2 1689   1.305   6.968   3.877
  264SOL     OW 1690   6.853   2.585   0.140
  264SOL    HW1 1691   6.866   2.537   0.227
  264SOL    HW2 1692   6.930   2.566   0.079
  265SOL     OW 1693   6.162   6.819   3.250
  265SOL    HW1 1694   6.223   6.848   3.176
  265SOL    HW2 1695   6.150   6.896   3.314
  266SOL     OW 1696   5.133   2.693   6.031
  266SOL    HW1 1697   5.067   2.621   6.051
  266SOL    HW2 1698   5.107   2.777   6.078
  267SOL     OW 1699   1.348   1.069   5.238
  267SOL    HW1 1700   1.426   1.012   5.264
  267SOL    HW2 1701   1.271   1.010   5.214
  268SOL     OW 1702   3.984   1.369   6.447
  268SOL    HW1 1703   3.959   1.461   6.476
  268SOL    HW2 1704   3.955   1.355   6.352
  269SOL     OW 1705   3.271   2.087   6.886
  269SOL    HW1 1706   3.181   2.080   6.930
  269SOL    HW2 1707   3.264   2.148   6.807
  270SOL     OW 1708   0.552   6.109   0.024
  270SOL    HW1 1709   0.619   6.149   0.086
  270SOL    HW2 1710   0.544   6.011   0.042
  271SOL     OW 1711   0.634   1.511   6.197
  271SOL    HW1 1712   0.614   1.424   6.242
  271SOL    HW2 1713   0.664   1.578   6.264
  272SOL     OW 1714   3.296   5.884   4.053
  272SOL    HW1 1715   3.356   5.807   4.074
  272SOL    HW2 1716   3.275   5.934   4.136
  273SOL     OW 1717   1.627   4.899   6.098
  273SOL    HW1 1718   1.632   4.835   6.022
  273SOL    HW2 1719   1.719   4.930   6.122
  274SOL     OW 1720   3.968   0.964   4.065
  274SOL    HW1 1721   4.067   0.954   4.058
  274SOL    HW2 1722   3.932   1.001   3.979
  275SOL     OW 1723   6.977   6.450   2.787
  275SOL    HW1 1724   0.032   6.475   2.857
  275SOL    HW2 1725   7.009   6.481   2.697
  276SOL     OW 1726   0.420   0.008   3.983
  276SOL    HW1 1727   0.511   6.984   3.961
  276SOL    HW2 1728   0.386   0.062   3.906
  277SOL     OW 1729   1.645   2.945   0.485
  277SOL    HW1 1730   1.697   2.903   0.560
  277SOL    HW2 1731   1.557   2.899   0.475
  278SOL     OW 1732   0.168   3.239   3.061
  278SOL    HW1 1733   0.142   3.286   2.976
  278SOL    HW2 1734   0.184   3.307   3.133
  279SOL     OW 1735   5.758   2.580   4.207
  279SOL    HW1 1736   5.725   2.499   4.255
  279SOL    HW2 1737   5.854   2.568   4.184
  280SOL     OW 1738   1.864   5.630   1.497
  280SOL    HW1 1739   1.950   5.598   1.539
  280SOL    HW2 1740   1.807   5.551   1.475
  281SOL     OW 1741   2.326   3.966   1.834
  281SOL    HW1 1742   2.280   4.051   1.807
  281SOL    HW2 1743   2.304   3.945   1.929
  282SOL     OW 1744   3.379   1.258   5.783
  282SOL    HW1 1745   3.314   1.333   5.773
  282SOL    HW2 1746   3.448   1.263   5.710
  283SOL     OW 1747   5.486   2.474   6.621
  283SOL    HW1 1748   5.419   2.515   6.683
  283SOL    HW2 1749   5.465   2.499   6.527
  284SOL     OW 1750   0.615   3.579   3.661
  284SOL    HW1 1751   0.642   3.556   3.568
  284SOL    HW2 1752   0.515   3.588   3.665
  285SOL     OW 1753   5.676   4.607   4.129
  285SOL    HW1 1754   5.629   4.521   4.150
  285SOL    HW2 1755   5.774   4.597   4.148
  286SOL     OW 1756   3.289   3.913   0.008
  286SOL    HW1 1757   3.363   3.847   0.017
  286SOL    HW2 1758   3.201   3.866   0.008
  287SOL     OW 1759   1.919   3.659   0.648
  287SOL    HW1 1760   1.940   3.561   0.655
  287SOL    HW2 1761   1.973   3.700   0.575
  288SOL     OW 1762   3.908   1.170   6.637
  288SOL    HW1 1763   3.937   1.209   6.550
  288SOL    HW2 1764   3.949   1.222   6.712
  289SOL     OW 1765   2.058   4.847   5.911
  289SOL    HW1 1766   1.991   4.915   5.881
  289SOL    HW2 1767   2.141   4.856   5.856
  290SOL     OW 1768   0.193   1.900   5.512
  290SOL    HW1 1769   0.242   1.816   5.537
  290SOL    HW2 1770   0.252   1.979   5.527
  291SOL     OW 1771   0.577   1.466   3.508
  291SOL    HW1 1772   0.623   1.428   3.589
  291SOL    HW2 1773   0.578   1.565   3.513
  292SOL     OW 1774   1.978   0.418   3.472
  292SOL    HW1 1775   2.012   0.368   3.551
  292SOL    HW2 1776   2.054   0.438   3.410
  293SOL     OW 1777   4.537   5.289   3.942
  293SOL    HW1 1778   4.631   5.286   3.977
  293SOL    HW2 1779   4.501   5.196   3.936
  294SOL     OW 1780   5.439   6.321   6.568
  294SOL    HW1 1781   5.413   6.287   6.478
  294SOL    HW2 1782   5.384   6.402   6.590
  295SOL     OW 1783   5.084   0.817   3.575
  295SOL    HW1 1784   5.039   0.778   3.494
  295SOL    HW2 1785   5.163   0.761   3.599
  296SOL     OW 1786   2.951   1.483   2.752
  296SOL    HW1 1787   2.958   1.426   2.670
  296SOL    HW2 1788   3.043   1.509   2.782
  297SOL     OW 1789   1.754   3.605   3.347
  297SOL    HW1 1790   1.767   3.693   3.301
  297SOL    HW2 1791   1.810   3.603   3.430
  298SOL     OW 1792   6.272   5.679   1.204
  298SOL    HW1 1793   6.199   5.660   1.138
  298SOL    HW2 1794   6.359   5.686   1.156
  299SOL     OW 1795   6.280   2.857   5.046
  299SOL    HW1 1796   6.238   2.862   4.955
  299SOL    HW2 1797   6.379   2.865   5.038
  300SOL     OW 1798   6.428   0.792   3.294
  300SOL    HW1 1799   6.384   0.837   3.372
  300SOL    HW2 1800   6.527   0.801   3.302
  301SOL     OW 1801   5.664   3.663   6.934
  301SOL    HW1 1802   5.623   3.579   6.971
  301SOL    HW2 1803   5.728   3.702   7.000
  302SOL     OW 1804   0.603   0.256   3.673
  302SOL    HW1 1805   0.663   0.263   3.752
  302SOL    HW2 1806   0.584   0.159   3.654
  303SOL     OW 1807   4.967   0.726   3.371
  303SOL    HW1 1808   5.007   0.806   3.326
  303SOL    HW2 1809   4.909   0.677   3.306
  304SOL     OW 1810   2.239   6.864   3.245
  304SOL    HW1 1811   2.167   6.797   3.259
  304SOL    HW2 1812   2.275   6.894   3.334
  305SOL     OW 1813   1.508   3.822   0.453
  305SOL    HW1 1814   1.425   3.767   0.458
  305SOL    HW2 1815   1.518   3.877   0.536
  306SOL     OW 1816   2.295   0.681   3.837
  306SOL    HW1 1817   2.277   0.651   3.931
  306SOL    HW2 1818   2.351   0.764   3.838
  307SOL     OW 1819   4.394   0.255   1.147
  307SOL    HW1 1820   4.323   0.205   1.196
  307SOL    HW2 1821   4.480   0.204   1.151
  308SOL     OW 1822   1.110   6.178   2.830
  308SOL    HW1 1823   1.030   6.236   2.814
  308SOL    HW2 1824   1.169   6.221   2.899
  309SOL     OW 1825   3.653   4.668   5.373
  309SOL    HW1 1826   3.708   4.721   5.310
  309SOL    HW2 1827   3.567   4.642   5.330
  310SOL     OW 1828   0.024   6.434   5.633
  310SOL    HW1 1829   6.990   6.408   5.548
  310SOL    HW2 1830   0.106   6.378   5.645
  311SOL     OW 1831   0.464   5.786   1.664
  311SOL    HW1 1832   0.540   5.791   1.599
  311SOL    HW2 1833   0.478   5.852   1.737
  312SOL     OW 1834   5.176   2.060   5.332
  312SOL    HW1 1835   5.141   2.105   5.250
  312SOL    HW2 1836   5.121   2.086   5.411
  313SOL     OW 1837   1.917   4.032   2.036
  313SOL    HW1 1838   2.000   3.980   2.018
  313SOL    HW2 1839   1.933   4.093   2.114
  314SOL     OW 1840   3.682   5.658   0.223
  314SOL    HW1 1841   3.669   5.689   0.317
  314SOL    HW2 1842   3.776   5.679   0.194
  315SOL     OW 1843   0.646   2.690   3.494
  315SOL    HW1 1844   0.570   2.663   3.436
  315SOL    HW2 1845   0.708   2.749   3.442
  316SOL     OW 1846   2.344   2.700   3.805
  316SOL    HW1 1847   2.358   2.704   3.904
  316SOL    HW2 1848   2.246   2.711   3.785
  317SOL     OW 1849   6.817   1.849   6.769
  317SOL    HW1 1850   6.768   1.798   6.840
  317SOL    HW2 1851   6.912   1.861   6.795
  318SOL     OW 1852   2.420   3.909   0.949
  318SOL    HW1 1853   2.492   3.965   0.906
  318SOL    HW2 1854   2.383   3.958   1.028
  319SOL     OW 1855   1.644   6.511   0.785
  319SOL    HW1 1856   1.744   6.517   0.789
  319SOL    HW2 1857   1.604   6.575   0.851
  320SOL     OW 1858   6.560   3.282   0.928
  320SOL    HW1 1859   6.654   3.314   0.912
  320SOL    HW2 1860   6.552   3.186   0.900
  321SOL     OW 1861   2.218   2.843   1.574
  321SOL    HW1 1862   2.243   2.865   1.479
  321SOL    HW2 1863   2.148   2.908   1.605
  322SOL     OW 1864   3.847   3.149   5.303
  322SOL    HW1 1865   3.793   3.231   5.284
  322SOL    HW2 1866   3.849   3.091   5.221
  323SOL     OW 1867   6.751   4.225   0.964
  323SOL    HW1 1868   6.820   4.172   1.012
  323SOL    HW2 1869   6.683   4.259   1.029
  324SOL     OW 1870   1.128   3.025   4.662
  324SOL    HW1 1871   1.159   2.993   4.572
  324SOL    HW2 1872   1.206   3.062   4.713
  325SOL     OW 1873   1.945   2.811   2.077
  325SOL    HW1 1874   1.997   2.896   2.071
  325SOL    HW2 1875   1.989   2.749   2.142
  326SOL     OW 1876   1.816   5.627   6.344
  326SOL    HW1 1877   1.901   5.659   6.387
  326SOL    HW2 1878   1.790   5.539   6.385
  327SOL     OW 1879   6.442   4.823   5.705
  327SOL    HW1 1880   6.518   4.848   5.765
  327SOL    HW2 1881   6.365   4.884   5.723
  328SOL     OW 1882   4.063   4.996   2.240
  328SOL    HW1 1883   4.049   5.009   2.338
  328SOL    HW2 1884   3.984   4.948   2.201
  329SOL     OW 1885   3.696   3.781   3.234
  329SOL    HW1 1886   3.672   3.752   3.327
  329SOL    HW2 1887   3.794   3.767   3.219
  330SOL     OW 1888   3.391   6.710   1.593
  330SOL    HW1 1889   3.325   6.755   1.532
  330SOL    HW2 1890   3.373   6.737   1.688
  331SOL     OW 1891   5.105   5.249   5.788
  331SOL    HW1 1892   5.172   5.255   5.862
  331SOL    HW2 1893   5.069   5.156   5.782
  332SOL     OW 1894   2.745   1.922   3.651
  332SOL    HW1 1895   2.699   2.010   3.638
  332SOL    HW2 1896   2.681   1.855   3.688
  333SOL     OW 1897   3.854   5.749   6.171
  333SOL    HW1 1898   3.762   5.722   6.145
  333SOL    HW2 1899   3.851   5.837   6.219
  334SOL     OW 1900   3.490   0.225   2.399
  334SOL    HW1 1901   3.490   0.302   2.463
  334SOL    HW2 1902   3.396   0.201   2.375
  335SOL     OW 1903   3.065   6.736   3.419
  335SOL    HW1 1904   3.118   6.689   3.348
  335SOL    HW2 1905   3.002   6.670   3.461
  336SOL     OW 1906   3.355   1.188   3.951
  336SOL    HW1 1907   3.256   1.183   3.941
  336SOL    HW2 1908   3.380   1.168   4.045
  337SOL     OW 1909   6.880   4.112   1.359
  337SOL    HW1 1910   6.914   4.060   1.438
  337SOL    HW2 1911   6.782   4.128   1.369
  338SOL     OW 1912   3.055   2.580   1.441
  338SOL    HW1 1913   3.108   2.541   1.516
  338SOL    HW2 1914   3.107   2.575   1.356
  339SOL     OW 1915   4.338   6.351   2.625
  339SOL    HW1 1916   4.325   6.450   2.617
  339SOL    HW2 1917   4.406   6.332   2.695
  340SOL     OW 1918   4.916   3.531   4.522
  340SOL    HW1 1919   4.860   3.497   4.598
  340SOL    HW2 1920   5.013   3.515   4.543
  341SOL     OW 1921   5.368   5.841   4.411
  341SOL    HW1 1922   5.449   5.884   4.452
  341SOL    HW2 1923   5.354   5.879   4.319
  342SOL     OW 1924   6.123   4.991   0.857
  342SOL    HW1 1925   6.161   4.979   0.949
  342SOL    HW2 1926   6.181   5.055   0.806
  343SOL     OW 1927   3.722   0.195   1.700
  343SOL    HW1 1928   3.778   0.277   1.689
  343SOL    HW2 1929   3.665   0.203   1.782
  344SOL     OW 1930   2.237   4.740   0.994
  344SOL    HW1 1931   2.284   4.814   1.042
  344SOL    HW2 1932   2.301   4.666   0.977
  345SOL     OW 1933   0.951   0.366   5.121
  345SOL    HW1 1934   0.927   0.464   5.126
  345SOL    HW2 1935   0.871   0.315   5.089
  346SOL     OW 1936   1.308   0.115   2.693
  346SOL    HW1 1937   1.283   0.023   2.661
  346SOL    HW2 1938   1.245   0.142   2.766
  347SOL     OW 1939   4.940   0.153   6.253
  347SOL    HW1 1940   4.924   0.182   6.347
  347SOL    HW2 1941   4.945   0.234   6.194
  348SOL     OW 1942   3.343   5.319   1.372
  348SOL    HW1 1943   3.410   5.341   1.443
  348SOL    HW2 1944   3.258   5.288   1.415
  349SOL     OW 1945   1.129   5.052   2.308
  349SOL    HW1 1946   1.170   4.989   2.242
  349SOL    HW2 1947   1.031   5.057   2.293
  350SOL     OW 1948   4.058   3.212   1.526
  350SOL    HW1 1949   4.009   3.125   1.529
  350SOL    HW2 1950   4.005   3.281   1.575
  351SOL     OW 1951   2.768   1.644   0.132
  351SOL    HW1 1952   2.710   1.563   0.145
  351SOL    HW2 1953   2.782   1.659   0.035
  352SOL     OW 1954   3.329   0.685   6.039
  352SOL    HW1 1955   3.323   0.777   6.077
  352SOL    HW2 1956   3.424   0.655   6.039
  353SOL     OW 1957   1.754   5.994   0.587
  353SOL    HW1 1958   1.801   5.944   0.660
  353SOL    HW2 1959   1.733   6.087   0.617
  354SOL     OW 1960   4.315   1.615   0.500
  354SOL    HW1 1961   4.356   1.551   0.565
  354SOL    HW2 1962   4.261   1.683   0.550
  355SOL     OW 1963   6.961   3.628   2.914
  355SOL    HW1 1964   0.032   3.574   2.897
  355SOL    HW2 1965   6.915   3.646   2.827
  356SOL     OW 1966   3.979   5.284   3.261
  356SOL    HW1 1967   4.043   5.344   3.308
  356SOL    HW2 1968   4.026   5.202   3.229
  357SOL     OW 1969   0.095   5.748   5.227
  357SOL    HW1 1970   0.127   5.838   5.256
  357SOL    HW2 1971   0.127   5.679   5.292
  358SOL     OW 1972   5.457   0.310   1.857
  358SOL    HW1 1973   5.493   0.349   1.942
  358SOL    HW2 1974   5.510   0.346   1.780
  359SOL     OW 1975   1.374   1.723   2.140
  359SOL    HW1 1976   1.334   1.687   2.056
  359SOL    HW2 1977   1.364   1.823   2.142
  360SOL     OW 1978   3.897   6.643   0.054
  360SOL    HW1 1979   3.883   6.622   0.151
  360SOL    HW2 1980   3.819   6.696   0.020
  361SOL     OW 1981   4.604   6.455   2.291
  361SOL    HW1 1982   4.620   6.553   2.286
  361SOL    HW2 1983   4.575   6.421   2.201
  362SOL     OW 1984   3.032   3.143   1.102
  362SOL    HW1 1985   2.956   3.175   1.159
  362SOL    HW2 1986   2.995   3.093   1.023
  363SOL     OW 1987   4.112   4.850   4.253
  363SOL    HW1 1988   4.132   4.810   4.342
  363SOL    HW2 1989   4.171   4.808   4.184
  364SOL     OW 1990   1.071   5.096   6.133
  364SOL    HW1 1991   1.040   5.066   6.043
  364SOL    HW2 1992   1.171   5.094   6.135
  365SOL     OW 1993   4.778   6.379   1.796
  365SOL    HW1 1994   4.812   6.416   1.882
  365SOL    HW2 1995   4.741   6.454   1.740
  366SOL     OW 1996   5.636   1.079   6.904
  366SOL    HW1 1997   5.582   1.003   6.868
  366SOL    HW2 1998   5.626   1.084   7.003
  367SOL     OW 1999   5.453   2.796   1.629
  367SOL    HW1 2000   5.490   2.887   1.611
  367SOL    HW2 2001   5.529   2.730   1.637
  368SOL     OW 2002   1.094   5.064   5.339
  368SOL    HW1 2003   1.171   5.088   5.279
  368SOL    HW2 2004   1.063   4.971   5.318
  369SOL     OW 2005   0.756   3.975   1.728
  369SOL    HW1 2006   0.855   3.982   1.713
  369SOL    HW2 2007   0.708   4.025   1.656
  370SOL     OW 2008   3.240   1.520   5.649
  370SOL    HW1 2009   3.177   1.596   5.668
  370SOL    HW2 2010   3.188   1.439   5.624
  371SOL     OW 2011   3.266   2.868   0.240
  371SOL    HW1 2012   3.327   2.808   0.188
  371SOL    HW2 2013   3.188   2.893   0.183
  372SOL     OW 2014   0.106   6.232   6.360
  372SOL    HW1 2015   0.086   6.137   6.338
  372SOL    HW2 2016   0.024   6.288   6.346
  373SOL     OW 2017   0.133   6.896   0.308
  373SOL    HW1 2018   0.182   6.809   0.308
  373SOL    HW2 2019   0.052   6.888   0.366
  374SOL     OW 2020   3.519   0.575   1.796
  374SOL    HW1 2021   3.520   0.631   1.878
  374SOL    HW2 2022   3.482   0.485   1.817
  375SOL     OW 2023   6.486   4.877   3.248
  375SOL    HW1 2024   6.537   4.799   3.211
  375SOL    HW2 2025   6.487   4.873   3.348
  376SOL     OW 2026   1.714   2.718   3.998
  376SOL    HW1 2027   1.801   2.766   4.002
  376SOL    HW2 2028   1.729   2.621   3.978
  377SOL     OW 2029   4.826   1.750   3.510
  377SOL    HW1 2030   4.852   1.665   3.556
  377SOL    HW2 2031   4.776   1.808   3.574
  378SOL     OW 2032   5.087   2.570   5.172
  378SOL    HW1 2033   4.998   2.538   5.139
  378SOL    HW2 2034   5.075   2.656   5.221
  379SOL     OW 2035   5.946   3.496   0.909
  379SOL    HW1 2036   5.915   3.489   0.814
  379SOL    HW2 2037   6.001   3.416   0.932
  380SOL     OW 2038   1.404   1.673   1.235
  380SOL    HW1 2039   1.397   1.656   1.136
  380SOL    HW2 2040   1.485   1.728   1.253
  381SOL     OW 2041   3.510   3.538   1.458
  381SOL    HW1 2042   3.533   3.603   1.530
  381SOL    HW2 2043   3.578   3.465   1.456
  382SOL     OW 2044   2.910   5.941   0.340
  382SOL    HW1 2045   2.840   5.887   0.386
  382SOL    HW2 2046   2.894   6.038   0.358
  383SOL     OW 2047   6.408   2.508   0.126
  383SOL    HW1 2048   6.314   2.542   0.131
  383SOL    HW2 2049   6.468   2.569   0.177
  384SOL     OW 2050   1.283   5.518   4.789
  384SOL    HW1 2051   1.235   5.464   4.720
  384SOL    HW2 2052   1.226   5.595   4.818
  385SOL     OW 2053   5.056   6.010   0.689
  385SOL    HW1 2054   5.060   6.109   0.704
  385SOL    HW2 2055   5.005   5.991   0.605
  386SOL     OW 2056   3.186   6.188   5.825
  386SOL    HW1 2057   3.192   6.260   5.895
  386SOL    HW2 2058   3.221   6.223   5.738
  387SOL     OW 2059   0.236   0.756   5.344
  387SOL    HW1 2060   0.166   0.778   5.411
  387SOL    HW2 2061   0.326   0.754   5.388
  388SOL     OW 2062   5.876   2.406   4.840
  388SOL    HW1 2063   5.958   2.461   4.857
  388SOL    HW2 2064   5.811   2.459   4.786
  389SOL     OW 2065   4.326   4.787   1.725
  389SOL    HW1 2066   4.278   4.874   1.713
  389SOL    HW2 2067   4.260   4.712   1.725
  390SOL     OW 2068   3.522   1.983   0.633
  390SOL    HW1 2069   3.587   2.058   0.618
  390SOL    HW2 2070   3.563   1.898   0.601
  391SOL     OW 2071   3.615   4.552   5.698
  391SOL    HW1 2072   3.590   4.567   5.602
  391SOL    HW2 2073   3.687   4.483   5.703
  392SOL     OW 2074   1.066   3.671   1.969
  392SOL    HW1 2075   1.006   3.666   1.889
  392SOL    HW2 2076   1.140   3.605   1.960
  393SOL     OW 2077   1.084   4.331   1.770
  393SOL    HW1 2078   1.103   4.254   1.831
  393SOL    HW2 2079   1.147   4.328   1.692
  394SOL     OW 2080   0.019   1.115   6.365
  394SOL    HW1 2081   6.973   1.186   6.405
  394SOL    HW2 2082   0.042   1.046   6.434
  395SOL     OW 2083   5.460   4.821   1.124
  395SOL    HW1 2084   5.531   4.877   1.079
  395SOL    HW2 2085   5.390   4.881   1.163
  396SOL     OW 2086   2.499   1.226   2.164
  396SOL    HW1 2087   2.520   1.309   2.114
  396SOL    HW2 2088   2.448   1.249   2.247
  397SOL     OW 2089   4.760   1.871   5.003
  397SOL    HW1 2090   4.716   1.959   4.987
  397SOL    HW2 2091   4.848   1.868   4.955
  398SOL     OW 2092   1.921   1.335   4.266
  398SOL    HW1 2093   1.868   1.252   4.249
  398SOL    HW2 2094   1.860   1.414   4.269
  399SOL     OW 2095   5.881   6.055   3.896
  399SOL    HW1 2096   5.898   6.113   3.975
  399SOL    HW2 2097   5.798   6.084   3.849
  400SOL     OW 2098   6.730   0.756   4.702
  400SOL    HW1 2099   6.782   0.671   4.689
  400SOL    HW2 2100   6.639   0.745   4.663
  401SOL     OW 2101   6.934   5.628   5.909
  401SOL    HW1 2102   6.932   5.566   5.987
  401SOL    HW2 2103   6.842   5.665   5.893
  402SOL     OW 2104   6.193   0.102   2.358
  402SOL    HW1 2105   6.225   0.080   2.451
  402SOL    HW2 2106   6.192   0.201   2.346
  403SOL     OW 2107   2.348   1.240   5.187
  403SOL    HW1 2108   2.435   1.267   5.146
  403SOL    HW2 2109   2.364   1.203   5.278
  404SOL     OW 2110   3.744   4.909   3.703
  404SOL    HW1 2111   3.803   4.984   3.675
  404SOL    HW2 2112   3.753   4.894   3.802
  405SOL     OW 2113   2.697   4.701   3.910
  405SOL    HW1 2114   2.742   4.743   3.989
  405SOL    HW2 2115   2.746   4.725   3.827
  406SOL     OW 2116   0.593   5.618   5.784
  406SOL    HW1 2117   0.650   5.552   5.834
  406SOL    HW2 2118   0.607   5.710   5.821
  407SOL     OW 2119   2.118   3.349   4.476
  407SOL    HW1 2120   2.146   3.363   4.571
  407SOL    HW2 2121   2.151   3.260   4.445
  408SOL     OW 2122   2.530   1.586   3.579
  408SOL    HW1 2123   2.487   1.640   3.651
  408SOL    HW2 2124   2.535   1.640   3.495
  409SOL     OW 2125   0.753   3.561   2.656
  409SOL    HW1 2126   0.802   3.648   2.654
  409SOL    HW2 2127   0.818   3.485   2.664
  410SOL     OW 2128   1.862   1.676   1.504
  410SOL    HW1 2129   1.832   1.649   1.595
  410SOL    HW2 2130   1.957   1.645   1.490
  411SOL     OW 2131   0.879   2.885   1.384
  411SOL    HW1 2132   0.955   2.892   1.320
  411SOL    HW2 2133   0.910   2.843   1.469
  412SOL     OW 2134   1.573   5.774   1.856
  412SOL    HW1 2135   1.658   5.766   1.908
  412SOL    HW2 2136   1.594   5.785   1.759
  413SOL     OW 2137   5.878   5.624   2.367
  413SOL    HW1 2138   5.855   5.718   2.392
  413SOL    HW2 2139   5.862   5.564   2.445
  414SOL     OW 2140   2.205   6.563   3.725
  414SOL    HW1 2141   2.134   6.495   3.745
  414SOL    HW2 2142   2.275   6.522   3.667
  415SOL     OW 2143   6.597   1.166   0.536
  415SOL    HW1 2144   6.678   1.128   0.582
  415SOL    HW2 2145   6.544   1.091   0.495
  416SOL     OW 2146   4.978   2.855   4.900
  416SOL    HW1 2147   5.038   2.913   4.956
  416SOL    HW2 2148   4.891   2.843   4.947
  417SOL     OW 2149   2.576   1.843   6.105
  417SOL    HW1 2150   2.664   1.796   6.096
  417SOL    HW2 2151   2.557   1.894   6.021
  418SOL     OW 2152   3.897   6.366   4.919
  418SOL    HW1 2153   3.909   6.304   4.997
  418SOL    HW2 2154   3.851   6.317   4.845
  419SOL     OW 2155   0.424   0.115   0.863
  419SOL    HW1 2156   0.522   0.106   0.847
  419SOL    HW2 2157   0.374   0.096   0.778
  420SOL     OW 2158   5.105   1.299   6.070
  420SOL    HW1 2159   5.011   1.279   6.097
  420SOL    HW2 2160   5.107   1.384   6.017
  421SOL     OW 2161   5.368   3.234   2.618
  421SOL    HW1 2162   5.320   3.161   2.666
  421SOL    HW2 2163   5.356   3.320   2.668
  422SOL     OW 2164   4.900   3.193   1.852
  422SOL    HW1 2165   4.963   3.224   1.923
  422SOL    HW2 2166   4.843   3.119   1.888
  423SOL     OW 2167   3.713   1.551   6.682
  423SOL    HW1 2168   3.801   1.592   6.706
  423SOL    HW2 2169   3.678   1.500   6.760
  424SOL     OW 2170   1.120   3.733   3.417
  424SOL    HW1 2171   1.059   3.703   3.344
  424SOL    HW2 2172   1.074   3.721   3.506
  425SOL     OW 2173   2.743   1.089   5.581
  425SOL    HW1 2174   2.770   1.074   5.485
  425SOL    HW2 2175   2.756   1.004   5.632
  426SOL     OW 2176   2.681   2.318   4.115
  426SOL    HW1 2177   2.743   2.271   4.177
  426SOL    HW2 2178   2.669   2.413   4.144
  427SOL     OW 2179   3.819   2.103   3.201
  427SOL    HW1 2180   3.763   2.090   3.283
  427SOL    HW2 2181   3.764   2.080   3.120
  428SOL     OW 2182   2.524   1.899   5.667
  428SOL    HW1 2183   2.619   1.878   5.689
  428SOL    HW2 2184   2.514   1.996   5.647
  429SOL     OW 2185   0.791   5.873   3.886
  429SOL    HW1 2186   0.856   5.798   3.902
  429SOL    HW2 2187   0.787   5.893   3.789
  430SOL     OW 2188   1.390   6.959   3.716
  430SOL    HW1 2189   1.391   0.045   3.693
  430SOL    HW2 2190   1.471   6.915   3.678
  431SOL     OW 2191   2.691   1.904   1.543
  431SOL    HW1 2192   2.606   1.856   1.522
  431SOL    HW2 2193   2.670   1.989   1.591
  432SOL     OW 2194   4.169   2.153   2.137
  432SOL    HW1 2195   4.205   2.244   2.162
  432SOL    HW2 2196   4.087   2.165   2.081
  433SOL     OW 2197   2.211   5.613   0.395
  433SOL    HW1 2198   2.261   5.693   0.361
  433SOL    HW2 2199   2.275   5.545   0.429
  434SOL     OW 2200   4.158   5.857   3.819
  434SOL    HW1 2201   4.097   5.785   3.852
  434SOL    HW2 2202   4.145   5.870   3.721
  435SOL     OW 2203   3.700   1.797   5.927
  435SOL    HW1 2204   3.746   1.850   5.856
  435SOL    HW2 2205   3.602   1.818   5.925
  436SOL     OW 2206   4.787   0.086   2.610
  436SOL    HW1 2207   4.814   0.027   2.685
  436SOL    HW2 2208   4.753   0.031   2.534
  437SOL     OW 2209   6.799   0.675   5.192
  437SOL    HW1 2210   6.769   0.580   5.192
  437SOL    HW2 2211   6.746   0.727   5.125
  438SOL     OW 2212   0.405   4.028   2.804
  438SOL    HW1 2213   0.323   4.082   2.826
  438SOL    HW2 2214   0.473   4.086   2.761
  439SOL     OW 2215   6.903   0.322   4.354
  439SOL    HW1 2216   6.957   0.378   4.416
  439SOL    HW2 2217   6.963   0.274   4.290
  440SOL     OW 2218   3.855   1.338   0.752
  440SOL    HW1 2219   3.786   1.371   0.816
  440SOL    HW2 2220   3.867   1.239   0.764
  441SOL     OW 2221   0.056   3.929   2.612
  441SOL    HW1 2222   7.008   3.861   2.568
  441SOL    HW2 2223   0.149   3.893   2.617
  442SOL     OW 2224   5.284   3.177   5.673
  442SOL    HW1 2225   5.226   3.112   5.623
  442SOL    HW2 2226   5.347   3.127   5.732
  443SOL     OW 2227   4.894   3.396   2.195
  443SOL    HW1 2228   4.855   3.305   2.207
  443SOL    HW2 2229   4.914   3.437   2.284
  444SOL     OW 2230   3.925   0.994   1.666
  444SOL    HW1 2231   3.897   1.090   1.668
  444SOL    HW2 2232   3.969   0.970   1.753
  445SOL     OW 2233   1.382   5.804   2.387
  445SOL    HW1 2234   1.331   5.720   2.397
  445SOL    HW2 2235   1.446   5.796   2.311
  446SOL     OW 2236   5.379   6.845   1.699
  446SOL    HW1 2237   5.303   6.892   1.743
  446SOL    HW2 2238   5.381   6.866   1.601
  447SOL     OW 2239   5.945   4.626   0.979
  447SOL    HW1 2240   5.954   4.529   0.998
  447SOL    HW2 2241   6.006   4.651   0.903
  448SOL     OW 2242   2.704   0.156   2.992
  448SOL    HW1 2243   2.701   0.147   3.091
  448SOL    HW2 2244   2.775   0.222   2.966
  449SOL     OW 2245   1.397   4.263   4.889
  449SOL    HW1 2246   1.459   4.342   4.894
  449SOL    HW2 2247   1.421   4.207   4.810
  450SOL     OW 2248   0.666   4.890   3.562
  450SOL    HW1 2249   0.591   4.824   3.559
  450SOL    HW2 2250   0.753   4.842   3.555
  451SOL     OW 2251   0.545   2.056   2.414
  451SOL    HW1 2252   0.569   1.986   2.346
  451SOL    HW2 2253   0.611   2.053   2.489
  452SOL     OW 2254   4.973   5.171   1.945
  452SOL    HW1 2255   4.994   5.083   1.902
  452SOL    HW2 2256   4.898   5.215   1.896
  453SOL     OW 2257   3.547   0.609   6.155
  453SOL    HW1 2258   3.573   0.562   6.239
  453SOL    HW2 2259   3.624   0.666   6.123
  454SOL     OW 2260   6.653   3.309   6.199
  454SOL    HW1 2261   6.645   3.397   6.151
  454SOL    HW2 2262   6.641   3.234   6.134
  455SOL     OW 2263   6.213   4.717   6.093
  455SOL    HW1 2264   6.267   4.797   6.067
  455SOL    HW2 2265   6.115   4.739   6.087
  456SOL     OW 2266   2.699   0.964   2.599
  456SOL    HW1 2267   2.782   0.996   2.644
  456SOL    HW2 2268   2.619   0.989   2.655
  457SOL     OW 2269   2.848   0.207   0.096
  457SOL    HW1 2270   2.866   0.126   0.040
  457SOL    HW2 2271   2.752   0.209   0.122
  458SOL     OW 2272   3.379   1.734   3.272
  458SOL    HW1 2273   3.474   1.705   3.255
  458SOL    HW2 2274   3.333   1.748   3.184
  459SOL     OW 2275   3.403   6.994   3.749
  459SOL    HW1 2276   3.463   6.945   3.685
  459SOL    HW2 2277   3.456   0.054   3.796
  460SOL     OW 2278   0.916   1.256   5.887
  460SOL    HW1 2279   0.994   1.199   5.911
  460SOL    HW2 2280   0.898   1.248   5.788
  461SOL     OW 2281   0.834   5.092   5.860
  461SOL    HW1 2282   0.783   5.024   5.913
  461SOL    HW2 2283   0.928   5.061   5.848
  462SOL     OW 2284   2.922   3.871   4.760
  462SOL    HW1 2285   2.996   3.885   4.695
  462SOL    HW2 2286   2.836   3.905   4.721
  463SOL     OW 2287   5.127   6.900   3.028
  463SOL    HW1 2288   5.048   6.887   2.968
  463SOL    HW2 2289   5.164   6.810   3.053
  464SOL     OW 2290   4.059   5.191   6.514
  464SOL    HW1 2291   4.149   5.157   6.540
  464SOL    HW2 2292   4.057   5.291   6.524
  465SOL     OW 2293   0.891   3.941   1.340
  465SOL    HW1 2294   0.808   3.904   1.382
  465SOL    HW2 2295   0.933   3.871   1.283
  466SOL     OW 2296   3.654   5.430   4.488
  466SOL    HW1 2297   3.586   5.364   4.520
  466SOL    HW2 2298   3.740   5.414   4.536
  467SOL     OW 2299   5.978   6.818   1.960
  467SOL    HW1 2300   6.023   6.737   1.924
  467SOL    HW2 2301   6.013   6.838   2.052
  468SOL     OW 2302   3.221   6.923   6.722
  468SOL    HW1 2303   3.165   6.859   6.669
  468SOL    HW2 2304   3.166   6.962   6.796
  469SOL     OW 2305   3.428   4.963   5.528
  469SOL    HW1 2306   3.494   4.964   5.453
  469SOL    HW2 2307   3.336   4.980   5.492
  470SOL     OW 2308   2.288   4.984   2.965
  470SOL    HW1 2309   2.349   4.946   2.895
  470SOL    HW2 2310   2.294   5.084   2.965
  471SOL     OW 2311   1.783   2.319   3.982
  471SOL    HW1 2312   1.818   2.226   3.983
  471SOL    HW2 2313   1.775   2.353   4.076
  472SOL     OW 2314   5.794   3.391   6.510
  472SOL    HW1 2315   5.851   3.361   6.434
  472SOL    HW2 2316   5.798   3.323   6.583
  473SOL     OW 2317   6.450   3.019   2.273
  473SOL    HW1 2318   6.371   3.077   2.250
  473SOL    HW2 2319   6.466   2.953   2.200
  474SOL     OW 2320   4.531   6.342   4.081
  474SOL    HW1 2321   4.466   6.387   4.142
  474SOL    HW2 2322   4.526   6.384   3.990
  475SOL     OW 2323   6.146   1.946   0.460
  475SOL    HW1 2324   6.054   1.967   0.427
  475SOL    HW2 2325   6.191   1.883   0.396
  476SOL     OW 2326   1.235   4.389   1.564
  476SOL    HW1 2327   1.243   4.474   1.512
  476SOL    HW2 2328   1.211   4.314   1.502
  477SOL     OW 2329   1.706   4.497   3.634
  477SOL    HW1 2330   1.648   4.525   3.711
  477SOL    HW2 2331   1.700   4.566   3.562
  478SOL     OW 2332   5.173   5.421   1.991
  478SOL    HW1 2333   5.266   5.384   1.985
  478SOL    HW2 2334   5.115   5.357   2.041
  479SOL     OW 2335   3.297   4.136   3.757
  479SOL    HW1 2336   3.319   4.160   3.662
  479SOL    HW2 2337   3.208   4.090   3.760
  480SOL     OW 2338   1.220   0.970   3.230
  480SOL    HW1 2339   1.298   0.912   3.252
  480SOL    HW2 2340   1.241   1.024   3.149
  481SOL     OW 2341   0.013   0.144   0.858
  481SOL    HW1 2342   6.944   0.186   0.901
  481SOL    HW2 2343   0.062   0.089   0.926
  482SOL     OW 2344   3.816   4.994   1.503
  482SOL    HW1 2345   3.756   4.917   1.526
  482SOL    HW2 2346   3.779   5.043   1.424
  483SOL     OW 2347   5.403   1.818   3.975
  483SOL    HW1 2348   5.390   1.882   4.050
  483SOL    HW2 2349   5.464   1.857   3.907
  484SOL     OW 2350   2.527   4.460   4.302
  484SOL    HW1 2351   2.512   4.461   4.203
  484SOL    HW2 2352   2.624   4.470   4.321
  485SOL     OW 2353   5.724   3.350   1.669
  485SOL    HW1 2354   5.670   3.272   1.638
  485SOL    HW2 2355   5.664   3.416   1.713
  486SOL     OW 2356   5.998   5.919   6.354
  486SOL    HW1 2357   5.919   5.943   6.299
  486SOL    HW2 2358   6.024   5.996   6.413
  487SOL     OW 2359   6.384   0.142   6.099
  487SOL    HW1 2360   6.291   0.138   6.136
  487SOL    HW2 2361   6.447   0.175   6.169
  488SOL     OW 2362   2.010   5.843   2.997
  488SOL    HW1 2363   2.084   5.894   2.954
  488SOL    HW2 2364   2.002   5.870   3.093
  489SOL     OW 2365   1.379   6.170   6.209
  489SOL    HW1 2366   1.454   6.146   6.270
  489SOL    HW2 2367   1.405   6.249   6.153
  490SOL     OW 2368   1.212   4.500   4.277
  490SOL    HW1 2369   1.126   4.494   4.225
  490SOL    HW2 2370   1.192   4.490   4.375
  491SOL     OW 2371   0.596   2.663   0.786
  491SOL    HW1 2372   0.636   2.691   0.873
  491SOL    HW2 2373   0.613   2.734   0.717
  492SOL     OW 2374   0.922   2.490   5.719
  492SOL    HW1 2375   0.958   2.409   5.671
  492SOL    HW2 2376   0.997   2.554   5.736
  493SOL     OW 2377   2.504   5.478   4.383
  493SOL    HW1 2378   2.583   5.526   4.345
  493SOL    HW2 2379   2.430   5.479   4.316
  494SOL     OW 2380   2.461   6.440   4.519
  494SOL    HW1 2381   2.560   6.426   4.512
  494SOL    HW2 2382   2.441   6.537   4.529
  495SOL     OW 2383   3.886   3.946   5.975
  495SOL    HW1 2384   3.793   3.912   5.967
  495SOL    HW2 2385   3.951   3.875   5.947
  496SOL     OW 2386   4.716   1.219   3.304
  496SOL    HW1 2387   4.807   1.180   3.288
  496SOL    HW2 2388   4.726   1.310   3.343
  497SOL     OW 2389   4.419   1.822   0.054
  497SOL    HW1 2390   4.463   1.746   0.008
  497SOL    HW2 2391   4.433   1.814   0.153
  498SOL     OW 2392   0.570   6.812   1.871
  498SOL    HW1 2393   0.663   6.848   1.881
  498SOL    HW2 2394   0.535   6.835   1.780
  499SOL     OW 2395   2.918   6.130   0.091
  499SOL    HW1 2396   2.909   6.076   0.174
  499SOL    HW2 2397   2.985   6.202   0.105
  500SOL     OW 2398   5.804   2.014   0.284
  500SOL    HW1 2399   5.840   2.090   0.230
  500SOL    HW2 2400   5.716   1.986   0.247
  501SOL     OW 2401   1.213   1.194   4.333
  501SOL    HW1 2402   1.275   1.180   4.411
  501SOL    HW2 2403   1.173   1.106   4.307
  502SOL     OW 2404   1.857   4.940   6.683
  502SOL    HW1 2405   1.890   4.897   6.767
  502SOL    HW2 2406   1.934   4.963   6.624
  503SOL     OW 2407   4.198   5.013   0.384
  503SOL    HW1 2408   4.143   5.044   0.306
  503SOL    HW2 2409   4.193   5.081   0.458
  504SOL     OW 2410   5.813   6.101   1.699
  504SOL    HW1 2411   5.789   6.087   1.796
  504SOL    HW2 2412   5.797   6.016   1.649
  505SOL     OW 2413   4.563   6.160   4.897
  505SOL    HW1 2414   4.633   6.214   4.850
  505SOL    HW2 2415   4.514   6.104   4.830
  506SOL     OW 2416   4.320   5.055   2.051
  506SOL    HW1 2417   4.255   5.018   2.118
  506SOL    HW2 2418   4.275   5.124   1.995
  507SOL     OW 2419   2.982   0.760   0.909
  507SOL    HW1 2420   2.891   0.797   0.891
  507SOL    HW2 2421   3.025   0.810   0.984
  508SOL     OW 2422   6.939   4.191   3.568
  508SOL    HW1 2423   6.897   4.125   3.506
  508SOL    HW2 2424   6.981   4.143   3.645
  509SOL     OW 2425   4.661   0.356   6.244
  509SOL    HW1 2426   4.755   0.387   6.246
  509SOL    HW2 2427   4.623   0.357   6.336
  510SOL     OW 2428   6.603   3.834   6.968
  510SOL    HW1 2429   6.586   3.913   6.910
  510SOL    HW2 2430   6.519   3.807   0.003
  511SOL     OW 2431   0.596   2.398   0.850
  511SOL    HW1 2432   0.557   2.335   0.783
  511SOL    HW2 2433   0.577   2.492   0.821
  512SOL     OW 2434   0.088   2.376   5.051
  512SOL    HW1 2435   0.006   2.366   5.107
  512SOL    HW2 2436   0.094   2.302   4.985
  513SOL     OW 2437   5.361   0.969   3.034
  513SOL    HW1 2438   5.281   0.928   2.991
  513SOL    HW2 2439   5.444   0.920   3.008
  514SOL     OW 2440   6.247   0.117   4.887
  514SOL    HW1 2441   6.261   0.064   4.803
  514SOL    HW2 2442   6.271   0.061   4.966
  515SOL     OW 2443   3.825   0.258   5.643
  515SOL    HW1 2444   3.782   0.338   5.602
  515SOL    HW2 2445   3.777   0.175   5.613
  516SOL     OW 2446   2.244   5.859   2.012
  516SOL    HW1 2447   2.306   5.879   1.936
  516SOL    HW2 2448   2.274   5.909   2.093
  517SOL     OW 2449   3.779   5.784   1.282
  517SOL    HW1 2450   3.760   5.877   1.312
  517SOL    HW2 2451   3.801   5.784   1.184
  518SOL     OW 2452   2.074   3.403   3.875
  518SOL    HW1 2453   2.095   3.397   3.972
  518SOL    HW2 2454   1.989   3.454   3.862
  519SOL     OW 2455   0.085   0.324   2.188
  519SOL    HW1 2456   7.004   0.287   2.181
  519SOL    HW2 2457   0.152   0.249   2.180
  520SOL     OW 2458   1.874   3.921   0.764
  520SOL    HW1 2459   1.900   3.907   0.859
  520SOL    HW2 2460   1.888   3.836   0.712
  521SOL     OW 2461   6.471   6.347   4.695
  521SOL    HW1 2462   6.513   6.356   4.786
  521SOL    HW2 2463   6.379   6.310   4.705
  522SOL     OW 2464   3.741   4.214   1.510
  522SOL    HW1 2465   3.829   4.231   1.554
  522SOL    HW2 2466   3.667   4.236   1.574
  523SOL     OW 2467   1.002   0.071   1.124
  523SOL    HW1 2468   1.092   0.075   1.081
  523SOL    HW2 2469   0.952   7.004   1.088
  524SOL     OW 2470   0.283   2.356   1.560
  524SOL    HW1 2471   0.367   2.411   1.552
  524SOL    HW2 2472   0.241   2.346   1.470
  525SOL     OW 2473   1.002   3.467   5.370
  525SOL    HW1 2474   0.950   3.476   5.454
  525SOL    HW2 2475   1.021   3.370   5.353
  526SOL     OW 2476   3.304   0.322   3.900
  526SOL    HW1 2477   3.275   0.267   3.821
  526SOL    HW2 2478   3.261   0.412   3.895
  527SOL     OW 2479   0.426   0.957   0.516
  527SOL    HW1 2480   0.336   0.997   0.531
  527SOL    HW2 2481   0.429   0.915   0.425
  528SOL     OW 2482   6.672   3.713   4.014
  528SOL    HW1 2483   6.696   3.632   3.962
  528SOL    HW2 2484   6.594   3.759   3.970
  529SOL     OW 2485   1.882   0.678   0.400
  529SOL    HW1 2486   1.969   0.727   0.411
  529SOL    HW2 2487   1.870   0.616   0.477
  530SOL     OW 2488   3.876   3.849   0.981
  530SOL    HW1 2489   3.878   3.752   1.003
  530SOL    HW2 2490   3.897   3.903   1.062
  531SOL     OW 2491   1.233   0.372   0.861
  531SOL    HW1 2492   1.232   0.394   0.958
  531SOL    HW2 2493   1.307   0.307   0.842
  532SOL     OW 2494   1.615   2.231   6.679
  532SOL    HW1 2495   1.661   2.305   6.728
  532SOL    HW2 2496   1.651   2.225   6.586
  533SOL     OW 2497   3.627   0.163   4.644
  533SOL    HW1 2498   3.656   0.240   4.587
  533SOL    HW2 2499   3.700   0.138   4.707
  534SOL     OW 2500   1.495   5.232   1.770
  534SOL    HW1 2501   1.497   5.132   1.763
  534SOL    HW2 2502   1.586   5.265   1.797
  535SOL     OW 2503   5.414   3.012   3.958
  535SOL    HW1 2504   5.366   2.937   4.005
  535SOL    HW2 2505   5.350   3.087   3.943
  536SOL     OW 2506   6.865   0.206   2.169
  536SOL    HW1 2507   6.889   0.114   2.200
  536SOL    HW2 2508   6.765   0.215   2.167
  537SOL     OW 2509   4.104   2.073   4.599
  537SOL    HW1 2510   4.094   2.153   4.658
  537SOL    HW2 2511   4.150   2.100   4.514
  538SOL     OW 2512   3.380   4.639   5.304
  538SOL    HW1 2513   3.415   4.730   5.282
  538SOL    HW2 2514   3.280   4.640   5.302
  539SOL     OW 2515   1.074   0.076   0.124
  539SOL    HW1 2516   1.090   0.173   0.141
  539SOL    HW2 2517   1.093   0.024   0.207
  540SOL     OW 2518   0.717   6.945   4.137
  540SOL    HW1 2519   0.811   6.937   4.102
  540SOL    HW2 2520   0.720   6.969   4.234
  541SOL     OW 2521   4.076   5.707   4.213
  541SOL    HW1 2522   4.020   5.634   4.176
  541SOL    HW2 2523   4.021   5.791   4.220
  542SOL     OW 2524   3.352   0.573   5.690
  542SOL    HW1 2525   3.290   0.496   5.670
  542SOL    HW2 2526   3.300   0.645   5.737
  543SOL     OW 2527   6.645   2.271   4.486
  543SOL    HW1 2528   6.722   2.226   4.440
  543SOL    HW2 2529   6.559   2.234   4.451
  544SOL     OW 2530   1.893   3.897   1.064
  544SOL    HW1 2531   1.835   3.955   1.121
  544SOL    HW2 2532   1.979   3.880   1.112
  545SOL     OW 2533   5.652   0.853   1.278
  545SOL    HW1 2534   5.698   0.775   1.320
  545SOL    HW2 2535   5.591   0.896   1.344
  546SOL     OW 2536   0.184   4.170   2.946
  546SOL    HW1 2537   0.161   4.243   3.011
  546SOL    HW2 2538   0.101   4.142   2.898
  547SOL     OW 2539   5.214   1.071   6.180
  547SOL    HW1 2540   5.198   1.167   6.162
  547SOL    HW2 2541   5.264   1.030   6.104
  548SOL     OW 2542   3.545   2.162   6.835
  548SOL    HW1 2543   3.555   2.253   6.795
  548SOL    HW2 2544   3.448   2.143   6.850
  549SOL     OW 2545   6.012   1.505   1.715
  549SOL    HW1 2546   6.009   1.412   1.752
  549SOL    HW2 2547   6.071   1.508   1.634
  550SOL     OW 2548   6.785   5.382   3.211
  550SOL    HW1 2549   6.876   5.344   3.222
  550SOL    HW2 2550   6.786   5.480   3.230
  551SOL     OW 2551   6.530   0.834   0.722
  551SOL    HW1 2552   6.500   0.779   0.800
  551SOL    HW2 2553   6.461   0.832   0.650
  552SOL     OW 2554   6.223   4.992   5.817
  552SOL    HW1 2555   6.257   5.082   5.791
  552SOL    HW2 2556   6.123   4.991   5.812
  553SOL     OW 2557   2.647   1.472   6.753
  553SOL    HW1 2558   2.608   1.546   6.807
  553SOL    HW2 2559   2.594   1.388   6.769
  554SOL     OW 2560   5.689   6.341   1.567
  554SOL    HW1 2561   5.762   6.394   1.610
  554SOL    HW2 2562   5.701   6.244   1.590
  555SOL     OW 2563   1.206   4.158   5.491
  555SOL    HW1 2564   1.290   4.130   5.537
  555SOL    HW2 2565   1.228   4.227   5.422
  556SOL     OW 2566   5.426   0.080   4.118
  556SOL    HW1 2567   5.442   6.994   4.127
  556SOL    HW2 2568   5.457   0.128   4.201
  557SOL     OW 2569   6.779   4.322   6.593
  557SOL    HW1 2570   6.827   4.392   6.541
  557SOL    HW2 2571   6.809   4.231   6.563
  558SOL     OW 2572   3.122   4.048   2.529
  558SOL    HW1 2573   3.057   4.117   2.498
  558SOL    HW2 2574   3.072   3.972   2.570
  559SOL     OW 2575   6.137   0.167   5.697
  559SOL    HW1 2576   6.058   0.218   5.730
  559SOL    HW2 2577   6.217   0.190   5.753
  560SOL     OW 2578   6.037   2.988   3.346
  560SOL    HW1 2579   6.095   3.037   3.411
  560SOL    HW2 2580   6.049   2.890   3.357
  561SOL     OW 2581   0.965   2.934   0.300
  561SOL    HW1 2582   0.983   2.853   0.244
  561SOL    HW2 2583   0.956   3.014   0.242
  562SOL     OW 2584   4.131   6.927   5.344
  562SOL    HW1 2585   4.037   6.961   5.353
  562SOL    HW2 2586   4.150   6.861   5.416
  563SOL     OW 2587   2.055   1.325   4.503
  563SOL    HW1 2588   2.002   1.327   4.418
  563SOL    HW2 2589   2.004   1.276   4.573
  564SOL     OW 2590   7.010   1.833   5.702
  564SOL    HW1 2591   6.936   1.898   5.720
  564SOL    HW2 2592   0.081   1.883   5.677
  565SOL     OW 2593   4.137   3.504   3.160
  565SOL    HW1 2594   4.118   3.501   3.062
  565SOL    HW2 2595   4.153   3.411   3.194
  566SOL     OW 2596   3.315   0.241   3.260
  566SOL    HW1 2597   3.388   0.275   3.319
  566SOL    HW2 2598   3.319   0.141   3.256
  567SOL     OW 2599   2.205   2.800   6.124
  567SOL    HW1 2600   2.285   2.803   6.183
  567SOL    HW2 2601   2.233   2.799   6.028
  568SOL     OW 2602   6.757   6.459   0.310
  568SOL    HW1 2603   6.809   6.454   0.225
  568SOL    HW2 2604   6.760   6.371   0.356
  569SOL     OW 2605   6.500   2.328   0.328
  569SOL    HW1 2606   6.471   2.409   0.278
  569SOL    HW2 2607   6.433   2.307   0.400
  570SOL     OW 2608   2.331   0.675   5.555
  570SOL    HW1 2609   2.252   0.689   5.615
  570SOL    HW2 2610   2.304   0.618   5.477
  571SOL     OW 2611   2.336   5.387   2.657
  571SOL    HW1 2612   2.320   5.479   2.692
  571SOL    HW2 2613   2.380   5.393   2.567
  572SOL     OW 2614   2.677   7.003   4.068
  572SOL    HW1 2615   2.609   6.980   3.998
  572SOL    HW2 2616   2.644   0.067   4.124
  573SOL     OW 2617   0.054   1.160   5.131
  573SOL    HW1 2618   0.092   1.216   5.204
  573SOL    HW2 2619   6.971   1.136   5.152
  574SOL     OW 2620   2.186   2.450   5.665
  574SOL    HW1 2621   2.202   2.515   5.590
  574SOL    HW2 2622   2.208   2.494   5.752
  575SOL     OW 2623   3.744   2.813   0.551
  575SOL    HW1 2624   3.767   2.892   0.494
  575SOL    HW2 2625   3.772   2.729   0.504
  576SOL     OW 2626   2.080   3.196   3.081
  576SOL    HW1 2627   2.043   3.127   3.019
  576SOL    HW2 2628   2.134   3.151   3.153
  577SOL     OW 2629   0.955   1.306   2.034
  577SOL    HW1 2630   0.947   1.311   1.935
  577SOL    HW2 2631   0.888   1.240   2.070
  578SOL     OW 2632   2.053   6.510   6.756
  578SOL    HW1 2633   2.069   6.451   6.834
  578SOL    HW2 2634   2.109   6.593   6.765
  579SOL     OW 2635   2.182   4.434   1.889
  579SOL    HW1 2636   2.108   4.488   1.929
  579SOL    HW2 2637   2.235   4.392   1.962
  580SOL     OW 2638   4.322   5.182   4.570
  580SOL    HW1 2639   4.299   5.245   4.496
  580SOL    HW2 2640   4.238   5.144   4.608
  581SOL     OW 2641   1.761   2.557   4.679
  581SOL    HW1 2642   1.677   2.510   4.653
  581SOL    HW2 2643   1.738   2.642   4.726
  582SOL     OW 2644   5.372   5.764   3.675
  582SOL    HW1 2645   5.328   5.787   3.762
  582SOL    HW2 2646   5.304   5.732   3.610
  583SOL     OW 2647   4.230   5.725   5.883
  583SOL    HW1 2648   4.202   5.657   5.951
  583SOL    HW2 2649   4.324   5.705   5.854
  584SOL     OW 2650   4.515   0.794   5.503
  584SOL    HW1 2651   4.419   0.816   5.520
  584SOL    HW2 2652   4.570   0.877   5.509
  585SOL     OW 2653   3.123   0.477   2.005
  585SOL    HW1 2654   3.114   0.481   2.104
  585SOL    HW2 2655   3.105   0.568   1.966
  586SOL     OW 2656   4.654   6.882   0.834
  586SOL    HW1 2657   4.734   6.830   0.863
  586SOL    HW2 2658   4.682   6.955   0.772
  587SOL     OW 2659   4.827   1.943   1.706
  587SOL    HW1 2660   4.768   1.994   1.644
  587SOL    HW2 2661   4.836   1.849   1.674
  588SOL     OW 2662   1.096   5.374   2.630
  588SOL    HW1 2663   1.089   5.274   2.634
  588SOL    HW2 2664   1.108   5.410   2.723
  589SOL     OW 2665   3.025   6.134   0.939
  589SOL    HW1 2666   3.109   6.111   0.987
  589SOL    HW2 2667   3.014   6.234   0.937
  590SOL     OW 2668   4.698   1.859   0.765
  590SOL    HW1 2669   4.763   1.843   0.839
  590SOL    HW2 2670   4.698   1.955   0.740
  591SOL     OW 2671   3.718   6.139   4.823
  591SOL    HW1 2672   3.651   6.172   4.889
  591SOL    HW2 2673   3.767   6.060   4.861
  592SOL     OW 2674   4.110   1.876   4.117
  592SOL    HW1 2675   4.198   1.924   4.121
  592SOL    HW2 2676   4.037   1.942   4.101
  593SOL     OW 2677   2.831   1.257   6.317
  593SOL    HW1 2678   2.768   1.228   6.389
  593SOL    HW2 2679   2.819   1.198   6.237
  594SOL     OW 2680   5.080   1.183   2.008
  594SOL    HW1 2681   5.143   1.237   1.952
  594SOL    HW2 2682   4.986   1.206   1.985
  595SOL     OW 2683   5.515   5.730   2.528
  595SOL    HW1 2684   5.552   5.756   2.617
  595SOL    HW2 2685   5.504   5.630   2.524
  596SOL     OW 2686   6.736   4.965   4.126
  596SOL    HW1 2687   6.835   4.975   4.134
  596SOL    HW2 2688   6.710   4.872   4.153
  597SOL     OW 2689   2.578   0.274   6.157
  597SOL    HW1 2690   2.578   0.280   6.057
  597SOL    HW2 2691   2.646   0.337   6.194
  598SOL     OW 2692   2.988   3.236   4.464
  598SOL    HW1 2693   3.039   3.165   4.415
  598SOL    HW2 2694   2.973   3.207   4.559
  599SOL     OW 2695   1.311   5.617   2.075
  599SOL    HW1 2696   1.288   5.545   2.010
  599SOL    HW2 2697   1.230   5.641   2.128
  600SOL     OW 2698   0.075   3.786   4.909
  600SOL    HW1 2699   0.024   3.812   4.827
  600SOL    HW2 2700   0.139   3.712   4.886
  601SOL     OW 2701   2.036   6.375   4.991
  601SOL    HW1 2702   2.071   6.426   5.069
  601SOL    HW2 2703   1.976   6.434   4.937
  602SOL     OW 2704   2.520   6.296   3.879
  602SOL    HW1 2705   2.490   6.323   3.970
  602SOL    HW2 2706   2.440   6.271   3.824
  603SOL     OW 2707   1.645   1.216   5.504
  603SOL    HW1 2708   1.686   1.126   5.495
  603SOL    HW2 2709   1.712   1.286   5.476
  604SOL     OW 2710   6.696   2.523   1.771
  604SOL    HW1 2711   6.793   2.524   1.750
  604SOL    HW2 2712   6.644   2.509   1.687
  605SOL     OW 2713   6.997   5.603   2.370
  605SOL    HW1 2714   0.011   5.569   2.461
  605SOL    HW2 2715   6.945   5.533   2.321
  606SOL     OW 2716   3.323   6.375   4.878
  606SOL    HW1 2717   3.420   6.393   4.897
  606SOL    HW2 2718   3.290   6.440   4.810
  607SOL     OW 2719   0.739   4.355   6.023
  607SOL    HW1 2720   0.695   4.310   5.945
  607SOL    HW2 2721   0.723   4.454   6.018
  608SOL     OW 2722   2.809   1.464   5.381
  608SOL    HW1 2723   2.882   1.412   5.335
  608SOL    HW2 2724   2.785   1.544   5.326
  609SOL     OW 2725   3.302   2.869   2.228
  609SOL    HW1 2726   3.313   2.881   2.129
  609SOL    HW2 2727   3.205   2.875   2.252
  610SOL     OW 2728   4.773   3.547   0.917
  610SOL    HW1 2729   4.831   3.588   0.987
  610SOL    HW2 2730   4.682   3.531   0.955
  611SOL     OW 2731   3.792   0.425   2.557
  611SOL    HW1 2732   3.693   0.416   2.565
  611SOL    HW2 2733   3.826   0.482   2.632
  612SOL     OW 2734   3.973   4.874   6.043
  612SOL    HW1 2735   3.984   4.814   5.964
  612SOL    HW2 2736   3.893   4.846   6.095
  613SOL     OW 2737   4.646   5.232   5.627
  613SOL    HW1 2738   4.608   5.235   5.719
  613SOL    HW2 2739   4.738   5.271   5.628
  614SOL     OW 2740   4.019   5.176   5.914
  614SOL    HW1 2741   4.038   5.122   5.996
  614SOL    HW2 2742   3.965   5.122   5.850
  615SOL     OW 2743   0.722   5.072   1.904
  615SOL    HW1 2744   0.676   5.002   1.850
  615SOL    HW2 2745   0.661   5.104   1.976
  616SOL     OW 2746   5.709   3.556   3.199
  616SOL    HW1 2747   5.676   3.513   3.283
  616SOL    HW2 2748   5.803   3.528   3.182
  617SOL     OW 2749   3.132   5.593   6.414
  617SOL    HW1 2750   3.170   5.653   6.344
  617SOL    HW2 2751   3.133   5.498   6.381
  618SOL     OW 2752   1.596   0.984   2.362
  618SOL    HW1 2753   1.514   1.004   2.417
  618SOL    HW2 2754   1.657   1.063   2.365
  619SOL     OW 2755   0.903   1.201   6.577
  619SOL    HW1 2756   0.902   1.184   6.479
  619SOL    HW2 2757   0.988   1.167   6.616
  620SOL     OW 2758   4.359   3.649   0.739
  620SOL    HW1 2759   4.418   3.718   0.696
  620SOL    HW2 2760   4.409   3.607   0.815
  621SOL     OW 2761   0.425   4.972   2.132
  621SOL    HW1 2762   0.473   5.059   2.143
  621SOL    HW2 2763   0.351   4.982   2.066
  622SOL     OW 2764   1.567   0.971   6.915
  622SOL    HW1 2765   1.489   0.931   6.867
  622SOL    HW2 2766   1.557   1.071   6.916
  623SOL     OW 2767   0.756   4.760   6.558
  623SOL    HW1 2768   0.705   4.675   6.551
  623SOL    HW2 2769   0.803   4.764   6.646
  624SOL     OW 2770   0.695   2.725   2.363
  624SOL    HW1 2771   0.617   2.663   2.370
  624SOL    HW2 2772   0.699   2.764   2.271
  625SOL     OW 2773   2.465   1.493   2.018
  625SOL    HW1 2774   2.406   1.573   2.031
  625SOL    HW2 2775   2.420   1.429   1.954
  626SOL     OW 2776   2.808   6.224   4.762
  626SOL    HW1 2777   2.742   6.190   4.829
  626SOL    HW2 2778   2.879   6.277   4.809
  627SOL     OW 2779   5.292   1.069   0.040
  627SOL    HW1 2780   5.325   1.072   6.957
  627SOL    HW2 2781   5.305   0.977   0.076
  628SOL     OW 2782   4.879   3.906   3.544
  628SOL    HW1 2783   4.847   3.913   3.450
  628SOL    HW2 2784   4.851   3.987   3.596
  629SOL     OW 2785   1.223   0.034   0.699
  629SOL    HW1 2786   1.212   0.037   0.799
  629SOL    HW2 2787   1.315   0.065   0.675
  630SOL     OW 2788   4.099   2.034   0.944
  630SOL    HW1 2789   4.082   2.126   0.910
  630SOL    HW2 2790   4.172   2.036   1.012
  631SOL     OW 2791   2.524   0.019   5.190
  631SOL    HW1 2792   2.447   0.014   5.254
  631SOL    HW2 2793   2.530   6.944   5.139
  632SOL     OW 2794   2.359   0.657   0.939
  632SOL    HW1 2795   2.349   0.716   0.858
  632SOL    HW2 2796   2.393   0.712   1.015
  633SOL     OW 2797   2.479   6.930   6.509
  633SOL    HW1 2798   2.407   6.921   6.440
  633SOL    HW2 2799   2.554   6.868   6.486
  634SOL     OW 2800   3.488   5.910   0.492
  634SOL    HW1 2801   3.523   5.919   0.585
  634SOL    HW2 2802   3.408   5.850   0.491
  635SOL     OW 2803   2.574   0.385   2.634
  635SOL    HW1 2804   2.584   0.441   2.716
  635SOL    HW2 2805   2.637   0.307   2.638
  636SOL     OW 2806   5.159   5.167   0.012
  636SOL    HW1 2807   5.188   5.092   6.964
  636SOL    HW2 2808   5.071   5.202   6.991
  637SOL     OW 2809   4.408   4.575   0.924
  637SOL    HW1 2810   4.367   4.652   0.973
  637SOL    HW2 2811   4.345   4.544   0.852
  638SOL     OW 2812   5.107   1.104   2.673
  638SOL    HW1 2813   5.086   1.185   2.727
  638SOL    HW2 2814   5.022   1.056   2.649
  639SOL     OW 2815   4.348   4.575   2.006
  639SOL    HW1 2816   4.377   4.480   1.994
  639SOL    HW2 2817   4.427   4.632   2.024
  640SOL     OW 2818   2.631   4.234   5.318
  640SOL    HW1 2819   2.554   4.263   5.262
  640SOL    HW2 2820   2.688   4.313   5.340
  641SOL     OW 2821   0.143   5.961   4.702
  641SOL    HW1 2822   0.188   6.004   4.624
  641SOL    HW2 2823   0.048   5.993   4.708
  642SOL     OW 2824   0.722   5.315   4.817
  642SOL    HW1 2825   0.667   5.328   4.899
  642SOL    HW2 2826   0.748   5.404   4.780
  643SOL     OW 2827   5.927   5.772   5.332
  643SOL    HW1 2828   5.832   5.801   5.316
  643SOL    HW2 2829   5.988   5.826   5.275
  644SOL     OW 2830   1.353   6.493   2.140
  644SOL    HW1 2831   1.442   6.512   2.181
  644SOL    HW2 2832   1.359   6.506   2.041
  645SOL     OW 2833   5.515   2.431   3.655
  645SOL    HW1 2834   5.566   2.443   3.569
  645SOL    HW2 2835   5.546   2.498   3.722
  646SOL     OW 2836   1.748   1.847   4.441
  646SOL    HW1 2837   1.734   1.901   4.358
  646SOL    HW2 2838   1.831   1.792   4.431
  647SOL     OW 2839   5.794   3.121   0.379
  647SOL    HW1 2840   5.825   3.172   0.459
  647SOL    HW2 2841   5.870   3.109   0.315
  648SOL     OW 2842   5.977   3.373   1.770
  648SOL    HW1 2843   5.889   3.375   1.724
  648SOL    HW2 2844   5.963   3.368   1.869
  649SOL     OW 2845   4.284   4.470   1.187
  649SOL    HW1 2846   4.344   4.430   1.118
  649SOL    HW2 2847   4.302   4.568   1.194
  650SOL     OW 2848   4.894   4.832   0.721
  650SOL    HW1 2849   4.942   4.913   0.755
  650SOL    HW2 2850   4.948   4.750   0.743
  651SOL     OW 2851   1.280   5.864   6.662
  651SOL    HW1 2852   1.209   5.906   6.719
  651SOL    HW2 2853   1.292   5.918   6.579
  652SOL     OW 2854   4.157   1.512   2.495
  652SOL    HW1 2855   4.180   1.590   2.437
  652SOL    HW2 2856   4.196   1.429   2.454
  653SOL     OW 2857   3.648   4.935   3.441
  653SOL    HW1 2858   3.691   4.935   3.532
  653SOL    HW2 2859   3.719   4.922   3.371
  654SOL     OW 2860   6.560   4.488   0.274
  654SOL    HW1 2861   6.571   4.430   0.355
  654SOL    HW2 2862   6.645   4.537   0.256
  655SOL     OW 2863   0.619   0.628   0.841
  655SOL    HW1 2864   0.591   0.606   0.934
  655SOL    HW2 2865   0.601   0.549   0.782
  656SOL     OW 2866   2.764   6.457   2.114
  656SOL    HW1 2867   2.842   6.408   2.152
  656SOL    HW2 2868   2.742   6.536   2.171
  657SOL     OW 2869   2.918   1.547   6.828
  657SOL    HW1 2870   2.956   1.637   6.809
  657SOL    HW2 2871   2.821   1.546   6.806
  658SOL     OW 2872   3.360   4.578   6.095
  658SOL    HW1 2873   3.283   4.537   6.045
  658SOL    HW2 2874   3.417   4.630   6.032
  659SOL     OW 2875   2.338   0.134   6.641
  659SOL    HW1 2876   2.327   0.226   6.601
  659SOL    HW2 2877   2.398   0.080   6.583
  660SOL     OW 2878   3.745   5.382   2.841
  660SOL    HW1 2879   3.783   5.454   2.783
  660SOL    HW2 2880   3.788   5.384   2.931
  661SOL     OW 2881   5.046   5.416   2.912
  661SOL    HW1 2882   5.061   5.489   2.845
  661SOL    HW2 2883   5.103   5.338   2.890
  662SOL     OW 2884   3.292   1.158   6.823
  662SOL    HW1 2885   3.296   1.228   6.751
  662SOL    HW2 2886   3.309   1.200   6.912
  663SOL     OW 2887   2.407   4.370   5.175
  663SOL    HW1 2888   2.480   4.374   5.106
  663SOL    HW2 2889   2.334   4.309   5.142
  664SOL     OW 2890   6.468   0.756   6.762
  664SOL    HW1 2891   6.409   0.713   6.831
  664SOL    HW2 2892   6.563   0.749   6.790
  665SOL     OW 2893   2.326   5.643   2.764
  665SOL    HW1 2894   2.347   5.741   2.770
  665SOL    HW2 2895   2.370   5.596   2.840
  666SOL     OW 2896   4.210   0.891   2.213
  666SOL    HW1 2897   4.300   0.931   2.195
  666SOL    HW2 2898   4.139   0.958   2.195
  667SOL     OW 2899   0.784   6.458   2.591
  667SOL    HW1 2900   0.709   6.514   2.625
  667SOL    HW2 2901   0.767   6.434   2.495
  668SOL     OW 2902   5.171   3.830   0.470
  668SOL    HW1 2903   5.206   3.871   0.386
  668SOL    HW2 2904   5.110   3.755   0.449
  669SOL     OW 2905   5.229   1.797   3.234
  669SOL    HW1 2906   5.263   1.890   3.225
  669SOL    HW2 2907   5.141   1.789   3.185
  670SOL     OW 2908   2.150   2.033   3.467
  670SOL    HW1 2909   2.098   1.948   3.478
  670SOL    HW2 2910   2.243   2.020   3.500
  671SOL     OW 2911   2.906   6.379   1.761
  671SOL    HW1 2912   2.922   6.464   1.811
  671SOL    HW2 2913   2.992   6.347   1.721
  672SOL     OW 2914   1.099   6.638   2.235
  672SOL    HW1 2915   1.091   6.676   2.327
  672SOL    HW2 2916   1.187   6.590   2.227
  673SOL     OW 2917   5.434   6.858   0.248
  673SOL    HW1 2918   5.407   6.951   0.221
  673SOL    HW2 2919   5.413   6.794   0.175
  674SOL     OW 2920   0.314   0.642   4.382
  674SOL    HW1 2921   0.252   0.717   4.361
  674SOL    HW2 2922   0.322   0.632   4.482
  675SOL     OW 2923   6.169   2.753   2.466
  675SOL    HW1 2924   6.260   2.788   2.488
  675SOL    HW2 2925   6.173   2.697   2.384
  676SOL     OW 2926   2.089   5.837   6.165
  676SOL    HW1 2927   2.022   5.894   6.212
  676SOL    HW2 2928   2.137   5.891   6.096
  677SOL     OW 2929   4.755   1.444   0.718
  677SOL    HW1 2930   4.742   1.523   0.658
  677SOL    HW2 2931   4.849   1.411   0.712
  678SOL     OW 2932   1.956   4.984   4.922
  678SOL    HW1 2933   1.856   4.995   4.918
  678SOL    HW2 2934   1.978   4.886   4.925
  679SOL     OW 2935   5.475   1.745   5.446
  679SOL    HW1 2936   5.470   1.730   5.544
  679SOL    HW2 2937   5.383   1.747   5.407
  680SOL     OW 2938   4.354   0.119   4.521
  680SOL    HW1 2939   4.413   0.043   4.497
  680SOL    HW2 2940   4.359   0.190   4.450
  681SOL     OW 2941   4.706   4.882   2.361
  681SOL    HW1 2942   4.791   4.839   2.331
  681SOL    HW2 2943   4.642   4.812   2.391
  682SOL     OW 2944   0.886   0.717   3.651
  682SOL    HW1 2945   0.886   0.809   3.613
  682SOL    HW2 2946   0.906   0.722   3.749
  683SOL     OW 2947   4.604   3.555   1.196
  683SOL    HW1 2948   4.690   3.546   1.247
  683SOL    HW2 2949   4.527   3.561   1.260
  684SOL     OW 2950   6.762   0.888   6.003
  684SOL    HW1 2951   6.738   0.940   6.086
  684SOL    HW2 2952   6.796   0.798   6.030
  685SOL     OW 2953   3.424   0.634   3.086
  685SOL    HW1 2954   3.444   0.604   3.179
  685SOL    HW2 2955   3.481   0.712   3.062
  686SOL     OW 2956   4.218   0.547   5.207
  686SOL    HW1 2957   4.130   0.501   5.198
  686SOL    HW2 2958   4.276   0.496   5.271
  687SOL     OW 2959   1.377   1.821   4.506
  687SOL    HW1 2960   1.463   1.775   4.528
  687SOL    HW2 2961   1.334   1.777   4.428
  688SOL     OW 2962   6.274   1.161   6.882
  688SOL    HW1 2963   6.358   1.192   6.927
  688SOL    HW2 2964   6.196   1.213   6.917
  689SOL     OW 2965   1.266   4.851   6.007
  689SOL    HW1 2966   1.298   4.771   5.956
  689SOL    HW2 2967   1.329   4.872   6.081
  690SOL     OW 2968   5.661   3.222   2.668
  690SOL    HW1 2969   5.665   3.285   2.746
  690SOL    HW2 2970   5.570   3.225   2.627
  691SOL     OW 2971   4.729   1.769   0.275
  691SOL    HW1 2972   4.790   1.840   0.238
  691SOL    HW2 2973   4.734   1.688   0.218
  692SOL     OW 2974   2.658   0.655   4.692
  692SOL    HW1 2975   2.704   0.710   4.622
  692SOL    HW2 2976   2.567   0.693   4.709
  693SOL     OW 2977   5.111   6.030   3.910
  693SOL    HW1 2978   5.181   5.958   3.909
  693SOL    HW2 2979   5.023   5.991   3.938
  694SOL     OW 2980   4.674   5.670   5.050
  694SOL    HW1 2981   4.655   5.655   5.148
  694SOL    HW2 2982   4.748   5.609   5.021
  695SOL     OW 2983   3.260   0.024   4.169
  695SOL    HW1 2984   3.338   6.973   4.169
  695SOL    HW2 2985   3.206   0.010   4.086
  696SOL     OW 2986   4.593   4.365   3.132
  696SOL    HW1 2987   4.648   4.402   3.056
  696SOL    HW2 2988   4.539   4.438   3.173
  697SOL     OW 2989   0.127   5.020   2.292
  697SOL    HW1 2990   0.146   4.924   2.271
  697SOL    HW2 2991   0.204   5.077   2.261
  698SOL     OW 2992   5.384   6.931   1.118
  698SOL    HW1 2993   5.297   6.957   1.159
  698SOL    HW2 2994   5.443   0.001   1.111
  699SOL     OW 2995   2.455   2.287   0.917
  699SOL    HW1 2996   2.387   2.225   0.957
  699SOL    HW2 2997   2.519   2.315   0.987
  700SOL     OW 2998   3.909   6.802   2.994
  700SOL    HW1 2999   4.001   6.815   3.029
  700SOL    HW2 3000   3.856   6.747   3.058
  701SOL     OW 3001   5.984   5.209   1.351
  701SOL    HW1 3002   5.934   5.228   1.436
  701SOL    HW2 3003   6.033   5.292   1.323
  702SOL     OW 3004   3.079   1.183   4.007
  702SOL    HW1 3005   3.057   1.087   3.990
  702SOL    HW2 3006   3.058   1.205   4.102
  703SOL     OW 3007   2.914   2.372   5.922
  703SOL    HW1 3008   2.864   2.330   5.998
  703SOL    HW2 3009   2.923   2.470   5.938
  704SOL     OW 3010   1.295   2.631   5.988
  704SOL    HW1 3011   1.354   2.584   6.054
  704SOL    HW2 3012   1.199   2.615   6.012
  705SOL     OW 3013   0.025   6.380   4.777
  705SOL    HW1 3014   6.981   6.311   4.730
  705SOL    HW2 3015   6.977   6.454   4.810
  706SOL     OW 3016   4.509   0.996   5.225
  706SOL    HW1 3017   4.547   1.027   5.138
  706SOL    HW2 3018   4.495   0.897   5.222
  707SOL     OW 3019   3.446   5.292   3.435
  707SOL    HW1 3020   3.471   5.386   3.412
  707SOL    HW2 3021   3.444   5.236   3.352
  708SOL     OW 3022   3.512   0.629   3.721
  708SOL    HW1 3023   3.492   0.641   3.818
  708SOL    HW2 3024   3.557   0.541   3.707
  709SOL     OW 3025   2.309   0.215   1.642
  709SOL    HW1 3026   2.299   0.141   1.709
  709SOL    HW2 3027   2.375   0.187   1.572
  710SOL     OW 3028   4.649   2.806   1.699
  710SOL    HW1 3029   4.628   2.721   1.749
  710SOL    HW2 3030   4.638   2.884   1.760
  711SOL     OW 3031   0.248   2.239   5.731
  711SOL    HW1 3032   0.268   2.337   5.729
  711SOL    HW2 3033   0.316   2.190   5.677
  712SOL     OW 3034   4.781   3.873   0.521
  712SOL    HW1 3035   4.829   3.876   0.608
  712SOL    HW2 3036   4.842   3.904   0.448
  713SOL     OW 3037   3.858   2.728   5.280
  713SOL    HW1 3038   3.830   2.792   5.208
  713SOL    HW2 3039   3.919   2.659   5.241
  714SOL     OW 3040   5.095   4.999   3.592
  714SOL    HW1 3041   5.132   5.087   3.564
  714SOL    HW2 3042   5.170   4.939   3.621
  715SOL     OW 3043   6.249   5.139   5.425
  715SOL    HW1 3044   6.170   5.159   5.483
  715SOL    HW2 3045   6.328   5.190   5.458
  716SOL     OW 3046   2.103   1.590   2.668
  716SOL    HW1 3047   2.191   1.556   2.635
  716SOL    HW2 3048   2.100   1.690   2.657
  717SOL     OW 3049   5.300   5.270   4.094
  717SOL    HW1 3050   5.393   5.235   4.083
  717SOL    HW2 3051   5.234   5.195   4.081
  718SOL     OW 3052   5.575   1.778   4.239
  718SOL    HW1 3053   5.616   1.715   4.172
  718SOL    HW2 3054   5.553   1.728   4.322
  719SOL     OW 3055   5.357   0.158   3.599
  719SOL    HW1 3056   5.433   0.113   3.553
  719SOL    HW2 3057   5.345   0.118   3.690
  720SOL     OW 3058   2.114   1.042   6.759
  720SOL    HW1 3059   2.182   1.008   6.694
  720SOL    HW2 3060   2.131   1.003   6.849
  721SOL     OW 3061   0.058   2.198   3.094
  721SOL    HW1 3062   0.006   2.137   3.034
  721SOL    HW2 3063   0.063   2.289   3.052
  722SOL     OW 3064   4.024   6.812   0.322
  722SOL    HW1 3065   3.982   6.723   0.304
  722SOL    HW2 3066   4.031   6.825   0.421
  723SOL     OW 3067   2.393   5.803   3.655
  723SOL    HW1 3068   2.386   5.748   3.739
  723SOL    HW2 3069   2.423   5.745   3.580
  724SOL     OW 3070   1.155   0.725   3.506
  724SOL    HW1 3071   1.087   0.735   3.578
  724SOL    HW2 3072   1.183   0.815   3.474
  725SOL     OW 3073   1.468   4.030   2.754
  725SOL    HW1 3074   1.414   4.011   2.672
  725SOL    HW2 3075   1.467   3.950   2.814
  726SOL     OW 3076   2.116   4.301   0.519
  726SOL    HW1 3077   2.184   4.265   0.582
  726SOL    HW2 3078   2.027   4.261   0.539
  727SOL     OW 3079   4.219   5.624   5.245
  727SOL    HW1 3080   4.289   5.608   5.314
  727SOL    HW2 3081   4.154   5.549   5.244
  728SOL     OW 3082   6.506   3.418   4.064
  728SOL    HW1 3083   6.534   3.324   4.087
  728SOL    HW2 3084   6.567   3.454   3.994
  729SOL     OW 3085   0.316   4.172   1.549
  729SOL    HW1 3086   0.292   4.076   1.534
  729SOL    HW2 3087   0.413   4.179   1.574
  730SOL     OW 3088   4.991   0.456   3.446
  730SOL    HW1 3089   4.983   0.554   3.426
  730SOL    HW2 3090   5.085   0.426   3.428
  731SOL     OW 3091   4.282   4.518   6.340
  731SOL    HW1 3092   4.330   4.447   6.290
  731SOL    HW2 3093   4.315   4.608   6.312
  732SOL     OW 3094   4.966   1.679   4.018
  732SOL    HW1 3095   4.958   1.582   4.038
  732SOL    HW2 3096   5.016   1.692   3.932
  733SOL     OW 3097   5.960   6.435   3.337
  733SOL    HW1 3098   5.874   6.486   3.342
  733SOL    HW2 3099   6.001   6.430   3.428
  734SOL     OW 3100   5.464   6.176   2.634
  734SOL    HW1 3101   5.551   6.190   2.588
  734SOL    HW2 3102   5.480   6.159   2.731
  735SOL     OW 3103   5.150   0.909   2.019
  735SOL    HW1 3104   5.117   0.999   2.047
  735SOL    HW2 3105   5.249   0.906   2.024
  736SOL     OW 3106   0.900   1.543   4.646
  736SOL    HW1 3107   0.901   1.611   4.719
  736SOL    HW2 3108   0.891   1.590   4.558
  737SOL     OW 3109   5.506   0.799   6.396
  737SOL    HW1 3110   5.605   0.782   6.392
  737SOL    HW2 3111   5.490   0.895   6.417
  738SOL     OW 3112   2.503   4.158   1.384
  738SOL    HW1 3113   2.570   4.222   1.347
  738SOL    HW2 3114   2.537   4.119   1.469
  739SOL     OW 3115   2.960   6.611   4.975
  739SOL    HW1 3116   3.024   6.633   5.049
  739SOL    HW2 3117   3.003   6.546   4.912
  740SOL     OW 3118   5.188   3.312   2.954
  740SOL    HW1 3119   5.211   3.400   2.911
  740SOL    HW2 3120   5.088   3.301   2.955
  741SOL     OW 3121   2.546   0.827   2.800
  741SOL    HW1 3122   2.484   0.780   2.736
  741SOL    HW2 3123   2.609   0.760   2.840
  742SOL     OW 3124   1.828   6.843   1.472
  742SOL    HW1 3125   1.752   6.781   1.490
  742SOL    HW2 3126   1.898   6.833   1.543
  743SOL     OW 3127   0.810   6.494   3.256
  743SOL    HW1 3128   0.860   6.570   3.215
  743SOL    HW2 3129   0.780   6.519   3.348
  744SOL     OW 3130   4.750   2.103   0.477
  744SOL    HW1 3131   4.781   2.152   0.395
  744SOL    HW2 3132   4.657   2.069   0.461
  745SOL     OW 3133   2.839   6.371   5.091
  745SOL    HW1 3134   2.910   6.403   5.028
  745SOL    HW2 3135   2.875   6.296   5.145
  746SOL     OW 3136   6.679   4.532   5.174
  746SOL    HW1 3137   6.642   4.482   5.096
  746SOL    HW2 3138   6.605   4.566   5.231
  747SOL     OW 3139   5.009   5.915   2.892
  747SOL    HW1 3140   5.004   5.842   2.961
  747SOL    HW2 3141   5.063   5.991   2.928
  748SOL     OW 3142   5.767   5.359   1.912
  748SOL    HW1 3143   5.759   5.276   1.857
  748SOL    HW2 3144   5.685   5.369   1.969
  749SOL     OW 3145   4.903   3.540   3.756
  749SOL    HW1 3146   4.895   3.483   3.674
  749SOL    HW2 3147   4.886   3.484   3.837
  750SOL     OW 3148   2.165   2.229   1.568
  750SOL    HW1 3149   2.124   2.138   1.582
  750SOL    HW2 3150   2.133   2.291   1.639
  751SOL     OW 3151   4.675   0.502   6.989
  751SOL    HW1 3152   4.738   0.555   0.034
  751SOL    HW2 3153   4.582   0.513   0.012
  752SOL     OW 3154   3.440   2.398   5.465
  752SOL    HW1 3155   3.368   2.464   5.444
  752SOL    HW2 3156   3.437   2.323   5.399
  753SOL     OW 3157   4.055   3.807   4.682
  753SOL    HW1 3158   4.054   3.730   4.619
  753SOL    HW2 3159   4.149   3.838   4.697
  754SOL     OW 3160   5.715   0.284   6.804
  754SOL    HW1 3161   5.684   0.360   6.747
  754SOL    HW2 3162   5.636   0.237   6.843
  755SOL     OW 3163   4.156   4.657   5.262
  755SOL    HW1 3164   4.178   4.580   5.202
  755SOL    HW2 3165   4.109   4.623   5.344
  756SOL     OW 3166   2.297   4.786   5.743
  756SOL    HW1 3167   2.338   4.771   5.654
  756SOL    HW2 3168   2.366   4.774   5.814
  757SOL     OW 3169   2.881   6.785   2.600
  757SOL    HW1 3170   2.877   6.861   2.535
  757SOL    HW2 3171   2.804   6.724   2.583
  758SOL     OW 3172   3.383   1.729   3.779
  758SOL    HW1 3173   3.371   1.822   3.744
  758SOL    HW2 3174   3.388   1.731   3.878
  759SOL     OW 3175   0.708   2.769   4.384
  759SOL    HW1 3176   0.721   2.854   4.333
  759SOL    HW2 3177   0.616   2.766   4.422
  760SOL     OW 3178   6.658   5.839   3.577
  760SOL    HW1 3179   6.702   5.841   3.488
  760SOL    HW2 3180   6.691   5.916   3.632
  761SOL     OW 3181   4.463   3.415   5.914
  761SOL    HW1 3182   4.545   3.371   5.878
  761SOL    HW2 3183   4.487   3.499   5.962
  762SOL     OW 3184   3.529   5.748   4.489
  762SOL    HW1 3185   3.547   5.653   4.515
  762SOL    HW2 3186   3.548   5.759   4.391
  763SOL     OW 3187   5.695   0.782   0.225
  763SOL    HW1 3188   5.662   0.870   0.259
  763SOL    HW2 3189   5.744   0.734   0.298
  764SOL     OW 3190   5.304   0.052   5.253
  764SOL    HW1 3191   5.388   0.004   5.230
  764SOL    HW2 3192   5.232   6.998   5.274
  765SOL     OW 3193   6.875   6.382   1.213
  765SOL    HW1 3194   6.819   6.460   1.184
  765SOL    HW2 3195   6.882   6.380   1.312
  766SOL     OW 3196   2.056   2.227   5.478
  766SOL    HW1 3197   2.071   2.300   5.545
  766SOL    HW2 3198   2.033   2.142   5.526
  767SOL     OW 3199   0.478   6.426   4.768
  767SOL    HW1 3200   0.455   6.344   4.821
  767SOL    HW2 3201   0.521   6.399   4.682
  768SOL     OW 3202   2.105   5.572   2.079
  768SOL    HW1 3203   2.085   5.669   2.060
  768SOL    HW2 3204   2.119   5.560   2.177
  769SOL     OW 3205   2.894   2.256   4.834
  769SOL    HW1 3206   2.913   2.310   4.751
  769SOL    HW2 3207   2.950   2.290   4.909
  770SOL     OW 3208   2.003   4.731   4.936
  770SOL    HW1 3209   1.975   4.688   5.022
  770SOL    HW2 3210   2.085   4.687   4.901
  771SOL     OW 3211   0.967   6.004   3.088
  771SOL    HW1 3212   0.970   6.063   3.006
  771SOL    HW2 3213   1.060   5.981   3.115
  772SOL     OW 3214   5.825   4.543   0.572
  772SOL    HW1 3215   5.778   4.624   0.535
  772SOL    HW2 3216   5.780   4.514   0.656
  773SOL     OW 3217   0.279   3.855   3.425
  773SOL    HW1 3218   0.231   3.909   3.356
  773SOL    HW2 3219   0.238   3.764   3.431
  774SOL     OW 3220   1.968   0.562   2.951
  774SOL    HW1 3221   2.028   0.618   3.008
  774SOL    HW2 3222   1.944   0.612   2.868
  775SOL     OW 3223   1.972   4.694   3.368
  775SOL    HW1 3224   1.996   4.678   3.463
  775SOL    HW2 3225   2.043   4.654   3.309
  776SOL     OW 3226   2.357   5.232   6.884
  776SOL    HW1 3227   2.375   5.299   6.812
  776SOL    HW2 3228   2.271   5.184   6.863
  777SOL     OW 3229   2.189   3.893   0.393
  777SOL    HW1 3230   2.191   3.963   0.323
  777SOL    HW2 3231   2.206   3.803   0.351
  778SOL     OW 3232   2.986   0.085   1.125
  778SOL    HW1 3233   2.893   0.119   1.140
  778SOL    HW2 3234   2.995   0.054   1.030
  779SOL     OW 3235   0.165   2.025   3.662
  779SOL    HW1 3236   0.213   2.101   3.617
  779SOL    HW2 3237   0.122   2.057   3.746
  780SOL     OW 3238   0.847   1.691   4.415
  780SOL    HW1 3239   0.822   1.788   4.411
  780SOL    HW2 3240   0.882   1.661   4.326
  781SOL     OW 3241   1.017   4.475   0.488
  781SOL    HW1 3242   0.980   4.536   0.558
  781SOL    HW2 3243   0.950   4.463   0.415
  782SOL     OW 3244   2.104   3.811   5.351
  782SOL    HW1 3245   2.103   3.805   5.252
  782SOL    HW2 3246   2.034   3.750   5.389
  783SOL     OW 3247   6.201   4.979   6.517
  783SOL    HW1 3248   6.275   4.911   6.511
  783SOL    HW2 3249   6.116   4.934   6.544
  784SOL     OW 3250   3.225   6.232   0.302
  784SOL    HW1 3251   3.168   6.254   0.223
  784SOL    HW2 3252   3.246   6.315   0.353
  785SOL     OW 3253   1.356   6.457   4.838
  785SOL    HW1 3254   1.379   6.499   4.750
  785SOL    HW2 3255   1.256   6.455   4.848
  786SOL     OW 3256   6.830   1.100   3.394
  786SOL    HW1 3257   6.763   1.110   3.320
  786SOL    HW2 3258   6.875   1.188   3.410
  787SOL     OW 3259   2.786   0.483   0.718
  787SOL    HW1 3260   2.780   0.531   0.806
  787SOL    HW2 3261   2.846   0.535   0.656
  788SOL     OW 3262   3.289   2.568   0.932
  788SOL    HW1 3263   3.305   2.653   0.983
  788SOL    HW2 3264   3.362   2.555   0.865
  789SOL     OW 3265   4.221   5.015   1.425
  789SOL    HW1 3266   4.224   5.078   1.347
  789SOL    HW2 3267   4.309   5.017   1.472
  790SOL     OW 3268   1.066   2.502   2.634
  790SOL    HW1 3269   1.007   2.571   2.591
  790SOL    HW2 3270   1.155   2.542   2.655
  791SOL     OW 3271   3.135   5.281   5.213
  791SOL    HW1 3272   3.140   5.209   5.144
  791SOL    HW2 3273   3.060   5.261   5.277
  792SOL     OW 3274   1.349   0.813   1.108
  792SOL    HW1 3275   1.431   0.867   1.094
  792SOL    HW2 3276   1.297   0.809   1.023
  793SOL     OW 3277   3.180   5.778   4.385
  793SOL    HW1 3278   3.231   5.863   4.377
  793SOL    HW2 3279   3.229   5.706   4.336
  794SOL     OW 3280   3.737   3.382   3.315
  794SOL    HW1 3281   3.784   3.340   3.237
  794SOL    HW2 3282   3.738   3.318   3.392
  795SOL     OW 3283   3.773   6.986   6.388
  795SOL    HW1 3284   3.810   7.002   6.296
  795SOL    HW2 3285   3.728   0.057   6.421
  796SOL     OW 3286   0.704   3.108   6.637
  796SOL    HW1 3287   0.627   3.167   6.615
  796SOL    HW2 3288   0.713   3.100   6.736
  797SOL     OW 3289   5.223   6.577   0.937
  797SOL    HW1 3290   5.322   6.594   0.928
  797SOL    HW2 3291   5.204   6.482   0.912
  798SOL     OW 3292   3.820   6.404   1.070
  798SOL    HW1 3293   3.879   6.472   1.113
  798SOL    HW2 3294   3.785   6.441   0.983
  799SOL     OW 3295   1.319   2.458   5.671
  799SOL    HW1 3296   1.262   2.529   5.713
  799SOL    HW2 3297   1.415   2.474   5.695
  800SOL     OW 3298   5.882   2.684   1.864
  800SOL    HW1 3299   5.965   2.725   1.900
  800SOL    HW2 3300   5.805   2.709   1.922
  801SOL     OW 3301   2.175   5.211   5.635
  801SOL    HW1 3302   2.076   5.211   5.652
  801SOL    HW2 3303   2.192   5.233   5.539
  802SOL     OW 3304   5.765   3.178   6.664
  802SOL    HW1 3305   5.701   3.147   6.594
  802SOL    HW2 3306   5.735   3.144   6.753
  803SOL     OW 3307   2.755   1.668   5.226
  803SOL    HW1 3308   2.725   1.756   5.262
  803SOL    HW2 3309   2.705   1.648   5.141
  804SOL     OW 3310   6.167   1.064   2.373
  804SOL    HW1 3311   6.254   1.092   2.415
  804SOL    HW2 3312   6.120   0.999   2.433
  805SOL     OW 3313   3.674   0.329   3.669
  805SOL    HW1 3314   3.766   0.348   3.703
  805SOL    HW2 3315   3.632   0.258   3.726
  806SOL     OW 3316   2.193   6.052   5.735
  806SOL    HW1 3317   2.288   6.074   5.714
  806SOL    HW2 3318   2.138   6.057   5.652
  807SOL     OW 3319   0.428   6.077   6.012
  807SOL    HW1 3320   0.371   6.025   6.076
  807SOL    HW2 3321   0.464   6.158   6.059
  808SOL     OW 3322   5.481   2.804   6.912
  808SOL    HW1 3323   5.541   2.741   6.961
  808SOL    HW2 3324   5.477   2.778   6.815
  809SOL     OW 3325   1.991   4.374   0.258
  809SOL    HW1 3326   2.019   4.365   0.354
  809SOL    HW2 3327   2.071   4.393   0.201
  810SOL     OW 3328   3.755   3.042   0.021
  810SOL    HW1 3329   3.714   3.103   6.965
  810SOL    HW2 3330   3.819   3.093   0.078
  811SOL     OW 3331   5.285   5.211   4.486
  811SOL    HW1 3332   5.279   5.291   4.425
  811SOL    HW2 3333   5.380   5.182   4.493
  812SOL     OW 3334   0.334   2.885   1.873
  812SOL    HW1 3335   0.403   2.855   1.808
  812SOL    HW2 3336   0.269   2.947   1.827
  813SOL     OW 3337   0.749   1.955   4.429
  813SOL    HW1 3338   0.719   2.005   4.347
  813SOL    HW2 3339   0.746   2.016   4.508
  814SOL     OW 3340   0.903   5.261   3.104
  814SOL    HW1 3341   0.986   5.236   3.055
  814SOL    HW2 3342   0.914   5.352   3.144
  815SOL     OW 3343   4.558   1.621   4.119
  815SOL    HW1 3344   4.648   1.591   4.150
  815SOL    HW2 3345   4.490   1.550   4.138
  816SOL     OW 3346   5.550   4.840   6.566
  816SOL    HW1 3347   5.610   4.862   6.489
  816SOL    HW2 3348   5.559   4.743   6.589
  817SOL     OW 3349   1.017   4.376   6.794
  817SOL    HW1 3350   1.001   4.441   6.720
  817SOL    HW2 3351   1.113   4.350   6.796
  818SOL     OW 3352   6.155   2.735   4.581
  818SOL    HW1 3353   6.122   2.642   4.567
  818SOL    HW2 3354   6.223   2.736   4.654
  819SOL     OW 3355   5.249   2.776   2.147
  819SOL    HW1 3356   5.286   2.797   2.056
  819SOL    HW2 3357   5.223   2.679   2.151
  820SOL     OW 3358   2.200   2.345   4.721
  820SOL    HW1 3359   2.213   2.353   4.820
  820SOL    HW2 3360   2.137   2.417   4.690
  821SOL     OW 3361   5.802   3.505   5.580
  821SOL    HW1 3362   5.779   3.581   5.519
  821SOL    HW2 3363   5.873   3.534   5.644
  822SOL     OW 3364   0.765   4.074   3.335
  822SOL    HW1 3365   0.708   4.022   3.272
  822SOL    HW2 3366   0.719   4.081   3.424
  823SOL     OW 3367   0.875   4.252   5.160
  823SOL    HW1 3368   0.874   4.303   5.074
  823SOL    HW2 3369   0.846   4.158   5.143
  824SOL     OW 3370   5.797   1.747   5.597
  824SOL    HW1 3371   5.896   1.747   5.586
  824SOL    HW2 3372   5.755   1.796   5.521
  825SOL     OW 3373   6.330   5.765   0.855
  825SOL    HW1 3374   6.349   5.795   0.762
  825SOL    HW2 3375   6.231   5.764   0.870
  826SOL     OW 3376   3.796   1.294   6.188
  826SOL    HW1 3377   3.721   1.359   6.204
  826SOL    HW2 3378   3.816   1.290   6.090
  827SOL     OW 3379   3.673   4.109   4.688
  827SOL    HW1 3380   3.699   4.181   4.623
  827SOL    HW2 3381   3.575   4.093   4.682
  828SOL     OW 3382   6.519   5.811   5.338
  828SOL    HW1 3383   6.562   5.800   5.427
  828SOL    HW2 3384   6.433   5.761   5.336
  829SOL     OW 3385   3.214   2.944   2.771
  829SOL    HW1 3386   3.166   3.022   2.732
  829SOL    HW2 3387   3.172   2.859   2.739
  830SOL     OW 3388   6.562   4.076   0.197
  830SOL    HW1 3389   6.596   4.060   0.290
  830SOL    HW2 3390   6.628   4.042   0.131
  831SOL     OW 3391   4.849   6.311   1.432
  831SOL    HW1 3392   4.854   6.245   1.356
  831SOL    HW2 3393   4.902   6.277   1.509
  832SOL     OW 3394   3.095   2.133   4.470
  832SOL    HW1 3395   3.116   2.156   4.566
  832SOL    HW2 3396   3.098   2.034   4.458
  833SOL     OW 3397   2.326   2.663   6.613
  833SOL    HW1 3398   2.356   2.686   6.706
  833SOL    HW2 3399   2.253   2.725   6.585
  834SOL     OW 3400   5.280   3.327   7.009
  834SOL    HW1 3401   5.371   3.346   0.034
  834SOL    HW2 3402   5.243   3.245   0.041
  835SOL     OW 3403   0.496   6.637   4.260
  835SOL    HW1 3404   0.462   6.729   4.278
  835SOL    HW2 3405   0.419   6.573   4.262
  836SOL     OW 3406   3.604   1.393   4.410
  836SOL    HW1 3407   3.677   1.360   4.348
  836SOL    HW2 3408   3.645   1.426   4.495
  837SOL     OW 3409   1.656   0.678   0.685
  837SOL    HW1 3410   1.692   0.754   0.631
  837SOL    HW2 3411   1.652   0.704   0.781
  838SOL     OW 3412   2.150   5.628   3.137
  838SOL    HW1 3413   2.073   5.670   3.088
  838SOL    HW2 3414   2.116   5.569   3.210
  839SOL     OW 3415   1.137   2.079   0.394
  839SOL    HW1 3416   1.215   2.083   0.331
  839SOL    HW2 3417   1.068   2.146   0.365
  840SOL     OW 3418   5.289   5.432   6.615
  840SOL    HW1 3419   5.214   5.414   6.551
  840SOL    HW2 3420   5.346   5.350   6.623
  841SOL     OW 3421   3.858   4.556   6.676
  841SOL    HW1 3422   3.924   4.533   6.605
  841SOL    HW2 3423   3.787   4.486   6.679
  842SOL     OW 3424   3.289   6.530   6.594
  842SOL    HW1 3425   3.280   6.442   6.641
  842SOL    HW2 3426   3.198   6.569   6.580
  843SOL     OW 3427   1.369   1.094   2.496
  843SOL    HW1 3428   1.391   1.172   2.437
  843SOL    HW2 3429   1.276   1.105   2.532
  844SOL     OW 3430   5.804   0.334   1.370
  844SOL    HW1 3431   5.851   0.351   1.457
  844SOL    HW2 3432   5.719   0.284   1.386
  845SOL     OW 3433   3.690   1.437   2.395
  845SOL    HW1 3434   3.727   1.381   2.469
  845SOL    HW2 3435   3.758   1.505   2.367
  846SOL     OW 3436   2.913   2.291   0.135
  846SOL    HW1 3437   2.958   2.210   0.173
  846SOL    HW2 3438   2.934   2.371   0.192
  847SOL     OW 3439   2.427   4.710   1.797
  847SOL    HW1 3440   2.459   4.647   1.868
  847SOL    HW2 3441   2.378   4.658   1.727
  848SOL     OW 3442   6.889   5.677   6.918
  848SOL    HW1 3443   6.891   5.743   6.993
  848SOL    HW2 3444   6.951   5.602   6.938
  849SOL     OW 3445   6.232   3.613   6.867
  849SOL    HW1 3446   6.332   3.612   6.866
  849SOL    HW2 3447   6.199   3.620   6.961
  850SOL     OW 3448   0.770   0.590   5.196
  850SOL    HW1 3449   0.690   0.604   5.137
  850SOL    HW2 3450   0.746   0.532   5.273
  851SOL     OW 3451   6.464   3.531   5.837
  851SOL    HW1 3452   6.428   3.620   5.807
  851SOL    HW2 3453   6.405   3.458   5.804
  852SOL     OW 3454   0.980   4.076   2.273
  852SOL    HW1 3455   0.963   4.143   2.201
  852SOL    HW2 3456   0.972   3.984   2.234
  853SOL     OW 3457   2.620   3.516   0.004
  853SOL    HW1 3458   2.573   3.602   6.995
  853SOL    HW2 3459   2.611   3.495   0.101
  854SOL     OW 3460   5.375   6.622   6.537
  854SOL    HW1 3461   5.453   6.611   6.475
  854SOL    HW2 3462   5.312   6.689   6.497
  855SOL     OW 3463   6.004   0.779   0.312
  855SOL    HW1 3464   6.068   0.845   0.350
  855SOL    HW2 3465   5.997   0.791   0.213
  856SOL     OW 3466   2.179   6.180   0.545
  856SOL    HW1 3467   2.111   6.241   0.586
  856SOL    HW2 3468   2.150   6.085   0.554
  857SOL     OW 3469   6.039   5.175   5.576
  857SOL    HW1 3470   5.954   5.219   5.545
  857SOL    HW2 3471   6.017   5.109   5.648
  858SOL     OW 3472   3.954   3.250   0.086
  858SOL    HW1 3473   3.946   3.250   0.185
  858SOL    HW2 3474   4.048   3.273   0.060
  859SOL     OW 3475   4.329   6.282   5.794
  859SOL    HW1 3476   4.329   6.331   5.707
  859SOL    HW2 3477   4.235   6.274   5.828
  860SOL     OW 3478   5.260   3.459   5.614
  860SOL    HW1 3479   5.270   3.372   5.664
  860SOL    HW2 3480   5.164   3.473   5.590
  861SOL     OW 3481   2.709   6.212   2.531
  861SOL    HW1 3482   2.632   6.275   2.536
  861SOL    HW2 3483   2.793   6.263   2.515
  862SOL     OW 3484   1.043   4.498   3.631
  862SOL    HW1 3485   1.018   4.402   3.617
  862SOL    HW2 3486   1.119   4.522   3.571
  863SOL     OW 3487   0.080   0.536   0.181
  863SOL    HW1 3488   0.124   0.565   0.266
  863SOL    HW2 3489   0.041   0.616   0.135
  864SOL     OW 3490   5.906   0.199   4.791
  864SOL    HW1 3491   5.937   0.108   4.765
  864SOL    HW2 3492   5.975   0.242   4.849
  865SOL     OW 3493   1.909   6.228   4.221
  865SOL    HW1 3494   1.970   6.218   4.300
  865SOL    HW2 3495   1.814   6.230   4.252
  866SOL     OW 3496   3.354   6.342   2.107
  866SOL    HW1 3497   3.447   6.361   2.139
  866SOL    HW2 3498   3.352   6.255   2.057
  867SOL     OW 3499   6.167   2.046   0.129
  867SOL    HW1 3500   6.173   1.990   0.046
  867SOL    HW2 3501   6.076   2.087   0.136
  868SOL     OW 3502   0.234   2.025   2.516
  868SOL    HW1 3503   0.231   2.064   2.608
  868SOL    HW2 3504   0.253   2.099   2.450
  869SOL     OW 3505   6.710   3.961   3.219
  869SOL    HW1 3506   6.656   3.903   3.280
  869SOL    HW2 3507   6.667   4.051   3.212
  870SOL     OW 3508   3.624   5.284   1.716
  870SOL    HW1 3509   3.569   5.261   1.797
  870SOL    HW2 3510   3.701   5.220   1.709
  871SOL     OW 3511   4.566   1.621   3.587
  871SOL    HW1 3512   4.604   1.636   3.679
  871SOL    HW2 3513   4.491   1.555   3.593
  872SOL     OW 3514   6.773   3.348   4.921
  872SOL    HW1 3515   6.769   3.377   4.826
  872SOL    HW2 3516   6.812   3.422   4.977
  873SOL     OW 3517   4.970   6.641   6.266
  873SOL    HW1 3518   5.014   6.656   6.355
  873SOL    HW2 3519   5.010   6.703   6.199
  874SOL     OW 3520   5.052   4.593   0.379
  874SOL    HW1 3521   5.079   4.498   0.391
  874SOL    HW2 3522   4.967   4.610   0.430
  875SOL     OW 3523   4.915   5.349   0.521
  875SOL    HW1 3524   4.947   5.291   0.446
  875SOL    HW2 3525   4.815   5.352   0.521
  876SOL     OW 3526   6.971   6.109   1.273
  876SOL    HW1 3527   0.013   6.033   1.236
  876SOL    HW2 3528   6.971   6.185   1.208
  877SOL     OW 3529   2.868   3.619   6.855
  877SOL    HW1 3530   2.856   3.665   6.767
  877SOL    HW2 3531   2.783   3.623   6.907
  878SOL     OW 3532   3.863   6.725   4.316
  878SOL    HW1 3533   3.943   6.717   4.375
  878SOL    HW2 3534   3.796   6.786   4.359
  879SOL     OW 3535   5.696   0.768   0.947
  879SOL    HW1 3536   5.708   0.866   0.932
  879SOL    HW2 3537   5.600   0.744   0.940
  880SOL     OW 3538   3.007   3.794   2.526
  880SOL    HW1 3539   3.098   3.753   2.518
  880SOL    HW2 3540   2.956   3.748   2.598
  881SOL     OW 3541   4.347   2.073   6.682
  881SOL    HW1 3542   4.380   2.133   6.609
  881SOL    HW2 3543   4.384   2.104   6.770
  882SOL     OW 3544   0.822   3.257   4.158
  882SOL    HW1 3545   0.890   3.196   4.119
  882SOL    HW2 3546   0.865   3.343   4.186
  883SOL     OW 3547   2.729   0.139   2.653
  883SOL    HW1 3548   2.724   0.054   2.706
  883SOL    HW2 3549   2.740   0.117   2.556
  884SOL     OW 3550   4.728   2.846   5.033
  884SOL    HW1 3551   4.740   2.799   5.120
  884SOL    HW2 3552   4.687   2.936   5.049
  885SOL     OW 3553   3.770   1.767   6.322
  885SOL    HW1 3554   3.829   1.817   6.385
  885SOL    HW2 3555   3.793   1.792   6.228
  886SOL     OW 3556   3.462   0.347   6.987
  886SOL    HW1 3557   3.497   0.329   6.895
  886SOL    HW2 3558   3.479   0.443   7.011
  887SOL     OW 3559   4.293   0.729   4.166
  887SOL    HW1 3560   4.363   0.660   4.184
  887SOL    HW2 3561   4.227   0.729   4.242
  888SOL     OW 3562   0.138   0.386   3.245
  888SOL    HW1 3563   0.100   0.363   3.155
  888SOL    HW2 3564   0.210   0.321   3.268
  889SOL     OW 3565   0.775   3.756   0.063
  889SOL    HW1 3566   0.783   3.728   0.159
  889SOL    HW2 3567   0.744   3.678   0.008
  890SOL     OW 3568   2.378   5.948   3.946
  890SOL    HW1 3569   2.430   6.012   3.890
  890SOL    HW2 3570   2.282   5.951   3.918
  891SOL     OW 3571   5.687   5.940   0.886
  891SOL    HW1 3572   5.699   5.919   0.789
  891SOL    HW2 3573   5.672   6.038   0.898
  892SOL     OW 3574   2.732   4.064   5.941
  892SOL    HW1 3575   2.831   4.057   5.953
  892SOL    HW2 3576   2.709   4.154   5.904
  893SOL     OW 3577   2.747   6.525   2.791
  893SOL    HW1 3578   2.843   6.547   2.809
  893SOL    HW2 3579   2.737   6.496   2.696
  894SOL     OW 3580   1.598   4.178   1.649
  894SOL    HW1 3581   1.505   4.152   1.673
  894SOL    HW2 3582   1.660   4.102   1.668
  895SOL     OW 3583   0.145   6.290   3.471
  895SOL    HW1 3584   0.189   6.251   3.390
  895SOL    HW2 3585   0.201   6.365   3.507
  896SOL     OW 3586   6.485   6.254   5.807
  896SOL    HW1 3587   6.431   6.294   5.733
  896SOL    HW2 3588   6.501   6.157   5.787
  897SOL     OW 3589   5.402   0.629   6.583
  897SOL    HW1 3590   5.411   0.529   6.581
  897SOL    HW2 3591   5.469   0.670   6.521
  898SOL     OW 3592   3.659   6.135   2.898
  898SOL    HW1 3593   3.613   6.141   2.986
  898SOL    HW2 3594   3.672   6.039   2.872
  899SOL     OW 3595   0.096   4.956   6.354
  899SOL    HW1 3596   0.120   4.919   6.444
  899SOL    HW2 3597   0.113   5.054   6.352
  900SOL     OW 3598   5.876   6.931   0.881
  900SOL    HW1 3599   5.966   6.890   0.864
  900SOL    HW2 3600   5.810   6.895   0.815
  901SOL     OW 3601   1.423   1.289   2.128
  901SOL    HW1 3602   1.474   1.302   2.213
  901SOL    HW2 3603   1.330   1.259   2.150
  902SOL     OW 3604   6.548   4.269   1.168
  902SOL    HW1 3605   6.456   4.269   1.130
  902SOL    HW2 3606   6.552   4.209   1.247
  903SOL     OW 3607   6.878   1.911   0.367
  903SOL    HW1 3608   6.831   1.990   0.328
  903SOL    HW2 3609   6.866   1.911   0.466
  904SOL     OW 3610   3.345   2.115   3.427
  904SOL    HW1 3611   3.336   2.149   3.520
  904SOL    HW2 3612   3.322   2.018   3.424
  905SOL     OW 3613   6.228   2.843   0.134
  905SOL    HW1 3614   6.315   2.871   0.092
  905SOL    HW2 3615   6.208   2.748   0.109
  906SOL     OW 3616   6.739   2.994   5.392
  906SOL    HW1 3617   6.768   2.925   5.325
  906SOL    HW2 3618   6.818   3.020   5.448
  907SOL     OW 3619   4.635   3.422   6.892
  907SOL    HW1 3620   4.651   3.395   6.987
  907SOL    HW2 3621   4.578   3.504   6.890
  908SOL     OW 3622   2.760   4.723   2.296
  908SOL    HW1 3623   2.845   4.769   2.322
  908SOL    HW2 3624   2.772   4.678   2.208
  909SOL     OW 3625   4.936   5.166   6.356
  909SOL    HW1 3626   4.946   5.216   6.442
  909SOL    HW2 3627   4.842   5.134   6.347
  910SOL     OW 3628   2.790   2.973   1.578
  910SOL    HW1 3629   2.718   3.017   1.631
  910SOL    HW2 3630   2.809   2.882   1.615
  911SOL     OW 3631   1.452   5.412   6.153
  911SOL    HW1 3632   1.532   5.362   6.121
  911SOL    HW2 3633   1.372   5.386   6.098
  912SOL     OW 3634   4.699   2.211   3.479
  912SOL    HW1 3635   4.600   2.206   3.467
  912SOL    HW2 3636   4.721   2.213   3.576
  913SOL     OW 3637   5.203   0.170   3.206
  913SOL    HW1 3638   5.262   0.100   3.245
  913SOL    HW2 3639   5.253   0.257   3.199
  914SOL     OW 3640   2.801   0.123   6.799
  914SOL    HW1 3641   2.762   0.214   6.783
  914SOL    HW2 3642   2.744   0.054   6.755
  915SOL     OW 3643   6.041   6.078   0.816
  915SOL    HW1 3644   6.099   6.072   0.735
  915SOL    HW2 3645   6.044   6.172   0.851
  916SOL     OW 3646   0.838   2.313   2.450
  916SOL    HW1 3647   0.890   2.349   2.527
  916SOL    HW2 3648   0.815   2.218   2.467
  917SOL     OW 3649   0.236   0.046   0.655
  917SOL    HW1 3650   0.153   0.012   0.701
  917SOL    HW2 3651   0.212   0.120   0.593
  918SOL     OW 3652   1.701   5.903   0.962
  918SOL    HW1 3653   1.787   5.918   0.915
  918SOL    HW2 3654   1.703   5.949   1.051
  919SOL     OW 3655   5.840   1.541   3.753
  919SOL    HW1 3656   5.778   1.494   3.816
  919SOL    HW2 3657   5.839   1.494   3.665
  920SOL     OW 3658   2.763   5.080   2.281
  920SOL    HW1 3659   2.676   5.128   2.279
  920SOL    HW2 3660   2.837   5.146   2.298
  921SOL     OW 3661   4.954   5.966   4.512
  921SOL    HW1 3662   4.876   5.959   4.574
  921SOL    HW2 3663   5.006   5.881   4.512
  922SOL     OW 3664   3.975   3.344   3.867
  922SOL    HW1 3665   4.026   3.375   3.947
  922SOL    HW2 3666   3.898   3.406   3.851
  923SOL     OW 3667   2.342   3.107   5.605
  923SOL    HW1 3668   2.323   3.180   5.540
  923SOL    HW2 3669   2.404   3.141   5.676
  924SOL     OW 3670   6.878   3.487   2.579
  924SOL    HW1 3671   6.818   3.549   2.630
  924SOL    HW2 3672   6.969   3.487   2.620
  925SOL     OW 3673   5.891   1.756   0.338
  925SOL    HW1 3674   5.831   1.828   0.304
  925SOL    HW2 3675   5.947   1.720   0.263
  926SOL     OW 3676   0.785   1.072   2.038
  926SOL    HW1 3677   0.721   1.023   2.096
  926SOL    HW2 3678   0.753   1.070   1.943
  927SOL     OW 3679   5.449   3.845   3.659
  927SOL    HW1 3680   5.503   3.877   3.737
  927SOL    HW2 3681   5.501   3.857   3.575
  928SOL     OW 3682   3.046   5.928   6.835
  928SOL    HW1 3683   2.993   5.969   6.910
  928SOL    HW2 3684   2.993   5.857   6.791
  929SOL     OW 3685   6.645   1.410   5.329
  929SOL    HW1 3686   6.610   1.503   5.319
  929SOL    HW2 3687   6.594   1.349   5.268
  930SOL     OW 3688   5.376   5.037   6.505
  930SOL    HW1 3689   5.344   5.035   6.410
  930SOL    HW2 3690   5.455   4.977   6.515
  931SOL     OW 3691   6.689   2.694   3.283
  931SOL    HW1 3692   6.758   2.622   3.288
  931SOL    HW2 3693   6.659   2.705   3.188
  932SOL     OW 3694   3.555   0.662   3.986
  932SOL    HW1 3695   3.585   0.755   4.005
  932SOL    HW2 3696   3.546   0.612   4.072
  933SOL     OW 3697   1.179   4.958   2.572
  933SOL    HW1 3698   1.189   5.013   2.489
  933SOL    HW2 3699   1.126   5.008   2.640
  934SOL     OW 3700   1.605   4.577   6.408
  934SOL    HW1 3701   1.661   4.586   6.490
  934SOL    HW2 3702   1.659   4.606   6.328
  935SOL     OW 3703   5.166   3.338   3.567
  935SOL    HW1 3704   5.076   3.362   3.531
  935SOL    HW2 3705   5.234   3.402   3.532
  936SOL     OW 3706   1.667   0.381   6.628
  936SOL    HW1 3707   1.594   0.448   6.637
  936SOL    HW2 3708   1.634   0.291   6.658
  937SOL     OW 3709   5.378   1.387   5.462
  937SOL    HW1 3710   5.474   1.364   5.445
  937SOL    HW2 3711   5.334   1.414   5.376
  938SOL     OW 3712   5.830   5.668   4.143
  938SOL    HW1 3713   5.736   5.635   4.142
  938SOL    HW2 3714   5.887   5.604   4.194
  939SOL     OW 3715   0.312   0.107   5.240
  939SOL    HW1 3716   0.230   0.115   5.296
  939SOL    HW2 3717   0.323   0.013   5.209
  940SOL     OW 3718   1.954   4.812   0.624
  940SOL    HW1 3719   1.979   4.860   0.708
  940SOL    HW2 3720   1.874   4.754   0.642
  941SOL     OW 3721   3.689   0.230   6.395
  941SOL    HW1 3722   3.599   0.260   6.364
  941SOL    HW2 3723   3.757   0.253   6.325
  942SOL     OW 3724   0.443   5.257   0.769
  942SOL    HW1 3725   0.413   5.169   0.733
  942SOL    HW2 3726   0.412   5.331   0.708
  943SOL     OW 3727   2.794   5.146   3.087
  943SOL    HW1 3728   2.728   5.074   3.068
  943SOL    HW2 3729   2.753   5.235   3.068
  944SOL     OW 3730   0.640   6.737   4.585
  944SOL    HW1 3731   0.601   6.652   4.551
  944SOL    HW2 3732   0.671   6.793   4.508
  945SOL     OW 3733   0.598   5.533   6.266
  945SOL    HW1 3734   0.677   5.592   6.257
  945SOL    HW2 3735   0.581   5.486   6.179
  946SOL     OW 3736   4.859   3.140   3.763
  946SOL    HW1 3737   4.861   3.123   3.862
  946SOL    HW2 3738   4.818   3.062   3.717
  947SOL     OW 3739   3.988   3.884   4.387
  947SOL    HW1 3740   4.030   3.867   4.297
  947SOL    HW2 3741   3.890   3.896   4.376
  948SOL     OW 3742   4.356   0.920   2.560
  948SOL    HW1 3743   4.297   0.986   2.606
  948SOL    HW2 3744   4.302   0.840   2.534
  949SOL     OW 3745   2.889   6.507   6.687
  949SOL    HW1 3746   2.798   6.486   6.723
  949SOL    HW2 3747   2.945   6.424   6.689
  950SOL     OW 3748   0.221   6.161   1.973
  950SOL    HW1 3749   0.212   6.164   2.073
  950SOL    HW2 3750   0.267   6.243   1.942
  951SOL     OW 3751   2.043   6.597   2.975
  951SOL    HW1 3752   1.997   6.685   2.958
  951SOL    HW2 3753   1.997   6.525   2.923
  952SOL     OW 3754   3.612   1.546   1.912
  952SOL    HW1 3755   3.565   1.526   1.826
  952SOL    HW2 3756   3.550   1.596   1.973
  953SOL     OW 3757   5.943   4.664   5.428
  953SOL    HW1 3758   5.858   4.713   5.410
  953SOL    HW2 3759   5.961   4.600   5.353
  954SOL     OW 3760   4.686   5.808   2.288
  954SOL    HW1 3761   4.625   5.858   2.349
  954SOL    HW2 3762   4.745   5.873   2.240
  955SOL     OW 3763   1.575   4.027   0.255
  955SOL    HW1 3764   1.615   4.076   0.333
  955SOL    HW2 3765   1.560   3.932   0.279
  956SOL     OW 3766   5.997   0.536   1.543
  956SOL    HW1 3767   6.018   0.633   1.534
  956SOL    HW2 3768   6.013   0.507   1.637
  957SOL     OW 3769   6.077   2.106   3.530
  957SOL    HW1 3770   6.018   2.155   3.594
  957SOL    HW2 3771   6.042   2.014   3.517
  958SOL     OW 3772   5.233   0.145   2.018
  958SOL    HW1 3773   5.156   0.205   2.041
  958SOL    HW2 3774   5.309   0.201   1.983
  959SOL     OW 3775   3.928   6.372   4.089
  959SOL    HW1 3776   3.981   6.334   4.166
  959SOL    HW2 3777   3.953   6.324   4.005
  960SOL     OW 3778   0.819   0.534   6.956
  960SOL    HW1 3779   0.728   0.547   6.918
  960SOL    HW2 3780   0.822   0.447   7.006
  961SOL     OW 3781   3.668   6.938   2.933
  961SOL    HW1 3782   3.760   6.900   2.943
  961SOL    HW2 3783   3.615   6.879   2.872
  962SOL     OW 3784   6.572   0.048   4.706
  962SOL    HW1 3785   6.648   7.004   4.673
  962SOL    HW2 3786   6.593   0.145   4.692
  963SOL     OW 3787   5.261   3.233   0.822
  963SOL    HW1 3788   5.246   3.158   0.759
  963SOL    HW2 3789   5.243   3.202   0.916
  964SOL     OW 3790   4.606   4.442   5.284
  964SOL    HW1 3791   4.607   4.342   5.290
  964SOL    HW2 3792   4.618   4.469   5.189
  965SOL     OW 3793   5.921   2.457   3.891
  965SOL    HW1 3794   5.834   2.502   3.910
  965SOL    HW2 3795   5.967   2.504   3.816
  966SOL     OW 3796   5.175   1.748   4.615
  966SOL    HW1 3797   5.200   1.652   4.599
  966SOL    HW2 3798   5.246   1.807   4.576
  967SOL     OW 3799   5.220   3.973   6.064
  967SOL    HW1 3800   5.268   4.020   6.138
  967SOL    HW2 3801   5.255   3.880   6.054
  968SOL     OW 3802   3.907   0.613   1.842
  968SOL    HW1 3803   3.932   0.547   1.772
  968SOL    HW2 3804   3.914   0.570   1.932
  969SOL     OW 3805   3.359   3.940   5.992
  969SOL    HW1 3806   3.286   4.008   6.002
  969SOL    HW2 3807   3.319   3.851   5.970
  970SOL     OW 3808   5.726   0.503   5.993
  970SOL    HW1 3809   5.815   0.547   5.976
  970SOL    HW2 3810   5.685   0.544   6.074
  971SOL     OW 3811   5.385   4.142   3.018
  971SOL    HW1 3812   5.365   4.177   2.927
  971SOL    HW2 3813   5.299   4.125   3.067
  972SOL     OW 3814   0.313   2.656   0.867
  972SOL    HW1 3815   0.314   2.751   0.899
  972SOL    HW2 3816   0.407   2.627   0.847
  973SOL     OW 3817   0.123   3.529   6.041
  973SOL    HW1 3818   0.199   3.512   5.977
  973SOL    HW2 3819   0.049   3.464   6.023
  974SOL     OW 3820   0.141   5.447   4.032
  974SOL    HW1 3821   0.239   5.465   4.036
  974SOL    HW2 3822   0.123   5.368   3.973
  975SOL     OW 3823   2.689   6.677   2.291
  975SOL    HW1 3824   2.652   6.675   2.384
  975SOL    HW2 3825   2.622   6.719   2.230
  976SOL     OW 3826   6.558   3.708   2.565
  976SOL    HW1 3827   6.554   3.608   2.554
  976SOL    HW2 3828   6.467   3.743   2.588
  977SOL     OW 3829   0.150   0.847   2.560
  977SOL    HW1 3830   0.245   0.819   2.578
  977SOL    HW2 3831   0.127   0.926   2.617
  978SOL     OW 3832   5.469   3.151   2.029
  978SOL    HW1 3833   5.511   3.130   2.118
  978SOL    HW2 3834   5.370   3.159   2.040
  979SOL     OW 3835   0.252   4.055   0.083
  979SOL    HW1 3836   0.168   4.020   0.041
  979SOL    HW2 3837   0.253   4.033   0.181
  980SOL     OW 3838   3.522   1.786   4.744
  980SOL    HW1 3839   3.425   1.777   4.766
  980SOL    HW2 3840   3.542   1.737   4.660
  981SOL     OW 3841   6.562   6.377   5.335
  981SOL    HW1 3842   6.502   6.305   5.302
  981SOL    HW2 3843   6.614   6.416   5.258
  982SOL     OW 3844   6.597   1.061   5.191
  982SOL    HW1 3845   6.529   1.134   5.185
  982SOL    HW2 3846   6.602   1.012   5.104
  983SOL     OW 3847   0.011   4.221   4.271
  983SOL    HW1 3848   6.939   4.268   4.299
  983SOL    HW2 3849   0.090   4.278   4.294
  984SOL     OW 3850   1.450   2.177   3.093
  984SOL    HW1 3851   1.538   2.135   3.116
  984SOL    HW2 3852   1.383   2.105   3.076
  985SOL     OW 3853   6.674   4.174   4.609
  985SOL    HW1 3854   6.696   4.270   4.588
  985SOL    HW2 3855   6.587   4.150   4.565
  986SOL     OW 3856   5.314   5.078   1.211
  986SOL    HW1 3857   5.316   5.088   1.310
  986SOL    HW2 3858   5.246   5.141   1.173
  987SOL     OW 3859   5.551   5.180   4.051
  987SOL    HW1 3860   5.606   5.182   4.134
  987SOL    HW2 3861   5.585   5.109   3.990
  988SOL     OW 3862   3.003   4.448   1.340
  988SOL    HW1 3863   3.051   4.458   1.427
  988SOL    HW2 3864   2.909   4.418   1.356
  989SOL     OW 3865   0.558   1.480   1.249
  989SOL    HW1 3866   0.555   1.439   1.157
  989SOL    HW2 3867   0.543   1.408   1.317
  990SOL     OW 3868   3.979   0.100   3.449
  990SOL    HW1 3869   4.008   0.026   3.389
  990SOL    HW2 3870   3.988   0.187   3.401
  991SOL     OW 3871   6.895   4.592   3.905
  991SOL    HW1 3872   6.974   4.564   3.960
  991SOL    HW2 3873   6.893   4.691   3.898
  992SOL     OW 3874   0.501   2.665   1.291
  992SOL    HW1 3875   0.418   2.648   1.238
  992SOL    HW2 3876   0.505   2.601   1.368
  993SOL     OW 3877   1.357   5.080   0.606
  993SOL    HW1 3878   1.316   5.168   0.585
  993SOL    HW2 3879   1.413   5.050   0.529
  994SOL     OW 3880   3.094   6.335   0.093
  994SOL    HW1 3881   3.122   6.341   7.008
  994SOL    HW2 3882   3.075   6.427   0.128
  995SOL     OW 3883   5.696   2.964   6.055
  995SOL    HW1 3884   5.788   2.976   6.018
  995SOL    HW2 3885   5.643   3.048   6.042
  996SOL     OW 3886   3.823   6.024   5.929
  996SOL    HW1 3887   3.860   5.938   5.894
  996SOL    HW2 3888   3.723   6.024   5.918
  997SOL     OW 3889   1.615   5.605   3.846
  997SOL    HW1 3890   1.632   5.510   3.818
  997SOL    HW2 3891   1.575   5.656   3.769
  998SOL     OW 3892   6.640   0.381   6.700
  998SOL    HW1 3893   6.714   0.444   6.724
  998SOL    HW2 3894   6.603   0.338   6.782
  999SOL     OW 3895   4.930   3.968   1.917
  999SOL    HW1 3896   4.867   3.907   1.868
  999SOL    HW2 3897   4.908   4.063   1.894
 1000SOL     OW 3898   4.405   1.694   1.542
 1000SOL    HW1 3899   4.385   1.596   1.546
 1000SOL    HW2 3900   4.372   1.732   1.456
 1001SOL     OW 3901   3.001   6.315   2.166
 1001SOL    HW1 3902   3.086   6.347   2.122
 1001SOL    HW2 3903   3.024   6.266   2.250
 1002SOL     OW 3904   5.385   2.316   1.390
 1002SOL    HW1 3905   5.430   2.359   1.311
 1002SOL    HW2 3906   5.289   2.299   1.368
 1003SOL     OW 3907   0.491   0.127   2.890
 1003SOL    HW1 3908   0.580   0.135   2.935
 1003SOL    HW2 3909   0.428   0.077   2.949
 1004SOL     OW 3910   5.332   1.222   3.728
 1004SOL    HW1 3911   5.248   1.168   3.722
 1004SOL    HW2 3912   5.363   1.224   3.823
 1005SOL     OW 3913   1.292   4.153   3.410
 1005SOL    HW1 3914   1.337   4.129   3.496
 1005SOL    HW2 3915   1.206   4.200   3.429
 1006SOL     OW 3916   2.883   3.263   1.296
 1006SOL    HW1 3917   2.884   3.363   1.288
 1006SOL    HW2 3918   2.939   3.235   1.374
 1007SOL     OW 3919   5.093   1.387   6.566
 1007SOL    HW1 3920   5.139   1.301   6.542
 1007SOL    HW2 3921   4.996   1.381   6.542
 1008SOL     OW 3922   0.070   5.011   4.791
 1008SOL    HW1 3923   0.007   5.042   4.720
 1008SOL    HW2 3924   0.115   5.089   4.832
 1009SOL     OW 3925   6.338   5.180   6.770
 1009SOL    HW1 3926   6.249   5.146   6.800
 1009SOL    HW2 3927   6.338   5.190   6.671
 1010SOL     OW 3928   2.718   3.042   1.319
 1010SOL    HW1 3929   2.751   3.020   1.410
 1010SOL    HW2 3930   2.746   3.135   1.295
 1011SOL     OW 3931   6.812   4.829   2.624
 1011SOL    HW1 3932   6.833   4.811   2.721
 1011SOL    HW2 3933   6.889   4.798   2.568
 1012SOL     OW 3934   4.940   0.368   2.569
 1012SOL    HW1 3935   5.022   0.367   2.627
 1012SOL    HW2 3936   4.860   0.349   2.626
 1013SOL     OW 3937   6.668   0.466   6.308
 1013SOL    HW1 3938   6.715   0.412   6.378
 1013SOL    HW2 3939   6.607   0.532   6.352
 1014SOL     OW 3940   1.193   5.165   4.511
 1014SOL    HW1 3941   1.225   5.179   4.604
 1014SOL    HW2 3942   1.098   5.132   4.512
 1015SOL     OW 3943   3.521   6.162   6.774
 1015SOL    HW1 3944   3.579   6.134   6.851
 1015SOL    HW2 3945   3.425   6.156   6.802
 1016SOL     OW 3946   6.169   4.167   1.491
 1016SOL    HW1 3947   6.086   4.220   1.512
 1016SOL    HW2 3948   6.143   4.086   1.438
 1017SOL     OW 3949   2.255   1.737   2.333
 1017SOL    HW1 3950   2.331   1.741   2.397
 1017SOL    HW2 3951   2.237   1.642   2.308
 1018SOL     OW 3952   0.331   5.162   3.275
 1018SOL    HW1 3953   0.333   5.105   3.193
 1018SOL    HW2 3954   0.369   5.111   3.352
 1019SOL     OW 3955   6.776   4.659   0.525
 1019SOL    HW1 3956   6.859   4.714   0.532
 1019SOL    HW2 3957   6.698   4.710   0.559
 1020SOL     OW 3958   6.539   0.293   1.135
 1020SOL    HW1 3959   6.611   0.339   1.082
 1020SOL    HW2 3960   6.461   0.274   1.076
 1021SOL     OW 3961   6.468   6.297   1.518
 1021SOL    HW1 3962   6.490   6.290   1.420
 1021SOL    HW2 3963   6.514   6.224   1.568
 1022SOL     OW 3964   2.002   6.321   6.510
 1022SOL    HW1 3965   2.055   6.350   6.590
 1022SOL    HW2 3966   1.908   6.301   6.539
 1023SOL     OW 3967   0.779   1.817   3.677
 1023SOL    HW1 3968   0.834   1.882   3.731
 1023SOL    HW2 3969   0.832   1.734   3.662
 1024SOL     OW 3970   1.374   1.892   5.051
 1024SOL    HW1 3971   1.459   1.842   5.034
 1024SOL    HW2 3972   1.366   1.967   4.985
 1025SOL     OW 3973   4.515   3.818   0.638
 1025SOL    HW1 3974   4.588   3.768   0.593
 1025SOL    HW2 3975   4.513   3.913   0.604
 1026SOL     OW 3976   3.160   2.515   1.195
 1026SOL    HW1 3977   3.182   2.435   1.250
 1026SOL    HW2 3978   3.234   2.532   1.130
 1027SOL     OW 3979   0.487   6.388   0.910
 1027SOL    HW1 3980   0.437   6.456   0.964
 1027SOL    HW2 3981   0.538   6.327   0.971
 1028SOL     OW 3982   0.993   6.136   2.423
 1028SOL    HW1 3983   0.978   6.057   2.364
 1028SOL    HW2 3984   1.071   6.118   2.483
 1029SOL     OW 3985   1.000   1.457   6.289
 1029SOL    HW1 3986   1.009   1.541   6.343
 1029SOL    HW2 3987   0.949   1.476   6.205
 1030SOL     OW 3988   3.511   3.242   1.552
 1030SOL    HW1 3989   3.516   3.167   1.617
 1030SOL    HW2 3990   3.429   3.296   1.568
 1031SOL     OW 3991   3.259   3.475   1.343
 1031SOL    HW1 3992   3.345   3.490   1.391
 1031SOL    HW2 3993   3.194   3.546   1.369
 1032SOL     OW 3994   1.982   2.122   6.171
 1032SOL    HW1 3995   2.067   2.070   6.185
 1032SOL    HW2 3996   1.928   2.080   6.099
 1033SOL     OW 3997   0.375   6.410   1.891
 1033SOL    HW1 3998   0.457   6.353   1.891
 1033SOL    HW2 3999   0.380   6.476   1.966
 1034SOL     OW 4000   3.108   6.715   4.469
 1034SOL    HW1 4001   3.012   6.692   4.453
 1034SOL    HW2 4002   3.116   6.764   4.556
 1035SOL     OW 4003   0.795   2.106   5.779
 1035SOL    HW1 4004   0.872   2.070   5.832
 1035SOL    HW2 4005   0.804   2.205   5.770
 1036SOL     OW 4006   5.025   1.564   0.926
 1036SOL    HW1 4007   5.108   1.528   0.968
 1036SOL    HW2 4008   4.946   1.510   0.955
 1037SOL     OW 4009   1.655   2.763   2.719
 1037SOL    HW1 4010   1.696   2.676   2.748
 1037SOL    HW2 4011   1.638   2.760   2.621
 1038SOL     OW 4012   3.199   6.691   6.958
 1038SOL    HW1 4013   3.262   6.614   6.956
 1038SOL    HW2 4014   3.251   6.776   6.951
 1039SOL     OW 4015   3.506   2.858   3.400
 1039SOL    HW1 4016   3.520   2.851   3.499
 1039SOL    HW2 4017   3.422   2.810   3.375
 1040SOL     OW 4018   3.993   0.800   3.133
 1040SOL    HW1 4019   4.039   0.827   3.048
 1040SOL    HW2 4020   3.932   0.723   3.116
 1041SOL     OW 4021   6.802   6.288   6.132
 1041SOL    HW1 4022   6.726   6.233   6.166
 1041SOL    HW2 4023   6.779   6.324   6.041
 1042SOL     OW 4024   5.345   4.800   2.615
 1042SOL    HW1 4025   5.269   4.805   2.550
 1042SOL    HW2 4026   5.316   4.837   2.703
 1043SOL     OW 4027   3.243   2.144   4.071
 1043SOL    HW1 4028   3.153   2.185   4.086
 1043SOL    HW2 4029   3.296   2.146   4.156
 1044SOL     OW 4030   5.596   5.090   1.239
 1044SOL    HW1 4031   5.646   5.083   1.153
 1044SOL    HW2 4032   5.499   5.073   1.222
 1045SOL     OW 4033   2.409   0.495   3.648
 1045SOL    HW1 4034   2.366   0.552   3.718
 1045SOL    HW2 4035   2.360   0.505   3.562
 1046SOL     OW 4036   3.016   1.084   0.864
 1046SOL    HW1 4037   3.029   0.998   0.913
 1046SOL    HW2 4038   3.034   1.070   0.767
 1047SOL     OW 4039   3.732   6.528   2.986
 1047SOL    HW1 4040   3.696   6.601   3.044
 1047SOL    HW2 4041   3.711   6.439   3.026
 1048SOL     OW 4042   1.408   6.469   1.855
 1048SOL    HW1 4043   1.374   6.383   1.818
 1048SOL    HW2 4044   1.498   6.489   1.819
 1049SOL     OW 4045   4.251   6.087   5.408
 1049SOL    HW1 4046   4.242   5.994   5.445
 1049SOL    HW2 4047   4.255   6.082   5.308
 1050SOL     OW 4048   3.223   5.210   3.180
 1050SOL    HW1 4049   3.203   5.168   3.092
 1050SOL    HW2 4050   3.295   5.158   3.226
 1051SOL     OW 4051   0.478   0.171   6.924
 1051SOL    HW1 4052   0.384   0.191   6.896
 1051SOL    HW2 4053   0.541   0.211   6.858
 1052SOL     OW 4054   3.763   0.940   6.588
 1052SOL    HW1 4055   3.792   0.855   6.631
 1052SOL    HW2 4056   3.825   1.014   6.615
 1053SOL     OW 4057   6.052   2.904   2.947
 1053SOL    HW1 4058   6.014   2.889   2.856
 1053SOL    HW2 4059   6.129   2.966   2.942
 1054SOL     OW 4060   3.431   4.527   6.980
 1054SOL    HW1 4061   3.412   4.593   6.907
 1054SOL    HW2 4062   3.353   4.522   0.030
 1055SOL     OW 4063   4.642   6.148   6.917
 1055SOL    HW1 4064   4.628   6.238   6.875
 1055SOL    HW2 4065   4.720   6.152   6.980
 1056SOL     OW 4066   2.857   3.708   6.605
 1056SOL    HW1 4067   2.860   3.808   6.604
 1056SOL    HW2 4068   2.909   3.673   6.527
 1057SOL     OW 4069   2.923   1.619   1.310
 1057SOL    HW1 4070   2.915   1.622   1.410
 1057SOL    HW2 4071   3.016   1.645   1.283
 1058SOL     OW 4072   2.416   2.581   2.449
 1058SOL    HW1 4073   2.456   2.598   2.539
 1058SOL    HW2 4074   2.347   2.651   2.430
 1059SOL     OW 4075   2.747   6.361   1.532
 1059SOL    HW1 4076   2.788   6.373   1.623
 1059SOL    HW2 4077   2.655   6.399   1.532
 1060SOL     OW 4078   6.074   6.176   5.126
 1060SOL    HW1 4079   6.148   6.150   5.064
 1060SOL    HW2 4080   6.035   6.094   5.167
 1061SOL     OW 4081   6.772   4.166   6.971
 1061SOL    HW1 4082   6.713   4.111   6.913
 1061SOL    HW2 4083   6.781   4.258   6.931
 1062SOL     OW 4084   3.787   6.325   5.672
 1062SOL    HW1 4085   3.751   6.397   5.732
 1062SOL    HW2 4086   3.720   6.251   5.665
 1063SOL     OW 4087   2.365   6.379   6.122
 1063SOL    HW1 4088   2.400   6.380   6.215
 1063SOL    HW2 4089   2.385   6.290   6.080
 1064SOL     OW 4090   1.630   4.221   0.489
 1064SOL    HW1 4091   1.579   4.306   0.478
 1064SOL    HW2 4092   1.691   4.229   0.568
 1065SOL     OW 4093   4.517   0.443   4.199
 1065SOL    HW1 4094   4.585   0.380   4.161
 1065SOL    HW2 4095   4.561   0.530   4.221
 1066SOL     OW 4096   4.757   0.276   2.021
 1066SOL    HW1 4097   4.695   0.317   2.088
 1066SOL    HW2 4098   4.715   0.279   1.930
 1067SOL     OW 4099   2.683   1.072   0.579
 1067SOL    HW1 4100   2.587   1.062   0.606
 1067SOL    HW2 4101   2.699   1.166   0.548
 1068SOL     OW 4102   5.853   3.231   1.364
 1068SOL    HW1 4103   5.893   3.301   1.424
 1068SOL    HW2 4104   5.809   3.161   1.419
 1069SOL     OW 4105   6.611   4.004   1.798
 1069SOL    HW1 4106   6.542   4.030   1.731
 1069SOL    HW2 4107   6.658   4.086   1.831
 1070SOL     OW 4108   1.242   0.160   1.915
 1070SOL    HW1 4109   1.306   0.198   1.848
 1070SOL    HW2 4110   1.178   0.232   1.944
 1071SOL     OW 4111   6.484   3.028   5.481
 1071SOL    HW1 4112   6.487   3.102   5.547
 1071SOL    HW2 4113   6.576   3.011   5.445
 1072SOL     OW 4114   2.610   1.500   2.284
 1072SOL    HW1 4115   2.546   1.517   2.208
 1072SOL    HW2 4116   2.683   1.439   2.253
 1073SOL     OW 4117   5.035   1.531   3.389
 1073SOL    HW1 4118   5.114   1.591   3.377
 1073SOL    HW2 4119   5.053   1.442   3.347
 1074SOL     OW 4120   2.700   4.761   1.759
 1074SOL    HW1 4121   2.729   4.702   1.834
 1074SOL    HW2 4122   2.602   4.750   1.744
 1075SOL     OW 4123   5.857   3.245   5.079
 1075SOL    HW1 4124   5.793   3.301   5.131
 1075SOL    HW2 4125   5.818   3.221   4.990
 1076SOL     OW 4126   2.115   3.791   5.087
 1076SOL    HW1 4127   2.183   3.858   5.056
 1076SOL    HW2 4128   2.027   3.812   5.045
 1077SOL     OW 4129   0.153   6.772   6.923
 1077SOL    HW1 4130   0.148   6.677   6.954
 1077SOL    HW2 4131   0.241   6.811   6.949
 1078SOL     OW 4132   6.977   6.214   3.963
 1078SOL    HW1 4133   6.952   6.247   3.873
 1078SOL    HW2 4134   6.912   6.248   4.031
 1079SOL     OW 4135   0.767   6.070   2.651
 1079SOL    HW1 4136   0.761   5.980   2.695
 1079SOL    HW2 4137   0.837   6.068   2.580
 1080SOL     OW 4138   2.034   4.976   6.476
 1080SOL    HW1 4139   2.051   4.878   6.465
 1080SOL    HW2 4140   2.097   5.027   6.418
 1081SOL     OW 4141   6.542   5.701   4.320
 1081SOL    HW1 4142   6.457   5.663   4.284
 1081SOL    HW2 4143   6.529   5.729   4.415
 1082SOL     OW 4144   5.222   0.366   6.344
 1082SOL    HW1 4145   5.178   0.437   6.288
 1082SOL    HW2 4146   5.228   0.282   6.291
 1083SOL     OW 4147   5.010   4.366   0.742
 1083SOL    HW1 4148   5.092   4.319   0.776
 1083SOL    HW2 4149   4.933   4.345   0.802
 1084SOL     OW 4150   0.442   0.301   6.438
 1084SOL    HW1 4151   0.508   0.368   6.471
 1084SOL    HW2 4152   0.450   0.293   6.338
 1085SOL     OW 4153   1.842   3.861   4.460
 1085SOL    HW1 4154   1.812   3.942   4.410
 1085SOL    HW2 4155   1.938   3.844   4.439
 1086SOL     OW 4156   6.246   5.108   0.067
 1086SOL    HW1 4157   6.327   5.053   0.046
 1086SOL    HW2 4158   6.184   5.106   7.000
 1087SOL     OW 4159   2.406   0.246   5.045
 1087SOL    HW1 4160   2.464   0.174   5.082
 1087SOL    HW2 4161   2.452   0.334   5.053
 1088SOL     OW 4162   6.967   4.701   3.394
 1088SOL    HW1 4163   6.895   4.759   3.433
 1088SOL    HW2 4164   6.952   4.607   3.424
 1089SOL     OW 4165   6.370   4.307   4.265
 1089SOL    HW1 4166   6.439   4.374   4.290
 1089SOL    HW2 4167   6.352   4.247   4.343
 1090SOL     OW 4168   5.234   1.407   4.908
 1090SOL    HW1 4169   5.305   1.339   4.926
 1090SOL    HW2 4170   5.177   1.419   4.989
 1091SOL     OW 4171   2.254   3.005   3.196
 1091SOL    HW1 4172   2.260   2.905   3.203
 1091SOL    HW2 4173   2.204   3.041   3.275
 1092SOL     OW 4174   0.735   5.026   0.722
 1092SOL    HW1 4175   0.704   5.062   0.810
 1092SOL    HW2 4176   0.759   4.930   0.732
 1093SOL     OW 4177   2.335   6.953   1.820
 1093SOL    HW1 4178   2.351   6.859   1.792
 1093SOL    HW2 4179   2.244   6.960   1.862
 1094SOL     OW 4180   1.108   0.365   2.833
 1094SOL    HW1 4181   1.056   0.450   2.825
 1094SOL    HW2 4182   1.065   0.293   2.779
 1095SOL     OW 4183   6.987   3.413   0.239
 1095SOL    HW1 4184   6.956   3.495   0.288
 1095SOL    HW2 4185   0.004   3.439   0.147
 1096SOL     OW 4186   2.808   5.644   1.664
 1096SOL    HW1 4187   2.778   5.555   1.699
 1096SOL    HW2 4188   2.816   5.640   1.565
 1097SOL     OW 4189   3.336   5.260   3.924
 1097SOL    HW1 4190   3.351   5.167   3.892
 1097SOL    HW2 4191   3.339   5.262   4.024
 1098SOL     OW 4192   6.417   4.948   0.514
 1098SOL    HW1 4193   6.459   5.006   0.444
 1098SOL    HW2 4194   6.337   4.995   0.552
 1099SOL     OW 4195   4.590   0.782   5.971
 1099SOL    HW1 4196   4.540   0.698   5.993
 1099SOL    HW2 4197   4.686   0.772   5.995
 1100SOL     OW 4198   3.444   1.804   4.048
 1100SOL    HW1 4199   3.457   1.716   4.094
 1100SOL    HW2 4200   3.520   1.864   4.070
 1101SOL     OW 4201   6.472   3.188   5.686
 1101SOL    HW1 4202   6.385   3.225   5.719
 1101SOL    HW2 4203   6.489   3.100   5.730
 1102SOL     OW 4204   2.820   0.972   4.302
 1102SOL    HW1 4205   2.734   1.022   4.311
 1102SOL    HW2 4206   2.895   1.036   4.287
 1103SOL     OW 4207   3.030   0.150   6.549
 1103SOL    HW1 4208   3.080   0.109   6.625
 1103SOL    HW2 4209   2.934   0.122   6.553
 1104SOL     OW 4210   0.293   3.377   3.519
 1104SOL    HW1 4211   0.282   3.402   3.423
 1104SOL    HW2 4212   0.251   3.287   3.535
 1105SOL     OW 4213   5.331   0.722   5.134
 1105SOL    HW1 4214   5.235   0.724   5.105
 1105SOL    HW2 4215   5.345   0.648   5.200
 1106SOL     OW 4216   0.546   1.830   0.800
 1106SOL    HW1 4217   0.639   1.861   0.819
 1106SOL    HW2 4218   0.489   1.844   0.881
 1107SOL     OW 4219   1.076   1.005   0.590
 1107SOL    HW1 4220   1.088   0.911   0.558
 1107SOL    HW2 4221   0.986   1.039   0.562
 1108SOL     OW 4222   2.761   6.362   4.501
 1108SOL    HW1 4223   2.783   6.328   4.593
 1108SOL    HW2 4224   2.771   6.288   4.435
 1109SOL     OW 4225   5.545   1.277   4.633
 1109SOL    HW1 4226   5.512   1.363   4.594
 1109SOL    HW2 4227   5.643   1.268   4.616
 1110SOL     OW 4228   3.555   1.169   2.437
 1110SOL    HW1 4229   3.603   1.082   2.445
 1110SOL    HW2 4230   3.591   1.220   2.359
 1111SOL     OW 4231   5.050   3.806   6.919
 1111SOL    HW1 4232   4.955   3.808   6.887
 1111SOL    HW2 4233   5.093   3.720   6.891
 1112SOL     OW 4234   5.190   0.298   2.312
 1112SOL    HW1 4235   5.166   0.305   2.215
 1112SOL    HW2 4236   5.145   0.218   2.352
 1113SOL     OW 4237   5.480   4.450   2.210
 1113SOL    HW1 4238   5.492   4.423   2.114
 1113SOL    HW2 4239   5.495   4.371   2.269
 1114SOL     OW 4240   4.134   3.371   5.575
 1114SOL    HW1 4241   4.222   3.376   5.528
 1114SOL    HW2 4242   4.061   3.400   5.513
 1115SOL     OW 4243   3.370   4.377   5.677
 1115SOL    HW1 4244   3.358   4.437   5.757
 1115SOL    HW2 4245   3.397   4.286   5.708
 1116SOL     OW 4246   4.583   0.358   6.522
 1116SOL    HW1 4247   4.618   0.325   6.610
 1116SOL    HW2 4248   4.487   0.332   6.513
 1117SOL     OW 4249   1.337   3.174   1.917
 1117SOL    HW1 4250   1.347   3.144   2.012
 1117SOL    HW2 4251   1.371   3.102   1.856
 1118SOL     OW 4252   2.935   4.658   6.747
 1118SOL    HW1 4253   2.878   4.712   6.810
 1118SOL    HW2 4254   2.978   4.583   6.797
 1119SOL     OW 4255   3.908   5.245   3.844
 1119SOL    HW1 4256   3.932   5.193   3.762
 1119SOL    HW2 4257   3.809   5.241   3.857
 1120SOL     OW 4258   6.499   5.169   0.870
 1120SOL    HW1 4259   6.509   5.249   0.929
 1120SOL    HW2 4260   6.571   5.103   0.891
 1121SOL     OW 4261   6.529   4.975   4.607
 1121SOL    HW1 4262   6.582   4.909   4.555
 1121SOL    HW2 4263   6.590   5.044   4.646
 1122SOL     OW 4264   5.382   2.748   1.897
 1122SOL    HW1 4265   5.369   2.799   1.812
 1122SOL    HW2 4266   5.333   2.661   1.891
 1123SOL     OW 4267   4.357   1.936   3.216
 1123SOL    HW1 4268   4.283   1.890   3.166
 1123SOL    HW2 4269   4.368   1.894   3.306
 1124SOL     OW 4270   2.236   2.953   4.787
 1124SOL    HW1 4271   2.275   2.985   4.873
 1124SOL    HW2 4272   2.137   2.966   4.788
 1125SOL     OW 4273   1.243   3.753   3.921
 1125SOL    HW1 4274   1.334   3.785   3.947
 1125SOL    HW2 4275   1.240   3.738   3.822
 1126SOL     OW 4276   3.523   5.362   5.404
 1126SOL    HW1 4277   3.592   5.361   5.476
 1126SOL    HW2 4278   3.560   5.317   5.322
 1127SOL     OW 4279   5.814   6.434   3.022
 1127SOL    HW1 4280   5.723   6.409   2.988
 1127SOL    HW2 4281   5.877   6.442   2.945
 1128SOL     OW 4282   6.136   1.482   3.426
 1128SOL    HW1 4283   6.062   1.441   3.480
 1128SOL    HW2 4284   6.122   1.460   3.329
 1129SOL     OW 4285   1.656   0.370   0.836
 1129SOL    HW1 4286   1.596   0.441   0.870
 1129SOL    HW2 4287   1.668   0.380   0.737
 1130SOL     OW 4288   2.264   5.088   2.561
 1130SOL    HW1 4289   2.294   5.180   2.587
 1130SOL    HW2 4290   2.340   5.040   2.518
 1131SOL     OW 4291   1.610   6.318   3.967
 1131SOL    HW1 4292   1.649   6.335   3.876
 1131SOL    HW2 4293   1.658   6.373   4.035
 1132SOL     OW 4294   3.468   1.451   2.614
 1132SOL    HW1 4295   3.434   1.546   2.618
 1132SOL    HW2 4296   3.509   1.434   2.524
 1133SOL     OW 4297   1.553   6.560   5.004
 1133SOL    HW1 4298   1.480   6.504   4.965
 1133SOL    HW2 4299   1.538   6.656   4.979
 1134SOL     OW 4300   4.115   6.808   1.497
 1134SOL    HW1 4301   4.030   6.854   1.469
 1134SOL    HW2 4302   4.148   6.750   1.423
 1135SOL     OW 4303   2.098   6.088   3.837
 1135SOL    HW1 4304   2.024   6.075   3.771
 1135SOL    HW2 4305   2.166   6.151   3.800
 1136SOL     OW 4306   2.783   6.113   1.736
 1136SOL    HW1 4307   2.831   6.034   1.776
 1136SOL    HW2 4308   2.839   6.195   1.748
 1137SOL     OW 4309   0.233   5.821   5.602
 1137SOL    HW1 4310   0.212   5.897   5.541
 1137SOL    HW2 4311   0.295   5.757   5.557
 1138SOL     OW 4312   2.201   3.077   4.439
 1138SOL    HW1 4313   2.230   3.084   4.535
 1138SOL    HW2 4314   2.188   2.981   4.415
 1139SOL     OW 4315   2.931   5.313   3.994
 1139SOL    HW1 4316   2.835   5.340   3.992
 1139SOL    HW2 4317   2.942   5.235   4.054
 1140SOL     OW 4318   1.281   1.769   1.747
 1140SOL    HW1 4319   1.238   1.711   1.816
 1140SOL    HW2 4320   1.317   1.852   1.789
 1141SOL     OW 4321   6.182   4.264   6.629
 1141SOL    HW1 4322   6.105   4.327   6.623
 1141SOL    HW2 4323   6.223   4.254   6.539
 1142SOL     OW 4324   2.502   6.850   2.723
 1142SOL    HW1 4325   2.478   6.793   2.802
 1142SOL    HW2 4326   2.587   6.899   2.742
 1143SOL     OW 4327   1.113   3.767   1.680
 1143SOL    HW1 4328   1.070   3.844   1.634
 1143SOL    HW2 4329   1.213   3.777   1.675
 1144SOL     OW 4330   5.328   4.028   2.183
 1144SOL    HW1 4331   5.309   3.979   2.098
 1144SOL    HW2 4332   5.426   4.026   2.202
 1145SOL     OW 4333   0.276   1.675   0.547
 1145SOL    HW1 4334   0.209   1.723   0.491
 1145SOL    HW2 4335   0.261   1.697   0.643
 1146SOL     OW 4336   0.828   1.460   1.453
 1146SOL    HW1 4337   0.821   1.550   1.410
 1146SOL    HW2 4338   0.915   1.418   1.425
 1147SOL     OW 4339   3.369   6.813   1.188
 1147SOL    HW1 4340   3.364   6.902   1.143
 1147SOL    HW2 4341   3.443   6.759   1.148
 1148SOL     OW 4342   4.203   5.638   2.638
 1148SOL    HW1 4343   4.150   5.598   2.712
 1148SOL    HW2 4344   4.297   5.604   2.641
 1149SOL     OW 4345   4.713   2.389   1.676
 1149SOL    HW1 4346   4.810   2.396   1.700
 1149SOL    HW2 4347   4.687   2.292   1.671
 1150SOL     OW 4348   1.836   4.198   6.898
 1150SOL    HW1 4349   1.753   4.215   6.843
 1150SOL    HW2 4350   1.878   4.112   6.868
 1151SOL     OW 4351   6.556   5.288   3.849
 1151SOL    HW1 4352   6.587   5.378   3.879
 1151SOL    HW2 4353   6.530   5.291   3.753
 1152SOL     OW 4354   4.248   6.786   6.410
 1152SOL    HW1 4355   4.221   6.879   6.436
 1152SOL    HW2 4356   4.181   6.749   6.346
 1153SOL     OW 4357   6.305   0.566   1.207
 1153SOL    HW1 4358   6.249   0.530   1.281
 1153SOL    HW2 4359   6.399   0.579   1.239
 1154SOL     OW 4360   1.920   2.539   1.589
 1154SOL    HW1 4361   1.978   2.478   1.536
 1154SOL    HW2 4362   1.944   2.532   1.686
 1155SOL     OW 4363   2.884   6.139   5.214
 1155SOL    HW1 4364   2.861   6.151   5.311
 1155SOL    HW2 4365   2.826   6.068   5.175
 1156SOL     OW 4366   3.722   2.140   4.272
 1156SOL    HW1 4367   3.758   2.142   4.366
 1156SOL    HW2 4368   3.624   2.159   4.274
 1157SOL     OW 4369   3.519   1.273   5.556
 1157SOL    HW1 4370   3.529   1.320   5.468
 1157SOL    HW2 4371   3.506   1.175   5.540
 1158SOL     OW 4372   5.820   6.094   2.949
 1158SOL    HW1 4373   5.844   6.136   3.036
 1158SOL    HW2 4374   5.721   6.081   2.944
 1159SOL     OW 4375   6.258   6.384   2.216
 1159SOL    HW1 4376   6.240   6.292   2.182
 1159SOL    HW2 4377   6.349   6.414   2.186
 1160SOL     OW 4378   4.901   1.078   0.531
 1160SOL    HW1 4379   4.837   1.012   0.572
 1160SOL    HW2 4380   4.877   1.091   0.435
 1161SOL     OW 4381   0.440   5.477   6.869
 1161SOL    HW1 4382   0.394   5.565   6.885
 1161SOL    HW2 4383   0.397   5.407   6.926
 1162SOL     OW 4384   2.143   2.681   4.993
 1162SOL    HW1 4385   2.115   2.624   5.070
 1162SOL    HW2 4386   2.182   2.766   5.026
 1163SOL     OW 4387   6.380   4.056   1.642
 1163SOL    HW1 4388   6.366   4.050   1.741
 1163SOL    HW2 4389   6.299   4.096   1.600
 1164SOL     OW 4390   4.960   1.799   4.467
 1164SOL    HW1 4391   4.995   1.854   4.390
 1164SOL    HW2 4392   5.038   1.763   4.519
 1165SOL     OW 4393   3.887   6.392   3.627
 1165SOL    HW1 4394   3.838   6.380   3.714
 1165SOL    HW2 4395   3.853   6.474   3.581
 1166SOL     OW 4396   2.121   5.929   6.838
 1166SOL    HW1 4397   2.110   5.843   6.888
 1166SOL    HW2 4398   2.032   5.958   6.802
 1167SOL     OW 4399   5.511   4.599   2.446
 1167SOL    HW1 4400   5.480   4.541   2.370
 1167SOL    HW2 4401   5.434   4.653   2.480
 1168SOL     OW 4402   6.501   2.120   3.158
 1168SOL    HW1 4403   6.520   2.186   3.231
 1168SOL    HW2 4404   6.505   2.167   3.070
 1169SOL     OW 4405   5.738   0.395   5.140
 1169SOL    HW1 4406   5.657   0.453   5.137
 1169SOL    HW2 4407   5.771   0.390   5.235
 1170SOL     OW 4408   4.968   6.785   3.496
 1170SOL    HW1 4409   4.915   6.722   3.553
 1170SOL    HW2 4410   4.914   6.866   3.476
 1171SOL     OW 4411   1.495   0.370   1.245
 1171SOL    HW1 4412   1.452   0.461   1.243
 1171SOL    HW2 4413   1.438   0.308   1.299
 1172SOL     OW 4414   0.064   3.819   6.642
 1172SOL    HW1 4415   0.084   3.917   6.648
 1172SOL    HW2 4416   0.140   3.773   6.595
 1173SOL     OW 4417   2.913   1.531   1.021
 1173SOL    HW1 4418   2.931   1.435   1.040
 1173SOL    HW2 4419   2.910   1.582   1.107
 1174SOL     OW 4420   3.609   3.641   1.180
 1174SOL    HW1 4421   3.563   3.730   1.189
 1174SOL    HW2 4422   3.641   3.610   1.269
 1175SOL     OW 4423   3.443   3.267   4.975
 1175SOL    HW1 4424   3.487   3.331   5.038
 1175SOL    HW2 4425   3.435   3.309   4.884
 1176SOL     OW 4426   5.200   3.944   6.513
 1176SOL    HW1 4427   5.198   3.932   6.612
 1176SOL    HW2 4428   5.144   4.023   6.489
 1177SOL     OW 4429   6.366   2.657   4.762
 1177SOL    HW1 4430   6.341   2.560   4.755
 1177SOL    HW2 4431   6.451   2.666   4.813
 1178SOL     OW 4432   2.817   4.847   6.920
 1178SOL    HW1 4433   2.722   4.846   6.951
 1178SOL    HW2 4434   2.835   4.934   6.873
 1179SOL     OW 4435   2.439   5.131   1.033
 1179SOL    HW1 4436   2.392   5.213   1.066
 1179SOL    HW2 4437   2.482   5.151   0.945
 1180SOL     OW 4438   2.966   5.616   0.653
 1180SOL    HW1 4439   3.019   5.576   0.578
 1180SOL    HW2 4440   3.025   5.630   0.732
 1181SOL     OW 4441   0.199   5.632   6.756
 1181SOL    HW1 4442   0.106   5.613   6.723
 1181SOL    HW2 4443   0.228   5.722   6.724
 1182SOL     OW 4444   4.247   5.286   2.876
 1182SOL    HW1 4445   4.313   5.285   2.801
 1182SOL    HW2 4446   4.180   5.213   2.861
 1183SOL     OW 4447   2.166   3.633   6.271
 1183SOL    HW1 4448   2.092   3.571   6.243
 1183SOL    HW2 4449   2.203   3.678   6.190
 1184SOL     OW 4450   1.734   0.017   4.952
 1184SOL    HW1 4451   1.710   0.066   5.036
 1184SOL    HW2 4452   1.786   6.946   4.976
 1185SOL     OW 4453   6.967   1.403   6.891
 1185SOL    HW1 4454   0.043   1.451   6.886
 1185SOL    HW2 4455   6.926   1.399   6.799
 1186SOL     OW 4456   4.979   6.245   4.644
 1186SOL    HW1 4457   4.917   6.287   4.577
 1186SOL    HW2 4458   4.991   6.148   4.622
 1187SOL     OW 4459   6.586   0.286   5.657
 1187SOL    HW1 4460   6.598   0.384   5.643
 1187SOL    HW2 4461   6.610   0.237   5.573
 1188SOL     OW 4462   2.614   6.567   5.061
 1188SOL    HW1 4463   2.540   6.505   5.037
 1188SOL    HW2 4464   2.699   6.515   5.074
 1189SOL     OW 4465   6.092   3.276   3.338
 1189SOL    HW1 4466   6.027   3.213   3.381
 1189SOL    HW2 4467   6.105   3.250   3.243
 1190SOL     OW 4468   1.943   6.395   2.556
 1190SOL    HW1 4469   2.016   6.461   2.538
 1190SOL    HW2 4470   1.894   6.375   2.471
 1191SOL     OW 4471   4.554   5.076   2.991
 1191SOL    HW1 4472   4.504   5.152   3.031
 1191SOL    HW2 4473   4.490   5.017   2.941
 1192SOL     OW 4474   4.323   6.157   2.870
 1192SOL    HW1 4475   4.226   6.176   2.857
 1192SOL    HW2 4476   4.340   6.133   2.965
 1193SOL     OW 4477   6.051   4.853   3.643
 1193SOL    HW1 4478   5.992   4.879   3.719
 1193SOL    HW2 4479   6.005   4.874   3.556
 1194SOL     OW 4480   4.489   0.523   1.284
 1194SOL    HW1 4481   4.518   0.614   1.313
 1194SOL    HW2 4482   4.543   0.454   1.331
 1195SOL     OW 4483   6.187   3.428   2.128
 1195SOL    HW1 4484   6.286   3.442   2.131
 1195SOL    HW2 4485   6.143   3.512   2.098
 1196SOL     OW 4486   6.471   6.750   3.843
 1196SOL    HW1 4487   6.567   6.720   3.843
 1196SOL    HW2 4488   6.418   6.692   3.904
 1197SOL     OW 4489   3.789   6.698   0.556
 1197SOL    HW1 4490   3.724   6.758   0.603
 1197SOL    HW2 4491   3.879   6.706   0.599
 1198SOL     OW 4492   1.843   2.317   0.792
 1198SOL    HW1 4493   1.890   2.349   0.710
 1198SOL    HW2 4494   1.752   2.284   0.767
 1199SOL     OW 4495   4.717   5.217   1.535
 1199SOL    HW1 4496   4.685   5.303   1.577
 1199SOL    HW2 4497   4.758   5.237   1.446
 1200SOL     OW 4498   3.016   3.560   2.190
 1200SOL    HW1 4499   3.105   3.515   2.182
 1200SOL    HW2 4500   3.029   3.658   2.203
 1201SOL     OW 4501   1.323   1.965   4.785
 1201SOL    HW1 4502   1.384   1.959   4.706
 1201SOL    HW2 4503   1.280   1.876   4.801
 1202SOL     OW 4504   0.289   5.462   6.548
 1202SOL    HW1 4505   0.388   5.469   6.538
 1202SOL    HW2 4506   0.260   5.508   6.632
 1203SOL     OW 4507   4.855   5.963   5.929
 1203SOL    HW1 4508   4.760   5.957   5.958
 1203SOL    HW2 4509   4.887   6.057   5.940
 1204SOL     OW 4510   2.292   0.881   2.208
 1204SOL    HW1 4511   2.237   0.806   2.171
 1204SOL    HW2 4512   2.309   0.948   2.137
 1205SOL     OW 4513   5.167   4.040   1.329
 1205SOL    HW1 4514   5.107   4.022   1.407
 1205SOL    HW2 4515   5.219   4.124   1.345
 1206SOL     OW 4516   3.207   3.461   4.531
 1206SOL    HW1 4517   3.133   3.527   4.514
 1206SOL    HW2 4518   3.243   3.429   4.444
 1207SOL     OW 4519   2.070   6.340   1.779
 1207SOL    HW1 4520   2.092   6.309   1.872
 1207SOL    HW2 4521   2.155   6.354   1.728
 1208SOL     OW 4522   3.573   3.329   0.206
 1208SOL    HW1 4523   3.500   3.394   0.228
 1208SOL    HW2 4524   3.563   3.247   0.263
 1209SOL     OW 4525   3.595   0.099   5.601
 1209SOL    HW1 4526   3.545   0.060   5.678
 1209SOL    HW2 4527   3.601   0.032   5.527
 1210SOL     OW 4528   3.176   0.541   2.993
 1210SOL    HW1 4529   3.268   0.577   3.004
 1210SOL    HW2 4530   3.175   0.443   3.011
 1211SOL     OW 4531   0.731   3.995   1.054
 1211SOL    HW1 4532   0.728   4.066   1.124
 1211SOL    HW2 4533   0.815   4.004   1.000
 1212SOL     OW 4534   0.566   0.113   6.550
 1212SOL    HW1 4535   0.614   0.159   6.625
 1212SOL    HW2 4536   0.514   0.179   6.497
 1213SOL     OW 4537   5.754   2.549   0.741
 1213SOL    HW1 4538   5.715   2.490   0.812
 1213SOL    HW2 4539   5.692   2.624   0.722
 1214SOL     OW 4540   6.821   2.256   1.050
 1214SOL    HW1 4541   6.883   2.178   1.042
 1214SOL    HW2 4542   6.762   2.260   0.969
 1215SOL     OW 4543   0.962   5.022   4.508
 1215SOL    HW1 4544   0.887   5.034   4.573
 1215SOL    HW2 4545   0.927   5.033   4.415
 1216SOL     OW 4546   4.371   0.583   6.375
 1216SOL    HW1 4547   4.420   0.567   6.461
 1216SOL    HW2 4548   4.437   0.593   6.300
 1217SOL     OW 4549   2.485   4.593   0.931
 1217SOL    HW1 4550   2.491   4.538   0.848
 1217SOL    HW2 4551   2.504   4.689   0.909
 1218SOL     OW 4552   1.364   4.109   3.695
 1218SOL    HW1 4553   1.358   4.192   3.750
 1218SOL    HW2 4554   1.311   4.036   3.738
 1219SOL     OW 4555   3.811   6.289   2.110
 1219SOL    HW1 4556   3.794   6.193   2.130
 1219SOL    HW2 4557   3.843   6.335   2.193
 1220SOL     OW 4558   1.513   4.679   3.116
 1220SOL    HW1 4559   1.447   4.604   3.122
 1220SOL    HW2 4560   1.484   4.754   3.176
 1221SOL     OW 4561   5.638   3.331   5.926
 1221SOL    HW1 4562   5.648   3.364   5.832
 1221SOL    HW2 4563   5.646   3.408   5.990
 1222SOL     OW 4564   6.791   6.646   6.972
 1222SOL    HW1 4565   6.819   6.706   6.896
 1222SOL    HW2 4566   6.870   6.626   0.017
 1223SOL     OW 4567   3.084   6.581   0.196
 1223SOL    HW1 4568   3.112   6.623   0.110
 1223SOL    HW2 4569   3.029   6.647   0.248
 1224SOL     OW 4570   2.581   0.343   1.097
 1224SOL    HW1 4571   2.509   0.355   1.165
 1224SOL    HW2 4572   2.549   0.377   1.008
 1225SOL     OW 4573   3.041   4.334   6.256
 1225SOL    HW1 4574   3.013   4.328   6.160
 1225SOL    HW2 4575   3.027   4.428   6.289
 1226SOL     OW 4576   1.785   5.386   1.439
 1226SOL    HW1 4577   1.712   5.353   1.380
 1226SOL    HW2 4578   1.781   5.337   1.527
 1227SOL     OW 4579   0.064   4.063   6.775
 1227SOL    HW1 4580   0.163   4.052   6.764
 1227SOL    HW2 4581   0.040   4.051   6.872
 1228SOL     OW 4582   3.960   2.754   5.885
 1228SOL    HW1 4583   3.905   2.679   5.848
 1228SOL    HW2 4584   4.020   2.719   5.958
 1229SOL     OW 4585   3.820   4.851   6.674
 1229SOL    HW1 4586   3.788   4.895   6.590
 1229SOL    HW2 4587   3.874   4.770   6.651
 1230SOL     OW 4588   4.296   6.566   3.413
 1230SOL    HW1 4589   4.296   6.546   3.315
 1230SOL    HW2 4590   4.227   6.509   3.459
 1231SOL     OW 4591   1.979   3.030   4.726
 1231SOL    HW1 4592   1.944   3.118   4.759
 1231SOL    HW2 4593   1.982   3.031   4.626
 1232SOL     OW 4594   1.040   2.435   5.262
 1232SOL    HW1 4595   1.000   2.503   5.201
 1232SOL    HW2 4596   1.045   2.347   5.215
 1233SOL     OW 4597   0.529   3.026   5.352
 1233SOL    HW1 4598   0.511   2.934   5.386
 1233SOL    HW2 4599   0.526   3.026   5.252
 1234SOL     OW 4600   5.597   4.336   4.868
 1234SOL    HW1 4601   5.590   4.433   4.844
 1234SOL    HW2 4602   5.529   4.315   4.939
 1235SOL     OW 4603   6.392   5.741   3.550
 1235SOL    HW1 4604   6.470   5.802   3.564
 1235SOL    HW2 4605   6.412   5.677   3.476
 1236SOL     OW 4606   5.609   0.621   6.834
 1236SOL    HW1 4607   5.613   0.628   6.734
 1236SOL    HW2 4608   5.678   0.680   6.875
 1237SOL     OW 4609   2.643   4.482   6.805
 1237SOL    HW1 4610   2.543   4.493   6.809
 1237SOL    HW2 4611   2.682   4.500   6.895
 1238SOL     OW 4612   1.955   1.485   0.717
 1238SOL    HW1 4613   1.864   1.453   0.692
 1238SOL    HW2 4614   1.955   1.585   0.720
 1239SOL     OW 4615   6.617   6.236   6.605
 1239SOL    HW1 4616   6.559   6.246   6.686
 1239SOL    HW2 4617   6.633   6.139   6.586
 1240SOL     OW 4618   4.909   6.112   1.915
 1240SOL    HW1 4619   4.929   6.209   1.930
 1240SOL    HW2 4620   4.897   6.096   1.816
 1241SOL     OW 4621   6.741   4.023   4.317
 1241SOL    HW1 4622   6.812   4.005   4.385
 1241SOL    HW2 4623   6.721   4.121   4.315
 1242SOL     OW 4624   2.346   3.844   0.610
 1242SOL    HW1 4625   2.410   3.918   0.628
 1242SOL    HW2 4626   2.277   3.874   0.544
 1243SOL     OW 4627   1.919   5.272   5.669
 1243SOL    HW1 4628   1.902   5.278   5.570
 1243SOL    HW2 4629   1.848   5.322   5.718
 1244SOL     OW 4630   0.226   0.906   3.432
 1244SOL    HW1 4631   0.305   0.967   3.433
 1244SOL    HW2 4632   0.257   0.811   3.431
 1245SOL     OW 4633   3.322   3.454   0.263
 1245SOL    HW1 4634   3.331   3.536   0.320
 1245SOL    HW2 4635   3.328   3.373   0.321
 1246SOL     OW 4636   2.270   6.522   2.088
 1246SOL    HW1 4637   2.195   6.471   2.131
 1246SOL    HW2 4638   2.354   6.468   2.094
 1247SOL     OW 4639   1.977   6.550   6.107
 1247SOL    HW1 4640   2.016   6.489   6.176
 1247SOL    HW2 4641   2.013   6.525   6.017
 1248SOL     OW 4642   1.952   5.283   3.643
 1248SOL    HW1 4643   1.936   5.368   3.593
 1248SOL    HW2 4644   1.904   5.208   3.598
 1249SOL     OW 4645   5.603   3.113   3.474
 1249SOL    HW1 4646   5.541   3.112   3.552
 1249SOL    HW2 4647   5.640   3.021   3.459
 1250SOL     OW 4648   1.133   4.118   3.950
 1250SOL    HW1 4649   1.188   4.196   3.920
 1250SOL    HW2 4650   1.182   4.069   4.023
 1251SOL     OW 4651   4.014   0.084   4.916
 1251SOL    HW1 4652   4.075   0.134   4.855
 1251SOL    HW2 4653   4.004   0.135   5.002
 1252SOL     OW 4654   3.167   4.070   5.687
 1252SOL    HW1 4655   3.266   4.079   5.697
 1252SOL    HW2 4656   3.137   3.984   5.727
 1253SOL     OW 4657   3.942   5.257   2.664
 1253SOL    HW1 4658   3.970   5.345   2.623
 1253SOL    HW2 4659   3.878   5.275   2.739
 1254SOL     OW 4660   6.588   1.642   3.075
 1254SOL    HW1 4661   6.673   1.636   3.128
 1254SOL    HW2 4662   6.511   1.642   3.138
 1255SOL     OW 4663   0.005   6.790   6.239
 1255SOL    HW1 4664   0.101   6.789   6.214
 1255SOL    HW2 4665   6.963   6.831   6.165
 1256SOL     OW 4666   5.707   0.238   3.190
 1256SOL    HW1 4667   5.637   0.304   3.216
 1256SOL    HW2 4668   5.776   0.283   3.132
 1257SOL     OW 4669   6.565   0.905   3.704
 1257SOL    HW1 4670   6.559   0.961   3.787
 1257SOL    HW2 4671   6.642   0.841   3.713
 1258SOL     OW 4672   0.483   6.890   3.226
 1258SOL    HW1 4673   0.558   6.928   3.281
 1258SOL    HW2 4674   0.453   6.958   3.160
 1259SOL     OW 4675   3.683   1.917   4.949
 1259SOL    HW1 4676   3.605   1.929   5.011
 1259SOL    HW2 4677   3.655   1.861   4.871
 1260SOL     OW 4678   0.695   1.150   0.224
 1260SOL    HW1 4679   0.603   1.189   0.217
 1260SOL    HW2 4680   0.733   1.136   0.133
 1261SOL     OW 4681   0.154   5.121   0.276
 1261SOL    HW1 4682   0.078   5.076   0.230
 1261SOL    HW2 4683   0.119   5.197   0.331
 1262SOL     OW 4684   5.561   5.702   1.330
 1262SOL    HW1 4685   5.570   5.746   1.240
 1262SOL    HW2 4686   5.651   5.696   1.372
 1263SOL     OW 4687   1.656   2.504   3.805
 1263SOL    HW1 4688   1.703   2.446   3.872
 1263SOL    HW2 4689   1.651   2.456   3.717
 1264SOL     OW 4690   0.845   2.474   4.912
 1264SOL    HW1 4691   0.901   2.537   4.859
 1264SOL    HW2 4692   0.767   2.445   4.857
 1265SOL     OW 4693   6.108   6.546   4.546
 1265SOL    HW1 4694   6.021   6.508   4.577
 1265SOL    HW2 4695   6.169   6.473   4.516
 1266SOL     OW 4696   2.019   0.655   4.540
 1266SOL    HW1 4697   1.944   0.603   4.581
 1266SOL    HW2 4698   2.101   0.598   4.536
 1267SOL     OW 4699   4.029   0.316   2.488
 1267SOL    HW1 4700   4.078   0.363   2.414
 1267SOL    HW2 4701   3.940   0.358   2.500
 1268SOL     OW 4702   4.253   2.483   5.402
 1268SOL    HW1 4703   4.351   2.465   5.388
 1268SOL    HW2 4704   4.207   2.488   5.314
 1269SOL     OW 4705   6.055   2.498   4.170
 1269SOL    HW1 4706   6.142   2.545   4.159
 1269SOL    HW2 4707   6.026   2.461   4.081
 1270SOL     OW 4708   0.087   4.984   3.500
 1270SOL    HW1 4709   0.044   5.074   3.494
 1270SOL    HW2 4710   0.041   4.921   3.438
 1271SOL     OW 4711   1.385   1.320   1.644
 1271SOL    HW1 4712   1.372   1.249   1.713
 1271SOL    HW2 4713   1.442   1.283   1.570
 1272SOL     OW 4714   6.916   4.311   0.188
 1272SOL    HW1 4715   6.883   4.332   0.280
 1272SOL    HW2 4716   6.840   4.276   0.133
 1273SOL     OW 4717   1.333   4.790   5.192
 1273SOL    HW1 4718   1.236   4.772   5.179
 1273SOL    HW2 4719   1.360   4.867   5.133
 1274SOL     OW 4720   0.774   5.220   2.663
 1274SOL    HW1 4721   0.749   5.240   2.758
 1274SOL    HW2 4722   0.754   5.300   2.606
 1275SOL     OW 4723   3.163   0.913   2.604
 1275SOL    HW1 4724   3.114   0.990   2.644
 1275SOL    HW2 4725   3.191   0.850   2.676
 1276SOL     OW 4726   5.293   4.302   4.165
 1276SOL    HW1 4727   5.358   4.229   4.142
 1276SOL    HW2 4728   5.311   4.382   4.108
 1277SOL     OW 4729   0.630   6.310   0.535
 1277SOL    HW1 4730   0.650   6.277   0.627
 1277SOL    HW2 4731   0.595   6.404   0.540
 1278SOL     OW 4732   1.065   5.804   2.620
 1278SOL    HW1 4733   1.037   5.770   2.711
 1278SOL    HW2 4734   0.991   5.787   2.555
 1279SOL     OW 4735   2.474   1.645   6.867
 1279SOL    HW1 4736   2.441   1.627   6.959
 1279SOL    HW2 4737   2.436   1.731   6.834
 1280SOL     OW 4738   2.560   1.823   3.426
 1280SOL    HW1 4739   2.638   1.879   3.399
 1280SOL    HW2 4740   2.512   1.792   3.344
 1281SOL     OW 4741   4.162   5.706   4.458
 1281SOL    HW1 4742   4.103   5.715   4.377
 1281SOL    HW2 4743   4.253   5.679   4.429
 1282SOL     OW 4744   0.256   2.647   1.183
 1282SOL    HW1 4745   0.280   2.620   1.089
 1282SOL    HW2 4746   0.204   2.732   1.181
 1283SOL     OW 4747   6.442   3.267   5.335
 1283SOL    HW1 4748   6.384   3.247   5.256
 1283SOL    HW2 4749   6.455   3.184   5.389
 1284SOL     OW 4750   4.071   1.624   1.226
 1284SOL    HW1 4751   3.996   1.602   1.288
 1284SOL    HW2 4752   4.101   1.541   1.179
 1285SOL     OW 4753   3.523   1.050   4.989
 1285SOL    HW1 4754   3.503   0.985   5.062
 1285SOL    HW2 4755   3.622   1.052   4.974
 1286SOL     OW 4756   4.384   1.982   2.084
 1286SOL    HW1 4757   4.450   2.054   2.066
 1286SOL    HW2 4758   4.296   2.023   2.111
 1287SOL     OW 4759   6.462   4.566   4.704
 1287SOL    HW1 4760   6.551   4.539   4.742
 1287SOL    HW2 4761   6.389   4.517   4.751
 1288SOL     OW 4762   4.649   4.563   6.523
 1288SOL    HW1 4763   4.656   4.543   6.425
 1288SOL    HW2 4764   4.568   4.517   6.561
 1289SOL     OW 4765   0.009   0.435   1.850
 1289SOL    HW1 4766   6.972   0.349   1.866
 1289SOL    HW2 4767   0.090   0.439   1.908
 1290SOL     OW 4768   1.565   0.141   6.699
 1290SOL    HW1 4769   1.573   0.089   6.784
 1290SOL    HW2 4770   1.474   0.128   6.661
 1291SOL     OW 4771   6.395   5.138   3.231
 1291SOL    HW1 4772   6.404   5.040   3.248
 1291SOL    HW2 4773   6.380   5.154   3.133
 1292SOL     OW 4774   0.748   6.158   2.082
 1292SOL    HW1 4775   0.771   6.203   2.168
 1292SOL    HW2 4776   0.826   6.164   2.020
 1293SOL     OW 4777   3.122   0.858   6.777
 1293SOL    HW1 4778   3.055   0.806   6.830
 1293SOL    HW2 4779   3.095   0.858   6.680
 1294SOL     OW 4780   2.613   3.579   5.638
 1294SOL    HW1 4781   2.677   3.630   5.581
 1294SOL    HW2 4782   2.625   3.481   5.622
 1295SOL     OW 4783   6.506   4.324   0.496
 1295SOL    HW1 4784   6.589   4.316   0.551
 1295SOL    HW2 4785   6.464   4.413   0.513
 1296SOL     OW 4786   5.270   6.782   5.619
 1296SOL    HW1 4787   5.265   6.707   5.553
 1296SOL    HW2 4788   5.332   6.852   5.585
 1297SOL     OW 4789   0.570   0.081   1.907
 1297SOL    HW1 4790   0.540   0.015   1.838
 1297SOL    HW2 4791   0.647   0.043   1.958
 1298SOL     OW 4792   5.472   5.716   2.252
 1298SOL    HW1 4793   5.478   5.707   2.352
 1298SOL    HW2 4794   5.376   5.719   2.225
 1299SOL     OW 4795   1.597   3.336   4.859
 1299SOL    HW1 4796   1.610   3.240   4.885
 1299SOL    HW2 4797   1.630   3.349   4.765
 1300SOL     OW 4798   1.407   4.441   1.760
 1300SOL    HW1 4799   1.481   4.386   1.722
 1300SOL    HW2 4800   1.326   4.434   1.701
 1301SOL     OW 4801   0.981   0.622   1.599
 1301SOL    HW1 4802   0.998   0.571   1.515
 1301SOL    HW2 4803   0.915   0.574   1.656
 1302SOL     OW 4804   5.582   6.563   5.375
 1302SOL    HW1 4805   5.604   6.652   5.414
 1302SOL    HW2 4806   5.666   6.508   5.369
 1303SOL     OW 4807   4.366   6.419   1.390
 1303SOL    HW1 4808   4.356   6.480   1.311
 1303SOL    HW2 4809   4.317   6.458   1.468
 1304SOL     OW 4810   0.522   1.349   0.991
 1304SOL    HW1 4811   0.565   1.417   0.932
 1304SOL    HW2 4812   0.433   1.323   0.953
 1305SOL     OW 4813   5.654   3.906   6.722
 1305SOL    HW1 4814   5.658   3.997   6.764
 1305SOL    HW2 4815   5.609   3.842   6.784
 1306SOL     OW 4816   2.196   5.714   4.050
 1306SOL    HW1 4817   2.144   5.719   3.965
 1306SOL    HW2 4818   2.289   5.747   4.034
 1307SOL     OW 4819   2.126   2.388   3.974
 1307SOL    HW1 4820   2.226   2.388   3.973
 1307SOL    HW2 4821   2.094   2.301   4.011
 1308SOL     OW 4822   6.616   5.481   6.392
 1308SOL    HW1 4823   6.528   5.445   6.361
 1308SOL    HW2 4824   6.602   5.542   6.470
 1309SOL     OW 4825   5.182   4.400   6.610
 1309SOL    HW1 4826   5.227   4.437   6.692
 1309SOL    HW2 4827   5.209   4.454   6.530
 1310SOL     OW 4828   1.536   4.376   3.312
 1310SOL    HW1 4829   1.459   4.325   3.351
 1310SOL    HW2 4830   1.546   4.463   3.360
 1311SOL     OW 4831   0.200   6.021   0.564
 1311SOL    HW1 4832   0.134   6.090   0.593
 1311SOL    HW2 4833   0.197   6.012   0.465
 1312SOL     OW 4834   1.970   0.560   6.222
 1312SOL    HW1 4835   2.054   0.561   6.168
 1312SOL    HW2 4836   1.979   0.621   6.300
 1313SOL     OW 4837   6.529   5.510   3.063
 1313SOL    HW1 4838   6.509   5.413   3.051
 1313SOL    HW2 4839   6.523   5.556   2.974
 1314SOL     OW 4840   2.760   1.822   4.885
 1314SOL    HW1 4841   2.702   1.749   4.922
 1314SOL    HW2 4842   2.723   1.911   4.911
 1315SOL     OW 4843   6.421   0.986   4.179
 1315SOL    HW1 4844   6.401   1.077   4.215
 1315SOL    HW2 4845   6.453   0.994   4.085
 1316SOL     OW 4846   4.167   0.573   4.831
 1316SOL    HW1 4847   4.224   0.538   4.757
 1316SOL    HW2 4848   4.224   0.609   4.905
 1317SOL     OW 4849   2.516   3.201   5.790
 1317SOL    HW1 4850   2.489   3.276   5.851
 1317SOL    HW2 4851   2.551   3.239   5.705
 1318SOL     OW 4852   1.318   2.919   6.432
 1318SOL    HW1 4853   1.261   2.978   6.489
 1318SOL    HW2 4854   1.360   2.848   6.489
 1319SOL     OW 4855   0.012   6.727   0.823
 1319SOL    HW1 4856   6.978   6.753   0.908
 1319SOL    HW2 4857   7.006   6.796   0.753
 1320SOL     OW 4858   3.201   2.620   5.622
 1320SOL    HW1 4859   3.118   2.636   5.675
 1320SOL    HW2 4860   3.212   2.522   5.606
 1321SOL     OW 4861   5.769   2.417   6.612
 1321SOL    HW1 4862   5.683   2.469   6.611
 1321SOL    HW2 4863   5.777   2.363   6.528
 1322SOL     OW 4864   3.333   1.646   0.425
 1322SOL    HW1 4865   3.388   1.687   0.352
 1322SOL    HW2 4866   3.292   1.718   0.480
 1323SOL     OW 4867   3.907   0.563   0.020
 1323SOL    HW1 4868   3.816   0.547   6.993
 1323SOL    HW2 4869   3.921   0.501   0.098
 1324SOL     OW 4870   1.166   3.640   6.979
 1324SOL    HW1 4871   1.136   3.732   7.006
 1324SOL    HW2 4872   1.146   3.627   6.882
 1325SOL     OW 4873   2.743   4.846   6.497
 1325SOL    HW1 4874   2.812   4.877   6.432
 1325SOL    HW2 4875   2.760   4.751   6.522
 1326SOL     OW 4876   4.875   3.344   3.970
 1326SOL    HW1 4877   4.790   3.293   3.983
 1326SOL    HW2 4878   4.922   3.353   4.058
 1327SOL     OW 4879   6.311   6.311   1.151
 1327SOL    HW1 4880   6.404   6.347   1.158
 1327SOL    HW2 4881   6.313   6.211   1.157
 1328SOL     OW 4882   1.228   3.452   5.647
 1328SOL    HW1 4883   1.237   3.357   5.618
 1328SOL    HW2 4884   1.303   3.475   5.709
 1329SOL     OW 4885   0.655   3.209   3.109
 1329SOL    HW1 4886   0.601   3.271   3.166
 1329SOL    HW2 4887   0.682   3.129   3.162
 1330SOL     OW 4888   6.324   3.030   1.138
 1330SOL    HW1 4889   6.367   2.995   1.055
 1330SOL    HW2 4890   6.229   3.055   1.118
 1331SOL     OW 4891   5.000   1.714   3.037
 1331SOL    HW1 4892   4.946   1.643   3.082
 1331SOL    HW2 4893   4.953   1.802   3.045
 1332SOL     OW 4894   1.650   6.754   0.479
 1332SOL    HW1 4895   1.648   6.781   0.576
 1332SOL    HW2 4896   1.561   6.770   0.437
 1333SOL     OW 4897   3.249   3.939   3.215
 1333SOL    HW1 4898   3.243   4.010   3.284
 1333SOL    HW2 4899   3.292   3.976   3.132
 1334SOL     OW 4900   6.712   2.759   2.187
 1334SOL    HW1 4901   6.618   2.767   2.154
 1334SOL    HW2 4902   6.722   2.811   2.272
 1335SOL     OW 4903   1.662   3.794   2.206
 1335SOL    HW1 4904   1.685   3.790   2.108
 1335SOL    HW2 4905   1.700   3.713   2.251
 1336SOL     OW 4906   3.278   0.281   5.163
 1336SOL    HW1 4907   3.330   0.218   5.220
 1336SOL    HW2 4908   3.211   0.330   5.219
 1337SOL     OW 4909   6.972   1.301   3.658
 1337SOL    HW1 4910   6.925   1.345   3.734
 1337SOL    HW2 4911   6.955   1.202   3.661
 1338SOL     OW 4912   6.073   4.272   5.028
 1338SOL    HW1 4913   5.990   4.279   4.973
 1338SOL    HW2 4914   6.076   4.184   5.075
 1339SOL     OW 4915   0.500   0.493   0.105
 1339SOL    HW1 4916   0.456   0.464   0.190
 1339SOL    HW2 4917   0.578   0.434   0.086
 1340SOL     OW 4918   4.675   1.907   1.957
 1340SOL    HW1 4919   4.722   1.922   1.870
 1340SOL    HW2 4920   4.636   1.993   1.989
 1341SOL     OW 4921   4.739   0.204   6.709
 1341SOL    HW1 4922   4.787   0.229   6.793
 1341SOL    HW2 4923   4.687   0.120   6.724
 1342SOL     OW 4924   2.847   5.986   1.112
 1342SOL    HW1 4925   2.894   6.047   1.049
 1342SOL    HW2 4926   2.784   5.928   1.061
 1343SOL     OW 4927   5.593   5.791   2.803
 1343SOL    HW1 4928   5.612   5.884   2.836
 1343SOL    HW2 4929   5.538   5.742   2.870
 1344SOL     OW 4930   0.107   0.064   4.832
 1344SOL    HW1 4931   0.137   6.982   4.855
 1344SOL    HW2 4932   0.169   0.130   4.876
 1345SOL     OW 4933   0.695   5.714   1.489
 1345SOL    HW1 4934   0.623   5.647   1.475
 1345SOL    HW2 4935   0.783   5.668   1.497
 1346SOL     OW 4936   2.630   5.481   6.028
 1346SOL    HW1 4937   2.531   5.480   6.010
 1346SOL    HW2 4938   2.656   5.394   6.071
 1347SOL     OW 4939   1.442   0.471   6.665
 1347SOL    HW1 4940   1.456   0.533   6.742
 1347SOL    HW2 4941   1.402   0.385   6.698
 1348SOL     OW 4942   0.148   6.296   5.253
 1348SOL    HW1 4943   0.143   6.235   5.174
 1348SOL    HW2 4944   0.236   6.283   5.300
 1349SOL     OW 4945   4.890   3.363   4.277
 1349SOL    HW1 4946   4.900   3.267   4.303
 1349SOL    HW2 4947   4.875   3.418   4.359
 1350SOL     OW 4948   3.094   3.480   0.808
 1350SOL    HW1 4949   3.008   3.505   0.851
 1350SOL    HW2 4950   3.076   3.435   0.720
 1351SOL     OW 4951   6.800   2.471   5.382
 1351SOL    HW1 4952   6.765   2.564   5.367
 1351SOL    HW2 4953   6.884   2.476   5.436
 1352SOL     OW 4954   7.005   0.321   2.443
 1352SOL    HW1 4955   6.922   0.375   2.456
 1352SOL    HW2 4956   0.040   0.351   2.360
 1353SOL     OW 4957   0.536   1.141   1.171
 1353SOL    HW1 4958   0.524   1.224   1.116
 1353SOL    HW2 4959   0.489   1.064   1.126
 1354SOL     OW 4960   5.799   4.565   1.976
 1354SOL    HW1 4961   5.751   4.525   2.054
 1354SOL    HW2 4962   5.744   4.639   1.937
 1355SOL     OW 4963   6.293   3.778   4.968
 1355SOL    HW1 4964   6.370   3.788   4.906
 1355SOL    HW2 4965   6.326   3.775   5.063
 1356SOL     OW 4966   3.656   2.946   1.188
 1356SOL    HW1 4967   3.644   2.891   1.105
 1356SOL    HW2 4968   3.582   3.013   1.194
 1357SOL     OW 4969   6.598   3.870   5.646
 1357SOL    HW1 4970   6.662   3.876   5.722
 1357SOL    HW2 4971   6.515   3.823   5.675
 1358SOL     OW 4972   1.540   6.484   6.974
 1358SOL    HW1 4973   1.600   6.482   6.895
 1358SOL    HW2 4974   1.496   6.574   6.981
 1359SOL     OW 4975   6.369   4.489   1.673
 1359SOL    HW1 4976   6.362   4.532   1.583
 1359SOL    HW2 4977   6.305   4.532   1.736
 1360SOL     OW 4978   2.491   1.912   6.508
 1360SOL    HW1 4979   2.468   2.009   6.502
 1360SOL    HW2 4980   2.585   1.902   6.540
 1361SOL     OW 4981   6.904   5.084   4.615
 1361SOL    HW1 4982   6.913   5.074   4.516
 1361SOL    HW2 4983   6.863   5.002   4.654
 1362SOL     OW 4984   3.066   3.065   2.971
 1362SOL    HW1 4985   3.111   3.009   2.902
 1362SOL    HW2 4986   3.031   3.148   2.929
 1363SOL     OW 4987   0.770   6.010   5.295
 1363SOL    HW1 4988   0.700   6.021   5.366
 1363SOL    HW2 4989   0.832   5.935   5.320
 1364SOL     OW 4990   4.229   3.920   0.936
 1364SOL    HW1 4991   4.223   3.822   0.950
 1364SOL    HW2 4992   4.161   3.949   0.869
 1365SOL     OW 4993   0.534   3.657   0.213
 1365SOL    HW1 4994   0.526   3.558   0.203
 1365SOL    HW2 4995   0.598   3.692   0.145
 1366SOL     OW 4996   2.327   6.728   4.879
 1366SOL    HW1 4997   2.283   6.777   4.803
 1366SOL    HW2 4998   2.416   6.693   4.849
 1367SOL     OW 4999   2.153   0.950   3.037
 1367SOL    HW1 5000   2.207   1.010   3.098
 1367SOL    HW2 5001   2.161   0.856   3.069
 1368SOL     OW 5002   6.137   6.617   4.047
 1368SOL    HW1 5003   6.046   6.640   4.081
 1368SOL    HW2 5004   6.199   6.694   4.064
 1369SOL     OW 5005   0.895   0.605   3.142
 1369SOL    HW1 5006   0.926   0.513   3.119
 1369SOL    HW2 5007   0.799   0.616   3.115
 1370SOL     OW 5008   2.854   1.066   1.877
 1370SOL    HW1 5009   2.802   1.048   1.960
 1370SOL    HW2 5010   2.888   0.980   1.839
 1371SOL     OW 5011   4.039   1.052   6.311
 1371SOL    HW1 5012   3.948   1.034   6.273
 1371SOL    HW2 5013   4.079   0.966   6.344
 1372SOL     OW 5014   3.682   1.735   2.219
 1372SOL    HW1 5015   3.682   1.812   2.156
 1372SOL    HW2 5016   3.748   1.666   2.188
 1373SOL     OW 5017   1.131   6.020   0.740
 1373SOL    HW1 5018   1.228   6.015   0.765
 1373SOL    HW2 5019   1.117   6.095   0.676
 1374SOL     OW 5020   5.028   2.581   0.616
 1374SOL    HW1 5021   5.045   2.515   0.543
 1374SOL    HW2 5022   5.111   2.594   0.669
 1375SOL     OW 5023   0.358   4.369   5.908
 1375SOL    HW1 5024   0.309   4.294   5.953
 1375SOL    HW2 5025   0.347   4.362   5.809
 1376SOL     OW 5026   4.915   2.105   2.511
 1376SOL    HW1 5027   4.871   2.034   2.457
 1376SOL    HW2 5028   5.001   2.070   2.549
 1377SOL     OW 5029   0.385   5.583   4.664
 1377SOL    HW1 5030   0.361   5.487   4.676
 1377SOL    HW2 5031   0.382   5.630   4.753
 1378SOL     OW 5032   1.266   1.580   0.956
 1378SOL    HW1 5033   1.216   1.658   0.919
 1378SOL    HW2 5034   1.202   1.513   0.994
 1379SOL     OW 5035   3.792   6.102   1.782
 1379SOL    HW1 5036   3.708   6.148   1.754
 1379SOL    HW2 5037   3.838   6.064   1.701
 1380SOL     OW 5038   6.027   6.650   2.471
 1380SOL    HW1 5039   6.100   6.592   2.433
 1380SOL    HW2 5040   6.016   6.630   2.568
 1381SOL     OW 5041   6.181   1.584   1.501
 1381SOL    HW1 5042   6.279   1.564   1.510
 1381SOL    HW2 5043   6.156   1.584   1.405
 1382SOL     OW 5044   5.739   4.920   6.388
 1382SOL    HW1 5045   5.815   4.856   6.387
 1382SOL    HW2 5046   5.769   5.009   6.355
 1383SOL     OW 5047   2.624   0.427   0.454
 1383SOL    HW1 5048   2.612   0.512   0.403
 1383SOL    HW2 5049   2.671   0.446   0.540
 1384SOL     OW 5050   3.344   2.122   3.145
 1384SOL    HW1 5051   3.341   2.139   3.243
 1384SOL    HW2 5052   3.437   2.135   3.111
 1385SOL     OW 5053   5.943   2.885   2.694
 1385SOL    HW1 5054   6.016   2.853   2.633
 1385SOL    HW2 5055   5.856   2.846   2.665
 1386SOL     OW 5056   2.001   2.441   4.240
 1386SOL    HW1 5057   1.969   2.536   4.239
 1386SOL    HW2 5058   2.029   2.414   4.148
 1387SOL     OW 5059   2.179   0.443   4.964
 1387SOL    HW1 5060   2.211   0.471   5.054
 1387SOL    HW2 5061   2.096   0.388   4.973
 1388SOL     OW 5062   6.692   1.094   4.557
 1388SOL    HW1 5063   6.632   1.015   4.566
 1388SOL    HW2 5064   6.639   1.173   4.525
 1389SOL     OW 5065   0.063   0.427   4.813
 1389SOL    HW1 5066   0.048   0.370   4.733
 1389SOL    HW2 5067   0.071   0.369   4.894
 1390SOL     OW 5068   4.667   2.766   2.659
 1390SOL    HW1 5069   4.685   2.813   2.746
 1390SOL    HW2 5070   4.634   2.673   2.677
 1391SOL     OW 5071   5.885   0.938   4.628
 1391SOL    HW1 5072   5.792   0.946   4.591
 1391SOL    HW2 5073   5.908   0.842   4.642
 1392SOL     OW 5074   4.589   4.936   6.074
 1392SOL    HW1 5075   4.515   4.905   6.014
 1392SOL    HW2 5076   4.558   4.933   6.169
 1393SOL     OW 5077   6.019   0.633   7.011
 1393SOL    HW1 5078   5.978   0.549   0.036
 1393SOL    HW2 5079   5.948   0.692   6.974
 1394SOL     OW 5080   4.425   6.777   3.993
 1394SOL    HW1 5081   4.483   6.826   3.928
 1394SOL    HW2 5082   4.394   6.691   3.951
 1395SOL     OW 5083   0.924   5.521   2.425
 1395SOL    HW1 5084   0.968   5.470   2.498
 1395SOL    HW2 5085   0.894   5.459   2.353
 1396SOL     OW 5086   1.723   1.813   3.797
 1396SOL    HW1 5087   1.670   1.849   3.720
 1396SOL    HW2 5088   1.776   1.887   3.837
 1397SOL     OW 5089   0.569   5.603   4.466
 1397SOL    HW1 5090   0.486   5.598   4.522
 1397SOL    HW2 5091   0.576   5.521   4.410
 1398SOL     OW 5092   0.763   6.938   0.484
 1398SOL    HW1 5093   0.701   6.920   0.561
 1398SOL    HW2 5094   0.772   0.025   0.471
 1399SOL     OW 5095   4.085   0.164   0.417
 1399SOL    HW1 5096   4.147   0.109   0.361
 1399SOL    HW2 5097   3.990   0.137   0.398
 1400SOL     OW 5098   0.228   0.807   5.081
 1400SOL    HW1 5099   0.252   0.804   5.178
 1400SOL    HW2 5100   0.238   0.900   5.046
 1401SOL     OW 5101   5.403   0.373   3.187
 1401SOL    HW1 5102   5.395   0.324   3.101
 1401SOL    HW2 5103   5.433   0.467   3.170
 1402SOL     OW 5104   6.579   4.710   2.523
 1402SOL    HW1 5105   6.674   4.733   2.545
 1402SOL    HW2 5106   6.525   4.710   2.607
 1403SOL     OW 5107   3.228   3.230   6.537
 1403SOL    HW1 5108   3.160   3.297   6.509
 1403SOL    HW2 5109   3.212   3.204   6.632
 1404SOL     OW 5110   3.808   0.017   0.429
 1404SOL    HW1 5111   3.817   6.931   0.407
 1404SOL    HW2 5112   3.760   0.064   0.355
 1405SOL     OW 5113   1.022   3.996   1.568
 1405SOL    HW1 5114   1.098   4.055   1.539
 1405SOL    HW2 5115   0.968   3.969   1.488
 1406SOL     OW 5116   2.329   3.279   0.927
 1406SOL    HW1 5117   2.272   3.360   0.912
 1406SOL    HW2 5118   2.273   3.204   0.960
 1407SOL     OW 5119   0.115   3.167   1.242
 1407SOL    HW1 5120   0.161   3.082   1.267
 1407SOL    HW2 5121   0.170   3.245   1.273
 1408SOL     OW 5122   5.502   6.697   1.014
 1408SOL    HW1 5123   5.457   6.772   1.064
 1408SOL    HW2 5124   5.548   6.637   1.079
 1409SOL     OW 5125   6.809   1.389   5.597
 1409SOL    HW1 5126   6.761   1.363   5.513
 1409SOL    HW2 5127   6.807   1.489   5.608
 1410SOL     OW 5128   3.949   0.863   5.995
 1410SOL    HW1 5129   3.893   0.802   5.939
 1410SOL    HW2 5130   4.028   0.893   5.941
 1411SOL     OW 5131   3.427   5.275   6.868
 1411SOL    HW1 5132   3.510   5.271   6.924
 1411SOL    HW2 5133   3.453   5.283   6.771
 1412SOL     OW 5134   2.348   3.075   0.192
 1412SOL    HW1 5135   2.400   2.997   0.157
 1412SOL    HW2 5136   2.304   3.122   0.116
 1413SOL     OW 5137   1.343   1.536   4.716
 1413SOL    HW1 5138   1.429   1.580   4.692
 1413SOL    HW2 5139   1.283   1.601   4.762
 1414SOL     OW 5140   0.865   4.406   2.521
 1414SOL    HW1 5141   0.923   4.392   2.601
 1414SOL    HW2 5142   0.848   4.504   2.509
 1415SOL     OW 5143   2.597   1.640   4.971
 1415SOL    HW1 5144   2.589   1.605   4.877
 1415SOL    HW2 5145   2.507   1.644   5.013
 1416SOL     OW 5146   4.570   0.532   4.550
 1416SOL    HW1 5147   4.646   0.529   4.616
 1416SOL    HW2 5148   4.592   0.598   4.477
 1417SOL     OW 5149   4.049   3.602   6.171
 1417SOL    HW1 5150   4.015   3.659   6.097
 1417SOL    HW2 5151   4.147   3.585   6.158
 1418SOL     OW 5152   4.022   4.162   5.882
 1418SOL    HW1 5153   3.952   4.112   5.934
 1418SOL    HW2 5154   4.070   4.226   5.943
 1419SOL     OW 5155   1.709   5.621   2.086
 1419SOL    HW1 5156   1.749   5.610   2.177
 1419SOL    HW2 5157   1.619   5.664   2.094
 1420SOL     OW 5158   2.743   6.951   2.842
 1420SOL    HW1 5159   2.711   0.019   2.894
 1420SOL    HW2 5160   2.776   6.881   2.905
 1421SOL     OW 5161   1.304   4.578   5.881
 1421SOL    HW1 5162   1.247   4.533   5.950
 1421SOL    HW2 5163   1.250   4.594   5.798
 1422SOL     OW 5164   2.059   3.111   6.496
 1422SOL    HW1 5165   2.044   3.087   6.400
 1422SOL    HW2 5166   2.054   3.211   6.506
 1423SOL     OW 5167   4.315   0.246   4.275
 1423SOL    HW1 5168   4.219   0.247   4.248
 1423SOL    HW2 5169   4.363   0.322   4.231
 1424SOL     OW 5170   5.936   2.867   0.134
 1424SOL    HW1 5171   5.921   2.955   0.178
 1424SOL    HW2 5172   6.034   2.846   0.132
 1425SOL     OW 5173   5.578   6.795   3.748
 1425SOL    HW1 5174   5.523   6.753   3.676
 1425SOL    HW2 5175   5.674   6.768   3.738
 1426SOL     OW 5176   3.382   1.851   0.018
 1426SOL    HW1 5177   3.409   1.796   6.951
 1426SOL    HW2 5178   3.358   1.944   6.999
 1427SOL     OW 5179   1.922   0.058   3.510
 1427SOL    HW1 5180   1.848   0.079   3.574
 1427SOL    HW2 5181   1.885   0.007   3.432
 1428SOL     OW 5182   0.443   2.391   3.934
 1428SOL    HW1 5183   0.419   2.392   3.837
 1428SOL    HW2 5184   0.541   2.412   3.943
 1429SOL     OW 5185   6.432   1.105   1.665
 1429SOL    HW1 5186   6.391   1.061   1.746
 1429SOL    HW2 5187   6.461   1.035   1.600
 1430SOL     OW 5188   2.147   3.425   4.144
 1430SOL    HW1 5189   2.067   3.454   4.197
 1430SOL    HW2 5190   2.165   3.328   4.159
 1431SOL     OW 5191   2.926   1.096   6.748
 1431SOL    HW1 5192   2.978   1.036   6.809
 1431SOL    HW2 5193   2.829   1.078   6.758
 1432SOL     OW 5194   3.365   1.150   2.216
 1432SOL    HW1 5195   3.431   1.212   2.174
 1432SOL    HW2 5196   3.390   1.134   2.311
 1433SOL     OW 5197   2.481   0.216   3.823
 1433SOL    HW1 5198   2.496   0.190   3.919
 1433SOL    HW2 5199   2.414   0.290   3.819
 1434SOL     OW 5200   0.084   3.232   0.468
 1434SOL    HW1 5201   0.069   3.314   0.412
 1434SOL    HW2 5202   0.073   3.255   0.564
 1435SOL     OW 5203   1.547   0.284   3.930
 1435SOL    HW1 5204   1.611   0.234   3.989
 1435SOL    HW2 5205   1.455   0.248   3.943
 1436SOL     OW 5206   5.137   1.294   0.076
 1436SOL    HW1 5207   5.132   1.336   6.996
 1436SOL    HW2 5208   5.204   1.219   0.074
 1437SOL     OW 5209   3.879   0.298   6.206
 1437SOL    HW1 5210   3.884   0.387   6.252
 1437SOL    HW2 5211   3.970   0.271   6.175
 1438SOL     OW 5212   2.000   0.482   2.339
 1438SOL    HW1 5213   2.059   0.412   2.299
 1438SOL    HW2 5214   1.996   0.471   2.438
 1439SOL     OW 5215   0.207   4.502   6.704
 1439SOL    HW1 5216   0.297   4.530   6.672
 1439SOL    HW2 5217   0.217   4.433   6.776
 1440SOL     OW 5218   3.315   3.056   3.267
 1440SOL    HW1 5219   3.336   3.012   3.180
 1440SOL    HW2 5220   3.389   3.038   3.332
 1441SOL     OW 5221   6.334   3.311   3.759
 1441SOL    HW1 5222   6.277   3.235   3.788
 1441SOL    HW2 5223   6.286   3.397   3.775
 1442SOL     OW 5224   5.446   6.501   6.939
 1442SOL    HW1 5225   5.435   6.408   6.903
 1442SOL    HW2 5226   5.515   6.549   6.886
 1443SOL     OW 5227   1.060   2.462   3.244
 1443SOL    HW1 5228   1.132   2.505   3.189
 1443SOL    HW2 5229   1.100   2.421   3.326
 1444SOL     OW 5230   5.535   0.792   4.704
 1444SOL    HW1 5231   5.613   0.750   4.750
 1444SOL    HW2 5232   5.524   0.752   4.613
 1445SOL     OW 5233   6.129   2.476   0.998
 1445SOL    HW1 5234   6.062   2.536   0.955
 1445SOL    HW2 5235   6.133   2.496   1.096
 1446SOL     OW 5236   4.410   0.439   0.941
 1446SOL    HW1 5237   4.409   0.381   1.023
 1446SOL    HW2 5238   4.432   0.533   0.967
 1447SOL     OW 5239   5.617   1.289   5.397
 1447SOL    HW1 5240   5.681   1.363   5.418
 1447SOL    HW2 5241   5.656   1.202   5.427
 1448SOL     OW 5242   5.333   0.414   6.787
 1448SOL    HW1 5243   5.344   0.334   6.845
 1448SOL    HW2 5244   5.369   0.395   6.696
 1449SOL     OW 5245   4.667   5.380   0.594
 1449SOL    HW1 5246   4.661   5.479   0.587
 1449SOL    HW2 5247   4.650   5.352   0.689
 1450SOL     OW 5248   5.524   2.067   3.868
 1450SOL    HW1 5249   5.449   2.132   3.855
 1450SOL    HW2 5250   5.603   2.096   3.815
 1451SOL     OW 5251   1.367   6.848   2.584
 1451SOL    HW1 5252   1.344   6.916   2.513
 1451SOL    HW2 5253   1.441   6.790   2.551
 1452SOL     OW 5254   4.643   0.764   5.014
 1452SOL    HW1 5255   4.630   0.717   5.102
 1452SOL    HW2 5256   4.694   0.848   5.029
 1453SOL     OW 5257   4.554   4.391   4.763
 1453SOL    HW1 5258   4.599   4.324   4.705
 1453SOL    HW2 5259   4.477   4.349   4.810
 1454SOL     OW 5260   4.520   4.031   1.428
 1454SOL    HW1 5261   4.500   3.980   1.344
 1454SOL    HW2 5262   4.460   4.110   1.434
 1455SOL     OW 5263   2.024   2.358   1.397
 1455SOL    HW1 5264   2.072   2.288   1.451
 1455SOL    HW2 5265   2.088   2.431   1.372
 1456SOL     OW 5266   6.911   5.293   4.158
 1456SOL    HW1 5267   6.872   5.242   4.081
 1456SOL    HW2 5268   6.981   5.356   4.124
 1457SOL     OW 5269   1.949   0.175   3.228
 1457SOL    HW1 5270   1.883   0.243   3.260
 1457SOL    HW2 5271   2.008   0.148   3.304
 1458SOL     OW 5272   6.588   5.520   0.044
 1458SOL    HW1 5273   6.523   5.506   0.118
 1458SOL    HW2 5274   6.593   5.438   6.999
 1459SOL     OW 5275   2.780   0.069   0.835
 1459SOL    HW1 5276   2.837   7.000   0.848
 1459SOL    HW2 5277   2.804   0.113   0.748
 1460SOL     OW 5278   0.550   6.401   0.115
 1460SOL    HW1 5279   0.524   6.309   0.145
 1460SOL    HW2 5280   0.643   6.421   0.145
 1461SOL     OW 5281   4.647   4.964   1.127
 1461SOL    HW1 5282   4.613   4.924   1.042
 1461SOL    HW2 5283   4.588   5.039   1.155
 1462SOL     OW 5284   5.357   0.143   5.738
 1462SOL    HW1 5285   5.317   0.192   5.660
 1462SOL    HW2 5286   5.285   0.094   5.787
 1463SOL     OW 5287   0.520   0.716   5.088
 1463SOL    HW1 5288   0.469   0.636   5.117
 1463SOL    HW2 5289   0.493   0.741   4.995
 1464SOL     OW 5290   6.787   6.790   1.515
 1464SOL    HW1 5291   6.729   6.716   1.549
 1464SOL    HW2 5292   6.744   6.878   1.534
 1465SOL     OW 5293   0.570   6.885   5.169
 1465SOL    HW1 5294   0.543   6.923   5.081
 1465SOL    HW2 5295   0.506   6.813   5.195
 1466SOL     OW 5296   5.267   5.484   4.301
 1466SOL    HW1 5297   5.356   5.510   4.339
 1466SOL    HW2 5298   5.281   5.428   4.219
 1467SOL     OW 5299   6.294   3.755   2.685
 1467SOL    HW1 5300   6.252   3.801   2.763
 1467SOL    HW2 5301   6.279   3.656   2.692
 1468SOL     OW 5302   5.221   6.290   2.618
 1468SOL    HW1 5303   5.295   6.223   2.622
 1468SOL    HW2 5304   5.254   6.375   2.576
 1469SOL     OW 5305   0.358   0.695   2.724
 1469SOL    HW1 5306   0.455   0.676   2.733
 1469SOL    HW2 5307   0.320   0.719   2.813
 1470SOL     OW 5308   0.100   1.068   3.244
 1470SOL    HW1 5309   0.137   0.996   3.303
 1470SOL    HW2 5310   0.067   1.144   3.300
 1471SOL     OW 5311   6.365   0.802   0.519
 1471SOL    HW1 5312   6.328   0.845   0.436
 1471SOL    HW2 5313   6.339   0.706   0.521
 1472SOL     OW 5314   4.389   6.156   5.160
 1472SOL    HW1 5315   4.449   6.154   5.080
 1472SOL    HW2 5316   4.444   6.156   5.243
 1473SOL     OW 5317   5.972   4.616   4.155
 1473SOL    HW1 5318   5.999   4.521   4.165
 1473SOL    HW2 5319   6.052   4.673   4.136
 1474SOL     OW 5320   4.844   4.897   3.623
 1474SOL    HW1 5321   4.922   4.956   3.604
 1474SOL    HW2 5322   4.784   4.941   3.689
 1475SOL     OW 5323   6.763   0.791   3.098
 1475SOL    HW1 5324   6.839   0.797   3.162
 1475SOL    HW2 5325   6.772   0.862   3.028
 1476SOL     OW 5326   6.483   2.303   1.196
 1476SOL    HW1 5327   6.511   2.399   1.187
 1476SOL    HW2 5328   6.393   2.300   1.240
 1477SOL     OW 5329   3.123   6.613   2.995
 1477SOL    HW1 5330   3.118   6.593   3.093
 1477SOL    HW2 5331   3.109   6.711   2.980
 1478SOL     OW 5332   6.785   4.494   1.956
 1478SOL    HW1 5333   6.742   4.537   2.036
 1478SOL    HW2 5334   6.795   4.396   1.973
 1479SOL     OW 5335   1.448   5.725   0.582
 1479SOL    HW1 5336   1.446   5.790   0.659
 1479SOL    HW2 5337   1.355   5.709   0.550
 1480SOL     OW 5338   2.672   1.034   6.808
 1480SOL    HW1 5339   2.663   0.935   6.793
 1480SOL    HW2 5340   2.627   1.059   6.893
 1481SOL     OW 5341   6.882   2.499   5.894
 1481SOL    HW1 5342   6.956   2.562   5.870
 1481SOL    HW2 5343   6.816   2.546   5.953
 1482SOL     OW 5344   6.137   0.736   6.506
 1482SOL    HW1 5345   6.187   0.811   6.549
 1482SOL    HW2 5346   6.118   0.665   6.574
 1483SOL     OW 5347   6.338   2.833   6.354
 1483SOL    HW1 5348   6.314   2.786   6.270
 1483SOL    HW2 5349   6.432   2.868   6.347
 1484SOL     OW 5350   6.221   6.522   2.699
 1484SOL    HW1 5351   6.186   6.490   2.788
 1484SOL    HW2 5352   6.192   6.458   2.628
 1485SOL     OW 5353   5.738   2.839   4.102
 1485SOL    HW1 5354   5.710   2.765   4.163
 1485SOL    HW2 5355   5.689   2.922   4.125
 1486SOL     OW 5356   4.803   1.896   2.377
 1486SOL    HW1 5357   4.704   1.901   2.366
 1486SOL    HW2 5358   4.825   1.838   2.456
 1487SOL     OW 5359   6.109   1.413   5.403
 1487SOL    HW1 5360   6.067   1.324   5.390
 1487SOL    HW2 5361   6.038   1.480   5.425
 1488SOL     OW 5362   4.082   1.950   2.846
 1488SOL    HW1 5363   4.047   1.886   2.777
 1488SOL    HW2 5364   4.114   2.033   2.802
 1489SOL     OW 5365   3.552   4.948   4.532
 1489SOL    HW1 5366   3.647   4.937   4.559
 1489SOL    HW2 5367   3.541   5.036   4.485
 1490SOL     OW 5368   2.222   2.410   0.697
 1490SOL    HW1 5369   2.212   2.474   0.620
 1490SOL    HW2 5370   2.318   2.387   0.709
 1491SOL     OW 5371   0.032   2.282   5.509
 1491SOL    HW1 5372   0.105   2.251   5.570
 1491SOL    HW2 5373   0.069   2.350   5.446
 1492SOL     OW 5374   5.483   2.830   2.286
 1492SOL    HW1 5375   5.551   2.758   2.269
 1492SOL    HW2 5376   5.399   2.808   2.236
 1493SOL     OW 5377   5.556   0.594   4.996
 1493SOL    HW1 5378   5.495   0.517   4.975
 1493SOL    HW2 5379   5.509   0.659   5.055
 1494SOL     OW 5380   5.412   2.404   4.513
 1494SOL    HW1 5381   5.394   2.501   4.526
 1494SOL    HW2 5382   5.466   2.369   4.589
 1495SOL     OW 5383   2.027   2.676   2.294
 1495SOL    HW1 5384   2.116   2.709   2.261
 1495SOL    HW2 5385   2.011   2.584   2.257
 1496SOL     OW 5386   0.630   1.105   3.249
 1496SOL    HW1 5387   0.632   1.205   3.251
 1496SOL    HW2 5388   0.721   1.070   3.228
 1497SOL     OW 5389   4.942   4.670   5.659
 1497SOL    HW1 5390   5.041   4.664   5.648
 1497SOL    HW2 5391   4.916   4.766   5.668
 1498SOL     OW 5392   1.884   5.543   0.047
 1498SOL    HW1 5393   1.970   5.568   0.003
 1498SOL    HW2 5394   1.891   5.450   0.083
 1499SOL     OW 5395   0.574   4.967   5.168
 1499SOL    HW1 5396   0.513   4.892   5.194
 1499SOL    HW2 5397   0.660   4.959   5.217
 1500SOL     OW 5398   4.187   6.615   5.350
 1500SOL    HW1 5399   4.278   6.585   5.322
 1500SOL    HW2 5400   4.138   6.651   5.271
 1501SOL     OW 5401   4.273   0.329   6.278
 1501SOL    HW1 5402   4.273   0.424   6.311
 1501SOL    HW2 5403   4.284   0.267   6.356
 1502SOL     OW 5404   6.542   6.237   0.230
 1502SOL    HW1 5405   6.572   6.306   0.165
 1502SOL    HW2 5406   6.533   6.149   0.183
 1503SOL     OW 5407   3.273   3.723   5.552
 1503SOL    HW1 5408   3.272   3.650   5.484
 1503SOL    HW2 5409   3.307   3.807   5.509
 1504SOL     OW 5410   2.818   6.116   4.351
 1504SOL    HW1 5411   2.748   6.049   4.326
 1504SOL    HW2 5412   2.884   6.126   4.276
 1505SOL     OW 5413   4.836   5.272   1.281
 1505SOL    HW1 5414   4.862   5.368   1.290
 1505SOL    HW2 5415   4.881   5.231   1.202
 1506SOL     OW 5416   0.607   6.611   2.724
 1506SOL    HW1 5417   0.584   6.566   2.810
 1506SOL    HW2 5418   0.535   6.675   2.698
 1507SOL     OW 5419   2.232   1.026   6.004
 1507SOL    HW1 5420   2.318   0.977   5.986
 1507SOL    HW2 5421   2.251   1.123   6.019
 1508SOL     OW 5422   4.687   0.082   0.327
 1508SOL    HW1 5423   4.630   0.158   0.297
 1508SOL    HW2 5424   4.782   0.112   0.334
 1509SOL     OW 5425   5.051   1.670   0.468
 1509SOL    HW1 5426   5.032   1.767   0.484
 1509SOL    HW2 5427   5.079   1.626   0.553
 1510SOL     OW 5428   0.381   1.462   4.008
 1510SOL    HW1 5429   0.464   1.471   4.063
 1510SOL    HW2 5430   0.403   1.477   3.911
 1511SOL     OW 5431   2.067   2.100   0.565
 1511SOL    HW1 5432   2.094   2.193   0.590
 1511SOL    HW2 5433   2.139   2.058   0.509
 1512SOL     OW 5434   6.076   0.499   2.680
 1512SOL    HW1 5435   6.037   0.439   2.611
 1512SOL    HW2 5436   6.132   0.569   2.635
 1513SOL     OW 5437   4.003   1.292   2.415
 1513SOL    HW1 5438   3.982   1.342   2.331
 1513SOL    HW2 5439   3.944   1.325   2.489
 1514SOL     OW 5440   5.105   1.699   5.521
 1514SOL    HW1 5441   5.168   1.711   5.444
 1514SOL    HW2 5442   5.023   1.753   5.506
 1515SOL     OW 5443   6.406   4.665   5.032
 1515SOL    HW1 5444   6.428   4.644   5.127
 1515SOL    HW2 5445   6.432   4.759   5.011
 1516SOL     OW 5446   0.906   1.324   0.976
 1516SOL    HW1 5447   0.872   1.281   1.059
 1516SOL    HW2 5448   0.844   1.304   0.900
 1517SOL     OW 5449   3.468   5.063   3.218
 1517SOL    HW1 5450   3.551   5.106   3.184
 1517SOL    HW2 5451   3.490   5.004   3.296
 1518SOL     OW 5452   0.707   4.784   1.396
 1518SOL    HW1 5453   0.731   4.687   1.399
 1518SOL    HW2 5454   0.770   4.836   1.455
 1519SOL     OW 5455   6.743   4.922   0.984
 1519SOL    HW1 5456   6.809   4.863   0.938
 1519SOL    HW2 5457   6.785   5.010   1.006
 1520SOL     OW 5458   1.255   2.888   3.353
 1520SOL    HW1 5459   1.317   2.941   3.411
 1520SOL    HW2 5460   1.279   2.902   3.257
 1521SOL     OW 5461   2.390   4.213   5.808
 1521SOL    HW1 5462   2.316   4.256   5.757
 1521SOL    HW2 5463   2.353   4.139   5.865
 1522SOL     OW 5464   7.004   2.306   6.538
 1522SOL    HW1 5465   6.927   2.253   6.571
 1522SOL    HW2 5466   0.075   2.250   6.537
 1523SOL     OW 5467   6.671   1.436   1.063
 1523SOL    HW1 5468   6.621   1.490   0.995
 1523SOL    HW2 5469   6.697   1.494   1.140
 1524SOL     OW 5470   6.452   0.772   2.820
 1524SOL    HW1 5471   6.454   0.672   2.812
 1524SOL    HW2 5472   6.544   0.809   2.807
 1525SOL     OW 5473   4.409   1.575   5.919
 1525SOL    HW1 5474   4.349   1.499   5.896
 1525SOL    HW2 5475   4.354   1.656   5.940
 1526SOL     OW 5476   6.974   2.034   1.095
 1526SOL    HW1 5477   6.998   1.970   1.022
 1526SOL    HW2 5478   6.964   1.984   1.181
 1527SOL     OW 5479   3.139   2.027   5.515
 1527SOL    HW1 5480   3.163   2.023   5.612
 1527SOL    HW2 5481   3.064   1.963   5.496
 1528SOL     OW 5482   5.188   6.048   3.362
 1528SOL    HW1 5483   5.255   6.022   3.431
 1528SOL    HW2 5484   5.134   5.968   3.336
 1529SOL     OW 5485   3.022   0.680   5.543
 1529SOL    HW1 5486   3.051   0.717   5.455
 1529SOL    HW2 5487   3.100   0.636   5.588
 1530SOL     OW 5488   3.648   0.181   2.160
 1530SOL    HW1 5489   3.609   0.205   2.249
 1530SOL    HW2 5490   3.646   0.082   2.148
 1531SOL     OW 5491   6.832   0.255   5.257
 1531SOL    HW1 5492   6.860   0.292   5.345
 1531SOL    HW2 5493   6.773   0.321   5.210
 1532SOL     OW 5494   2.991   2.025   5.109
 1532SOL    HW1 5495   3.061   2.092   5.083
 1532SOL    HW2 5496   3.026   1.933   5.092
 1533SOL     OW 5497   5.729   3.034   6.900
 1533SOL    HW1 5498   5.662   3.048   6.972
 1533SOL    HW2 5499   5.741   2.936   6.883
 1534SOL     OW 5500   0.211   6.550   1.420
 1534SOL    HW1 5501   0.263   6.577   1.500
 1534SOL    HW2 5502   0.196   6.451   1.421
 1535SOL     OW 5503   4.945   5.303   4.299
 1535SOL    HW1 5504   4.907   5.370   4.362
 1535SOL    HW2 5505   5.033   5.336   4.265
 1536SOL     OW 5506   2.691   5.690   3.692
 1536SOL    HW1 5507   2.748   5.767   3.722
 1536SOL    HW2 5508   2.708   5.671   3.596
 1537SOL     OW 5509   2.914   5.144   4.568
 1537SOL    HW1 5510   2.877   5.187   4.650
 1537SOL    HW2 5511   2.838   5.115   4.509
 1538SOL     OW 5512   2.118   5.076   6.794
 1538SOL    HW1 5513   2.139   5.015   6.871
 1538SOL    HW2 5514   2.176   5.051   6.716
 1539SOL     OW 5515   3.232   4.735   1.725
 1539SOL    HW1 5516   3.295   4.659   1.707
 1539SOL    HW2 5517   3.138   4.704   1.714
 1540SOL     OW 5518   0.255   6.845   5.164
 1540SOL    HW1 5519   0.250   6.809   5.071
 1540SOL    HW2 5520   0.163   6.864   5.197
 1541SOL     OW 5521   5.149   2.285   1.272
 1541SOL    HW1 5522   5.095   2.357   1.317
 1541SOL    HW2 5523   5.113   2.195   1.298
 1542SOL     OW 5524   0.857   6.454   1.010
 1542SOL    HW1 5525   0.818   6.399   1.084
 1542SOL    HW2 5526   0.797   6.532   0.992
 1543SOL     OW 5527   3.157   3.811   4.238
 1543SOL    HW1 5528   3.179   3.771   4.149
 1543SOL    HW2 5529   3.199   3.902   4.245
 1544SOL     OW 5530   3.974   3.812   3.110
 1544SOL    HW1 5531   3.957   3.869   3.190
 1544SOL    HW2 5532   4.043   3.743   3.133
 1545SOL     OW 5533   6.390   0.922   4.951
 1545SOL    HW1 5534   6.348   1.000   4.997
 1545SOL    HW2 5535   6.348   0.911   4.860
 1546SOL     OW 5536   6.947   6.548   5.955
 1546SOL    HW1 5537   6.888   6.579   6.030
 1546SOL    HW2 5538   6.901   6.474   5.905
 1547SOL     OW 5539   3.993   5.863   6.956
 1547SOL    HW1 5540   3.958   5.857   6.863
 1547SOL    HW2 5541   4.000   5.771   6.995
 1548SOL     OW 5542   6.275   4.601   3.877
 1548SOL    HW1 5543   6.233   4.588   3.787
 1548SOL    HW2 5544   6.216   4.659   3.934
 1549SOL     OW 5545   6.477   1.530   1.464
 1549SOL    HW1 5546   6.476   1.602   1.394
 1549SOL    HW2 5547   6.542   1.459   1.438
 1550SOL     OW 5548   2.510   6.041   3.729
 1550SOL    HW1 5549   2.602   6.057   3.695
 1550SOL    HW2 5550   2.492   5.943   3.734
 1551SOL     OW 5551   1.382   2.919   1.198
 1551SOL    HW1 5552   1.424   2.829   1.212
 1551SOL    HW2 5553   1.450   2.981   1.158
 1552SOL     OW 5554   0.581   0.152   0.428
 1552SOL    HW1 5555   0.646   0.220   0.394
 1552SOL    HW2 5556   0.539   0.104   0.351
 1553SOL     OW 5557   5.829   1.697   6.463
 1553SOL    HW1 5558   5.772   1.704   6.380
 1553SOL    HW2 5559   5.778   1.650   6.534
 1554SOL     OW 5560   3.160   1.510   0.765
 1554SOL    HW1 5561   3.200   1.493   0.855
 1554SOL    HW2 5562   3.079   1.452   0.753
 1555SOL     OW 5563   4.504   0.969   5.791
 1555SOL    HW1 5564   4.565   0.953   5.713
 1555SOL    HW2 5565   4.517   0.897   5.859
 1556SOL     OW 5566   3.427   1.865   0.282
 1556SOL    HW1 5567   3.376   1.937   0.329
 1556SOL    HW2 5568   3.402   1.864   0.186
 1557SOL     OW 5569   1.721   2.605   0.359
 1557SOL    HW1 5570   1.761   2.545   0.428
 1557SOL    HW2 5571   1.772   2.691   0.356
 1558SOL     OW 5572   5.518   2.789   6.632
 1558SOL    HW1 5573   5.482   2.790   6.538
 1558SOL    HW2 5574   5.617   2.780   6.629
 1559SOL     OW 5575   2.280   5.492   3.736
 1559SOL    HW1 5576   2.294   5.411   3.792
 1559SOL    HW2 5577   2.329   5.569   3.777
 1560SOL     OW 5578   3.906   1.674   0.765
 1560SOL    HW1 5579   3.928   1.607   0.836
 1560SOL    HW2 5580   3.835   1.637   0.705
 1561SOL     OW 5581   6.263   6.020   1.016
 1561SOL    HW1 5582   6.237   6.087   0.947
 1561SOL    HW2 5583   6.213   5.935   1.001
 1562SOL     OW 5584   4.017   6.929   2.246
 1562SOL    HW1 5585   3.950   6.880   2.190
 1562SOL    HW2 5586   4.109   6.905   2.216
 1563SOL     OW 5587   2.980   2.215   4.115
 1563SOL    HW1 5588   2.959   2.206   4.212
 1563SOL    HW2 5589   2.924   2.151   4.063
 1564SOL     OW 5590   0.945   1.625   3.571
 1564SOL    HW1 5591   0.930   1.686   3.493
 1564SOL    HW2 5592   0.991   1.542   3.540
 1565SOL     OW 5593   4.101   1.139   4.704
 1565SOL    HW1 5594   4.119   1.154   4.801
 1565SOL    HW2 5595   4.033   1.205   4.672
 1566SOL     OW 5596   5.015   4.741   3.786
 1566SOL    HW1 5597   4.963   4.810   3.736
 1566SOL    HW2 5598   5.079   4.696   3.724
 1567SOL     OW 5599   5.726   0.617   4.792
 1567SOL    HW1 5600   5.715   0.546   4.723
 1567SOL    HW2 5601   5.668   0.597   4.871
 1568SOL     OW 5602   2.899   5.064   1.431
 1568SOL    HW1 5603   2.974   5.127   1.454
 1568SOL    HW2 5604   2.816   5.093   1.479
 1569SOL     OW 5605   3.253   0.729   2.781
 1569SOL    HW1 5606   3.349   0.712   2.804
 1569SOL    HW2 5607   3.193   0.675   2.840
 1570SOL     OW 5608   3.070   6.004   6.274
 1570SOL    HW1 5609   3.028   5.940   6.338
 1570SOL    HW2 5610   3.031   5.990   6.183
 1571SOL     OW 5611   0.462   2.332   4.513
 1571SOL    HW1 5612   0.504   2.250   4.553
 1571SOL    HW2 5613   0.521   2.367   4.441
 1572SOL     OW 5614   2.354   5.466   2.260
 1572SOL    HW1 5615   2.377   5.512   2.175
 1572SOL    HW2 5616   2.324   5.533   2.328
 1573SOL     OW 5617   5.928   6.282   0.497
 1573SOL    HW1 5618   5.881   6.257   0.412
 1573SOL    HW2 5619   5.972   6.201   0.536
 1574SOL     OW 5620   6.635   4.032   3.514
 1574SOL    HW1 5621   6.669   3.950   3.561
 1574SOL    HW2 5622   6.547   4.011   3.471
 1575SOL     OW 5623   6.541   1.672   0.086
 1575SOL    HW1 5624   6.596   1.623   0.018
 1575SOL    HW2 5625   6.600   1.702   0.161
 1576SOL     OW 5626   0.997   0.225   1.648
 1576SOL    HW1 5627   1.043   0.150   1.696
 1576SOL    HW2 5628   0.963   0.192   1.560
 1577SOL     OW 5629   4.023   5.688   5.523
 1577SOL    HW1 5630   4.113   5.730   5.512
 1577SOL    HW2 5631   3.967   5.707   5.442
 1578SOL     OW 5632   4.772   1.070   1.204
 1578SOL    HW1 5633   4.792   0.975   1.179
 1578SOL    HW2 5634   4.855   1.116   1.233
 1579SOL     OW 5635   1.971   2.217   1.138
 1579SOL    HW1 5636   2.025   2.260   1.067
 1579SOL    HW2 5637   1.981   2.269   1.223
 1580SOL     OW 5638   3.316   3.530   2.703
 1580SOL    HW1 5639   3.227   3.487   2.719
 1580SOL    HW2 5640   3.305   3.608   2.641
 1581SOL     OW 5641   6.298   4.572   5.695
 1581SOL    HW1 5642   6.355   4.490   5.694
 1581SOL    HW2 5643   6.356   4.653   5.689
 1582SOL     OW 5644   4.526   6.320   5.366
 1582SOL    HW1 5645   4.599   6.270   5.413
 1582SOL    HW2 5646   4.447   6.329   5.427
 1583SOL     OW 5647   0.960   4.979   4.991
 1583SOL    HW1 5648   1.047   5.025   4.975
 1583SOL    HW2 5649   0.897   5.042   5.037
 1584SOL     OW 5650   0.175   4.681   0.224
 1584SOL    HW1 5651   0.135   4.625   0.152
 1584SOL    HW2 5652   0.252   4.733   0.187
 1585SOL     OW 5653   3.770   6.365   3.311
 1585SOL    HW1 5654   3.757   6.436   3.380
 1585SOL    HW2 5655   3.690   6.362   3.251
 1586SOL     OW 5656   3.514   5.622   3.689
 1586SOL    HW1 5657   3.458   5.663   3.617
 1586SOL    HW2 5658   3.458   5.610   3.772
 1587SOL     OW 5659   2.761   6.007   6.885
 1587SOL    HW1 5660   2.795   6.030   6.976
 1587SOL    HW2 5661   2.711   5.920   6.889
 1588SOL     OW 5662   6.494   1.591   3.417
 1588SOL    HW1 5663   6.511   1.677   3.465
 1588SOL    HW2 5664   6.431   1.607   3.341
 1589SOL     OW 5665   6.022   4.548   4.437
 1589SOL    HW1 5666   5.983   4.549   4.345
 1589SOL    HW2 5667   6.090   4.620   4.446
 1590SOL     OW 5668   6.587   2.783   3.712
 1590SOL    HW1 5669   6.602   2.800   3.614
 1590SOL    HW2 5670   6.569   2.870   3.758
 1591SOL     OW 5671   1.385   6.603   1.345
 1591SOL    HW1 5672   1.397   6.615   1.246
 1591SOL    HW2 5673   1.328   6.677   1.380
 1592SOL     OW 5674   0.041   4.418   5.912
 1592SOL    HW1 5675   0.042   4.377   5.821
 1592SOL    HW2 5676   0.071   4.352   5.979
 1593SOL     OW 5677   3.525   0.241   6.736
 1593SOL    HW1 5678   3.600   0.285   6.688
 1593SOL    HW2 5679   3.553   0.149   6.765
 1594SOL     OW 5680   5.962   0.082   2.950
 1594SOL    HW1 5681   5.867   0.053   2.948
 1594SOL    HW2 5682   6.015   0.027   2.885
 1595SOL     OW 5683   0.619   3.940   0.324
 1595SOL    HW1 5684   0.627   3.841   0.340
 1595SOL    HW2 5685   0.564   3.982   0.396
 1596SOL     OW 5686   4.418   4.868   2.862
 1596SOL    HW1 5687   4.384   4.936   2.797
 1596SOL    HW2 5688   4.395   4.776   2.828
 1597SOL     OW 5689   3.857   5.946   6.675
 1597SOL    HW1 5690   3.867   5.958   6.576
 1597SOL    HW2 5691   3.870   6.035   6.721
 1598SOL     OW 5692   1.444   4.826   0.127
 1598SOL    HW1 5693   1.394   4.740   0.125
 1598SOL    HW2 5694   1.392   4.896   0.078
 1599SOL     OW 5695   4.514   5.694   3.410
 1599SOL    HW1 5696   4.474   5.606   3.435
 1599SOL    HW2 5697   4.447   5.767   3.430
 1600SOL     OW 5698   4.283   6.918   1.997
 1600SOL    HW1 5699   4.239   6.920   1.907
 1600SOL    HW2 5700   4.246   6.843   2.051
 1601SOL     OW 5701   6.859   6.940   4.778
 1601SOL    HW1 5702   6.864   6.998   4.859
 1601SOL    HW2 5703   6.937   6.961   4.718
 1602SOL     OW 5704   3.678   5.408   3.789
 1602SOL    HW1 5705   3.682   5.420   3.888
 1602SOL    HW2 5706   3.623   5.481   3.749
 1603SOL     OW 5707   3.557   5.546   2.950
 1603SOL    HW1 5708   3.625   5.489   2.903
 1603SOL    HW2 5709   3.559   5.527   3.048
 1604SOL     OW 5710   4.190   5.317   1.923
 1604SOL    HW1 5711   4.244   5.389   1.967
 1604SOL    HW2 5712   4.093   5.331   1.943
 1605SOL     OW 5713   4.540   5.610   0.840
 1605SOL    HW1 5714   4.607   5.612   0.766
 1605SOL    HW2 5715   4.529   5.701   0.878
 1606SOL     OW 5716   3.563   5.882   4.963
 1606SOL    HW1 5717   3.522   5.803   5.010
 1606SOL    HW2 5718   3.513   5.899   4.878
 1607SOL     OW 5719   4.520   5.742   2.917
 1607SOL    HW1 5720   4.598   5.704   2.867
 1607SOL    HW2 5721   4.553   5.801   2.991
 1608SOL     OW 5722   5.164   1.319   3.287
 1608SOL    HW1 5723   5.225   1.292   3.212
 1608SOL    HW2 5724   5.219   1.355   3.363
 1609SOL     OW 5725   2.434   6.661   0.990
 1609SOL    HW1 5726   2.401   6.750   0.959
 1609SOL    HW2 5727   2.390   6.589   0.936
 1610SOL     OW 5728   5.454   0.516   0.526
 1610SOL    HW1 5729   5.508   0.465   0.458
 1610SOL    HW2 5730   5.391   0.578   0.480
 1611SOL     OW 5731   1.585   4.173   1.379
 1611SOL    HW1 5732   1.575   4.185   1.478
 1611SOL    HW2 5733   1.519   4.105   1.348
 1612SOL     OW 5734   3.543   0.209   1.902
 1612SOL    HW1 5735   3.504   0.301   1.897
 1612SOL    HW2 5736   3.551   0.181   1.998
 1613SOL     OW 5737   6.519   5.336   2.502
 1613SOL    HW1 5738   6.566   5.379   2.580
 1613SOL    HW2 5739   6.503   5.239   2.522
 1614SOL     OW 5740   6.343   1.630   6.363
 1614SOL    HW1 5741   6.350   1.652   6.460
 1614SOL    HW2 5742   6.331   1.714   6.310
 1615SOL     OW 5743   1.057   4.430   6.480
 1615SOL    HW1 5744   0.999   4.503   6.445
 1615SOL    HW2 5745   1.148   4.466   6.502
 1616SOL     OW 5746   2.107   1.465   4.732
 1616SOL    HW1 5747   2.200   1.478   4.765
 1616SOL    HW2 5748   2.108   1.408   4.650
 1617SOL     OW 5749   5.799   6.224   3.211
 1617SOL    HW1 5750   5.871   6.206   3.278
 1617SOL    HW2 5751   5.820   6.308   3.162
 1618SOL     OW 5752   2.972   5.528   3.144
 1618SOL    HW1 5753   2.987   5.478   3.230
 1618SOL    HW2 5754   3.057   5.532   3.092
 1619SOL     OW 5755   1.279   4.281   6.827
 1619SOL    HW1 5756   1.283   4.231   6.914
 1619SOL    HW2 5757   1.331   4.231   6.758
 1620SOL     OW 5758   3.513   5.136   6.000
 1620SOL    HW1 5759   3.437   5.199   5.984
 1620SOL    HW2 5760   3.497   5.086   6.085
 1621SOL     OW 5761   5.081   5.875   1.165
 1621SOL    HW1 5762   5.171   5.875   1.209
 1621SOL    HW2 5763   5.089   5.840   1.072
 1622SOL     OW 5764   6.935   5.071   4.337
 1622SOL    HW1 5765   6.998   5.013   4.285
 1622SOL    HW2 5766   6.921   5.157   4.289
 1623SOL     OW 5767   0.706   2.159   4.230
 1623SOL    HW1 5768   0.753   2.091   4.173
 1623SOL    HW2 5769   0.624   2.191   4.184
 1624SOL     OW 5770   4.161   1.813   0.655
 1624SOL    HW1 5771   4.091   1.804   0.727
 1624SOL    HW2 5772   4.216   1.895   0.672
 1625SOL     OW 5773   0.802   5.788   0.913
 1625SOL    HW1 5774   0.750   5.766   0.830
 1625SOL    HW2 5775   0.862   5.867   0.896
 1626SOL     OW 5776   2.936   2.257   1.277
 1626SOL    HW1 5777   2.914   2.324   1.349
 1626SOL    HW2 5778   3.035   2.250   1.268
 1627SOL     OW 5779   4.330   1.724   5.192
 1627SOL    HW1 5780   4.294   1.813   5.165
 1627SOL    HW2 5781   4.383   1.685   5.117
 1628SOL     OW 5782   5.706   6.822   0.444
 1628SOL    HW1 5783   5.689   6.789   0.351
 1628SOL    HW2 5784   5.622   6.862   0.480
 1629SOL     OW 5785   1.869   0.320   3.778
 1629SOL    HW1 5786   1.837   0.234   3.818
 1629SOL    HW2 5787   1.810   0.345   3.702
 1630SOL     OW 5788   0.346   3.985   6.750
 1630SOL    HW1 5789   0.441   4.014   6.746
 1630SOL    HW2 5790   0.342   3.885   6.760
 1631SOL     OW 5791   0.072   3.538   0.002
 1631SOL    HW1 5792   0.025   3.569   6.931
 1631SOL    HW2 5793   0.151   3.597   0.019
 1632SOL     OW 5794   6.475   5.085   2.563
 1632SOL    HW1 5795   6.414   5.007   2.548
 1632SOL    HW2 5796   6.518   5.077   2.653
 1633SOL     OW 5797   5.563   3.567   4.097
 1633SOL    HW1 5798   5.544   3.646   4.155
 1633SOL    HW2 5799   5.536   3.483   4.144
 1634SOL     OW 5800   6.448   1.356   4.519
 1634SOL    HW1 5801   6.452   1.345   4.618
 1634SOL    HW2 5802   6.492   1.442   4.493
 1635SOL     OW 5803   4.042   6.359   3.147
 1635SOL    HW1 5804   4.042   6.295   3.069
 1635SOL    HW2 5805   3.954   6.352   3.195
 1636SOL     OW 5806   6.146   6.032   1.617
 1636SOL    HW1 5807   6.236   6.056   1.655
 1636SOL    HW2 5808   6.097   5.975   1.683
 1637SOL     OW 5809   0.500   6.927   1.639
 1637SOL    HW1 5810   0.551   6.998   1.591
 1637SOL    HW2 5811   0.436   6.883   1.576
 1638SOL     OW 5812   6.317   2.977   1.871
 1638SOL    HW1 5813   6.244   3.006   1.808
 1638SOL    HW2 5814   6.379   2.915   1.823
 1639SOL     OW 5815   5.606   2.486   2.593
 1639SOL    HW1 5816   5.584   2.390   2.613
 1639SOL    HW2 5817   5.658   2.525   2.669
 1640SOL     OW 5818   6.775   0.328   7.003
 1640SOL    HW1 5819   6.822   0.251   0.035
 1640SOL    HW2 5820   6.695   0.353   0.046
 1641SOL     OW 5821   6.447   2.492   3.052
 1641SOL    HW1 5822   6.427   2.521   3.145
 1641SOL    HW2 5823   6.487   2.400   3.053
 1642SOL     OW 5824   6.671   2.572   6.064
 1642SOL    HW1 5825   6.572   2.581   6.073
 1642SOL    HW2 5826   6.716   2.643   6.120
 1643SOL     OW 5827   2.296   6.209   3.727
 1643SOL    HW1 5828   2.350   6.125   3.715
 1643SOL    HW2 5829   2.321   6.275   3.656
 1644SOL     OW 5830   6.028   2.630   1.524
 1644SOL    HW1 5831   6.114   2.680   1.508
 1644SOL    HW2 5832   5.994   2.650   1.616
 1645SOL     OW 5833   2.019   0.883   5.347
 1645SOL    HW1 5834   1.962   0.933   5.412
 1645SOL    HW2 5835   1.995   0.786   5.349
 1646SOL     OW 5836   1.177   5.173   1.019
 1646SOL    HW1 5837   1.239   5.179   1.097
 1646SOL    HW2 5838   1.193   5.250   0.958
 1647SOL     OW 5839   5.695   2.603   3.931
 1647SOL    HW1 5840   5.644   2.533   3.981
 1647SOL    HW2 5841   5.692   2.690   3.981
 1648SOL     OW 5842   5.316   5.878   1.312
 1648SOL    HW1 5843   5.303   5.904   1.408
 1648SOL    HW2 5844   5.395   5.816   1.306
 1649SOL     OW 5845   3.546   0.898   3.567
 1649SOL    HW1 5846   3.583   0.865   3.480
 1649SOL    HW2 5847   3.565   0.832   3.639
 1650SOL     OW 5848   2.872   4.174   6.868
 1650SOL    HW1 5849   2.921   4.094   6.832
 1650SOL    HW2 5850   2.789   4.188   6.814
 1651SOL     OW 5851   0.890   2.714   3.304
 1651SOL    HW1 5852   0.852   2.757   3.222
 1651SOL    HW2 5853   0.956   2.643   3.276
 1652SOL     OW 5854   0.315   3.183   1.518
 1652SOL    HW1 5855   0.281   3.100   1.475
 1652SOL    HW2 5856   0.287   3.263   1.465
 1653SOL     OW 5857   0.278   4.697   2.913
 1653SOL    HW1 5858   0.258   4.752   2.831
 1653SOL    HW2 5859   0.193   4.677   2.962
 1654SOL     OW 5860   6.657   3.206   2.218
 1654SOL    HW1 5861   6.613   3.119   2.240
 1654SOL    HW2 5862   6.742   3.189   2.168
 1655SOL     OW 5863   0.234   6.816   4.888
 1655SOL    HW1 5864   0.329   6.814   4.856
 1655SOL    HW2 5865   0.180   6.750   4.835
 1656SOL     OW 5866   2.166   4.590   3.216
 1656SOL    HW1 5867   2.254   4.633   3.196
 1656SOL    HW2 5868   2.173   4.491   3.202
 1657SOL     OW 5869   1.085   6.511   5.578
 1657SOL    HW1 5870   1.031   6.506   5.662
 1657SOL    HW2 5871   1.180   6.490   5.598
 1658SOL     OW 5872   6.307   0.113   6.554
 1658SOL    HW1 5873   6.318   0.101   6.653
 1658SOL    HW2 5874   6.352   0.198   6.526
 1659SOL     OW 5875   4.570   6.653   6.486
 1659SOL    HW1 5876   4.583   6.752   6.478
 1659SOL    HW2 5877   4.618   6.620   6.567
 1660SOL     OW 5878   2.813   0.401   2.289
 1660SOL    HW1 5879   2.822   0.472   2.359
 1660SOL    HW2 5880   2.737   0.340   2.313
 1661SOL     OW 5881   4.129   4.799   2.505
 1661SOL    HW1 5882   4.149   4.774   2.411
 1661SOL    HW2 5883   4.057   4.868   2.507
 1662SOL     OW 5884   0.124   1.534   4.941
 1662SOL    HW1 5885   0.149   1.587   4.860
 1662SOL    HW2 5886   0.027   1.510   4.937
 1663SOL     OW 5887   4.778   4.663   0.419
 1663SOL    HW1 5888   4.714   4.687   0.492
 1663SOL    HW2 5889   4.757   4.572   0.384
 1664SOL     OW 5890   1.113   6.876   5.635
 1664SOL    HW1 5891   1.127   6.808   5.562
 1664SOL    HW2 5892   1.016   6.881   5.658
 1665SOL     OW 5893   2.564   4.260   0.156
 1665SOL    HW1 5894   2.517   4.238   0.241
 1665SOL    HW2 5895   2.627   4.187   0.132
 1666SOL     OW 5896   5.767   6.776   6.333
 1666SOL    HW1 5897   5.756   6.761   6.235
 1666SOL    HW2 5898   5.849   6.831   6.349
 1667SOL     OW 5899   0.339   6.103   1.192
 1667SOL    HW1 5900   0.317   6.160   1.113
 1667SOL    HW2 5901   0.276   6.025   1.196
 1668SOL     OW 5902   5.405   4.403   3.381
 1668SOL    HW1 5903   5.457   4.407   3.296
 1668SOL    HW2 5904   5.317   4.448   3.369
 1669SOL     OW 5905   6.236   3.432   5.071
 1669SOL    HW1 5906   6.333   3.431   5.048
 1669SOL    HW2 5907   6.185   3.382   5.001
 1670SOL     OW 5908   1.579   4.864   6.424
 1670SOL    HW1 5909   1.605   4.798   6.353
 1670SOL    HW2 5910   1.560   4.815   6.509
 1671SOL     OW 5911   5.700   2.322   1.221
 1671SOL    HW1 5912   5.771   2.344   1.154
 1671SOL    HW2 5913   5.630   2.265   1.177
 1672SOL     OW 5914   0.832   3.703   0.338
 1672SOL    HW1 5915   0.907   3.763   0.367
 1672SOL    HW2 5916   0.750   3.724   0.390
 1673SOL     OW 5917   1.925   1.140   4.621
 1673SOL    HW1 5918   1.940   1.181   4.710
 1673SOL    HW2 5919   1.838   1.091   4.621
 1674SOL     OW 5920   4.825   2.103   2.807
 1674SOL    HW1 5921   4.792   2.014   2.839
 1674SOL    HW2 5922   4.898   2.090   2.740
 1675SOL     OW 5923   5.059   0.844   1.363
 1675SOL    HW1 5924   5.138   0.784   1.373
 1675SOL    HW2 5925   5.000   0.836   1.444
 1676SOL     OW 5926   1.172   2.274   2.677
 1676SOL    HW1 5927   1.111   2.352   2.660
 1676SOL    HW2 5928   1.248   2.303   2.735
 1677SOL     OW 5929   4.022   3.330   2.868
 1677SOL    HW1 5930   4.076   3.260   2.821
 1677SOL    HW2 5931   4.068   3.418   2.861
 1678SOL     OW 5932   0.868   6.941   1.440
 1678SOL    HW1 5933   0.896   6.857   1.487
 1678SOL    HW2 5934   0.948   6.984   1.399
 1679SOL     OW 5935   0.704   2.876   6.208
 1679SOL    HW1 5936   0.691   2.793   6.261
 1679SOL    HW2 5937   0.650   2.871   6.124
 1680SOL     OW 5938   5.246   2.458   4.148
 1680SOL    HW1 5939   5.171   2.437   4.086
 1680SOL    HW2 5940   5.260   2.380   4.210
 1681SOL     OW 5941   2.245   6.092   4.211
 1681SOL    HW1 5942   2.204   6.123   4.297
 1681SOL    HW2 5943   2.188   6.022   4.169
 1682SOL     OW 5944   3.283   6.682   4.249
 1682SOL    HW1 5945   3.237   6.702   4.336
 1682SOL    HW2 5946   3.381   6.668   4.265
 1683SOL     OW 5947   5.861   4.529   2.714
 1683SOL    HW1 5948   5.763   4.544   2.701
 1683SOL    HW2 5949   5.876   4.448   2.771
 1684SOL     OW 5950   2.518   4.528   1.966
 1684SOL    HW1 5951   2.527   4.445   1.912
 1684SOL    HW2 5952   2.609   4.566   1.984
 1685SOL     OW 5953   6.871   1.406   5.016
 1685SOL    HW1 5954   6.859   1.321   4.964
 1685SOL    HW2 5955   6.787   1.460   5.012
 1686SOL     OW 5956   4.875   5.855   2.679
 1686SOL    HW1 5957   4.924   5.889   2.760
 1686SOL    HW2 5958   4.804   5.920   2.653
 1687SOL     OW 5959   5.686   4.097   1.949
 1687SOL    HW1 5960   5.674   4.034   1.873
 1687SOL    HW2 5961   5.740   4.176   1.919
 1688SOL     OW 5962   1.514   1.063   2.722
 1688SOL    HW1 5963   1.463   1.074   2.637
 1688SOL    HW2 5964   1.502   1.143   2.779
 1689SOL     OW 5965   4.576   1.130   1.408
 1689SOL    HW1 5966   4.529   1.206   1.362
 1689SOL    HW2 5967   4.652   1.099   1.350
 1690SOL     OW 5968   0.527   4.011   3.746
 1690SOL    HW1 5969   0.624   3.996   3.765
 1690SOL    HW2 5970   0.516   4.044   3.653
 1691SOL     OW 5971   4.415   2.746   5.455
 1691SOL    HW1 5972   4.423   2.802   5.537
 1691SOL    HW2 5973   4.323   2.756   5.416
 1692SOL     OW 5974   5.418   5.125   0.835
 1692SOL    HW1 5975   5.480   5.203   0.845
 1692SOL    HW2 5976   5.335   5.142   0.888
 1693SOL     OW 5977   5.124   6.857   5.295
 1693SOL    HW1 5978   5.202   6.795   5.286
 1693SOL    HW2 5979   5.065   6.824   5.369
 1694SOL     OW 5980   4.801   1.272   5.088
 1694SOL    HW1 5981   4.803   1.368   5.061
 1694SOL    HW2 5982   4.894   1.235   5.084
 1695SOL     OW 5983   4.218   1.241   6.444
 1695SOL    HW1 5984   4.216   1.159   6.386
 1695SOL    HW2 5985   4.132   1.291   6.433
 1696SOL     OW 5986   5.358   6.161   0.448
 1696SOL    HW1 5987   5.338   6.144   0.544
 1696SOL    HW2 5988   5.275   6.144   0.393
 1697SOL     OW 5989   5.562   2.198   2.275
 1697SOL    HW1 5990   5.474   2.151   2.264
 1697SOL    HW2 5991   5.629   2.136   2.313
 1698SOL     OW 5992   4.132   1.012   1.474
 1698SOL    HW1 5993   4.109   0.953   1.397
 1698SOL    HW2 5994   4.075   0.988   1.553
 1699SOL     OW 5995   2.545   6.944   0.574
 1699SOL    HW1 5996   2.595   6.926   0.659
 1699SOL    HW2 5997   2.552   0.029   0.550
 1700SOL     OW 5998   6.387   2.420   2.719
 1700SOL    HW1 5999   6.370   2.495   2.783
 1700SOL    HW2 6000   6.331   2.432   2.637
 1701SOL     OW 6001   0.202   6.040   5.088
 1701SOL    HW1 6002   0.112   6.044   5.045
 1701SOL    HW2 6003   0.263   5.981   5.034
 1702SOL     OW 6004   1.721   2.535   6.207
 1702SOL    HW1 6005   1.785   2.573   6.140
 1702SOL    HW2 6006   1.760   2.452   6.246
 1703SOL     OW 6007   2.822   2.070   0.968
 1703SOL    HW1 6008   2.879   2.000   1.013
 1703SOL    HW2 6009   2.796   2.139   1.035
 1704SOL     OW 6010   2.986   2.378   0.732
 1704SOL    HW1 6011   3.051   2.454   0.722
 1704SOL    HW2 6012   3.026   2.309   0.794
 1705SOL     OW 6013   4.032   2.212   0.186
 1705SOL    HW1 6014   4.065   2.165   0.268
 1705SOL    HW2 6015   4.081   2.178   0.106
 1706SOL     OW 6016   4.721   1.913   6.712
 1706SOL    HW1 6017   4.637   1.960   6.741
 1706SOL    HW2 6018   4.784   1.980   6.672
 1707SOL     OW 6019   4.502   2.132   2.704
 1707SOL    HW1 6020   4.437   2.190   2.752
 1707SOL    HW2 6021   4.476   2.125   2.608
 1708SOL     OW 6022   3.312   4.999   1.632
 1708SOL    HW1 6023   3.305   5.063   1.708
 1708SOL    HW2 6024   3.262   4.915   1.654
 1709SOL     OW 6025   4.701   5.051   0.689
 1709SOL    HW1 6026   4.752   5.136   0.705
 1709SOL    HW2 6027   4.766   4.978   0.667
 1710SOL     OW 6028   4.380   5.116   3.321
 1710SOL    HW1 6029   4.412   5.164   3.240
 1710SOL    HW2 6030   4.441   5.038   3.339
 1711SOL     OW 6031   4.050   4.425   6.493
 1711SOL    HW1 6032   4.112   4.473   6.431
 1711SOL    HW2 6033   4.102   4.361   6.549
 1712SOL     OW 6034   0.501   1.612   3.116
 1712SOL    HW1 6035   0.433   1.679   3.146
 1712SOL    HW2 6036   0.510   1.615   3.017
 1713SOL     OW 6037   3.839   0.588   3.072
 1713SOL    HW1 6038   3.795   0.504   3.105
 1713SOL    HW2 6039   3.769   0.648   3.032
 1714SOL     OW 6040   3.823   3.587   0.466
 1714SOL    HW1 6041   3.879   3.529   0.526
 1714SOL    HW2 6042   3.824   3.550   0.373
 1715SOL     OW 6043   2.150   6.787   2.255
 1715SOL    HW1 6044   2.056   6.783   2.222
 1715SOL    HW2 6045   2.158   6.857   2.326
 1716SOL     OW 6046   5.116   1.044   3.929
 1716SOL    HW1 6047   5.115   1.074   4.024
 1716SOL    HW2 6048   5.074   1.114   3.871
 1717SOL     OW 6049   3.417   6.120   5.301
 1717SOL    HW1 6050   3.348   6.183   5.339
 1717SOL    HW2 6051   3.500   6.125   5.357
 1718SOL     OW 6052   1.743   2.975   1.670
 1718SOL    HW1 6053   1.730   2.883   1.634
 1718SOL    HW2 6054   1.751   3.040   1.594
 1719SOL     OW 6055   1.297   5.551   2.435
 1719SOL    HW1 6056   1.258   5.475   2.382
 1719SOL    HW2 6057   1.241   5.568   2.516
 1720SOL     OW 6058   0.588   3.223   5.827
 1720SOL    HW1 6059   0.666   3.286   5.831
 1720SOL    HW2 6060   0.545   3.217   5.917
 1721SOL     OW 6061   1.435   2.025   0.848
 1721SOL    HW1 6062   1.454   1.974   0.932
 1721SOL    HW2 6063   1.337   2.041   0.841
 1722SOL     OW 6064   2.277   2.735   3.148
 1722SOL    HW1 6065   2.233   2.677   3.079
 1722SOL    HW2 6066   2.312   2.679   3.223
 1723SOL     OW 6067   5.549   3.623   0.548
 1723SOL    HW1 6068   5.496   3.547   0.588
 1723SOL    HW2 6069   5.645   3.596   0.541
 1724SOL     OW 6070   6.385   2.214   1.556
 1724SOL    HW1 6071   6.297   2.200   1.603
 1724SOL    HW2 6072   6.456   2.163   1.604
 1725SOL     OW 6073   1.501   5.720   6.808
 1725SOL    HW1 6074   1.421   5.694   6.753
 1725SOL    HW2 6075   1.554   5.789   6.758
 1726SOL     OW 6076   5.613   4.553   3.152
 1726SOL    HW1 6077   5.522   4.594   3.151
 1726SOL    HW2 6078   5.605   4.454   3.166
 1727SOL     OW 6079   2.903   3.633   3.904
 1727SOL    HW1 6080   2.906   3.679   3.815
 1727SOL    HW2 6081   2.884   3.700   3.976
 1728SOL     OW 6082   5.065   1.900   4.258
 1728SOL    HW1 6083   5.124   1.939   4.188
 1728SOL    HW2 6084   5.079   1.801   4.262
 1729SOL     OW 6085   1.860   2.973   2.654
 1729SOL    HW1 6086   1.788   2.905   2.670
 1729SOL    HW2 6087   1.843   3.020   2.567
 1730SOL     OW 6088   2.486   4.932   4.822
 1730SOL    HW1 6089   2.561   4.997   4.835
 1730SOL    HW2 6090   2.427   4.933   4.903
 1731SOL     OW 6091   6.178   4.624   3.623
 1731SOL    HW1 6092   6.138   4.714   3.638
 1731SOL    HW2 6093   6.108   4.561   3.591
 1732SOL     OW 6094   2.409   3.754   5.640
 1732SOL    HW1 6095   2.451   3.843   5.621
 1732SOL    HW2 6096   2.480   3.684   5.648
 1733SOL     OW 6097   2.499   3.569   6.313
 1733SOL    HW1 6098   2.400   3.574   6.300
 1733SOL    HW2 6099   2.522   3.605   6.403
 1734SOL     OW 6100   6.927   3.059   1.418
 1734SOL    HW1 6101   6.990   3.083   1.344
 1734SOL    HW2 6102   6.923   2.960   1.428
 1735SOL     OW 6103   4.041   4.948   6.374
 1735SOL    HW1 6104   3.962   5.004   6.350
 1735SOL    HW2 6105   4.020   4.852   6.356
 1736SOL     OW 6106   5.393   3.452   0.720
 1736SOL    HW1 6107   5.369   3.368   0.769
 1736SOL    HW2 6108   5.338   3.458   0.637
 1737SOL     OW 6109   4.588   2.176   5.331
 1737SOL    HW1 6110   4.587   2.222   5.420
 1737SOL    HW2 6111   4.516   2.214   5.273
 1738SOL     OW 6112   1.457   3.512   4.115
 1738SOL    HW1 6113   1.489   3.523   4.021
 1738SOL    HW2 6114   1.535   3.496   4.176
 1739SOL     OW 6115   5.789   0.493   3.758
 1739SOL    HW1 6116   5.846   0.560   3.709
 1739SOL    HW2 6117   5.740   0.437   3.691
 1740SOL     OW 6118   6.350   3.092   4.536
 1740SOL    HW1 6119   6.272   3.032   4.521
 1740SOL    HW2 6120   6.424   3.042   4.580
 1741SOL     OW 6121   0.544   1.755   4.457
 1741SOL    HW1 6122   0.558   1.692   4.533
 1741SOL    HW2 6123   0.617   1.822   4.456
 1742SOL     OW 6124   6.272   6.362   5.978
 1742SOL    HW1 6125   6.188   6.313   5.954
 1742SOL    HW2 6126   6.334   6.361   5.900
 1743SOL     OW 6127   1.443   1.350   2.425
 1743SOL    HW1 6128   1.497   1.335   2.508
 1743SOL    HW2 6129   1.430   1.448   2.411
 1744SOL     OW 6130   3.662   2.070   4.664
 1744SOL    HW1 6131   3.654   2.067   4.763
 1744SOL    HW2 6132   3.570   2.066   4.623
 1745SOL     OW 6133   6.169   6.759   1.436
 1745SOL    HW1 6134   6.238   6.804   1.379
 1745SOL    HW2 6135   6.187   6.660   1.438
 1746SOL     OW 6136   2.241   4.002   4.011
 1746SOL    HW1 6137   2.292   3.953   4.081
 1746SOL    HW2 6138   2.168   3.943   3.975
 1747SOL     OW 6139   4.423   0.135   2.432
 1747SOL    HW1 6140   4.417   0.214   2.493
 1747SOL    HW2 6141   4.334   0.117   2.392
 1748SOL     OW 6142   6.742   3.097   5.088
 1748SOL    HW1 6143   6.748   3.141   5.177
 1748SOL    HW2 6144   6.721   3.166   5.018
 1749SOL     OW 6145   1.318   4.537   1.156
 1749SOL    HW1 6146   1.346   4.628   1.186
 1749SOL    HW2 6147   1.228   4.516   1.196
 1750SOL     OW 6148   3.382   0.042   5.808
 1750SOL    HW1 6149   3.446   0.058   5.883
 1750SOL    HW2 6150   3.322   6.976   5.830
 1751SOL     OW 6151   5.457   3.018   4.917
 1751SOL    HW1 6152   5.472   2.981   5.008
 1751SOL    HW2 6153   5.537   3.072   4.889
 1752SOL     OW 6154   6.660   0.558   2.283
 1752SOL    HW1 6155   6.728   0.523   2.348
 1752SOL    HW2 6156   6.700   0.633   2.230
 1753SOL     OW 6157   6.157   1.601   1.913
 1753SOL    HW1 6158   6.120   1.668   1.977
 1753SOL    HW2 6159   6.087   1.578   1.845
 1754SOL     OW 6160   3.073   5.536   3.890
 1754SOL    HW1 6161   3.172   5.537   3.901
 1754SOL    HW2 6162   3.039   5.443   3.906
 1755SOL     OW 6163   6.338   6.696   4.583
 1755SOL    HW1 6164   6.240   6.673   4.580
 1755SOL    HW2 6165   6.392   6.613   4.568
 1756SOL     OW 6166   4.902   6.963   6.506
 1756SOL    HW1 6167   4.829   6.929   6.565
 1756SOL    HW2 6168   4.937   0.038   6.542
 1757SOL     OW 6169   1.997   4.808   5.387
 1757SOL    HW1 6170   1.955   4.775   5.472
 1757SOL    HW2 6171   2.069   4.874   5.409
 1758SOL     OW 6172   2.119   6.145   4.434
 1758SOL    HW1 6173   2.054   6.201   4.485
 1758SOL    HW2 6174   2.184   6.102   4.497
 1759SOL     OW 6175   1.778   6.888   0.246
 1759SOL    HW1 6176   1.733   6.859   0.331
 1759SOL    HW2 6177   1.846   6.820   0.219
 1760SOL     OW 6178   6.931   0.892   4.792
 1760SOL    HW1 6179   6.854   0.830   4.777
 1760SOL    HW2 6180   0.003   0.838   4.805
 1761SOL     OW 6181   5.697   1.559   2.505
 1761SOL    HW1 6182   5.750   1.474   2.498
 1761SOL    HW2 6183   5.600   1.537   2.507
 1762SOL     OW 6184   0.618   1.907   6.110
 1762SOL    HW1 6185   0.681   1.841   6.069
 1762SOL    HW2 6186   0.532   1.906   6.058
 1763SOL     OW 6187   0.333   3.824   3.827
 1763SOL    HW1 6188   0.404   3.884   3.791
 1763SOL    HW2 6189   0.340   3.734   3.783
 1764SOL     OW 6190   1.255   5.711   3.009
 1764SOL    HW1 6191   1.205   5.727   3.094
 1764SOL    HW2 6192   1.344   5.757   3.013
 1765SOL     OW 6193   5.560   3.352   2.255
 1765SOL    HW1 6194   5.605   3.354   2.166
 1765SOL    HW2 6195   5.527   3.260   2.273
 1766SOL     OW 6196   4.268   4.756   4.029
 1766SOL    HW1 6197   4.289   4.688   4.099
 1766SOL    HW2 6198   4.352   4.780   3.980
 1767SOL     OW 6199   0.796   4.673   2.454
 1767SOL    HW1 6200   0.723   4.707   2.395
 1767SOL    HW2 6201   0.881   4.722   2.432
 1768SOL     OW 6202   5.038   6.446   2.286
 1768SOL    HW1 6203   5.116   6.427   2.227
 1768SOL    HW2 6204   4.980   6.365   2.292
 1769SOL     OW 6205   6.003   0.815   0.612
 1769SOL    HW1 6206   5.908   0.800   0.640
 1769SOL    HW2 6207   6.063   0.800   0.691
 1770SOL     OW 6208   1.705   5.144   0.346
 1770SOL    HW1 6209   1.701   5.211   0.420
 1770SOL    HW2 6210   1.783   5.164   0.288
 1771SOL     OW 6211   1.286   3.054   6.141
 1771SOL    HW1 6212   1.292   3.021   6.047
 1771SOL    HW2 6213   1.216   3.002   6.191
 1772SOL     OW 6214   2.125   4.461   2.871
 1772SOL    HW1 6215   2.093   4.406   2.947
 1772SOL    HW2 6216   2.165   4.402   2.801
 1773SOL     OW 6217   1.724   6.372   6.163
 1773SOL    HW1 6218   1.772   6.290   6.130
 1773SOL    HW2 6219   1.786   6.450   6.156
 1774SOL     OW 6220   5.032   5.692   0.894
 1774SOL    HW1 6221   5.086   5.753   0.835
 1774SOL    HW2 6222   5.032   5.600   0.855
 1775SOL     OW 6223   2.027   5.488   6.735
 1775SOL    HW1 6224   1.942   5.519   6.776
 1775SOL    HW2 6225   2.009   5.447   6.645
 1776SOL     OW 6226   4.309   2.326   5.603
 1776SOL    HW1 6227   4.227   2.327   5.661
 1776SOL    HW2 6228   4.293   2.382   5.522
 1777SOL     OW 6229   4.985   6.664   6.752
 1777SOL    HW1 6230   5.076   6.624   6.744
 1777SOL    HW2 6231   4.934   6.616   6.825
 1778SOL     OW 6232   5.859   0.022   3.844
 1778SOL    HW1 6233   5.911   0.075   3.910
 1778SOL    HW2 6234   5.780   0.075   3.814
 1779SOL     OW 6235   5.649   6.422   4.584
 1779SOL    HW1 6236   5.626   6.447   4.490
 1779SOL    HW2 6237   5.593   6.476   4.647
 1780SOL     OW 6238   2.125   5.406   4.951
 1780SOL    HW1 6239   2.180   5.370   4.876
 1780SOL    HW2 6240   2.070   5.483   4.918
 1781SOL     OW 6241   4.300   0.467   4.615
 1781SOL    HW1 6242   4.238   0.519   4.557
 1781SOL    HW2 6243   4.393   0.470   4.577
 1782SOL     OW 6244   6.881   1.471   2.707
 1782SOL    HW1 6245   6.901   1.530   2.630
 1782SOL    HW2 6246   6.866   1.526   2.789
 1783SOL     OW 6247   2.229   3.761   6.525
 1783SOL    HW1 6248   2.202   3.712   6.442
 1783SOL    HW2 6249   2.325   3.789   6.518
 1784SOL     OW 6250   2.509   6.895   1.413
 1784SOL    HW1 6251   2.561   6.951   1.478
 1784SOL    HW2 6252   2.520   6.932   1.321
 1785SOL     OW 6253   1.635   6.352   4.566
 1785SOL    HW1 6254   1.553   6.402   4.538
 1785SOL    HW2 6255   1.644   6.270   4.510
 1786SOL     OW 6256   1.004   6.734   0.683
 1786SOL    HW1 6257   0.979   6.819   0.637
 1786SOL    HW2 6258   0.934   6.665   0.665
 1787SOL     OW 6259   2.939   3.330   6.585
 1787SOL    HW1 6260   2.985   3.394   6.646
 1787SOL    HW2 6261   2.894   3.381   6.511
 1788SOL     OW 6262   4.758   4.122   1.216
 1788SOL    HW1 6263   4.766   4.115   1.316
 1788SOL    HW2 6264   4.696   4.050   1.183
 1789SOL     OW 6265   5.908   4.007   1.664
 1789SOL    HW1 6266   5.918   4.094   1.713
 1789SOL    HW2 6267   5.871   4.024   1.573
 1790SOL     OW 6268   2.238   1.970   4.460
 1790SOL    HW1 6269   2.325   2.019   4.465
 1790SOL    HW2 6270   2.177   2.017   4.396
 1791SOL     OW 6271   4.835   0.030   3.468
 1791SOL    HW1 6272   4.795   0.117   3.497
 1791SOL    HW2 6273   4.888   0.044   3.384
 1792SOL     OW 6274   0.386   1.843   5.944
 1792SOL    HW1 6275   0.383   1.743   5.945
 1792SOL    HW2 6276   0.294   1.879   5.958
 1793SOL     OW 6277   0.291   0.622   5.892
 1793SOL    HW1 6278   0.256   0.652   5.803
 1793SOL    HW2 6279   0.249   0.678   5.964
 1794SOL     OW 6280   1.252   0.127   5.881
 1794SOL    HW1 6281   1.165   0.109   5.928
 1794SOL    HW2 6282   1.321   0.153   5.948
 1795SOL     OW 6283   5.797   4.754   1.159
 1795SOL    HW1 6284   5.828   4.847   1.179
 1795SOL    HW2 6285   5.862   4.711   1.096
 1796SOL     OW 6286   0.586   0.819   6.723
 1796SOL    HW1 6287   0.647   0.875   6.668
 1796SOL    HW2 6288   0.500   0.868   6.740
 1797SOL     OW 6289   1.908   4.894   6.206
 1797SOL    HW1 6290   1.967   4.954   6.152
 1797SOL    HW2 6291   1.936   4.897   6.302
 1798SOL     OW 6292   2.650   3.703   5.368
 1798SOL    HW1 6293   2.550   3.702   5.356
 1798SOL    HW2 6294   2.682   3.797   5.371
 1799SOL     OW 6295   3.381   1.395   0.597
 1799SOL    HW1 6296   3.283   1.387   0.612
 1799SOL    HW2 6297   3.399   1.467   0.530
 1800SOL     OW 6298   5.613   3.374   5.262
 1800SOL    HW1 6299   5.531   3.335   5.219
 1800SOL    HW2 6300   5.635   3.462   5.218
 1801SOL     OW 6301   0.991   0.865   3.151
 1801SOL    HW1 6302   0.969   0.768   3.140
 1801SOL    HW2 6303   1.079   0.874   3.198
 1802SOL     OW 6304   6.914   4.844   3.794
 1802SOL    HW1 6305   6.816   4.850   3.808
 1802SOL    HW2 6306   6.936   4.858   3.698
 1803SOL     OW 6307   0.338   0.183   3.305
 1803SOL    HW1 6308   0.432   0.156   3.328
 1803SOL    HW2 6309   0.312   0.140   3.219
 1804SOL     OW 6310   2.294   3.177   6.165
 1804SOL    HW1 6311   2.339   3.191   6.253
 1804SOL    HW2 6312   2.354   3.123   6.106
 1805SOL     OW 6313   0.058   5.362   0.552
 1805SOL    HW1 6314   0.019   5.346   0.461
 1805SOL    HW2 6315   6.998   5.393   0.614
 1806SOL     OW 6316   0.342   1.817   1.745
 1806SOL    HW1 6317   0.270   1.810   1.814
 1806SOL    HW2 6318   0.309   1.871   1.668
 1807SOL     OW 6319   0.477   2.505   2.913
 1807SOL    HW1 6320   0.514   2.546   2.997
 1807SOL    HW2 6321   0.551   2.493   2.847
 1808SOL     OW 6322   4.950   2.200   5.927
 1808SOL    HW1 6323   4.903   2.204   5.839
 1808SOL    HW2 6324   5.026   2.134   5.921
 1809SOL     OW 6325   4.691   0.360   4.929
 1809SOL    HW1 6326   4.757   0.285   4.942
 1809SOL    HW2 6327   4.604   0.322   4.897
 1810SOL     OW 6328   0.744   0.333   4.155
 1810SOL    HW1 6329   0.768   0.300   4.247
 1810SOL    HW2 6330   0.703   0.424   4.163
 1811SOL     OW 6331   4.151   5.478   1.333
 1811SOL    HW1 6332   4.187   5.526   1.413
 1811SOL    HW2 6333   4.201   5.393   1.319
 1812SOL     OW 6334   4.722   6.539   6.243
 1812SOL    HW1 6335   4.667   6.596   6.304
 1812SOL    HW2 6336   4.812   6.581   6.230
 1813SOL     OW 6337   4.842   4.446   2.242
 1813SOL    HW1 6338   4.880   4.525   2.194
 1813SOL    HW2 6339   4.914   4.400   2.293
 1814SOL     OW 6340   6.535   5.945   0.178
 1814SOL    HW1 6341   6.608   5.926   0.243
 1814SOL    HW2 6342   6.569   5.935   0.085
 1815SOL     OW 6343   5.401   6.553   1.266
 1815SOL    HW1 6344   5.479   6.492   1.280
 1815SOL    HW2 6345   5.320   6.499   1.243
 1816SOL     OW 6346   3.715   5.000   5.425
 1816SOL    HW1 6347   3.773   4.935   5.376
 1816SOL    HW2 6348   3.722   5.090   5.381
 1817SOL     OW 6349   0.126   2.089   4.046
 1817SOL    HW1 6350   0.135   2.183   4.081
 1817SOL    HW2 6351   0.062   2.089   3.969
 1818SOL     OW 6352   2.704   1.112   0.181
 1818SOL    HW1 6353   2.669   1.114   0.274
 1818SOL    HW2 6354   2.637   1.068   0.121
 1819SOL     OW 6355   1.715   4.817   2.739
 1819SOL    HW1 6356   1.708   4.908   2.780
 1819SOL    HW2 6357   1.810   4.798   2.717
 1820SOL     OW 6358   3.246   6.979   5.129
 1820SOL    HW1 6359   3.297   6.919   5.190
 1820SOL    HW2 6360   3.195   0.035   5.182
 1821SOL     OW 6361   3.579   2.039   2.723
 1821SOL    HW1 6362   3.485   2.044   2.691
 1821SOL    HW2 6363   3.640   2.016   2.647
 1822SOL     OW 6364   6.871   3.362   2.962
 1822SOL    HW1 6365   6.804   3.372   3.035
 1822SOL    HW2 6366   6.943   3.431   2.972
 1823SOL     OW 6367   4.586   6.015   2.020
 1823SOL    HW1 6368   4.657   6.018   2.091
 1823SOL    HW2 6369   4.595   6.095   1.961
 1824SOL     OW 6370   4.374   3.007   1.721
 1824SOL    HW1 6371   4.373   3.105   1.697
 1824SOL    HW2 6372   4.457   2.985   1.770
 1825SOL     OW 6373   1.212   2.188   4.892
 1825SOL    HW1 6374   1.253   2.103   4.859
 1825SOL    HW2 6375   1.174   2.239   4.814
 1826SOL     OW 6376   3.690   2.079   1.751
 1826SOL    HW1 6377   3.611   2.026   1.782
 1826SOL    HW2 6378   3.716   2.145   1.821
 1827SOL     OW 6379   5.594   5.897   1.139
 1827SOL    HW1 6380   5.628   5.971   1.197
 1827SOL    HW2 6381   5.648   5.893   1.055
 1828SOL     OW 6382   1.484   3.554   5.411
 1828SOL    HW1 6383   1.429   3.625   5.365
 1828SOL    HW2 6384   1.571   3.544   5.364
 1829SOL     OW 6385   3.617   0.903   2.403
 1829SOL    HW1 6386   3.560   0.826   2.375
 1829SOL    HW2 6387   3.713   0.881   2.387
 1830SOL     OW 6388   5.531   0.539   5.321
 1830SOL    HW1 6389   5.534   0.603   5.398
 1830SOL    HW2 6390   5.530   0.445   5.355
 1831SOL     OW 6391   3.797   4.703   0.464
 1831SOL    HW1 6392   3.763   4.773   0.527
 1831SOL    HW2 6393   3.731   4.689   0.391
 1832SOL     OW 6394   2.518   2.609   0.257
 1832SOL    HW1 6395   2.559   2.648   0.339
 1832SOL    HW2 6396   2.467   2.681   0.209
 1833SOL     OW 6397   5.927   1.094   6.838
 1833SOL    HW1 6398   5.984   1.154   6.894
 1833SOL    HW2 6399   5.834   1.129   6.835
 1834SOL     OW 6400   0.448   2.782   5.436
 1834SOL    HW1 6401   0.389   2.784   5.516
 1834SOL    HW2 6402   0.477   2.688   5.418
 1835SOL     OW 6403   0.010   6.557   1.710
 1835SOL    HW1 6404   0.078   6.629   1.693
 1835SOL    HW2 6405   6.994   6.518   1.622
 1836SOL     OW 6406   5.015   2.692   2.614
 1836SOL    HW1 6407   5.108   2.718   2.587
 1836SOL    HW2 6408   4.968   2.651   2.536
 1837SOL     OW 6409   2.741   2.228   6.132
 1837SOL    HW1 6410   2.659   2.266   6.176
 1837SOL    HW2 6411   2.716   2.187   6.045
 1838SOL     OW 6412   5.419   1.167   0.807
 1838SOL    HW1 6413   5.422   1.070   0.782
 1838SOL    HW2 6414   5.432   1.223   0.726
 1839SOL     OW 6415   0.192   0.614   0.413
 1839SOL    HW1 6416   0.192   0.648   0.507
 1839SOL    HW2 6417   0.285   0.620   0.375
 1840SOL     OW 6418   4.173   6.079   3.612
 1840SOL    HW1 6419   4.220   6.166   3.596
 1840SOL    HW2 6420   4.076   6.096   3.627
 1841SOL     OW 6421   1.734   0.880   2.096
 1841SOL    HW1 6422   1.684   0.871   2.009
 1841SOL    HW2 6423   1.673   0.916   2.166
 1842SOL     OW 6424   1.005   5.601   0.841
 1842SOL    HW1 6425   0.923   5.544   0.846
 1842SOL    HW2 6426   0.995   5.666   0.765
 1843SOL     OW 6427   2.264   0.997   5.389
 1843SOL    HW1 6428   2.334   0.925   5.395
 1843SOL    HW2 6429   2.179   0.958   5.356
 1844SOL     OW 6430   5.958   2.656   6.251
 1844SOL    HW1 6431   6.047   2.617   6.271
 1844SOL    HW2 6432   5.887   2.601   6.295
 1845SOL     OW 6433   1.419   2.550   2.902
 1845SOL    HW1 6434   1.385   2.592   2.817
 1845SOL    HW2 6435   1.434   2.452   2.886
 1846SOL     OW 6436   3.220   0.996   1.812
 1846SOL    HW1 6437   3.267   0.986   1.725
 1846SOL    HW2 6438   3.176   1.086   1.816
 1847SOL     OW 6439   1.763   5.533   5.421
 1847SOL    HW1 6440   1.705   5.522   5.502
 1847SOL    HW2 6441   1.708   5.568   5.345
 1848SOL     OW 6442   3.436   6.602   3.349
 1848SOL    HW1 6443   3.526   6.588   3.309
 1848SOL    HW2 6444   3.430   6.556   3.438
 1849SOL     OW 6445   4.718   2.752   2.393
 1849SOL    HW1 6446   4.791   2.686   2.414
 1849SOL    HW2 6447   4.684   2.791   2.478
 1850SOL     OW 6448   4.285   1.639   1.049
 1850SOL    HW1 6449   4.268   1.569   0.979
 1850SOL    HW2 6450   4.199   1.675   1.082
 1851SOL     OW 6451   0.303   4.624   4.841
 1851SOL    HW1 6452   0.332   4.703   4.787
 1851SOL    HW2 6453   0.229   4.652   4.903
 1852SOL     OW 6454   0.395   0.138   2.423
 1852SOL    HW1 6455   0.435   0.206   2.361
 1852SOL    HW2 6456   0.466   0.106   2.486
 1853SOL     OW 6457   0.018   2.693   5.811
 1853SOL    HW1 6458   0.038   2.791   5.809
 1853SOL    HW2 6459   0.100   2.642   5.783
 1854SOL     OW 6460   0.972   6.988   3.197
 1854SOL    HW1 6461   0.917   6.922   3.248
 1854SOL    HW2 6462   1.041   0.016   3.258
 1855SOL     OW 6463   5.398   3.355   4.519
 1855SOL    HW1 6464   5.413   3.439   4.570
 1855SOL    HW2 6465   5.324   3.302   4.562
 1856SOL     OW 6466   3.863   3.118   0.810
 1856SOL    HW1 6467   3.836   3.054   0.881
 1856SOL    HW2 6468   3.811   3.202   0.819
 1857SOL     OW 6469   3.926   1.480   6.916
 1857SOL    HW1 6470   3.835   1.497   6.954
 1857SOL    HW2 6471   3.982   1.432   6.983
 1858SOL     OW 6472   4.979   2.260   4.339
 1858SOL    HW1 6473   4.960   2.200   4.417
 1858SOL    HW2 6474   4.917   2.237   4.263
 1859SOL     OW 6475   6.742   1.473   4.213
 1859SOL    HW1 6476   6.716   1.567   4.236
 1859SOL    HW2 6477   6.827   1.449   4.261
 1860SOL     OW 6478   2.092   1.304   5.794
 1860SOL    HW1 6479   2.141   1.219   5.775
 1860SOL    HW2 6480   2.047   1.297   5.884
 1861SOL     OW 6481   6.976   6.666   3.921
 1861SOL    HW1 6482   0.034   6.697   3.856
 1861SOL    HW2 6483   0.010   6.625   4.000
 1862SOL     OW 6484   2.881   5.567   5.695
 1862SOL    HW1 6485   2.927   5.543   5.781
 1862SOL    HW2 6486   2.923   5.517   5.619
 1863SOL     OW 6487   0.214   2.552   0.419
 1863SOL    HW1 6488   0.203   2.512   0.510
 1863SOL    HW2 6489   0.170   2.493   0.351
 1864SOL     OW 6490   4.076   5.532   2.176
 1864SOL    HW1 6491   4.170   5.523   2.143
 1864SOL    HW2 6492   4.076   5.578   2.265
 1865SOL     OW 6493   6.035   2.232   5.330
 1865SOL    HW1 6494   6.094   2.158   5.297
 1865SOL    HW2 6495   6.092   2.309   5.359
 1866SOL     OW 6496   0.611   5.040   3.350
 1866SOL    HW1 6497   0.641   4.971   3.416
 1866SOL    HW2 6498   0.657   5.024   3.263
 1867SOL     OW 6499   1.171   2.519   1.411
 1867SOL    HW1 6500   1.201   2.425   1.427
 1867SOL    HW2 6501   1.072   2.522   1.400
 1868SOL     OW 6502   6.007   3.352   6.977
 1868SOL    HW1 6503   5.937   3.364   6.906
 1868SOL    HW2 6504   6.048   3.441   6.999
 1869SOL     OW 6505   4.474   0.987   4.334
 1869SOL    HW1 6506   4.435   1.078   4.322
 1869SOL    HW2 6507   4.410   0.929   4.384
 1870SOL     OW 6508   6.300   6.066   4.955
 1870SOL    HW1 6509   6.280   6.046   4.859
 1870SOL    HW2 6510   6.332   5.982   5.000
 1871SOL     OW 6511   0.263   6.286   0.270
 1871SOL    HW1 6512   0.269   6.315   0.365
 1871SOL    HW2 6513   0.222   6.195   0.264
 1872SOL     OW 6514   2.928   2.765   1.675
 1872SOL    HW1 6515   3.010   2.732   1.722
 1872SOL    HW2 6516   2.853   2.701   1.690
 1873SOL     OW 6517   6.514   1.410   0.650
 1873SOL    HW1 6518   6.418   1.437   0.649
 1873SOL    HW2 6519   6.521   1.310   0.651
 1874SOL     OW 6520   0.564   5.277   0.456
 1874SOL    HW1 6521   0.497   5.350   0.444
 1874SOL    HW2 6522   0.624   5.298   0.534
 1875SOL     OW 6523   6.568   5.269   0.620
 1875SOL    HW1 6524   6.540   5.243   0.713
 1875SOL    HW2 6525   6.554   5.192   0.558
 1876SOL     OW 6526   0.066   5.380   1.085
 1876SOL    HW1 6527   0.061   5.387   1.185
 1876SOL    HW2 6528   0.146   5.327   1.059
 1877SOL     OW 6529   0.949   1.792   2.326
 1877SOL    HW1 6530   0.915   1.711   2.279
 1877SOL    HW2 6531   1.011   1.764   2.400
 1878SOL     OW 6532   5.486   3.868   3.926
 1878SOL    HW1 6533   5.427   3.790   3.907
 1878SOL    HW2 6534   5.494   3.879   4.025
 1879SOL     OW 6535   4.621   5.851   4.429
 1879SOL    HW1 6536   4.637   5.900   4.515
 1879SOL    HW2 6537   4.653   5.908   4.353
 1880SOL     OW 6538   6.946   2.076   4.463
 1880SOL    HW1 6539   0.028   2.043   4.478
 1880SOL    HW2 6540   6.897   2.077   4.551
 1881SOL     OW 6541   1.723   1.712   4.042
 1881SOL    HW1 6542   1.629   1.677   4.051
 1881SOL    HW2 6543   1.740   1.739   3.948
 1882SOL     OW 6544   1.265   5.338   0.523
 1882SOL    HW1 6545   1.323   5.379   0.453
 1882SOL    HW2 6546   1.199   5.406   0.555
 1883SOL     OW 6547   1.491   2.812   2.921
 1883SOL    HW1 6548   1.564   2.827   2.854
 1883SOL    HW2 6549   1.479   2.714   2.937
 1884SOL     OW 6550   4.251   0.875   0.181
 1884SOL    HW1 6551   4.196   0.849   0.102
 1884SOL    HW2 6552   4.305   0.956   0.159
 1885SOL     OW 6553   6.958   1.776   0.907
 1885SOL    HW1 6554   0.013   1.817   0.845
 1885SOL    HW2 6555   7.005   1.735   0.985
 1886SOL     OW 6556   3.169   2.366   5.693
 1886SOL    HW1 6557   3.078   2.388   5.730
 1886SOL    HW2 6558   3.160   2.310   5.611
 1887SOL     OW 6559   0.778   6.669   5.144
 1887SOL    HW1 6560   0.821   6.682   5.055
 1887SOL    HW2 6561   0.768   6.758   5.189
 1888SOL     OW 6562   1.584   2.331   5.427
 1888SOL    HW1 6563   1.522   2.281   5.366
 1888SOL    HW2 6564   1.660   2.367   5.373
 1889SOL     OW 6565   3.228   2.770   6.968
 1889SOL    HW1 6566   3.286   2.698   7.006
 1889SOL    HW2 6567   3.254   2.787   6.873
 1890SOL     OW 6568   6.647   6.013   6.952
 1890SOL    HW1 6569   6.571   6.057   6.905
 1890SOL    HW2 6570   6.659   5.920   6.916
 1891SOL     OW 6571   5.580   3.536   6.129
 1891SOL    HW1 6572   5.615   3.558   6.220
 1891SOL    HW2 6573   5.613   3.604   6.064
 1892SOL     OW 6574   4.161   6.927   1.765
 1892SOL    HW1 6575   4.172   6.874   1.681
 1892SOL    HW2 6576   4.070   6.968   1.767
 1893SOL     OW 6577   3.000   1.785   4.983
 1893SOL    HW1 6578   2.905   1.812   4.964
 1893SOL    HW2 6579   3.009   1.686   4.971
 1894SOL     OW 6580   4.461   3.519   0.958
 1894SOL    HW1 6581   4.413   3.432   0.948
 1894SOL    HW2 6582   4.500   3.524   1.051
 1895SOL     OW 6583   4.390   0.611   3.360
 1895SOL    HW1 6584   4.425   0.599   3.453
 1895SOL    HW2 6585   4.339   0.697   3.354
 1896SOL     OW 6586   6.033   1.994   5.725
 1896SOL    HW1 6587   5.951   1.979   5.669
 1896SOL    HW2 6588   6.101   2.044   5.672
 1897SOL     OW 6589   5.568   5.077   3.584
 1897SOL    HW1 6590   5.490   5.018   3.601
 1897SOL    HW2 6591   5.538   5.172   3.578
 1898SOL     OW 6592   5.555   6.650   6.736
 1898SOL    HW1 6593   5.498   6.670   6.656
 1898SOL    HW2 6594   5.651   6.642   6.707
 1899SOL     OW 6595   1.246   1.923   3.409
 1899SOL    HW1 6596   1.237   1.928   3.309
 1899SOL    HW2 6597   1.156   1.926   3.451
 1900SOL     OW 6598   2.426   5.968   0.905
 1900SOL    HW1 6599   2.495   6.019   0.956
 1900SOL    HW2 6600   2.463   5.940   0.817
 1901SOL     OW 6601   1.427   1.557   6.268
 1901SOL    HW1 6602   1.347   1.555   6.207
 1901SOL    HW2 6603   1.459   1.651   6.277
 1902SOL     OW 6604   1.653   2.559   5.561
 1902SOL    HW1 6605   1.616   2.475   5.522
 1902SOL    HW2 6606   1.738   2.538   5.610
 1903SOL     OW 6607   6.558   4.577   3.964
 1903SOL    HW1 6608   6.610   4.493   3.955
 1903SOL    HW2 6609   6.467   4.565   3.924
 1904SOL     OW 6610   0.601   0.554   4.592
 1904SOL    HW1 6611   0.665   0.616   4.547
 1904SOL    HW2 6612   0.643   0.519   4.676
 1905SOL     OW 6613   6.449   3.260   4.384
 1905SOL    HW1 6614   6.407   3.194   4.446
 1905SOL    HW2 6615   6.426   3.236   4.290
 1906SOL     OW 6616   2.569   6.860   0.315
 1906SOL    HW1 6617   2.569   6.912   0.400
 1906SOL    HW2 6618   2.615   6.914   0.244
 1907SOL     OW 6619   3.483   5.951   3.089
 1907SOL    HW1 6620   3.469   5.856   3.118
 1907SOL    HW2 6621   3.398   5.988   3.054
 1908SOL     OW 6622   4.942   1.023   6.951
 1908SOL    HW1 6623   4.878   0.982   6.887
 1908SOL    HW2 6624   5.034   1.024   6.911
 1909SOL     OW 6625   4.052   5.146   4.704
 1909SOL    HW1 6626   4.037   5.053   4.738
 1909SOL    HW2 6627   4.090   5.202   4.777
 1910SOL     OW 6628   5.087   2.746   4.683
 1910SOL    HW1 6629   5.043   2.769   4.769
 1910SOL    HW2 6630   5.029   2.683   4.632
 1911SOL     OW 6631   0.071   3.853   6.285
 1911SOL    HW1 6632   0.118   3.881   6.369
 1911SOL    HW2 6633   6.994   3.814   6.310
 1912SOL     OW 6634   3.254   6.259   3.286
 1912SOL    HW1 6635   3.306   6.203   3.350
 1912SOL    HW2 6636   3.167   6.215   3.266
 1913SOL     OW 6637   1.352   4.546   5.297
 1913SOL    HW1 6638   1.351   4.645   5.279
 1913SOL    HW2 6639   1.446   4.513   5.295
 1914SOL     OW 6640   4.309   1.498   5.326
 1914SOL    HW1 6641   4.212   1.473   5.317
 1914SOL    HW2 6642   4.325   1.584   5.279
 1915SOL     OW 6643   3.741   0.397   5.264
 1915SOL    HW1 6644   3.822   0.449   5.238
 1915SOL    HW2 6645   3.718   0.416   5.359
 1916SOL     OW 6646   4.027   6.321   1.517
 1916SOL    HW1 6647   3.963   6.387   1.477
 1916SOL    HW2 6648   4.117   6.364   1.528
 1917SOL     OW 6649   3.712   3.216   4.233
 1917SOL    HW1 6650   3.747   3.257   4.317
 1917SOL    HW2 6651   3.786   3.169   4.186
 1918SOL     OW 6652   5.825   6.383   4.288
 1918SOL    HW1 6653   5.877   6.356   4.369
 1918SOL    HW2 6654   5.730   6.401   4.313
 1919SOL     OW 6655   6.550   6.664   1.934
 1919SOL    HW1 6656   6.595   6.704   2.013
 1919SOL    HW2 6657   6.490   6.590   1.964
 1920SOL     OW 6658   6.882   5.962   4.162
 1920SOL    HW1 6659   6.793   6.005   4.155
 1920SOL    HW2 6660   6.927   5.961   4.073
 1921SOL     OW 6661   1.059   0.100   6.069
 1921SOL    HW1 6662   1.005   0.173   6.112
 1921SOL    HW2 6663   1.118   0.057   6.138
 1922SOL     OW 6664   3.485   4.351   1.046
 1922SOL    HW1 6665   3.440   4.289   1.110
 1922SOL    HW2 6666   3.466   4.446   1.073
 1923SOL     OW 6667   2.362   2.138   0.637
 1923SOL    HW1 6668   2.446   2.182   0.666
 1923SOL    HW2 6669   2.381   2.077   0.559
 1924SOL     OW 6670   0.922   3.822   2.169
 1924SOL    HW1 6671   0.994   3.784   2.111
 1924SOL    HW2 6672   0.936   3.792   2.264
 1925SOL     OW 6673   3.317   4.126   0.426
 1925SOL    HW1 6674   3.260   4.189   0.372
 1925SOL    HW2 6675   3.391   4.178   0.469
 1926SOL     OW 6676   0.527   0.378   3.428
 1926SOL    HW1 6677   0.575   0.357   3.513
 1926SOL    HW2 6678   0.430   0.353   3.438
 1927SOL     OW 6679   4.097   3.668   0.119
 1927SOL    HW1 6680   4.149   3.670   0.204
 1927SOL    HW2 6681   4.085   3.761   0.084
 1928SOL     OW 6682   6.638   4.955   5.395
 1928SOL    HW1 6683   6.678   4.983   5.482
 1928SOL    HW2 6684   6.587   4.869   5.408
 1929SOL     OW 6685   1.418   7.001   2.992
 1929SOL    HW1 6686   1.326   0.021   2.972
 1929SOL    HW2 6687   1.435   6.915   2.944
 1930SOL     OW 6688   6.464   4.965   0.053
 1930SOL    HW1 6689   6.505   4.895   0.111
 1930SOL    HW2 6690   6.443   4.926   6.975
 1931SOL     OW 6691   0.976   2.645   5.101
 1931SOL    HW1 6692   0.966   2.743   5.085
 1931SOL    HW2 6693   0.956   2.595   5.017
 1932SOL     OW 6694   5.714   3.058   2.459
 1932SOL    HW1 6695   5.784   2.996   2.422
 1932SOL    HW2 6696   5.751   3.107   2.538
 1933SOL     OW 6697   2.690   4.393   1.350
 1933SOL    HW1 6698   2.670   4.467   1.287
 1933SOL    HW2 6699   2.723   4.430   1.436
 1934SOL     OW 6700   0.474   6.038   4.230
 1934SOL    HW1 6701   0.547   5.970   4.239
 1934SOL    HW2 6702   0.387   5.991   4.215
 1935SOL     OW 6703   2.541   0.636   4.107
 1935SOL    HW1 6704   2.532   0.725   4.063
 1935SOL    HW2 6705   2.552   0.565   4.038
 1936SOL     OW 6706   6.673   5.669   5.821
 1936SOL    HW1 6707   6.573   5.671   5.824
 1936SOL    HW2 6708   6.704   5.710   5.735
 1937SOL     OW 6709   4.213   7.001   2.657
 1937SOL    HW1 6710   4.190   0.002   2.560
 1937SOL    HW2 6711   4.129   6.992   2.710
 1938SOL     OW 6712   5.175   0.519   3.843
 1938SOL    HW1 6713   5.161   0.421   3.826
 1938SOL    HW2 6714   5.207   0.563   3.759
 1939SOL     OW 6715   2.454   0.223   2.927
 1939SOL    HW1 6716   2.401   0.170   2.994
 1939SOL    HW2 6717   2.551   0.206   2.942
 1940SOL     OW 6718   6.842   5.116   6.876
 1940SOL    HW1 6719   6.826   5.026   6.836
 1940SOL    HW2 6720   6.904   5.168   6.817
 1941SOL     OW 6721   4.923   5.078   3.133
 1941SOL    HW1 6722   5.012   5.062   3.089
 1941SOL    HW2 6723   4.882   5.161   3.096
 1942SOL     OW 6724   6.045   5.493   2.887
 1942SOL    HW1 6725   6.130   5.545   2.893
 1942SOL    HW2 6726   5.971   5.545   2.929
 1943SOL     OW 6727   3.164   5.434   2.738
 1943SOL    HW1 6728   3.200   5.499   2.671
 1943SOL    HW2 6729   3.180   5.340   2.706
 1944SOL     OW 6730   6.691   1.061   1.888
 1944SOL    HW1 6731   6.623   1.133   1.902
 1944SOL    HW2 6732   6.644   0.973   1.878
 1945SOL     OW 6733   2.957   5.138   4.226
 1945SOL    HW1 6734   2.978   5.053   4.274
 1945SOL    HW2 6735   2.879   5.183   4.269
 1946SOL     OW 6736   1.897   0.337   6.964
 1946SOL    HW1 6737   1.879   0.421   0.004
 1946SOL    HW2 6738   1.842   0.263   7.001
 1947SOL     OW 6739   5.585   6.522   4.342
 1947SOL    HW1 6740   5.571   6.517   4.244
 1947SOL    HW2 6741   5.506   6.567   4.385
 1948SOL     OW 6742   6.132   4.103   5.658
 1948SOL    HW1 6743   6.079   4.023   5.689
 1948SOL    HW2 6744   6.148   4.096   5.560
 1949SOL     OW 6745   5.405   4.196   6.647
 1949SOL    HW1 6746   5.438   4.187   6.553
 1949SOL    HW2 6747   5.331   4.131   6.663
 1950SOL     OW 6748   3.281   3.251   0.461
 1950SOL    HW1 6749   3.339   3.260   0.542
 1950SOL    HW2 6750   3.197   3.303   0.475
 1951SOL     OW 6751   6.605   2.032   6.828
 1951SOL    HW1 6752   6.554   1.989   6.903
 1951SOL    HW2 6753   6.662   1.963   6.783
 1952SOL     OW 6754   3.627   1.940   5.538
 1952SOL    HW1 6755   3.625   2.039   5.523
 1952SOL    HW2 6756   3.538   1.901   5.514
 1953SOL     OW 6757   0.255   3.621   5.554
 1953SOL    HW1 6758   0.238   3.629   5.653
 1953SOL    HW2 6759   0.304   3.536   5.536
 1954SOL     OW 6760   2.892   2.224   3.543
 1954SOL    HW1 6761   2.939   2.172   3.472
 1954SOL    HW2 6762   2.946   2.222   3.627
 1955SOL     OW 6763   6.605   5.668   2.808
 1955SOL    HW1 6764   6.677   5.716   2.757
 1955SOL    HW2 6765   6.528   5.730   2.822
 1956SOL     OW 6766   6.110   5.882   2.519
 1956SOL    HW1 6767   6.072   5.868   2.611
 1956SOL    HW2 6768   6.036   5.882   2.452
 1957SOL     OW 6769   0.916   6.902   5.215
 1957SOL    HW1 6770   0.971   6.962   5.157
 1957SOL    HW2 6771   0.843   6.955   5.258
 1958SOL     OW 6772   5.321   3.750   5.806
 1958SOL    HW1 6773   5.359   3.697   5.730
 1958SOL    HW2 6774   5.224   3.767   5.790
 1959SOL     OW 6775   1.407   2.212   6.160
 1959SOL    HW1 6776   1.485   2.150   6.171
 1959SOL    HW2 6777   1.324   2.166   6.192
 1960SOL     OW 6778   5.581   6.348   1.319
 1960SOL    HW1 6779   5.520   6.268   1.317
 1960SOL    HW2 6780   5.651   6.335   1.388
 1961SOL     OW 6781   5.921   4.928   3.879
 1961SOL    HW1 6782   5.824   4.948   3.872
 1961SOL    HW2 6783   5.965   4.995   3.940
 1962SOL     OW 6784   6.702   6.546   3.064
 1962SOL    HW1 6785   6.605   6.568   3.065
 1962SOL    HW2 6786   6.718   6.467   3.122
 1963SOL     OW 6787   1.956   0.232   2.768
 1963SOL    HW1 6788   1.991   0.180   2.690
 1963SOL    HW2 6789   1.945   0.328   2.742
 1964SOL     OW 6790   5.643   3.676   2.899
 1964SOL    HW1 6791   5.598   3.730   2.828
 1964SOL    HW2 6792   5.701   3.735   2.954
 1965SOL     OW 6793   2.109   5.101   3.812
 1965SOL    HW1 6794   2.200   5.128   3.844
 1965SOL    HW2 6795   2.094   5.137   3.720
 1966SOL     OW 6796   6.423   5.746   5.727
 1966SOL    HW1 6797   6.332   5.783   5.746
 1966SOL    HW2 6798   6.414   5.659   5.678
 1967SOL     OW 6799   4.635   2.295   4.814
 1967SOL    HW1 6800   4.707   2.316   4.880
 1967SOL    HW2 6801   4.569   2.370   4.810
 1968SOL     OW 6802   2.965   5.301   6.194
 1968SOL    HW1 6803   3.004   5.261   6.277
 1968SOL    HW2 6804   3.033   5.299   6.121
 1969SOL     OW 6805   6.512   2.765   1.147
 1969SOL    HW1 6806   6.539   2.831   1.077
 1969SOL    HW2 6807   6.456   2.811   1.216
 1970SOL     OW 6808   1.684   0.063   3.649
 1970SOL    HW1 6809   1.681   0.054   3.748
 1970SOL    HW2 6810   1.638   6.997   3.606
 1971SOL     OW 6811   0.213   6.119   6.593
 1971SOL    HW1 6812   0.285   6.180   6.625
 1971SOL    HW2 6813   0.168   6.159   6.513
 1972SOL     OW 6814   0.731   5.020   3.837
 1972SOL    HW1 6815   0.688   5.002   3.749
 1972SOL    HW2 6816   0.691   5.102   3.878
 1973SOL     OW 6817   2.819   3.101   0.503
 1973SOL    HW1 6818   2.761   3.054   0.569
 1973SOL    HW2 6819   2.791   3.076   0.410
 1974SOL     OW 6820   5.691   0.475   4.336
 1974SOL    HW1 6821   5.677   0.428   4.423
 1974SOL    HW2 6822   5.620   0.447   4.271
 1975SOL     OW 6823   3.493   0.603   3.364
 1975SOL    HW1 6824   3.431   0.640   3.433
 1975SOL    HW2 6825   3.579   0.654   3.366
 1976SOL     OW 6826   6.988   4.932   0.142
 1976SOL    HW1 6827   6.997   4.856   0.078
 1976SOL    HW2 6828   6.937   5.006   0.098
 1977SOL     OW 6829   1.853   2.947   5.061
 1977SOL    HW1 6830   1.805   2.976   5.144
 1977SOL    HW2 6831   1.940   2.903   5.086
 1978SOL     OW 6832   6.667   1.389   4.742
 1978SOL    HW1 6833   6.654   1.464   4.808
 1978SOL    HW2 6834   6.764   1.380   4.720
 1979SOL     OW 6835   5.665   5.009   3.833
 1979SOL    HW1 6836   5.592   4.943   3.815
 1979SOL    HW2 6837   5.694   5.051   3.747
 1980SOL     OW 6838   4.160   0.153   1.260
 1980SOL    HW1 6839   4.182   0.196   1.348
 1980SOL    HW2 6840   4.100   0.214   1.208
 1981SOL     OW 6841   4.621   3.196   1.646
 1981SOL    HW1 6842   4.610   3.133   1.723
 1981SOL    HW2 6843   4.564   3.277   1.661
 1982SOL     OW 6844   5.473   6.491   4.836
 1982SOL    HW1 6845   5.552   6.458   4.889
 1982SOL    HW2 6846   5.429   6.565   4.886
 1983SOL     OW 6847   0.592   3.711   3.366
 1983SOL    HW1 6848   0.528   3.765   3.420
 1983SOL    HW2 6849   0.635   3.769   3.296
 1984SOL     OW 6850   4.386   0.443   5.849
 1984SOL    HW1 6851   4.441   0.487   5.778
 1984SOL    HW2 6852   4.289   0.452   5.826
 1985SOL     OW 6853   1.354   0.635   1.580
 1985SOL    HW1 6854   1.317   0.624   1.672
 1985SOL    HW2 6855   1.400   0.723   1.573
 1986SOL     OW 6856   1.374   1.498   5.969
 1986SOL    HW1 6857   1.332   1.531   5.885
 1986SOL    HW2 6858   1.342   1.406   5.990
 1987SOL     OW 6859   2.763   2.912   6.816
 1987SOL    HW1 6860   2.762   2.887   6.720
 1987SOL    HW2 6861   2.832   2.983   6.831
 1988SOL     OW 6862   4.456   3.180   0.890
 1988SOL    HW1 6863   4.384   3.111   0.891
 1988SOL    HW2 6864   4.533   3.149   0.946
 1989SOL     OW 6865   2.458   0.180   4.134
 1989SOL    HW1 6866   2.412   0.102   4.176
 1989SOL    HW2 6867   2.446   0.261   4.192
 1990SOL     OW 6868   2.580   0.825   1.943
 1990SOL    HW1 6869   2.520   0.862   2.013
 1990SOL    HW2 6870   2.648   0.765   1.985
 1991SOL     OW 6871   3.419   5.502   4.729
 1991SOL    HW1 6872   3.350   5.528   4.797
 1991SOL    HW2 6873   3.375   5.453   4.653
 1992SOL     OW 6874   2.016   6.538   5.236
 1992SOL    HW1 6875   2.062   6.614   5.190
 1992SOL    HW2 6876   1.918   6.541   5.215
 1993SOL     OW 6877   3.640   3.339   5.275
 1993SOL    HW1 6878   3.644   3.393   5.190
 1993SOL    HW2 6879   3.638   3.401   5.353
 1994SOL     OW 6880   6.324   2.377   2.179
 1994SOL    HW1 6881   6.409   2.399   2.227
 1994SOL    HW2 6882   6.344   2.317   2.102
 1995SOL     OW 6883   5.254   2.519   1.806
 1995SOL    HW1 6884   5.348   2.487   1.800
 1995SOL    HW2 6885   5.203   2.463   1.871
 1996SOL     OW 6886   3.206   4.266   0.197
 1996SOL    HW1 6887   3.202   4.365   0.195
 1996SOL    HW2 6888   3.232   4.232   0.107
 1997SOL     OW 6889   5.434   0.891   3.644
 1997SOL    HW1 6890   5.409   0.976   3.598
 1997SOL    HW2 6891   5.446   0.908   3.742
 1998SOL     OW 6892   2.958   4.819   5.204
 1998SOL    HW1 6893   3.026   4.756   5.242
 1998SOL    HW2 6894   2.899   4.770   5.140
 1999SOL     OW 6895   1.965   1.158   1.940
 1999SOL    HW1 6896   2.025   1.151   2.020
 1999SOL    HW2 6897   1.944   1.066   1.906
 2000SOL     OW 6898   3.860   2.002   5.132
 2000SOL    HW1 6899   3.799   1.952   5.070
 2000SOL    HW2 6900   3.936   2.040   5.080
 2001SOL     OW 6901   2.752   2.475   0.869
 2001SOL    HW1 6902   2.832   2.472   0.809
 2001SOL    HW2 6903   2.731   2.383   0.901
 2002SOL     OW 6904   1.662   5.011   4.988
 2002SOL    HW1 6905   1.716   5.011   5.072
 2002SOL    HW2 6906   1.606   4.928   4.984
 2003SOL     OW 6907   6.428   5.959   3.864
 2003SOL    HW1 6908   6.482   6.005   3.793
 2003SOL    HW2 6909   6.333   5.989   3.859
 2004SOL     OW 6910   2.882   0.867   5.729
 2004SOL    HW1 6911   2.909   0.824   5.642
 2004SOL    HW2 6912   2.826   0.803   5.781
 2005SOL     OW 6913   2.476   6.157   5.959
 2005SOL    HW1 6914   2.567   6.117   5.950
 2005SOL    HW2 6915   2.457   6.214   5.879
 2006SOL     OW 6916   3.832   4.890   3.951
 2006SOL    HW1 6917   3.753   4.862   4.005
 2006SOL    HW2 6918   3.889   4.953   4.004
 2007SOL     OW 6919   5.742   6.000   0.632
 2007SOL    HW1 6920   5.739   6.076   0.698
 2007SOL    HW2 6921   5.836   5.983   0.604
 2008SOL     OW 6922   0.573   5.769   4.034
 2008SOL    HW1 6923   0.637   5.814   3.972
 2008SOL    HW2 6924   0.606   5.779   4.128
 2009SOL     OW 6925   0.306   0.148   2.004
 2009SOL    HW1 6926   0.308   0.236   1.958
 2009SOL    HW2 6927   0.393   0.100   1.989
 2010SOL     OW 6928   1.624   0.435   0.571
 2010SOL    HW1 6929   1.622   0.458   0.473
 2010SOL    HW2 6930   1.642   0.518   0.624
 2011SOL     OW 6931   6.990   1.997   5.123
 2011SOL    HW1 6932   6.932   1.980   5.202
 2011SOL    HW2 6933   0.045   1.923   5.114
 2012SOL     OW 6934   1.027   3.761   1.195
 2012SOL    HW1 6935   1.034   3.664   1.215
 2012SOL    HW2 6936   1.115   3.795   1.163
 2013SOL     OW 6937   4.909   1.460   2.257
 2013SOL    HW1 6938   4.964   1.538   2.287
 2013SOL    HW2 6939   4.936   1.435   2.164
 2014SOL     OW 6940   2.289   5.626   2.457
 2014SOL    HW1 6941   2.336   5.710   2.486
 2014SOL    HW2 6942   2.190   5.642   2.459
 2015SOL     OW 6943   3.617   7.002   6.765
 2015SOL    HW1 6944   3.712   7.005   6.794
 2015SOL    HW2 6945   3.611   6.965   6.672
 2016SOL     OW 6946   0.322   5.312   4.724
 2016SOL    HW1 6947   0.251   5.284   4.658
 2016SOL    HW2 6948   0.384   5.236   4.740
 2017SOL     OW 6949   3.145   5.785   2.766
 2017SOL    HW1 6950   3.133   5.884   2.764
 2017SOL    HW2 6951   3.151   5.750   2.672
 2018SOL     OW 6952   0.873   5.720   5.618
 2018SOL    HW1 6953   0.817   5.803   5.627
 2018SOL    HW2 6954   0.943   5.720   5.690
 2019SOL     OW 6955   6.141   1.664   2.441
 2019SOL    HW1 6956   6.062   1.649   2.381
 2019SOL    HW2 6957   6.216   1.703   2.387
 2020SOL     OW 6958   2.942   6.037   2.999
 2020SOL    HW1 6959   3.019   6.056   2.938
 2020SOL    HW2 6960   2.921   5.939   2.997
 2021SOL     OW 6961   1.045   0.338   1.976
 2021SOL    HW1 6962   0.971   0.345   1.909
 2021SOL    HW2 6963   1.019   0.388   2.059
 2022SOL     OW 6964   1.905   3.738   1.679
 2022SOL    HW1 6965   1.886   3.641   1.663
 2022SOL    HW2 6966   1.985   3.747   1.738
 2023SOL     OW 6967   6.838   0.977   5.578
 2023SOL    HW1 6968   6.812   0.935   5.491
 2023SOL    HW2 6969   6.759   0.979   5.639
 2024SOL     OW 6970   5.917   0.933   3.575
 2024SOL    HW1 6971   5.913   0.888   3.664
 2024SOL    HW2 6972   5.830   0.921   3.528
 2025SOL     OW 6973   6.935   1.244   1.374
 2025SOL    HW1 6974   6.877   1.199   1.443
 2025SOL    HW2 6975   6.887   1.245   1.287
 2026SOL     OW 6976   1.781   1.794   5.478
 2026SOL    HW1 6977   1.771   1.883   5.434
 2026SOL    HW2 6978   1.831   1.732   5.418
 2027SOL     OW 6979   0.890   1.460   3.176
 2027SOL    HW1 6980   0.872   1.541   3.232
 2027SOL    HW2 6981   0.814   1.395   3.186
 2028SOL     OW 6982   4.175   2.987   0.044
 2028SOL    HW1 6983   4.200   3.081   0.068
 2028SOL    HW2 6984   4.122   2.946   0.118
 2029SOL     OW 6985   1.009   0.904   0.292
 2029SOL    HW1 6986   0.948   0.873   0.220
 2029SOL    HW2 6987   1.022   1.003   0.285
 2030SOL     OW 6988   1.800   1.145   3.442
 2030SOL    HW1 6989   1.823   1.084   3.518
 2030SOL    HW2 6990   1.814   1.097   3.355
 2031SOL     OW 6991   5.659   6.856   2.317
 2031SOL    HW1 6992   5.669   6.801   2.234
 2031SOL    HW2 6993   5.642   6.797   2.395
 2032SOL     OW 6994   5.087   6.775   1.580
 2032SOL    HW1 6995   5.018   6.710   1.548
 2032SOL    HW2 6996   5.175   6.755   1.536
 2033SOL     OW 6997   5.836   5.271   6.899
 2033SOL    HW1 6998   5.885   5.312   6.823
 2033SOL    HW2 6999   5.878   5.298   6.986
 2034SOL     OW 7000   2.157   6.961   2.454
 2034SOL    HW1 7001   2.084   6.939   2.518
 2034SOL    HW2 7002   2.142   0.041   2.416
 2035SOL     OW 7003   1.286   2.723   2.390
 2035SOL    HW1 7004   1.265   2.689   2.299
 2035SOL    HW2 7005   1.240   2.811   2.404
 2036SOL     OW 7006   2.110   4.486   0.887
 2036SOL    HW1 7007   2.015   4.499   0.859
 2036SOL    HW2 7008   2.171   4.501   0.809
 2037SOL     OW 7009   0.303   1.234   6.074
 2037SOL    HW1 7010   0.316   1.209   6.170
 2037SOL    HW2 7011   0.392   1.244   6.030
 2038SOL     OW 7012   0.837   0.711   4.148
 2038SOL    HW1 7013   0.793   0.768   4.218
 2038SOL    HW2 7014   0.772   0.645   4.113
 2039SOL     OW 7015   0.599   5.274   2.333
 2039SOL    HW1 7016   0.629   5.214   2.407
 2039SOL    HW2 7017   0.635   5.366   2.347
 2040SOL     OW 7018   4.066   3.324   4.584
 2040SOL    HW1 7019   4.043   3.366   4.671
 2040SOL    HW2 7020   4.150   3.271   4.593
 2041SOL     OW 7021   6.177   4.224   5.950
 2041SOL    HW1 7022   6.268   4.198   5.983
 2041SOL    HW2 7023   6.163   4.186   5.858
 2042SOL     OW 7024   4.181   5.372   6.902
 2042SOL    HW1 7025   4.258   5.424   6.865
 2042SOL    HW2 7026   4.203   5.275   6.901
 2043SOL     OW 7027   5.398   4.689   1.738
 2043SOL    HW1 7028   5.425   4.593   1.728
 2043SOL    HW2 7029   5.445   4.744   1.668
 2044SOL     OW 7030   6.388   0.030   2.171
 2044SOL    HW1 7031   6.316   0.047   2.238
 2044SOL    HW2 7032   6.350   6.994   2.092
 2045SOL     OW 7033   1.956   5.153   6.082
 2045SOL    HW1 7034   1.987   5.123   5.991
 2045SOL    HW2 7035   1.989   5.246   6.099
 2046SOL     OW 7036   6.601   6.909   4.959
 2046SOL    HW1 7037   6.599   6.979   4.888
 2046SOL    HW2 7038   6.542   6.832   4.932
 2047SOL     OW 7039   5.652   2.523   0.315
 2047SOL    HW1 7040   5.576   2.546   0.376
 2047SOL    HW2 7041   5.670   2.600   0.253
 2048SOL     OW 7042   4.813   6.978   5.817
 2048SOL    HW1 7043   4.892   6.925   5.787
 2048SOL    HW2 7044   4.789   6.952   5.911
 2049SOL     OW 7045   4.939   0.450   0.334
 2049SOL    HW1 7046   4.874   0.427   0.406
 2049SOL    HW2 7047   4.895   0.510   0.267
 2050SOL     OW 7048   5.341   2.252   3.821
 2050SOL    HW1 7049   5.258   2.239   3.766
 2050SOL    HW2 7050   5.408   2.303   3.767
 2051SOL     OW 7051   1.880   5.716   0.627
 2051SOL    HW1 7052   1.904   5.657   0.704
 2051SOL    HW2 7053   1.809   5.672   0.572
 2052SOL     OW 7054   0.956   2.869   0.817
 2052SOL    HW1 7055   0.897   2.904   0.890
 2052SOL    HW2 7056   0.952   2.931   0.739
 2053SOL     OW 7057   5.783   0.647   0.449
 2053SOL    HW1 7058   5.782   0.635   0.548
 2053SOL    HW2 7059   5.860   0.705   0.423
 2054SOL     OW 7060   5.956   2.637   0.888
 2054SOL    HW1 7061   5.950   2.735   0.907
 2054SOL    HW2 7062   5.880   2.610   0.828
 2055SOL     OW 7063   5.525   2.437   4.051
 2055SOL    HW1 7064   5.570   2.373   4.114
 2055SOL    HW2 7065   5.427   2.437   4.067
 2056SOL     OW 7066   1.998   0.722   3.401
 2056SOL    HW1 7067   1.917   0.673   3.369
 2056SOL    HW2 7068   2.007   0.712   3.500
 2057SOL     OW 7069   0.101   3.084   3.956
 2057SOL    HW1 7070   0.049   3.146   3.898
 2057SOL    HW2 7071   0.154   3.137   4.022
 2058SOL     OW 7072   6.698   2.271   2.605
 2058SOL    HW1 7073   6.764   2.201   2.630
 2058SOL    HW2 7074   6.610   2.229   2.583
 2059SOL     OW 7075   1.784   1.217   6.857
 2059SOL    HW1 7076   1.714   1.285   6.880
 2059SOL    HW2 7077   1.839   1.249   6.780
 2060SOL     OW 7078   0.659   4.989   2.559
 2060SOL    HW1 7079   0.567   4.970   2.594
 2060SOL    HW2 7080   0.697   5.067   2.608
 2061SOL     OW 7081   6.537   1.799   1.700
 2061SOL    HW1 7082   6.458   1.812   1.640
 2061SOL    HW2 7083   6.527   1.714   1.751
 2062SOL     OW 7084   4.847   0.568   3.162
 2062SOL    HW1 7085   4.924   0.542   3.104
 2062SOL    HW2 7086   4.828   0.495   3.227
 2063SOL     OW 7087   2.067   2.581   6.436
 2063SOL    HW1 7088   1.973   2.613   6.448
 2063SOL    HW2 7089   2.126   2.659   6.414
 2064SOL     OW 7090   1.053   2.704   0.162
 2064SOL    HW1 7091   0.975   2.641   0.160
 2064SOL    HW2 7092   1.136   2.654   0.185
 2065SOL     OW 7093   6.103   4.022   1.168
 2065SOL    HW1 7094   6.176   4.023   1.099
 2065SOL    HW2 7095   6.103   3.934   1.216
 2066SOL     OW 7096   1.054   6.823   4.343
 2066SOL    HW1 7097   0.988   6.790   4.276
 2066SOL    HW2 7098   1.116   6.888   4.299
 2067SOL     OW 7099   6.472   0.213   1.536
 2067SOL    HW1 7100   6.391   0.156   1.545
 2067SOL    HW2 7101   6.445   0.308   1.518
 2068SOL     OW 7102   1.753   2.059   5.298
 2068SOL    HW1 7103   1.653   2.056   5.298
 2068SOL    HW2 7104   1.783   2.154   5.309
 2069SOL     OW 7105   0.662   2.419   2.180
 2069SOL    HW1 7106   0.688   2.428   2.276
 2069SOL    HW2 7107   0.669   2.324   2.152
 2070SOL     OW 7108   1.206   0.960   2.808
 2070SOL    HW1 7109   1.223   1.036   2.871
 2070SOL    HW2 7110   1.160   0.996   2.726
 2071SOL     OW 7111   1.294   6.945   4.290
 2071SOL    HW1 7112   1.322   0.019   4.245
 2071SOL    HW2 7113   1.367   6.914   4.350
 2072SOL     OW 7114   4.994   5.525   1.476
 2072SOL    HW1 7115   4.975   5.541   1.379
 2072SOL    HW2 7116   5.036   5.606   1.516
 2073SOL     OW 7117   2.588   6.642   6.101
 2073SOL    HW1 7118   2.539   6.626   6.187
 2073SOL    HW2 7119   2.674   6.589   6.103
 2074SOL     OW 7120   5.871   1.600   1.945
 2074SOL    HW1 7121   5.812   1.676   1.917
 2074SOL    HW2 7122   5.919   1.565   1.864
 2075SOL     OW 7123   4.794   3.207   0.580
 2075SOL    HW1 7124   4.713   3.257   0.613
 2075SOL    HW2 7125   4.774   3.110   0.576
 2076SOL     OW 7126   5.120   6.941   1.128
 2076SOL    HW1 7127   5.116   6.898   1.038
 2076SOL    HW2 7128   5.110   6.871   1.199
 2077SOL     OW 7129   5.412   1.364   2.868
 2077SOL    HW1 7130   5.408   1.329   2.962
 2077SOL    HW2 7131   5.441   1.459   2.869
 2078SOL     OW 7132   3.201   5.027   5.874
 2078SOL    HW1 7133   3.239   4.950   5.823
 2078SOL    HW2 7134   3.178   4.998   5.967
 2079SOL     OW 7135   5.545   1.003   3.888
 2079SOL    HW1 7136   5.643   0.985   3.880
 2079SOL    HW2 7137   5.530   1.101   3.901
 2080SOL     OW 7138   2.436   2.544   4.408
 2080SOL    HW1 7139   2.534   2.527   4.420
 2080SOL    HW2 7140   2.399   2.586   4.491
 2081SOL     OW 7141   0.359   6.719   5.635
 2081SOL    HW1 7142   0.283   6.664   5.670
 2081SOL    HW2 7143   0.364   6.709   5.535
 2082SOL     OW 7144   5.484   0.873   1.492
 2082SOL    HW1 7145   5.447   0.907   1.578
 2082SOL    HW2 7146   5.411   0.832   1.438
 2083SOL     OW 7147   3.835   5.122   6.337
 2083SOL    HW1 7148   3.890   5.179   6.398
 2083SOL    HW2 7149   3.796   5.179   6.265
 2084SOL     OW 7150   0.180   2.857   3.242
 2084SOL    HW1 7151   0.157   2.919   3.167
 2084SOL    HW2 7152   0.116   2.780   3.242
 2085SOL     OW 7153   5.345   0.642   5.853
 2085SOL    HW1 7154   5.375   0.585   5.929
 2085SOL    HW2 7155   5.423   0.691   5.814
 2086SOL     OW 7156   2.748   4.928   0.670
 2086SOL    HW1 7157   2.700   4.959   0.588
 2086SOL    HW2 7158   2.784   4.836   0.655
 2087SOL     OW 7159   5.151   6.754   3.700
 2087SOL    HW1 7160   5.230   6.705   3.665
 2087SOL    HW2 7161   5.090   6.777   3.623
 2088SOL     OW 7162   3.614   0.265   0.735
 2088SOL    HW1 7163   3.528   0.218   0.755
 2088SOL    HW2 7164   3.642   0.319   0.815
 2089SOL     OW 7165   4.324   0.607   6.689
 2089SOL    HW1 7166   4.329   0.687   6.750
 2089SOL    HW2 7167   4.228   0.590   6.666
 2090SOL     OW 7168   3.655   3.589   4.774
 2090SOL    HW1 7169   3.738   3.645   4.764
 2090SOL    HW2 7170   3.681   3.493   4.774
 2091SOL     OW 7171   1.955   5.070   1.388
 2091SOL    HW1 7172   1.989   5.102   1.476
 2091SOL    HW2 7173   1.874   5.013   1.402
 2092SOL     OW 7174   6.829   6.500   0.897
 2092SOL    HW1 7175   6.860   6.505   0.802
 2092SOL    HW2 7176   6.844   6.588   0.941
 2093SOL     OW 7177   0.951   2.828   1.630
 2093SOL    HW1 7178   0.954   2.897   1.702
 2093SOL    HW2 7179   1.044   2.803   1.603
 2094SOL     OW 7180   5.832   0.087   2.334
 2094SOL    HW1 7181   5.877   0.077   2.423
 2094SOL    HW2 7182   5.748   0.032   2.333
 2095SOL     OW 7183   5.659   5.392   4.945
 2095SOL    HW1 7184   5.715   5.474   4.931
 2095SOL    HW2 7185   5.690   5.344   5.027
 2096SOL     OW 7186   4.926   3.999   2.678
 2096SOL    HW1 7187   4.922   3.929   2.607
 2096SOL    HW2 7188   4.901   3.959   2.766
 2097SOL     OW 7189   0.265   2.206   6.915
 2097SOL    HW1 7190   0.167   2.208   6.934
 2097SOL    HW2 7191   0.297   2.300   6.900
 2098SOL     OW 7192   4.602   0.158   4.224
 2098SOL    HW1 7193   4.537   0.096   4.269
 2098SOL    HW2 7194   4.591   0.151   4.125
 2099SOL     OW 7195   3.236   1.525   4.294
 2099SOL    HW1 7196   3.212   1.432   4.321
 2099SOL    HW2 7197   3.171   1.556   4.224
 2100SOL     OW 7198   4.519   4.175   6.396
 2100SOL    HW1 7199   4.507   4.077   6.409
 2100SOL    HW2 7200   4.584   4.210   6.463
 2101SOL     OW 7201   0.421   6.841   3.509
 2101SOL    HW1 7202   0.355   6.914   3.529
 2101SOL    HW2 7203   0.418   6.819   3.411
 2102SOL     OW 7204   0.069   5.054   3.040
 2102SOL    HW1 7205   0.034   5.006   2.959
 2102SOL    HW2 7206   0.169   5.056   3.037
 2103SOL     OW 7207   3.437   3.751   6.206
 2103SOL    HW1 7208   3.464   3.847   6.203
 2103SOL    HW2 7209   3.382   3.730   6.125
 2104SOL     OW 7210   1.441   3.251   5.405
 2104SOL    HW1 7211   1.465   3.344   5.432
 2104SOL    HW2 7212   1.487   3.228   5.318
 2105SOL     OW 7213   6.011   5.782   1.543
 2105SOL    HW1 7214   6.014   5.881   1.526
 2105SOL    HW2 7215   6.092   5.739   1.505
 2106SOL     OW 7216   4.618   5.457   6.897
 2106SOL    HW1 7217   4.699   5.465   6.839
 2106SOL    HW2 7218   4.584   5.363   6.894
 2107SOL     OW 7219   4.162   4.398   5.980
 2107SOL    HW1 7220   4.214   4.402   6.065
 2107SOL    HW2 7221   4.214   4.444   5.907
 2108SOL     OW 7222   5.713   5.000   6.000
 2108SOL    HW1 7223   5.647   4.953   5.942
 2108SOL    HW2 7224   5.792   4.941   6.016
 2109SOL     OW 7225   5.714   6.292   2.562
 2109SOL    HW1 7226   5.734   6.350   2.483
 2109SOL    HW2 7227   5.799   6.267   2.607
 2110SOL     OW 7228   2.478   4.475   6.507
 2110SOL    HW1 7229   2.522   4.388   6.482
 2110SOL    HW2 7230   2.440   4.517   6.424
 2111SOL     OW 7231   1.333   2.864   0.177
 2111SOL    HW1 7232   1.283   2.937   0.224
 2111SOL    HW2 7233   1.428   2.865   0.207
 2112SOL     OW 7234   4.811   3.023   1.475
 2112SOL    HW1 7235   4.869   2.971   1.539
 2112SOL    HW2 7236   4.725   3.047   1.519
 2113SOL     OW 7237   0.727   0.417   2.932
 2113SOL    HW1 7238   0.629   0.433   2.921
 2113SOL    HW2 7239   0.744   0.371   3.019
 2114SOL     OW 7240   2.226   3.576   7.009
 2114SOL    HW1 7241   2.132   3.590   6.978
 2114SOL    HW2 7242   2.251   3.480   6.996
 2115SOL     OW 7243   2.256   4.770   2.435
 2115SOL    HW1 7244   2.337   4.785   2.492
 2115SOL    HW2 7245   2.282   4.720   2.352
 2116SOL     OW 7246   0.422   4.388   3.301
 2116SOL    HW1 7247   0.475   4.473   3.303
 2116SOL    HW2 7248   0.417   4.351   3.394
 2117SOL     OW 7249   0.402   4.678   0.996
 2117SOL    HW1 7250   0.406   4.692   0.897
 2117SOL    HW2 7251   0.488   4.638   1.028
 2118SOL     OW 7252   0.015   3.896   2.252
 2118SOL    HW1 7253   0.080   3.957   2.298
 2118SOL    HW2 7254   6.995   3.826   2.317
 2119SOL     OW 7255   2.463   6.123   1.580
 2119SOL    HW1 7256   2.538   6.058   1.573
 2119SOL    HW2 7257   2.386   6.079   1.628
 2120SOL     OW 7258   6.688   4.738   2.107
 2120SOL    HW1 7259   6.640   4.811   2.155
 2120SOL    HW2 7260   6.771   4.775   2.065
 2121SOL     OW 7261   0.273   5.570   5.135
 2121SOL    HW1 7262   0.242   5.658   5.169
 2121SOL    HW2 7263   0.354   5.582   5.077
 2122SOL     OW 7264   4.592   4.523   5.010
 2122SOL    HW1 7265   4.619   4.504   4.916
 2122SOL    HW2 7266   4.492   4.530   5.015
 2123SOL     OW 7267   6.452   4.370   3.002
 2123SOL    HW1 7268   6.409   4.433   2.937
 2123SOL    HW2 7269   6.446   4.408   3.094
 2124SOL     OW 7270   2.285   1.914   0.783
 2124SOL    HW1 7271   2.298   2.004   0.741
 2124SOL    HW2 7272   2.356   1.852   0.750
 2125SOL     OW 7273   2.871   0.212   0.633
 2125SOL    HW1 7274   2.843   0.217   0.537
 2125SOL    HW2 7275   2.856   0.301   0.677
 2126SOL     OW 7276   2.669   0.765   6.776
 2126SOL    HW1 7277   2.748   0.709   6.752
 2126SOL    HW2 7278   2.596   0.752   6.709
 2127SOL     OW 7279   5.630   3.045   4.620
 2127SOL    HW1 7280   5.634   3.144   4.629
 2127SOL    HW2 7281   5.722   3.007   4.627
 2128SOL     OW 7282   0.393   4.791   3.981
 2128SOL    HW1 7283   0.452   4.732   3.926
 2128SOL    HW2 7284   0.297   4.777   3.953
 2129SOL     OW 7285   4.156   1.621   5.634
 2129SOL    HW1 7286   4.124   1.656   5.722
 2129SOL    HW2 7287   4.247   1.657   5.615
 2130SOL     OW 7288   4.269   6.490   2.307
 2130SOL    HW1 7289   4.259   6.548   2.388
 2130SOL    HW2 7290   4.365   6.484   2.282
 2131SOL     OW 7291   0.012   1.552   0.160
 2131SOL    HW1 7292   0.018   1.474   0.098
 2131SOL    HW2 7293   0.093   1.610   0.151
 2132SOL     OW 7294   1.812   3.194   0.489
 2132SOL    HW1 7295   1.722   3.152   0.475
 2132SOL    HW2 7296   1.870   3.174   0.411
 2133SOL     OW 7297   2.609   2.704   5.917
 2133SOL    HW1 7298   2.611   2.791   5.869
 2133SOL    HW2 7299   2.571   2.634   5.856
 2134SOL     OW 7300   1.083   0.680   0.424
 2134SOL    HW1 7301   1.031   0.758   0.389
 2134SOL    HW2 7302   1.165   0.667   0.368
 2135SOL     OW 7303   0.537   3.832   4.021
 2135SOL    HW1 7304   0.457   3.826   3.961
 2135SOL    HW2 7305   0.578   3.742   4.031
 2136SOL     OW 7306   2.261   5.843   1.635
 2136SOL    HW1 7307   2.236   5.912   1.702
 2136SOL    HW2 7308   2.329   5.781   1.674
 2137SOL     OW 7309   2.508   5.817   4.149
 2137SOL    HW1 7310   2.473   5.859   4.065
 2137SOL    HW2 7311   2.522   5.887   4.218
 2138SOL     OW 7312   5.423   1.825   2.471
 2138SOL    HW1 7313   5.481   1.900   2.502
 2138SOL    HW2 7314   5.480   1.756   2.425
 2139SOL     OW 7315   3.035   1.333   5.291
 2139SOL    HW1 7316   3.095   1.328   5.371
 2139SOL    HW2 7317   3.018   1.240   5.257
 2140SOL     OW 7318   2.185   1.506   5.217
 2140SOL    HW1 7319   2.264   1.446   5.206
 2140SOL    HW2 7320   2.194   1.559   5.301
 2141SOL     OW 7321   6.275   4.425   2.259
 2141SOL    HW1 7322   6.208   4.475   2.204
 2141SOL    HW2 7323   6.365   4.467   2.248
 2142SOL     OW 7324   2.017   1.486   3.323
 2142SOL    HW1 7325   1.947   1.516   3.259
 2142SOL    HW2 7326   1.979   1.420   3.387
 2143SOL     OW 7327   1.860   4.532   0.794
 2143SOL    HW1 7328   1.819   4.520   0.703
 2143SOL    HW2 7329   1.790   4.524   0.864
 2144SOL     OW 7330   6.302   6.075   4.467
 2144SOL    HW1 7331   6.208   6.043   4.463
 2144SOL    HW2 7332   6.347   6.037   4.547
 2145SOL     OW 7333   4.231   6.864   3.587
 2145SOL    HW1 7334   4.318   6.871   3.636
 2145SOL    HW2 7335   4.234   6.922   3.506
 2146SOL     OW 7336   2.155   3.065   0.922
 2146SOL    HW1 7337   2.211   2.986   0.947
 2146SOL    HW2 7338   2.088   3.037   0.853
 2147SOL     OW 7339   5.510   1.393   5.114
 2147SOL    HW1 7340   5.556   1.353   5.193
 2147SOL    HW2 7341   5.425   1.436   5.144
 2148SOL     OW 7342   0.482   3.134   6.888
 2148SOL    HW1 7343   0.410   3.158   6.954
 2148SOL    HW2 7344   0.561   3.098   6.937
 2149SOL     OW 7345   0.598   0.544   6.805
 2149SOL    HW1 7346   0.502   0.516   6.812
 2149SOL    HW2 7347   0.603   0.643   6.792
 2150SOL     OW 7348   2.228   3.303   1.439
 2150SOL    HW1 7349   2.326   3.303   1.461
 2150SOL    HW2 7350   2.216   3.293   1.341
 2151SOL     OW 7351   1.230   5.560   0.198
 2151SOL    HW1 7352   1.256   5.480   0.144
 2151SOL    HW2 7353   1.274   5.641   0.160
 2152SOL     OW 7354   3.868   6.131   3.692
 2152SOL    HW1 7355   3.841   6.180   3.609
 2152SOL    HW2 7356   3.809   6.051   3.705
 2153SOL     OW 7357   4.763   1.323   3.809
 2153SOL    HW1 7358   4.798   1.269   3.732
 2153SOL    HW2 7359   4.819   1.405   3.820
 2154SOL     OW 7360   3.058   6.878   2.991
 2154SOL    HW1 7361   2.981   6.938   3.014
 2154SOL    HW2 7362   3.130   6.889   3.060
 2155SOL     OW 7363   4.877   6.724   1.222
 2155SOL    HW1 7364   4.883   6.647   1.286
 2155SOL    HW2 7365   4.833   6.802   1.266
 2156SOL     OW 7366   5.655   1.592   4.018
 2156SOL    HW1 7367   5.742   1.636   3.998
 2156SOL    HW2 7368   5.586   1.623   3.954
 2157SOL     OW 7369   3.534   5.209   3.668
 2157SOL    HW1 7370   3.478   5.230   3.589
 2157SOL    HW2 7371   3.610   5.274   3.673
 2158SOL     OW 7372   3.376   0.604   0.088
 2158SOL    HW1 7373   3.449   0.666   0.117
 2158SOL    HW2 7374   3.289   0.635   0.127
 2159SOL     OW 7375   1.498   0.343   5.655
 2159SOL    HW1 7376   1.581   0.288   5.671
 2159SOL    HW2 7377   1.524   0.439   5.644
 2160SOL     OW 7378   5.737   6.448   0.653
 2160SOL    HW1 7379   5.818   6.439   0.594
 2160SOL    HW2 7380   5.762   6.503   0.734
 2161SOL     OW 7381   1.842   2.087   2.568
 2161SOL    HW1 7382   1.859   2.185   2.579
 2161SOL    HW2 7383   1.789   2.072   2.485
 2162SOL     OW 7384   1.356   7.001   2.368
 2162SOL    HW1 7385   1.285   0.001   2.298
 2162SOL    HW2 7386   1.377   0.079   2.408
 2163SOL     OW 7387   1.561   3.277   2.060
 2163SOL    HW1 7388   1.618   3.218   2.003
 2163SOL    HW2 7389   1.503   3.334   2.002
 2164SOL     OW 7390   1.840   2.732   2.491
 2164SOL    HW1 7391   1.901   2.697   2.421
 2164SOL    HW2 7392   1.817   2.827   2.472
 2165SOL     OW 7393   0.046   1.702   4.252
 2165SOL    HW1 7394   6.975   1.701   4.309
 2165SOL    HW2 7395   0.118   1.650   4.298
 2166SOL     OW 7396   0.166   4.039   3.240
 2166SOL    HW1 7397   0.078   4.002   3.271
 2166SOL    HW2 7398   0.187   4.000   3.150
 2167SOL     OW 7399   2.177   2.091   4.069
 2167SOL    HW1 7400   2.268   2.111   4.106
 2167SOL    HW2 7401   2.112   2.084   4.145
 2168SOL     OW 7402   1.754   1.450   3.172
 2168SOL    HW1 7403   1.807   1.405   3.101
 2168SOL    HW2 7404   1.656   1.442   3.151
 2169SOL     OW 7405   0.051   0.667   1.671
 2169SOL    HW1 7406   0.072   0.736   1.741
 2169SOL    HW2 7407   0.030   0.580   1.716
 2170SOL     OW 7408   0.858   4.363   5.409
 2170SOL    HW1 7409   0.848   4.337   5.313
 2170SOL    HW2 7410   0.771   4.399   5.443
 2171SOL     OW 7411   0.599   5.118   0.963
 2171SOL    HW1 7412   0.558   5.094   1.051
 2171SOL    HW2 7413   0.554   5.200   0.927
 2172SOL     OW 7414   1.029   1.692   5.119
 2172SOL    HW1 7415   1.094   1.732   5.185
 2172SOL    HW2 7416   0.937   1.696   5.157
 2173SOL     OW 7417   5.525   0.274   4.953
 2173SOL    HW1 7418   5.613   0.306   4.988
 2173SOL    HW2 7419   5.483   0.346   4.897
 2174SOL     OW 7420   0.032   6.536   5.262
 2174SOL    HW1 7421   0.066   6.442   5.257
 2174SOL    HW2 7422   0.087   6.588   5.327
 2175SOL     OW 7423   3.081   3.638   5.349
 2175SOL    HW1 7424   3.001   3.579   5.358
 2175SOL    HW2 7425   3.077   3.709   5.419
 2176SOL     OW 7426   5.484   2.230   1.617
 2176SOL    HW1 7427   5.523   2.308   1.667
 2176SOL    HW2 7428   5.435   2.264   1.536
 2177SOL     OW 7429   0.378   0.604   3.559
 2177SOL    HW1 7430   0.377   0.625   3.461
 2177SOL    HW2 7431   0.296   0.552   3.582
 2178SOL     OW 7432   1.078   2.031   2.603
 2178SOL    HW1 7433   1.091   2.127   2.631
 2178SOL    HW2 7434   0.985   2.003   2.625
 2179SOL     OW 7435   1.804   4.088   6.532
 2179SOL    HW1 7436   1.762   4.170   6.492
 2179SOL    HW2 7437   1.732   4.022   6.555
 2180SOL     OW 7438   0.696   5.845   1.837
 2180SOL    HW1 7439   0.777   5.791   1.816
 2180SOL    HW2 7440   0.662   5.888   1.753
 2181SOL     OW 7441   3.859   4.879   4.591
 2181SOL    HW1 7442   3.913   4.862   4.673
 2181SOL    HW2 7443   3.856   4.796   4.535
 2182SOL     OW 7444   0.047   5.564   2.635
 2182SOL    HW1 7445   0.008   5.530   2.720
 2182SOL    HW2 7446   0.127   5.508   2.610
 2183SOL     OW 7447   3.979   2.719   0.027
 2183SOL    HW1 7448   3.914   2.654   7.001
 2183SOL    HW2 7449   4.012   2.780   6.966
 2184SOL     OW 7450   6.176   0.857   6.862
 2184SOL    HW1 7451   6.245   0.907   6.914
 2184SOL    HW2 7452   6.149   0.776   6.914
 2185SOL     OW 7453   0.500   1.091   6.885
 2185SOL    HW1 7454   0.546   1.033   6.817
 2185SOL    HW2 7455   0.405   1.063   6.893
 2186SOL     OW 7456   6.701   5.428   5.131
 2186SOL    HW1 7457   6.746   5.341   5.112
 2186SOL    HW2 7458   6.763   5.504   5.111
 2187SOL     OW 7459   0.547   5.608   3.072
 2187SOL    HW1 7460   0.494   5.691   3.052
 2187SOL    HW2 7461   0.514   5.533   3.014
 2188SOL     OW 7462   2.188   0.168   0.737
 2188SOL    HW1 7463   2.116   0.227   0.775
 2188SOL    HW2 7464   2.277   0.209   0.754
 2189SOL     OW 7465   2.751   1.146   1.213
 2189SOL    HW1 7466   2.792   1.094   1.288
 2189SOL    HW2 7467   2.809   1.223   1.190
 2190SOL     OW 7468   6.320   4.264   2.457
 2190SOL    HW1 7469   6.295   4.333   2.390
 2190SOL    HW2 7470   6.410   4.227   2.435
 2191SOL     OW 7471   2.917   0.666   6.639
 2191SOL    HW1 7472   2.884   0.707   6.554
 2191SOL    HW2 7473   2.937   0.569   6.624
 2192SOL     OW 7474   4.392   1.020   1.600
 2192SOL    HW1 7475   4.431   1.079   1.528
 2192SOL    HW2 7476   4.297   0.998   1.578
 2193SOL     OW 7477   0.976   6.739   6.689
 2193SOL    HW1 7478   0.984   6.816   6.626
 2193SOL    HW2 7479   1.014   6.764   6.778
 2194SOL     OW 7480   0.988   4.240   6.073
 2194SOL    HW1 7481   0.893   4.271   6.063
 2194SOL    HW2 7482   1.035   4.298   6.139
 2195SOL     OW 7483   0.685   4.273   6.340
 2195SOL    HW1 7484   0.638   4.185   6.333
 2195SOL    HW2 7485   0.780   4.258   6.366
 2196SOL     OW 7486   2.812   6.327   5.803
 2196SOL    HW1 7487   2.862   6.242   5.823
 2196SOL    HW2 7488   2.870   6.388   5.750
 2197SOL     OW 7489   2.629   4.803   5.687
 2197SOL    HW1 7490   2.675   4.756   5.763
 2197SOL    HW2 7491   2.654   4.900   5.688
 2198SOL     OW 7492   0.475   0.718   6.488
 2198SOL    HW1 7493   0.376   0.729   6.493
 2198SOL    HW2 7494   0.517   0.756   6.571
 2199SOL     OW 7495   4.272   6.751   4.383
 2199SOL    HW1 7496   4.243   6.771   4.289
 2199SOL    HW2 7497   4.194   6.715   4.434
 2200SOL     OW 7498   2.719   1.599   4.312
 2200SOL    HW1 7499   2.689   1.556   4.398
 2200SOL    HW2 7500   2.641   1.605   4.250
 2201SOL     OW 7501   6.271   4.155   3.714
 2201SOL    HW1 7502   6.191   4.210   3.694
 2201SOL    HW2 7503   6.354   4.210   3.704
 2202SOL     OW 7504   4.239   5.864   1.890
 2202SOL    HW1 7505   4.324   5.830   1.930
 2202SOL    HW2 7506   4.201   5.937   1.947
 2203SOL     OW 7507   2.194   3.376   1.152
 2203SOL    HW1 7508   2.154   3.388   1.061
 2203SOL    HW2 7509   2.155   3.443   1.215
 2204SOL     OW 7510   4.661   3.087   1.071
 2204SOL    HW1 7511   4.592   3.122   1.135
 2204SOL    HW2 7512   4.645   2.989   1.057
 2205SOL     OW 7513   1.484   4.984   0.402
 2205SOL    HW1 7514   1.574   5.023   0.385
 2205SOL    HW2 7515   1.452   4.936   0.320
 2206SOL     OW 7516   2.626   2.592   6.179
 2206SOL    HW1 7517   2.563   2.626   6.248
 2206SOL    HW2 7518   2.616   2.647   6.095
 2207SOL     OW 7519   4.867   5.999   0.451
 2207SOL    HW1 7520   4.828   5.942   0.379
 2207SOL    HW2 7521   4.798   6.017   0.521
 2208SOL     OW 7522   0.906   6.030   4.213
 2208SOL    HW1 7523   0.889   6.069   4.303
 2208SOL    HW2 7524   0.851   6.078   4.144
 2209SOL     OW 7525   3.221   5.569   4.876
 2209SOL    HW1 7526   3.189   5.570   4.971
 2209SOL    HW2 7527   3.142   5.559   4.815
 2210SOL     OW 7528   5.142   6.179   1.134
 2210SOL    HW1 7529   5.103   6.242   1.201
 2210SOL    HW2 7530   5.070   6.119   1.099
 2211SOL     OW 7531   6.543   1.138   0.961
 2211SOL    HW1 7532   6.476   1.089   1.017
 2211SOL    HW2 7533   6.611   1.180   1.021
 2212SOL     OW 7534   2.318   6.267   6.748
 2212SOL    HW1 7535   2.362   6.298   6.832
 2212SOL    HW2 7536   2.311   6.344   6.684
 2213SOL     OW 7537   3.427   2.156   4.286
 2213SOL    HW1 7538   3.392   2.239   4.329
 2213SOL    HW2 7539   3.423   2.080   4.351
 2214SOL     OW 7540   4.162   3.098   6.008
 2214SOL    HW1 7541   4.209   3.127   5.924
 2214SOL    HW2 7542   4.067   3.129   6.005
 2215SOL     OW 7543   4.480   0.387   6.799
 2215SOL    HW1 7544   4.419   0.454   6.755
 2215SOL    HW2 7545   4.537   0.433   6.867
 2216SOL     OW 7546   0.605   6.652   6.358
 2216SOL    HW1 7547   0.553   6.630   6.275
 2216SOL    HW2 7548   0.549   6.634   6.438
 2217SOL     OW 7549   3.901   0.590   2.778
 2217SOL    HW1 7550   3.909   0.563   2.874
 2217SOL    HW2 7551   3.925   0.687   2.769
 2218SOL     OW 7552   0.574   5.558   5.525
 2218SOL    HW1 7553   0.586   5.580   5.621
 2218SOL    HW2 7554   0.508   5.483   5.516
 2219SOL     OW 7555   5.281   1.334   0.365
 2219SOL    HW1 7556   5.347   1.301   0.297
 2219SOL    HW2 7557   5.193   1.350   0.321
 2220SOL     OW 7558   0.497   6.329   5.644
 2220SOL    HW1 7559   0.482   6.426   5.624
 2220SOL    HW2 7560   0.547   6.320   5.730
 2221SOL     OW 7561   6.931   1.403   4.369
 2221SOL    HW1 7562   0.013   1.437   4.382
 2221SOL    HW2 7563   6.907   1.341   4.443
 2222SOL     OW 7564   4.817   6.123   1.234
 2222SOL    HW1 7565   4.862   6.116   1.145
 2222SOL    HW2 7566   4.745   6.054   1.240
 2223SOL     OW 7567   6.688   6.963   5.653
 2223SOL    HW1 7568   6.690   6.964   5.553
 2223SOL    HW2 7569   6.676   6.869   5.684
 2224SOL     OW 7570   5.638   4.073   0.893
 2224SOL    HW1 7571   5.558   4.023   0.925
 2224SOL    HW2 7572   5.609   4.158   0.848
 2225SOL     OW 7573   0.542   6.648   3.107
 2225SOL    HW1 7574   0.622   6.665   3.050
 2225SOL    HW2 7575   0.521   6.729   3.161
 2226SOL     OW 7576   2.245   4.982   0.879
 2226SOL    HW1 7577   2.228   4.885   0.899
 2226SOL    HW2 7578   2.331   5.010   0.922
 2227SOL     OW 7579   4.360   2.332   2.211
 2227SOL    HW1 7580   4.392   2.319   2.117
 2227SOL    HW2 7581   4.397   2.418   2.248
 2228SOL     OW 7582   4.839   4.908   0.005
 2228SOL    HW1 7583   4.825   5.001   6.984
 2228SOL    HW2 7584   4.901   4.860   6.954
 2229SOL     OW 7585   3.397   3.428   4.733
 2229SOL    HW1 7586   3.454   3.509   4.723
 2229SOL    HW2 7587   3.317   3.435   4.674
 2230SOL     OW 7588   5.519   6.600   0.588
 2230SOL    HW1 7589   5.590   6.533   0.564
 2230SOL    HW2 7590   5.559   6.673   0.644
 2231SOL     OW 7591   0.880   0.769   0.101
 2231SOL    HW1 7592   0.886   0.824   0.018
 2231SOL    HW2 7593   0.876   0.672   0.076
 2232SOL     OW 7594   1.332   0.253   5.407
 2232SOL    HW1 7595   1.251   0.246   5.464
 2232SOL    HW2 7596   1.412   0.268   5.465
 2233SOL     OW 7597   3.191   2.949   1.229
 2233SOL    HW1 7598   3.121   2.903   1.284
 2233SOL    HW2 7599   3.146   3.011   1.164
 2234SOL     OW 7600   3.871   1.940   0.575
 2234SOL    HW1 7601   3.881   1.904   0.668
 2234SOL    HW2 7602   3.815   2.023   0.578
 2235SOL     OW 7603   2.297   0.988   2.468
 2235SOL    HW1 7604   2.261   0.912   2.521
 2235SOL    HW2 7605   2.294   0.966   2.370
 2236SOL     OW 7606   2.222   4.205   5.550
 2236SOL    HW1 7607   2.144   4.182   5.608
 2236SOL    HW2 7608   2.245   4.127   5.493
 2237SOL     OW 7609   5.586   5.087   5.363
 2237SOL    HW1 7610   5.529   5.039   5.296
 2237SOL    HW2 7611   5.682   5.069   5.343
 2238SOL     OW 7612   5.117   4.354   2.322
 2238SOL    HW1 7613   5.104   4.264   2.362
 2238SOL    HW2 7614   5.127   4.347   2.223
 2239SOL     OW 7615   3.873   0.042   3.699
 2239SOL    HW1 7616   3.914   0.104   3.766
 2239SOL    HW2 7617   3.915   0.056   3.609
 2240SOL     OW 7618   4.849   5.676   3.015
 2240SOL    HW1 7619   4.780   5.736   3.055
 2240SOL    HW2 7620   4.829   5.662   2.918
 2241SOL     OW 7621   0.388   6.568   1.633
 2241SOL    HW1 7622   0.390   6.657   1.679
 2241SOL    HW2 7623   0.338   6.503   1.690
 2242SOL     OW 7624   4.896   3.144   2.952
 2242SOL    HW1 7625   4.874   3.179   2.860
 2242SOL    HW2 7626   4.878   3.046   2.955
 2243SOL     OW 7627   1.901   6.607   0.520
 2243SOL    HW1 7628   1.814   6.640   0.481
 2243SOL    HW2 7629   1.921   6.517   0.482
 2244SOL     OW 7630   2.521   0.118   0.894
 2244SOL    HW1 7631   2.487   0.211   0.882
 2244SOL    HW2 7632   2.619   0.116   0.877
 2245SOL     OW 7633   0.525   0.906   0.258
 2245SOL    HW1 7634   0.467   0.849   0.200
 2245SOL    HW2 7635   0.596   0.950   0.201
 2246SOL     OW 7636   2.391   0.894   4.943
 2246SOL    HW1 7637   2.346   0.981   4.924
 2246SOL    HW2 7638   2.383   0.833   4.864
 2247SOL     OW 7639   3.563   4.117   2.731
 2247SOL    HW1 7640   3.508   4.072   2.802
 2247SOL    HW2 7641   3.504   4.136   2.652
 2248SOL     OW 7642   5.541   4.112   5.365
 2248SOL    HW1 7643   5.489   4.031   5.394
 2248SOL    HW2 7644   5.498   4.153   5.284
 2249SOL     OW 7645   2.349   6.681   3.926
 2249SOL    HW1 7646   2.371   6.753   3.860
 2249SOL    HW2 7647   2.336   6.595   3.878
 2250SOL     OW 7648   4.046   3.911   6.194
 2250SOL    HW1 7649   3.998   3.923   6.107
 2250SOL    HW2 7650   3.979   3.894   6.267
 2251SOL     OW 7651   5.413   6.701   5.949
 2251SOL    HW1 7652   5.464   6.733   5.869
 2251SOL    HW2 7653   5.325   6.662   5.919
 2252SOL     OW 7654   5.059   1.730   2.743
 2252SOL    HW1 7655   5.019   1.685   2.823
 2252SOL    HW2 7656   5.125   1.799   2.774
 2253SOL     OW 7657   0.797   3.386   0.864
 2253SOL    HW1 7658   0.834   3.472   0.899
 2253SOL    HW2 7659   0.857   3.310   0.891
 2254SOL     OW 7660   3.855   3.790   2.855
 2254SOL    HW1 7661   3.879   3.811   2.949
 2254SOL    HW2 7662   3.857   3.691   2.841
 2255SOL     OW 7663   3.018   4.285   5.607
 2255SOL    HW1 7664   3.083   4.209   5.613
 2255SOL    HW2 7665   2.964   4.276   5.523
 2256SOL     OW 7666   5.149   6.033   1.872
 2256SOL    HW1 7667   5.160   5.934   1.856
 2256SOL    HW2 7668   5.061   6.050   1.916
 2257SOL     OW 7669   6.931   1.792   4.671
 2257SOL    HW1 7670   6.921   1.778   4.770
 2257SOL    HW2 7671   0.000   1.744   4.638
 2258SOL     OW 7672   2.081   6.579   4.493
 2258SOL    HW1 7673   2.101   6.649   4.562
 2258SOL    HW2 7674   2.025   6.507   4.534
 2259SOL     OW 7675   6.607   2.694   4.911
 2259SOL    HW1 7676   6.618   2.604   4.954
 2259SOL    HW2 7677   6.683   2.753   4.938
 2260SOL     OW 7678   1.237   4.135   1.470
 2260SOL    HW1 7679   1.273   4.074   1.399
 2260SOL    HW2 7680   1.296   4.130   1.550
 2261SOL     OW 7681   5.464   3.626   0.275
 2261SOL    HW1 7682   5.500   3.719   0.276
 2261SOL    HW2 7683   5.476   3.585   0.365
 2262SOL     OW 7684   6.685   0.505   4.306
 2262SOL    HW1 7685   6.751   0.445   4.351
 2262SOL    HW2 7686   6.642   0.565   4.374
 2263SOL     OW 7687   1.490   4.465   0.434
 2263SOL    HW1 7688   1.452   4.476   0.342
 2263SOL    HW2 7689   1.416   4.462   0.501
 2264SOL     OW 7690   2.089   6.743   6.501
 2264SOL    HW1 7691   2.055   6.732   6.408
 2264SOL    HW2 7692   2.135   6.831   6.510
 2265SOL     OW 7693   0.828   6.519   3.741
 2265SOL    HW1 7694   0.899   6.462   3.782
 2265SOL    HW2 7695   0.744   6.511   3.795
 2266SOL     OW 7696   5.083   1.733   6.473
 2266SOL    HW1 7697   5.064   1.687   6.386
 2266SOL    HW2 7698   5.143   1.675   6.529
 2267SOL     OW 7699   4.671   2.768   4.761
 2267SOL    HW1 7700   4.695   2.850   4.709
 2267SOL    HW2 7701   4.729   2.762   4.842
 2268SOL     OW 7702   6.655   4.356   6.201
 2268SOL    HW1 7703   6.569   4.353   6.149
 2268SOL    HW2 7704   6.703   4.269   6.193
 2269SOL     OW 7705   1.615   3.243   5.202
 2269SOL    HW1 7706   1.713   3.260   5.212
 2269SOL    HW2 7707   1.582   3.285   5.117
 2270SOL     OW 7708   4.403   2.522   6.257
 2270SOL    HW1 7709   4.479   2.570   6.213
 2270SOL    HW2 7710   4.356   2.464   6.190
 2271SOL     OW 7711   6.066   4.481   6.067
 2271SOL    HW1 7712   6.136   4.552   6.064
 2271SOL    HW2 7713   6.104   4.395   6.034
 2272SOL     OW 7714   6.051   1.273   5.827
 2272SOL    HW1 7715   5.962   1.291   5.868
 2272SOL    HW2 7716   6.106   1.219   5.891
 2273SOL     OW 7717   2.260   2.374   2.291
 2273SOL    HW1 7718   2.282   2.300   2.354
 2273SOL    HW2 7719   2.333   2.443   2.296
 2274SOL     OW 7720   0.447   1.232   0.148
 2274SOL    HW1 7721   0.434   1.325   0.180
 2274SOL    HW2 7722   0.378   1.211   0.078
 2275SOL     OW 7723   5.737   4.812   2.352
 2275SOL    HW1 7724   5.678   4.757   2.410
 2275SOL    HW2 7725   5.824   4.765   2.336
 2276SOL     OW 7726   1.587   1.229   1.483
 2276SOL    HW1 7727   1.560   1.292   1.411
 2276SOL    HW2 7728   1.586   1.135   1.448
 2277SOL     OW 7729   3.374   4.077   3.431
 2277SOL    HW1 7730   3.369   3.984   3.468
 2277SOL    HW2 7731   3.454   4.086   3.372
 2278SOL     OW 7732   0.660   2.452   3.686
 2278SOL    HW1 7733   0.671   2.453   3.586
 2278SOL    HW2 7734   0.624   2.541   3.716
 2279SOL     OW 7735   6.777   5.869   6.207
 2279SOL    HW1 7736   6.720   5.922   6.145
 2279SOL    HW2 7737   6.772   5.772   6.183
 2280SOL     OW 7738   5.236   1.054   5.359
 2280SOL    HW1 7739   5.312   0.994   5.333
 2280SOL    HW2 7740   5.259   1.104   5.442
 2281SOL     OW 7741   4.714   6.500   2.544
 2281SOL    HW1 7742   4.698   6.424   2.607
 2281SOL    HW2 7743   4.676   6.478   2.454
 2282SOL     OW 7744   4.347   5.395   5.868
 2282SOL    HW1 7745   4.270   5.346   5.826
 2282SOL    HW2 7746   4.427   5.335   5.871
 2283SOL     OW 7747   1.522   0.396   3.502
 2283SOL    HW1 7748   1.450   0.445   3.453
 2283SOL    HW2 7749   1.486   0.309   3.535
 2284SOL     OW 7750   1.009   3.285   6.287
 2284SOL    HW1 7751   1.007   3.319   6.381
 2284SOL    HW2 7752   1.009   3.363   6.224
 2285SOL     OW 7753   1.269   3.689   0.463
 2285SOL    HW1 7754   1.259   3.644   0.375
 2285SOL    HW2 7755   1.265   3.620   0.536
 2286SOL     OW 7756   5.064   6.599   3.323
 2286SOL    HW1 7757   5.035   6.672   3.385
 2286SOL    HW2 7758   5.132   6.541   3.369
 2287SOL     OW 7759   2.221   0.890   3.367
 2287SOL    HW1 7760   2.228   0.978   3.415
 2287SOL    HW2 7761   2.128   0.855   3.376
 2288SOL     OW 7762   0.534   5.257   3.495
 2288SOL    HW1 7763   0.563   5.169   3.457
 2288SOL    HW2 7764   0.586   5.331   3.453
 2289SOL     OW 7765   0.657   5.518   2.167
 2289SOL    HW1 7766   0.600   5.590   2.129
 2289SOL    HW2 7767   0.738   5.505   2.110
 2290SOL     OW 7768   1.123   4.635   1.488
 2290SOL    HW1 7769   1.087   4.593   1.405
 2290SOL    HW2 7770   1.072   4.602   1.567
 2291SOL     OW 7771   3.080   1.735   5.977
 2291SOL    HW1 7772   3.050   1.807   6.039
 2291SOL    HW2 7773   3.119   1.660   6.031
 2292SOL     OW 7774   1.337   1.004   4.782
 2292SOL    HW1 7775   1.347   0.918   4.733
 2292SOL    HW2 7776   1.261   0.997   4.846
 2293SOL     OW 7777   5.589   5.500   1.656
 2293SOL    HW1 7778   5.649   5.462   1.586
 2293SOL    HW2 7779   5.501   5.452   1.654
 2294SOL     OW 7780   4.041   6.409   6.964
 2294SOL    HW1 7781   3.975   6.480   6.987
 2294SOL    HW2 7782   4.128   6.451   6.937
 2295SOL     OW 7783   0.205   2.031   1.590
 2295SOL    HW1 7784   0.242   2.122   1.608
 2295SOL    HW2 7785   0.122   2.018   1.643
 2296SOL     OW 7786   3.146   0.680   0.452
 2296SOL    HW1 7787   3.204   0.599   0.445
 2296SOL    HW2 7788   3.149   0.731   0.366
 2297SOL     OW 7789   4.310   4.468   5.527
 2297SOL    HW1 7790   4.404   4.438   5.543
 2297SOL    HW2 7791   4.254   4.389   5.500
 2298SOL     OW 7792   3.688   1.934   1.308
 2298SOL    HW1 7793   3.602   1.922   1.358
 2298SOL    HW2 7794   3.729   2.022   1.334
 2299SOL     OW 7795   5.069   6.359   0.052
 2299SOL    HW1 7796   5.166   6.341   0.064
 2299SOL    HW2 7797   5.029   6.383   0.140
 2300SOL     OW 7798   1.725   5.720   1.267
 2300SOL    HW1 7799   1.790   5.698   1.340
 2300SOL    HW2 7800   1.764   5.694   1.179
 2301SOL     OW 7801   2.885   3.355   2.624
 2301SOL    HW1 7802   2.911   3.450   2.609
 2301SOL    HW2 7803   2.875   3.308   2.536
 2302SOL     OW 7804   3.757   6.054   2.526
 2302SOL    HW1 7805   3.715   6.119   2.463
 2302SOL    HW2 7806   3.713   6.062   2.616
 2303SOL     OW 7807   1.246   3.448   4.756
 2303SOL    HW1 7808   1.188   3.530   4.759
 2303SOL    HW2 7809   1.225   3.390   4.834
 2304SOL     OW 7810   2.524   0.512   3.257
 2304SOL    HW1 7811   2.516   0.599   3.306
 2304SOL    HW2 7812   2.556   0.441   3.319
 2305SOL     OW 7813   4.030   5.464   2.503
 2305SOL    HW1 7814   4.075   5.424   2.423
 2305SOL    HW2 7815   4.097   5.515   2.557
 2306SOL     OW 7816   2.576   4.552   2.392
 2306SOL    HW1 7817   2.503   4.574   2.328
 2306SOL    HW2 7818   2.661   4.596   2.361
 2307SOL     OW 7819   1.071   3.247   3.082
 2307SOL    HW1 7820   1.133   3.324   3.094
 2307SOL    HW2 7821   1.036   3.218   3.171
 2308SOL     OW 7822   0.734   0.987   6.578
 2308SOL    HW1 7823   0.795   1.066   6.582
 2308SOL    HW2 7824   0.687   0.987   6.489
 2309SOL     OW 7825   3.176   5.240   0.209
 2309SOL    HW1 7826   3.133   5.324   0.177
 2309SOL    HW2 7827   3.189   5.178   0.132
 2310SOL     OW 7828   6.058   0.601   1.885
 2310SOL    HW1 7829   6.113   0.535   1.832
 2310SOL    HW2 7830   6.054   0.572   1.980
 2311SOL     OW 7831   2.701   0.007   2.424
 2311SOL    HW1 7832   2.609   7.008   2.460
 2311SOL    HW2 7833   2.698   0.018   2.324
 2312SOL     OW 7834   3.909   0.139   3.034
 2312SOL    HW1 7835   3.865   0.203   3.098
 2312SOL    HW2 7836   3.919   0.184   2.945
 2313SOL     OW 7837   4.849   4.229   2.031
 2313SOL    HW1 7838   4.775   4.291   2.058
 2313SOL    HW2 7839   4.936   4.267   2.062
 2314SOL     OW 7840   6.012   0.715   3.741
 2314SOL    HW1 7841   6.002   0.723   3.840
 2314SOL    HW2 7842   6.104   0.681   3.719
 2315SOL     OW 7843   4.664   3.980   5.945
 2315SOL    HW1 7844   4.595   3.951   6.011
 2315SOL    HW2 7845   4.751   3.993   5.992
 2316SOL     OW 7846   2.757   1.116   6.004
 2316SOL    HW1 7847   2.702   1.091   5.924
 2316SOL    HW2 7848   2.727   1.204   6.039
 2317SOL     OW 7849   6.529   6.445   3.877
 2317SOL    HW1 7850   6.444   6.391   3.879
 2317SOL    HW2 7851   6.547   6.481   3.969
 2318SOL     OW 7852   2.049   3.744   4.681
 2318SOL    HW1 7853   2.071   3.782   4.591
 2318SOL    HW2 7854   2.045   3.818   4.748
 2319SOL     OW 7855   2.496   5.237   4.509
 2319SOL    HW1 7856   2.513   5.327   4.469
 2319SOL    HW2 7857   2.398   5.216   4.506
 2320SOL     OW 7858   1.239   3.087   5.303
 2320SOL    HW1 7859   1.308   3.157   5.320
 2320SOL    HW2 7860   1.186   3.072   5.386
 2321SOL     OW 7861   2.465   4.856   6.412
 2321SOL    HW1 7862   2.565   4.844   6.413
 2321SOL    HW2 7863   2.422   4.768   6.392
 2322SOL     OW 7864   2.051   3.675   2.176
 2322SOL    HW1 7865   1.958   3.651   2.150
 2322SOL    HW2 7866   2.116   3.628   2.116
 2323SOL     OW 7867   3.218   5.192   1.804
 2323SOL    HW1 7868   3.311   5.212   1.835
 2323SOL    HW2 7869   3.168   5.278   1.792
 2324SOL     OW 7870   6.530   6.001   1.898
 2324SOL    HW1 7871   6.622   5.992   1.859
 2324SOL    HW2 7872   6.490   5.910   1.910
 2325SOL     OW 7873   6.997   5.132   1.323
 2325SOL    HW1 7874   6.910   5.123   1.372
 2325SOL    HW2 7875   6.999   5.067   1.247
 2326SOL     OW 7876   1.443   6.138   6.654
 2326SOL    HW1 7877   1.461   6.082   6.734
 2326SOL    HW2 7878   1.359   6.191   6.667
 2327SOL     OW 7879   6.693   0.415   2.733
 2327SOL    HW1 7880   6.687   0.460   2.822
 2327SOL    HW2 7881   6.726   0.321   2.745
 2328SOL     OW 7882   1.415   2.070   2.132
 2328SOL    HW1 7883   1.329   2.073   2.183
 2328SOL    HW2 7884   1.449   2.164   2.120
 2329SOL     OW 7885   0.894   4.122   4.203
 2329SOL    HW1 7886   0.881   4.024   4.218
 2329SOL    HW2 7887   0.942   4.136   4.117
 2330SOL     OW 7888   0.270   3.047   0.366
 2330SOL    HW1 7889   0.316   3.130   0.399
 2330SOL    HW2 7890   0.174   3.049   0.393
 2331SOL     OW 7891   3.415   5.639   0.121
 2331SOL    HW1 7892   3.431   5.680   0.031
 2331SOL    HW2 7893   3.503   5.608   0.158
 2332SOL     OW 7894   5.885   0.267   5.762
 2332SOL    HW1 7895   5.858   0.251   5.667
 2332SOL    HW2 7896   5.804   0.278   5.819
 2333SOL     OW 7897   6.646   4.632   3.141
 2333SOL    HW1 7898   6.554   4.630   3.102
 2333SOL    HW2 7899   6.657   4.556   3.204
 2334SOL     OW 7900   1.195   1.017   6.456
 2334SOL    HW1 7901   1.282   0.977   6.428
 2334SOL    HW2 7902   1.186   1.108   6.415
 2335SOL     OW 7903   6.521   1.036   3.941
 2335SOL    HW1 7904   6.612   1.036   3.983
 2335SOL    HW2 7905   6.509   1.120   3.889
 2336SOL     OW 7906   2.915   1.738   3.673
 2336SOL    HW1 7907   2.979   1.727   3.597
 2336SOL    HW2 7908   2.861   1.821   3.659
 2337SOL     OW 7909   4.281   1.370   1.433
 2337SOL    HW1 7910   4.181   1.365   1.431
 2337SOL    HW2 7911   4.315   1.316   1.510
 2338SOL     OW 7912   1.263   4.017   4.140
 2338SOL    HW1 7913   1.286   4.088   4.207
 2338SOL    HW2 7914   1.212   3.943   4.185
 2339SOL     OW 7915   3.058   3.581   3.477
 2339SOL    HW1 7916   3.001   3.513   3.430
 2339SOL    HW2 7917   3.118   3.626   3.410
 2340SOL     OW 7918   0.503   4.904   6.682
 2340SOL    HW1 7919   0.523   5.002   6.672
 2340SOL    HW2 7920   0.406   4.888   6.664
 2341SOL     OW 7921   2.501   4.980   2.428
 2341SOL    HW1 7922   2.574   4.937   2.481
 2341SOL    HW2 7923   2.505   4.947   2.334
 2342SOL     OW 7924   2.380   6.964   4.251
 2342SOL    HW1 7925   2.320   6.976   4.330
 2342SOL    HW2 7926   2.403   6.867   4.241
 2343SOL     OW 7927   2.181   6.052   2.782
 2343SOL    HW1 7928   2.089   6.047   2.742
 2343SOL    HW2 7929   2.214   6.147   2.777
 2344SOL     OW 7930   6.771   5.579   0.322
 2344SOL    HW1 7931   6.793   5.611   0.414
 2344SOL    HW2 7932   6.790   5.653   0.257
 2345SOL     OW 7933   2.713   5.648   4.158
 2345SOL    HW1 7934   2.645   5.721   4.157
 2345SOL    HW2 7935   2.802   5.685   4.132
 2346SOL     OW 7936   3.970   3.244   5.847
 2346SOL    HW1 7937   3.947   3.284   5.936
 2346SOL    HW2 7938   3.935   3.304   5.774
 2347SOL     OW 7939   1.123   1.958   1.457
 2347SOL    HW1 7940   1.140   1.860   1.468
 2347SOL    HW2 7941   1.187   2.010   1.514
 2348SOL     OW 7942   1.907   6.154   3.649
 2348SOL    HW1 7943   1.968   6.128   3.575
 2348SOL    HW2 7944   1.935   6.243   3.685
 2349SOL     OW 7945   0.591   4.509   6.415
 2349SOL    HW1 7946   0.551   4.562   6.341
 2349SOL    HW2 7947   0.630   4.424   6.378
 2350SOL     OW 7948   5.750   4.016   6.226
 2350SOL    HW1 7949   5.848   4.030   6.240
 2350SOL    HW2 7950   5.703   4.022   6.314
 2351SOL     OW 7951   3.460   4.986   3.790
 2351SOL    HW1 7952   3.526   4.922   3.751
 2351SOL    HW2 7953   3.470   5.075   3.745
 2352SOL     OW 7954   6.639   3.062   3.537
 2352SOL    HW1 7955   6.573   2.996   3.500
 2352SOL    HW2 7956   6.597   3.112   3.613
 2353SOL     OW 7957   4.015   4.906   4.839
 2353SOL    HW1 7958   4.103   4.860   4.846
 2353SOL    HW2 7959   3.992   4.948   4.927
 2354SOL     OW 7960   2.370   2.230   4.532
 2354SOL    HW1 7961   2.298   2.268   4.589
 2354SOL    HW2 7962   2.369   2.274   4.442
 2355SOL     OW 7963   2.390   6.064   5.461
 2355SOL    HW1 7964   2.313   6.120   5.430
 2355SOL    HW2 7965   2.360   5.969   5.469
 2356SOL     OW 7966   0.985   3.009   6.720
 2356SOL    HW1 7967   1.003   2.926   6.773
 2356SOL    HW2 7968   0.895   3.001   6.677
 2357SOL     OW 7969   4.188   1.072   1.862
 2357SOL    HW1 7970   4.243   1.047   1.942
 2357SOL    HW2 7971   4.130   1.150   1.885
 2358SOL     OW 7972   2.711   5.292   5.529
 2358SOL    HW1 7973   2.628   5.262   5.483
 2358SOL    HW2 7974   2.696   5.295   5.628
 2359SOL     OW 7975   0.504   0.790   5.500
 2359SOL    HW1 7976   0.576   0.730   5.464
 2359SOL    HW2 7977   0.536   0.885   5.500
 2360SOL     OW 7978   6.032   3.635   0.613
 2360SOL    HW1 7979   6.051   3.711   0.550
 2360SOL    HW2 7980   6.084   3.649   0.698
 2361SOL     OW 7981   3.174   1.084   6.439
 2361SOL    HW1 7982   3.095   1.119   6.490
 2361SOL    HW2 7983   3.165   1.111   6.343
 2362SOL     OW 7984   3.116   6.183   3.638
 2362SOL    HW1 7985   3.162   6.174   3.550
 2362SOL    HW2 7986   3.021   6.212   3.623
 2363SOL     OW 7987   3.904   1.774   3.510
 2363SOL    HW1 7988   3.935   1.760   3.416
 2363SOL    HW2 7989   3.808   1.801   3.511
 2364SOL     OW 7990   1.833   2.434   2.178
 2364SOL    HW1 7991   1.776   2.509   2.144
 2364SOL    HW2 7992   1.921   2.435   2.131
 2365SOL     OW 7993   6.333   1.647   6.641
 2365SOL    HW1 7994   6.420   1.672   6.684
 2365SOL    HW2 7995   6.257   1.685   6.694
 2366SOL     OW 7996   2.818   5.299   0.377
 2366SOL    HW1 7997   2.857   5.364   0.441
 2366SOL    HW2 7998   2.831   5.206   0.411
 2367SOL     OW 7999   2.268   3.339   0.628
 2367SOL    HW1 8000   2.359   3.317   0.662
 2367SOL    HW2 8001   2.203   3.340   0.703
 2368SOL     OW 8002   5.731   6.810   4.512
 2368SOL    HW1 8003   5.690   6.726   4.477
 2368SOL    HW2 8004   5.673   6.848   4.583
 2369SOL     OW 8005   1.888   6.968   4.221
 2369SOL    HW1 8006   1.956   7.005   4.158
 2369SOL    HW2 8007   1.900   6.869   4.228
 2370SOL     OW 8008   5.189   3.155   0.196
 2370SOL    HW1 8009   5.105   3.118   0.235
 2370SOL    HW2 8010   5.264   3.144   0.262
 2371SOL     OW 8011   2.386   6.684   2.328
 2371SOL    HW1 8012   2.303   6.719   2.284
 2371SOL    HW2 8013   2.425   6.756   2.385
 2372SOL     OW 8014   6.432   2.797   2.116
 2372SOL    HW1 8015   6.385   2.730   2.174
 2372SOL    HW2 8016   6.444   2.759   2.024
 2373SOL     OW 8017   1.529   3.553   5.830
 2373SOL    HW1 8018   1.575   3.496   5.761
 2373SOL    HW2 8019   1.597   3.584   5.897
 2374SOL     OW 8020   6.399   2.475   5.148
 2374SOL    HW1 8021   6.395   2.562   5.196
 2374SOL    HW2 8022   6.485   2.468   5.098
 2375SOL     OW 8023   3.169   5.288   5.988
 2375SOL    HW1 8024   3.240   5.349   5.954
 2375SOL    HW2 8025   3.176   5.200   5.941
 2376SOL     OW 8026   6.131   3.456   3.925
 2376SOL    HW1 8027   6.039   3.418   3.923
 2376SOL    HW2 8028   6.175   3.433   4.012
 2377SOL     OW 8029   3.629   3.700   3.515
 2377SOL    HW1 8030   3.715   3.732   3.556
 2377SOL    HW2 8031   3.615   3.604   3.540
 2378SOL     OW 8032   5.116   2.156   0.568
 2378SOL    HW1 8033   5.108   2.165   0.668
 2378SOL    HW2 8034   5.080   2.239   0.524
 2379SOL     OW 8035   6.994   1.068   0.369
 2379SOL    HW1 8036   6.944   0.988   0.338
 2379SOL    HW2 8037   6.931   1.134   0.410
 2380SOL     OW 8038   0.020   2.307   6.960
 2380SOL    HW1 8039   6.959   2.253   7.003
 2380SOL    HW2 8040   6.992   2.370   6.893
 2381SOL     OW 8041   2.432   5.986   3.115
 2381SOL    HW1 8042   2.513   6.042   3.134
 2381SOL    HW2 8043   2.437   5.951   3.021
 2382SOL     OW 8044   1.572   3.845   4.560
 2382SOL    HW1 8045   1.671   3.834   4.557
 2382SOL    HW2 8046   1.529   3.755   4.569
 2383SOL     OW 8047   6.564   0.069   1.296
 2383SOL    HW1 8048   6.573   0.149   1.236
 2383SOL    HW2 8049   6.544   0.100   1.389
 2384SOL     OW 8050   5.211   1.914   2.846
 2384SOL    HW1 8051   5.203   1.974   2.926
 2384SOL    HW2 8052   5.308   1.897   2.828
 2385SOL     OW 8053   6.891   0.532   6.826
 2385SOL    HW1 8054   6.833   0.476   6.884
 2385SOL    HW2 8055   6.984   0.535   6.863
 2386SOL     OW 8056   5.278   5.788   3.958
 2386SOL    HW1 8057   5.280   5.850   4.036
 2386SOL    HW2 8058   5.224   5.707   3.980
 2387SOL     OW 8059   2.209   0.988   4.007
 2387SOL    HW1 8060   2.122   0.941   4.019
 2387SOL    HW2 8061   2.201   1.053   3.931
 2388SOL     OW 8062   6.967   2.451   3.846
 2388SOL    HW1 8063   0.031   2.486   3.901
 2388SOL    HW2 8064   6.882   2.458   3.898
 2389SOL     OW 8065   4.352   4.651   3.486
 2389SOL    HW1 8066   4.271   4.710   3.494
 2389SOL    HW2 8067   4.386   4.628   3.577
 2390SOL     OW 8068   3.401   2.990   3.005
 2390SOL    HW1 8069   3.435   3.084   3.007
 2390SOL    HW2 8070   3.347   2.976   2.922
 2391SOL     OW 8071   5.776   4.443   6.431
 2391SOL    HW1 8072   5.688   4.473   6.467
 2391SOL    HW2 8073   5.766   4.420   6.334
 2392SOL     OW 8074   2.941   0.029   6.267
 2392SOL    HW1 8075   2.919   0.097   6.197
 2392SOL    HW2 8076   2.903   0.057   6.355
 2393SOL     OW 8077   5.372   4.011   6.296
 2393SOL    HW1 8078   5.295   4.005   6.360
 2393SOL    HW2 8079   5.457   3.993   6.345
 2394SOL     OW 8080   0.276   3.662   4.248
 2394SOL    HW1 8081   0.199   3.610   4.284
 2394SOL    HW2 8082   0.242   3.729   4.181
 2395SOL     OW 8083   4.992   6.905   6.152
 2395SOL    HW1 8084   4.961   6.994   6.184
 2395SOL    HW2 8085   4.916   6.840   6.156
 2396SOL     OW 8086   3.628   5.043   1.012
 2396SOL    HW1 8087   3.716   5.034   1.060
 2396SOL    HW2 8088   3.577   5.119   1.052
 2397SOL     OW 8089   0.485   4.353   4.495
 2397SOL    HW1 8090   0.546   4.374   4.571
 2397SOL    HW2 8091   0.531   4.290   4.432
 2398SOL     OW 8092   4.819   3.924   6.775
 2398SOL    HW1 8093   4.847   3.957   6.685
 2398SOL    HW2 8094   4.720   3.919   6.779
 2399SOL     OW 8095   4.375   0.691   1.083
 2399SOL    HW1 8096   4.415   0.625   1.147
 2399SOL    HW2 8097   4.390   0.783   1.117
 2400SOL     OW 8098   2.836   3.568   0.952
 2400SOL    HW1 8099   2.877   3.531   1.035
 2400SOL    HW2 8100   2.772   3.502   0.914
 2401SOL     OW 8101   5.757   6.304   0.157
 2401SOL    HW1 8102   5.683   6.258   0.206
 2401SOL    HW2 8103   5.737   6.402   0.151
 2402SOL     OW 8104   0.772   0.144   4.669
 2402SOL    HW1 8105   0.852   0.158   4.726
 2402SOL    HW2 8106   0.699   0.103   4.723
 2403SOL     OW 8107   1.045   2.620   6.089
 2403SOL    HW1 8108   1.001   2.533   6.112
 2403SOL    HW2 8109   1.061   2.672   6.173
 2404SOL     OW 8110   2.260   0.948   1.341
 2404SOL    HW1 8111   2.215   1.037   1.347
 2404SOL    HW2 8112   2.347   0.957   1.294
 2405SOL     OW 8113   3.400   4.106   2.508
 2405SOL    HW1 8114   3.415   4.129   2.412
 2405SOL    HW2 8115   3.302   4.094   2.524
 2406SOL     OW 8116   3.307   1.106   1.144
 2406SOL    HW1 8117   3.305   1.195   1.098
 2406SOL    HW2 8118   3.256   1.112   1.230
 2407SOL     OW 8119   5.707   2.188   3.705
 2407SOL    HW1 8120   5.682   2.207   3.610
 2407SOL    HW2 8121   5.806   2.203   3.718
 2408SOL     OW 8122   4.593   4.385   2.323
 2408SOL    HW1 8123   4.530   4.363   2.248
 2408SOL    HW2 8124   4.686   4.393   2.286
 2409SOL     OW 8125   2.343   4.326   2.365
 2409SOL    HW1 8126   2.443   4.332   2.371
 2409SOL    HW2 8127   2.302   4.402   2.414
 2410SOL     OW 8128   3.853   3.336   4.419
 2410SOL    HW1 8129   3.845   3.436   4.418
 2410SOL    HW2 8130   3.926   3.309   4.482
 2411SOL     OW 8131   5.238   6.146   4.949
 2411SOL    HW1 8132   5.147   6.126   4.913
 2411SOL    HW2 8133   5.232   6.163   5.048
 2412SOL     OW 8134   5.280   4.601   1.433
 2412SOL    HW1 8135   5.313   4.525   1.490
 2412SOL    HW2 8136   5.356   4.640   1.382
 2413SOL     OW 8137   5.703   0.670   1.625
 2413SOL    HW1 8138   5.641   0.747   1.611
 2413SOL    HW2 8139   5.755   0.653   1.542
 2414SOL     OW 8140   4.820   4.105   3.701
 2414SOL    HW1 8141   4.788   4.199   3.684
 2414SOL    HW2 8142   4.802   4.080   3.796
 2415SOL     OW 8143   6.252   1.242   2.862
 2415SOL    HW1 8144   6.244   1.167   2.798
 2415SOL    HW2 8145   6.260   1.206   2.955
 2416SOL     OW 8146   5.396   2.068   5.794
 2416SOL    HW1 8147   5.431   2.153   5.833
 2416SOL    HW2 8148   5.472   2.013   5.759
 2417SOL     OW 8149   3.056   3.319   4.758
 2417SOL    HW1 8150   3.093   3.357   4.673
 2417SOL    HW2 8151   3.008   3.391   4.808
 2418SOL     OW 8152   3.520   3.215   4.058
 2418SOL    HW1 8153   3.474   3.304   4.055
 2418SOL    HW2 8154   3.600   3.220   4.118
 2419SOL     OW 8155   0.015   6.585   3.453
 2419SOL    HW1 8156   0.067   6.605   3.537
 2419SOL    HW2 8157   0.078   6.566   3.378
 2420SOL     OW 8158   3.364   0.400   1.954
 2420SOL    HW1 8159   3.275   0.444   1.963
 2420SOL    HW2 8160   3.379   0.338   2.031
 2421SOL     OW 8161   1.825   2.814   4.813
 2421SOL    HW1 8162   1.870   2.876   4.749
 2421SOL    HW2 8163   1.830   2.851   4.905
 2422SOL     OW 8164   5.139   1.568   0.688
 2422SOL    HW1 8165   5.120   1.592   0.783
 2422SOL    HW2 8166   5.115   1.472   0.672
 2423SOL     OW 8167   2.506   6.361   2.098
 2423SOL    HW1 8168   2.524   6.307   2.015
 2423SOL    HW2 8169   2.591   6.403   2.130
 2424SOL     OW 8170   6.267   0.918   0.291
 2424SOL    HW1 8171   6.183   0.940   0.241
 2424SOL    HW2 8172   6.346   0.931   0.232
 2425SOL     OW 8173   6.006   0.151   4.015
 2425SOL    HW1 8174   6.102   0.176   4.003
 2425SOL    HW2 8175   5.970   0.199   4.095
 2426SOL     OW 8176   1.784   4.960   5.228
 2426SOL    HW1 8177   1.853   4.935   5.296
 2426SOL    HW2 8178   1.725   5.031   5.265
 2427SOL     OW 8179   5.674   5.971   5.213
 2427SOL    HW1 8180   5.580   5.957   5.247
 2427SOL    HW2 8181   5.702   5.890   5.162
 2428SOL     OW 8182   0.578   0.625   1.639
 2428SOL    HW1 8183   0.531   0.629   1.551
 2428SOL    HW2 8184   0.612   0.533   1.655
 2429SOL     OW 8185   5.446   6.032   1.761
 2429SOL    HW1 8186   5.518   6.016   1.694
 2429SOL    HW2 8187   5.443   5.956   1.826
 2430SOL     OW 8188   5.969   0.927   2.511
 2430SOL    HW1 8189   5.950   0.964   2.602
 2430SOL    HW2 8190   5.920   0.840   2.500
 2431SOL     OW 8191   4.455   1.206   2.518
 2431SOL    HW1 8192   4.553   1.216   2.502
 2431SOL    HW2 8193   4.439   1.134   2.586
 2432SOL     OW 8194   4.388   6.210   2.234
 2432SOL    HW1 8195   4.403   6.119   2.195
 2432SOL    HW2 8196   4.413   6.279   2.166
 2433SOL     OW 8197   4.597   0.716   6.761
 2433SOL    HW1 8198   4.601   0.617   6.750
 2433SOL    HW2 8199   4.570   0.758   6.674
 2434SOL     OW 8200   3.892   0.981   5.672
 2434SOL    HW1 8201   3.930   0.925   5.599
 2434SOL    HW2 8202   3.821   0.929   5.720
 2435SOL     OW 8203   5.777   6.116   5.475
 2435SOL    HW1 8204   5.693   6.137   5.526
 2435SOL    HW2 8205   5.753   6.088   5.382
 2436SOL     OW 8206   1.982   5.987   0.254
 2436SOL    HW1 8207   1.919   6.055   0.290
 2436SOL    HW2 8208   2.056   6.033   0.204
 2437SOL     OW 8209   6.503   6.544   5.889
 2437SOL    HW1 8210   6.512   6.445   5.904
 2437SOL    HW2 8211   6.564   6.593   5.952
 2438SOL     OW 8212   2.774   2.467   0.538
 2438SOL    HW1 8213   2.822   2.456   0.625
 2438SOL    HW2 8214   2.733   2.379   0.511
 2439SOL     OW 8215   6.544   4.579   6.000
 2439SOL    HW1 8216   6.632   4.562   5.955
 2439SOL    HW2 8217   6.490   4.643   5.946
 2440SOL     OW 8218   5.330   5.294   5.938
 2440SOL    HW1 8219   5.421   5.252   5.941
 2440SOL    HW2 8220   5.337   5.387   5.902
 2441SOL     OW 8221   5.885   2.266   0.993
 2441SOL    HW1 8222   5.887   2.173   1.031
 2441SOL    HW2 8223   5.976   2.306   1.001
 2442SOL     OW 8224   0.866   4.029   4.705
 2442SOL    HW1 8225   0.836   3.962   4.773
 2442SOL    HW2 8226   0.829   4.005   4.616
 2443SOL     OW 8227   2.695   4.197   6.483
 2443SOL    HW1 8228   2.637   4.192   6.565
 2443SOL    HW2 8229   2.771   4.260   6.500
 2444SOL     OW 8230   2.207   4.032   5.913
 2444SOL    HW1 8231   2.218   3.955   5.976
 2444SOL    HW2 8232   2.111   4.037   5.884
 2445SOL     OW 8233   0.276   0.835   1.073
 2445SOL    HW1 8234   0.264   0.895   0.994
 2445SOL    HW2 8235   0.217   0.867   1.147
 2446SOL     OW 8236   6.247   4.423   4.783
 2446SOL    HW1 8237   6.193   4.475   4.848
 2446SOL    HW2 8238   6.257   4.329   4.816
 2447SOL     OW 8239   0.739   1.565   0.539
 2447SOL    HW1 8240   0.792   1.559   0.454
 2447SOL    HW2 8241   0.672   1.639   0.532
 2448SOL     OW 8242   1.053   0.127   4.789
 2448SOL    HW1 8243   1.050   0.028   4.785
 2448SOL    HW2 8244   1.126   0.161   4.730
 2449SOL     OW 8245   0.160   3.832   5.769
 2449SOL    HW1 8246   0.210   3.832   5.683
 2449SOL    HW2 8247   0.069   3.793   5.755
 2450SOL     OW 8248   2.341   4.294   2.808
 2450SOL    HW1 8249   2.383   4.333   2.727
 2450SOL    HW2 8250   2.390   4.210   2.834
 2451SOL     OW 8251   2.424   6.211   3.377
 2451SOL    HW1 8252   2.406   6.122   3.417
 2451SOL    HW2 8253   2.338   6.255   3.350
 2452SOL     OW 8254   0.916   2.708   3.958
 2452SOL    HW1 8255   1.000   2.757   3.938
 2452SOL    HW2 8256   0.839   2.772   3.962
 2453SOL     OW 8257   6.709   4.751   1.423
 2453SOL    HW1 8258   6.748   4.659   1.417
 2453SOL    HW2 8259   6.780   4.816   1.447
 2454SOL     OW 8260   3.176   1.342   2.063
 2454SOL    HW1 8261   3.271   1.336   2.092
 2454SOL    HW2 8262   3.117   1.306   2.135
 2455SOL     OW 8263   5.448   5.569   0.192
 2455SOL    HW1 8264   5.459   5.665   0.219
 2455SOL    HW2 8265   5.353   5.552   0.168
 2456SOL     OW 8266   5.269   6.013   1.558
 2456SOL    HW1 8267   5.214   6.097   1.556
 2456SOL    HW2 8268   5.322   6.010   1.643
 2457SOL     OW 8269   5.406   6.788   1.407
 2457SOL    HW1 8270   5.400   6.693   1.377
 2457SOL    HW2 8271   5.479   6.834   1.357
 2458SOL     OW 8272   0.801   5.697   3.108
 2458SOL    HW1 8273   0.806   5.789   3.149
 2458SOL    HW2 8274   0.706   5.677   3.085
 2459SOL     OW 8275   1.912   6.824   0.938
 2459SOL    HW1 8276   1.925   6.725   0.947
 2459SOL    HW2 8277   1.982   6.861   0.878
 2460SOL     OW 8278   3.175   5.561   1.629
 2460SOL    HW1 8279   3.219   5.650   1.635
 2460SOL    HW2 8280   3.143   5.533   1.720
 2461SOL     OW 8281   5.356   0.447   2.486
 2461SOL    HW1 8282   5.301   0.485   2.561
 2461SOL    HW2 8283   5.297   0.391   2.428
 2462SOL     OW 8284   1.659   5.123   6.564
 2462SOL    HW1 8285   1.606   5.062   6.505
 2462SOL    HW2 8286   1.727   5.070   6.615
 2463SOL     OW 8287   6.330   2.275   4.162
 2463SOL    HW1 8288   6.290   2.365   4.180
 2463SOL    HW2 8289   6.343   2.263   4.064
 2464SOL     OW 8290   1.571   3.150   1.142
 2464SOL    HW1 8291   1.549   3.180   1.049
 2464SOL    HW2 8292   1.646   3.084   1.139
 2465SOL     OW 8293   6.750   5.953   3.335
 2465SOL    HW1 8294   6.726   5.916   3.245
 2465SOL    HW2 8295   6.835   6.005   3.328
 2466SOL     OW 8296   3.970   1.798   2.650
 2466SOL    HW1 8297   4.006   1.726   2.590
 2466SOL    HW2 8298   3.877   1.822   2.621
 2467SOL     OW 8299   6.830   0.827   6.354
 2467SOL    HW1 8300   6.813   0.779   6.440
 2467SOL    HW2 8301   6.893   0.903   6.370
 2468SOL     OW 8302   0.034   4.937   1.124
 2468SOL    HW1 8303   0.001   4.855   1.077
 2468SOL    HW2 8304   7.010   5.019   1.079
 2469SOL     OW 8305   2.558   2.867   5.678
 2469SOL    HW1 8306   2.631   2.935   5.671
 2469SOL    HW2 8307   2.525   2.845   5.586
 2470SOL     OW 8308   5.229   2.864   0.005
 2470SOL    HW1 8309   5.223   2.823   0.097
 2470SOL    HW2 8310   5.315   2.838   6.974
 2471SOL     OW 8311   1.374   0.060   3.252
 2471SOL    HW1 8312   1.331   0.148   3.268
 2471SOL    HW2 8313   1.368   0.037   3.155
 2472SOL     OW 8314   6.319   1.627   3.203
 2472SOL    HW1 8315   6.255   1.687   3.252
 2472SOL    HW2 8316   6.269   1.551   3.163
 2473SOL     OW 8317   0.845   6.338   5.031
 2473SOL    HW1 8318   0.748   6.322   5.018
 2473SOL    HW2 8319   0.858   6.414   5.095
 2474SOL     OW 8320   6.404   4.945   5.014
 2474SOL    HW1 8321   6.326   4.939   5.076
 2474SOL    HW2 8322   6.387   5.019   4.948
 2475SOL     OW 8323   4.322   2.293   0.085
 2475SOL    HW1 8324   4.275   2.209   0.058
 2475SOL    HW2 8325   4.255   2.359   0.118
 2476SOL     OW 8326   0.882   1.956   4.130
 2476SOL    HW1 8327   0.849   1.865   4.158
 2476SOL    HW2 8328   0.975   1.949   4.096
 2477SOL     OW 8329   4.095   4.698   1.060
 2477SOL    HW1 8330   4.055   4.713   1.150
 2477SOL    HW2 8331   4.144   4.780   1.032
 2478SOL     OW 8332   6.695   6.945   3.399
 2478SOL    HW1 8333   6.634   0.006   3.433
 2478SOL    HW2 8334   6.679   6.932   3.301
 2479SOL     OW 8335   0.601   3.246   0.661
 2479SOL    HW1 8336   0.559   3.301   0.733
 2479SOL    HW2 8337   0.551   3.259   0.576
 2480SOL     OW 8338   0.388   3.525   1.117
 2480SOL    HW1 8339   0.361   3.614   1.079
 2480SOL    HW2 8340   0.480   3.532   1.155
 2481SOL     OW 8341   4.575   5.378   2.113
 2481SOL    HW1 8342   4.624   5.299   2.149
 2481SOL    HW2 8343   4.641   5.446   2.080
 2482SOL     OW 8344   4.887   2.057   4.518
 2482SOL    HW1 8345   4.793   2.081   4.540
 2482SOL    HW2 8346   4.891   1.964   4.484
 2483SOL     OW 8347   1.134   2.070   6.924
 2483SOL    HW1 8348   1.080   2.028   6.997
 2483SOL    HW2 8349   1.229   2.081   6.954
 2484SOL     OW 8350   3.027   2.069   5.944
 2484SOL    HW1 8351   2.928   2.071   5.949
 2484SOL    HW2 8352   3.065   2.136   6.008
 2485SOL     OW 8353   0.031   6.197   2.474
 2485SOL    HW1 8354   0.010   6.103   2.448
 2485SOL    HW2 8355   6.957   6.248   2.486
 2486SOL     OW 8356   0.957   5.498   3.211
 2486SOL    HW1 8357   0.907   5.575   3.172
 2486SOL    HW2 8358   1.054   5.520   3.218
 2487SOL     OW 8359   3.608   1.097   0.899
 2487SOL    HW1 8360   3.707   1.102   0.883
 2487SOL    HW2 8361   3.566   1.186   0.879
 2488SOL     OW 8362   3.008   6.279   6.681
 2488SOL    HW1 8363   3.042   6.243   6.594
 2488SOL    HW2 8364   3.083   6.317   6.733
 2489SOL     OW 8365   0.177   5.901   4.281
 2489SOL    HW1 8366   0.164   5.943   4.191
 2489SOL    HW2 8367   0.113   5.825   4.292
 2490SOL     OW 8368   4.883   3.480   1.772
 2490SOL    HW1 8369   4.926   3.515   1.855
 2490SOL    HW2 8370   4.873   3.381   1.779
 2491SOL     OW 8371   1.189   4.458   2.405
 2491SOL    HW1 8372   1.201   4.370   2.449
 2491SOL    HW2 8373   1.146   4.522   2.468
 2492SOL     OW 8374   4.222   3.197   6.556
 2492SOL    HW1 8375   4.296   3.222   6.493
 2492SOL    HW2 8376   4.242   3.234   6.647
 2493SOL     OW 8377   6.759   2.010   3.916
 2493SOL    HW1 8378   6.693   2.020   3.841
 2493SOL    HW2 8379   6.795   1.917   3.917
 2494SOL     OW 8380   5.077   3.470   1.554
 2494SOL    HW1 8381   5.018   3.514   1.622
 2494SOL    HW2 8382   5.085   3.373   1.575
 2495SOL     OW 8383   6.234   1.314   4.162
 2495SOL    HW1 8384   6.249   1.283   4.256
 2495SOL    HW2 8385   6.186   1.243   4.111
 2496SOL     OW 8386   0.803   6.518   0.159
 2496SOL    HW1 8387   0.840   6.512   0.252
 2496SOL    HW2 8388   0.825   6.607   0.119
 2497SOL     OW 8389   5.346   1.911   6.124
 2497SOL    HW1 8390   5.320   1.870   6.036
 2497SOL    HW2 8391   5.263   1.936   6.175
 2498SOL     OW 8392   1.458   4.131   4.647
 2498SOL    HW1 8393   1.394   4.080   4.589
 2498SOL    HW2 8394   1.539   4.075   4.664
 2499SOL     OW 8395   5.900   0.611   5.610
 2499SOL    HW1 8396   5.966   0.619   5.536
 2499SOL    HW2 8397   5.948   0.601   5.697
 2500SOL     OW 8398   4.696   2.951   6.374
 2500SOL    HW1 8399   4.731   2.948   6.468
 2500SOL    HW2 8400   4.598   2.935   6.375
 2501SOL     OW 8401   6.508   4.329   0.073
 2501SOL    HW1 8402   6.552   4.242   0.098
 2501SOL    HW2 8403   6.516   4.393   0.149
 2502SOL     OW 8404   1.869   6.818   2.954
 2502SOL    HW1 8405   1.780   6.777   2.932
 2502SOL    HW2 8406   1.865   6.916   2.939
 2503SOL     OW 8407   4.775   5.546   4.598
 2503SOL    HW1 8408   4.805   5.577   4.508
 2503SOL    HW2 8409   4.685   5.584   4.618
 2504SOL     OW 8410   2.030   4.266   3.908
 2504SOL    HW1 8411   2.117   4.229   3.876
 2504SOL    HW2 8412   2.040   4.363   3.928
 2505SOL     OW 8413   4.393   5.515   3.901
 2505SOL    HW1 8414   4.453   5.437   3.918
 2505SOL    HW2 8415   4.424   5.594   3.954
 2506SOL     OW 8416   0.190   2.090   6.611
 2506SOL    HW1 8417   0.137   2.033   6.674
 2506SOL    HW2 8418   0.231   2.166   6.661
 2507SOL     OW 8419   0.123   5.782   0.931
 2507SOL    HW1 8420   0.186   5.710   0.960
 2507SOL    HW2 8421   0.115   5.781   0.831
 2508SOL     OW 8422   2.514   2.505   2.184
 2508SOL    HW1 8423   2.484   2.533   2.275
 2508SOL    HW2 8424   2.565   2.581   2.142
 2509SOL     OW 8425   5.149   1.904   3.726
 2509SOL    HW1 8426   5.105   1.987   3.692
 2509SOL    HW2 8427   5.210   1.868   3.655
 2510SOL     OW 8428   3.570   6.024   0.991
 2510SOL    HW1 8429   3.612   6.092   0.931
 2510SOL    HW2 8430   3.641   5.964   1.028
 2511SOL     OW 8431   1.381   0.185   4.171
 2511SOL    HW1 8432   1.421   0.266   4.213
 2511SOL    HW2 8433   1.296   0.210   4.123
 2512SOL     OW 8434   4.618   2.678   4.303
 2512SOL    HW1 8435   4.545   2.718   4.248
 2512SOL    HW2 8436   4.635   2.584   4.273
 2513SOL     OW 8437   0.085   4.257   0.901
 2513SOL    HW1 8438   0.038   4.208   0.974
 2513SOL    HW2 8439   0.071   4.355   0.912
 2514SOL     OW 8440   1.064   1.395   4.032
 2514SOL    HW1 8441   1.021   1.468   4.085
 2514SOL    HW2 8442   1.009   1.376   3.950
 2515SOL     OW 8443   1.010   5.094   0.032
 2515SOL    HW1 8444   1.033   5.087   0.129
 2515SOL    HW2 8445   1.021   5.004   7.001
 2516SOL     OW 8446   4.801   6.479   3.859
 2516SOL    HW1 8447   4.818   6.485   3.958
 2516SOL    HW2 8448   4.815   6.384   3.829
 2517SOL     OW 8449   2.322   4.794   0.671
 2517SOL    HW1 8450   2.409   4.796   0.721
 2517SOL    HW2 8451   2.292   4.699   0.661
 2518SOL     OW 8452   2.222   2.329   6.075
 2518SOL    HW1 8453   2.145   2.340   6.012
 2518SOL    HW2 8454   2.191   2.346   6.168
 2519SOL     OW 8455   5.074   4.285   4.896
 2519SOL    HW1 8456   5.145   4.224   4.930
 2519SOL    HW2 8457   4.995   4.231   4.866
 2520SOL     OW 8458   1.888   4.869   2.020
 2520SOL    HW1 8459   1.947   4.810   1.964
 2520SOL    HW2 8460   1.920   4.964   2.014
 2521SOL     OW 8461   5.754   6.994   5.514
 2521SOL    HW1 8462   5.799   0.042   5.447
 2521SOL    HW2 8463   5.804   6.907   5.520
 2522SOL     OW 8464   1.368   3.182   4.743
 2522SOL    HW1 8465   1.432   3.259   4.749
 2522SOL    HW2 8466   1.378   3.125   4.824
 2523SOL     OW 8467   0.090   2.861   6.916
 2523SOL    HW1 8468   0.151   2.939   6.901
 2523SOL    HW2 8469   7.010   2.894   6.939
 2524SOL     OW 8470   1.201   6.844   5.142
 2524SOL    HW1 8471   1.114   6.822   5.186
 2524SOL    HW2 8472   1.192   6.833   5.043
 2525SOL     OW 8473   2.023   4.364   3.092
 2525SOL    HW1 8474   2.003   4.452   3.136
 2525SOL    HW2 8475   1.943   4.334   3.040
 2526SOL     OW 8476   6.820   1.711   5.291
 2526SOL    HW1 8477   6.840   1.614   5.304
 2526SOL    HW2 8478   6.770   1.724   5.205
 2527SOL     OW 8479   6.189   6.292   3.858
 2527SOL    HW1 8480   6.176   6.193   3.867
 2527SOL    HW2 8481   6.207   6.331   3.949
 2528SOL     OW 8482   6.044   5.749   0.600
 2528SOL    HW1 8483   5.962   5.766   0.545
 2528SOL    HW2 8484   6.021   5.687   0.676
 2529SOL     OW 8485   5.083   3.880   4.967
 2529SOL    HW1 8486   5.101   3.800   5.024
 2529SOL    HW2 8487   5.167   3.910   4.923
 2530SOL     OW 8488   0.780   6.914   4.424
 2530SOL    HW1 8489   0.862   6.858   4.432
 2530SOL    HW2 8490   0.792   6.999   4.476
 2531SOL     OW 8491   4.594   1.384   6.739
 2531SOL    HW1 8492   4.580   1.424   6.829
 2531SOL    HW2 8493   4.519   1.411   6.679
 2532SOL     OW 8494   1.673   4.437   6.004
 2532SOL    HW1 8495   1.728   4.364   6.047
 2532SOL    HW2 8496   1.708   4.526   6.033
 2533SOL     OW 8497   5.571   6.958   5.214
 2533SOL    HW1 8498   5.631   0.014   5.257
 2533SOL    HW2 8499   5.612   6.867   5.223
 2534SOL     OW 8500   0.068   1.600   3.994
 2534SOL    HW1 8501   0.033   1.645   4.076
 2534SOL    HW2 8502   0.156   1.557   4.015
 2535SOL     OW 8503   2.445   1.238   2.435
 2535SOL    HW1 8504   2.449   1.138   2.430
 2535SOL    HW2 8505   2.538   1.275   2.435
 2536SOL     OW 8506   6.625   0.480   3.814
 2536SOL    HW1 8507   6.719   0.481   3.850
 2536SOL    HW2 8508   6.561   0.485   3.891
 2537SOL     OW 8509   3.913   5.044   1.115
 2537SOL    HW1 8510   3.967   4.983   1.174
 2537SOL    HW2 8511   3.938   5.139   1.134
 2538SOL     OW 8512   1.940   4.474   5.409
 2538SOL    HW1 8513   1.930   4.530   5.327
 2538SOL    HW2 8514   1.873   4.503   5.478
 2539SOL     OW 8515   2.674   0.555   5.688
 2539SOL    HW1 8516   2.626   0.483   5.737
 2539SOL    HW2 8517   2.762   0.574   5.733
 2540SOL     OW 8518   5.717   1.729   2.233
 2540SOL    HW1 8519   5.741   1.817   2.274
 2540SOL    HW2 8520   5.795   1.667   2.237
 2541SOL     OW 8521   0.797   6.462   5.541
 2541SOL    HW1 8522   0.794   6.363   5.557
 2541SOL    HW2 8523   0.732   6.508   5.601
 2542SOL     OW 8524   3.382   1.798   4.391
 2542SOL    HW1 8525   3.472   1.793   4.348
 2542SOL    HW2 8526   3.337   1.709   4.385
 2543SOL     OW 8527   0.270   2.414   4.679
 2543SOL    HW1 8528   0.191   2.454   4.631
 2543SOL    HW2 8529   0.342   2.392   4.613
 2544SOL     OW 8530   6.299   5.672   2.561
 2544SOL    HW1 8531   6.308   5.602   2.491
 2544SOL    HW2 8532   6.224   5.734   2.537
 2545SOL     OW 8533   6.342   2.058   0.955
 2545SOL    HW1 8534   6.251   2.053   0.994
 2545SOL    HW2 8535   6.409   2.022   1.021
 2546SOL     OW 8536   6.330   4.154   2.918
 2546SOL    HW1 8537   6.354   4.241   2.961
 2546SOL    HW2 8538   6.274   4.171   2.837
 2547SOL     OW 8539   5.922   3.219   0.589
 2547SOL    HW1 8540   5.913   3.125   0.622
 2547SOL    HW2 8541   6.016   3.250   0.601
 2548SOL     OW 8542   6.891   6.658   5.550
 2548SOL    HW1 8543   6.824   6.676   5.621
 2548SOL    HW2 8544   6.949   6.581   5.577
 2549SOL     OW 8545   2.763   2.551   0.087
 2549SOL    HW1 8546   2.803   2.460   0.093
 2549SOL    HW2 8547   2.690   2.560   0.155
 2550SOL     OW 8548   3.895   5.927   6.416
 2550SOL    HW1 8549   3.941   5.947   6.329
 2550SOL    HW2 8550   3.796   5.934   6.403
 2551SOL     OW 8551   3.369   5.640   0.550
 2551SOL    HW1 8552   3.295   5.588   0.507
 2551SOL    HW2 8553   3.374   5.616   0.647
 2552SOL     OW 8554   2.287   5.798   1.379
 2552SOL    HW1 8555   2.380   5.761   1.382
 2552SOL    HW2 8556   2.260   5.827   1.471
 2553SOL     OW 8557   4.573   1.036   6.577
 2553SOL    HW1 8558   4.500   1.064   6.640
 2553SOL    HW2 8559   4.604   1.115   6.524
 2554SOL     OW 8560   1.469   5.818   1.367
 2554SOL    HW1 8561   1.554   5.785   1.327
 2554SOL    HW2 8562   1.407   5.848   1.294
 2555SOL     OW 8563   5.334   6.706   4.951
 2555SOL    HW1 8564   5.422   6.706   5.000
 2555SOL    HW2 8565   5.296   6.799   4.951
 2556SOL     OW 8566   3.896   0.459   0.275
 2556SOL    HW1 8567   3.882   0.554   0.302
 2556SOL    HW2 8568   3.825   0.402   0.315
 2557SOL     OW 8569   3.035   0.533   6.132
 2557SOL    HW1 8570   3.081   0.620   6.143
 2557SOL    HW2 8571   2.978   0.514   6.213
 2558SOL     OW 8572   5.287   3.460   0.457
 2558SOL    HW1 8573   5.196   3.447   0.497
 2558SOL    HW2 8574   5.277   3.481   0.359
 2559SOL     OW 8575   0.694   4.458   4.215
 2559SOL    HW1 8576   0.703   4.493   4.308
 2559SOL    HW2 8577   0.606   4.411   4.205
 2560SOL     OW 8578   4.715   1.942   3.681
 2560SOL    HW1 8579   4.722   1.896   3.770
 2560SOL    HW2 8580   4.745   2.037   3.690
 2561SOL     OW 8581   3.616   0.549   5.046
 2561SOL    HW1 8582   3.685   0.618   5.024
 2561SOL    HW2 8583   3.661   0.466   5.078
 2562SOL     OW 8584   2.874   6.583   3.527
 2562SOL    HW1 8585   2.816   6.617   3.601
 2562SOL    HW2 8586   2.839   6.495   3.495
 2563SOL     OW 8587   3.352   2.051   6.328
 2563SOL    HW1 8588   3.377   2.069   6.233
 2563SOL    HW2 8589   3.425   2.083   6.389
 2564SOL     OW 8590   1.764   1.595   6.966
 2564SOL    HW1 8591   1.766   1.645   6.879
 2564SOL    HW2 8592   1.803   1.653   0.027
 2565SOL     OW 8593   0.551   1.321   0.481
 2565SOL    HW1 8594   0.614   1.324   0.558
 2565SOL    HW2 8595   0.589   1.262   0.409
 2566SOL     OW 8596   2.465   0.798   0.726
 2566SOL    HW1 8597   2.471   0.746   0.641
 2566SOL    HW2 8598   2.449   0.895   0.705
 2567SOL     OW 8599   2.287   0.965   0.216
 2567SOL    HW1 8600   2.191   0.966   0.187
 2567SOL    HW2 8601   2.311   0.873   0.248
 2568SOL     OW 8602   3.346   6.025   0.133
 2568SOL    HW1 8603   3.302   6.112   0.157
 2568SOL    HW2 8604   3.319   5.954   0.198
 2569SOL     OW 8605   2.010   0.325   0.892
 2569SOL    HW1 8606   2.096   0.345   0.940
 2569SOL    HW2 8607   1.952   0.268   0.950
 2570SOL     OW 8608   6.865   6.321   5.434
 2570SOL    HW1 8609   6.766   6.317   5.423
 2570SOL    HW2 8610   6.906   6.359   5.351
 2571SOL     OW 8611   3.487   2.930   3.652
 2571SOL    HW1 8612   3.555   2.984   3.700
 2571SOL    HW2 8613   3.410   2.911   3.713
 2572SOL     OW 8614   1.936   5.893   1.703
 2572SOL    HW1 8615   1.985   5.808   1.684
 2572SOL    HW2 8616   1.970   5.933   1.788
 2573SOL     OW 8617   6.609   2.434   5.006
 2573SOL    HW1 8618   6.673   2.389   5.069
 2573SOL    HW2 8619   6.604   2.383   4.921
 2574SOL     OW 8620   0.565   3.575   2.335
 2574SOL    HW1 8621   0.650   3.523   2.325
 2574SOL    HW2 8622   0.578   3.647   2.402
 2575SOL     OW 8623   5.607   3.873   0.167
 2575SOL    HW1 8624   5.530   3.907   0.114
 2575SOL    HW2 8625   5.639   3.944   0.230
 2576SOL     OW 8626   2.068   6.776   3.818
 2576SOL    HW1 8627   2.111   6.709   3.758
 2576SOL    HW2 8628   2.038   6.732   3.902
 2577SOL     OW 8629   2.664   5.952   1.545
 2577SOL    HW1 8630   2.699   6.006   1.621
 2577SOL    HW2 8631   2.736   5.940   1.477
 2578SOL     OW 8632   4.823   1.895   3.940
 2578SOL    HW1 8633   4.867   1.835   4.006
 2578SOL    HW2 8634   4.882   1.974   3.921
 2579SOL     OW 8635   6.936   1.571   6.338
 2579SOL    HW1 8636   0.010   1.616   6.362
 2579SOL    HW2 8637   6.908   1.599   6.246
 2580SOL     OW 8638   1.021   2.557   6.504
 2580SOL    HW1 8639   1.047   2.466   6.471
 2580SOL    HW2 8640   1.025   2.622   6.429
 2581SOL     OW 8641   6.549   6.544   4.127
 2581SOL    HW1 8642   6.513   6.522   4.218
 2581SOL    HW2 8643   6.542   6.642   4.110
 2582SOL     OW 8644   0.585   5.439   2.619
 2582SOL    HW1 8645   0.567   5.536   2.600
 2582SOL    HW2 8646   0.515   5.404   2.681
 2583SOL     OW 8647   2.291   0.699   0.294
 2583SOL    HW1 8648   2.242   0.620   0.256
 2583SOL    HW2 8649   2.251   0.724   0.382
 2584SOL     OW 8650   5.216   6.744   1.910
 2584SOL    HW1 8651   5.152   6.683   1.864
 2584SOL    HW2 8652   5.293   6.692   1.945
 2585SOL     OW 8653   3.777   1.356   1.532
 2585SOL    HW1 8654   3.753   1.330   1.625
 2585SOL    HW2 8655   3.727   1.439   1.507
 2586SOL     OW 8656   6.649   2.565   4.472
 2586SOL    HW1 8657   6.674   2.589   4.378
 2586SOL    HW2 8658   6.652   2.466   4.483
 2587SOL     OW 8659   5.925   6.239   2.742
 2587SOL    HW1 8660   6.004   6.190   2.705
 2587SOL    HW2 8661   5.895   6.193   2.826
 2588SOL     OW 8662   5.327   0.628   1.848
 2588SOL    HW1 8663   5.310   0.722   1.819
 2588SOL    HW2 8664   5.269   0.566   1.795
 2589SOL     OW 8665   6.043   6.766   0.744
 2589SOL    HW1 8666   6.047   6.673   0.708
 2589SOL    HW2 8667   6.112   6.822   0.699
 2590SOL     OW 8668   4.212   6.208   2.456
 2590SOL    HW1 8669   4.252   6.221   2.365
 2590SOL    HW2 8670   4.275   6.244   2.524
 2591SOL     OW 8671   5.619   0.627   1.905
 2591SOL    HW1 8672   5.667   0.633   1.817
 2591SOL    HW2 8673   5.532   0.676   1.899
 2592SOL     OW 8674   3.378   5.632   1.366
 2592SOL    HW1 8675   3.387   5.533   1.375
 2592SOL    HW2 8676   3.447   5.677   1.421
 2593SOL     OW 8677   3.342   6.469   2.613
 2593SOL    HW1 8678   3.306   6.528   2.541
 2593SOL    HW2 8679   3.441   6.484   2.622
 2594SOL     OW 8680   1.223   5.977   6.389
 2594SOL    HW1 8681   1.286   6.050   6.362
 2594SOL    HW2 8682   1.141   6.017   6.431
 2595SOL     OW 8683   6.341   3.657   4.315
 2595SOL    HW1 8684   6.312   3.704   4.231
 2595SOL    HW2 8685   6.440   3.664   4.325
 2596SOL     OW 8686   3.949   2.164   1.940
 2596SOL    HW1 8687   3.860   2.195   1.974
 2596SOL    HW2 8688   3.948   2.162   1.840
 2597SOL     OW 8689   1.898   2.688   6.781
 2597SOL    HW1 8690   1.825   2.750   6.809
 2597SOL    HW2 8691   1.876   2.595   6.812
 2598SOL     OW 8692   6.400   2.912   2.883
 2598SOL    HW1 8693   6.481   2.887   2.935
 2598SOL    HW2 8694   6.347   2.830   2.861
 2599SOL     OW 8695   4.801   4.696   6.764
 2599SOL    HW1 8696   4.716   4.748   6.769
 2599SOL    HW2 8697   4.830   4.687   6.669
 2600SOL     OW 8698   6.667   3.737   3.411
 2600SOL    HW1 8699   6.673   3.641   3.382
 2600SOL    HW2 8700   6.578   3.755   3.451
 2601SOL     OW 8701   3.467   2.858   5.704
 2601SOL    HW1 8702   3.404   2.842   5.628
 2601SOL    HW2 8703   3.555   2.814   5.684
 2602SOL     OW 8704   6.155   5.924   4.732
 2602SOL    HW1 8705   6.138   5.839   4.681
 2602SOL    HW2 8706   6.083   5.937   4.800
 2603SOL     OW 8707   2.964   2.789   0.348
 2603SOL    HW1 8708   3.044   2.795   0.409
 2603SOL    HW2 8709   2.976   2.854   0.273
 2604SOL     OW 8710   6.095   0.843   1.782
 2604SOL    HW1 8711   6.079   0.753   1.822
 2604SOL    HW2 8712   6.016   0.902   1.799
 2605SOL     OW 8713   4.747   4.689   4.486
 2605SOL    HW1 8714   4.683   4.724   4.417
 2605SOL    HW2 8715   4.702   4.683   4.574
 2606SOL     OW 8716   0.078   4.447   1.857
 2606SOL    HW1 8717   0.113   4.354   1.862
 2606SOL    HW2 8718   6.989   4.444   1.855
 2607SOL     OW 8719   0.597   1.555   4.663
 2607SOL    HW1 8720   0.565   1.538   4.756
 2607SOL    HW2 8721   0.689   1.517   4.652
 2608SOL     OW 8722   5.388   0.897   0.771
 2608SOL    HW1 8723   5.297   0.869   0.802
 2608SOL    HW2 8724   5.384   0.926   0.675
 2609SOL     OW 8725   0.327   1.931   4.716
 2609SOL    HW1 8726   0.302   1.957   4.623
 2609SOL    HW2 8727   0.302   2.003   4.780
 2610SOL     OW 8728   6.202   5.622   4.292
 2610SOL    HW1 8729   6.263   5.549   4.264
 2610SOL    HW2 8730   6.191   5.687   4.216
 2611SOL     OW 8731   3.565   6.272   1.433
 2611SOL    HW1 8732   3.468   6.289   1.449
 2611SOL    HW2 8733   3.619   6.347   1.470
 2612SOL     OW 8734   6.189   6.362   4.135
 2612SOL    HW1 8735   6.225   6.359   4.229
 2612SOL    HW2 8736   6.167   6.456   4.111
 2613SOL     OW 8737   4.132   0.722   1.721
 2613SOL    HW1 8738   4.058   0.694   1.782
 2613SOL    HW2 8739   4.109   0.697   1.627
 2614SOL     OW 8740   6.831   6.393   6.628
 2614SOL    HW1 8741   6.877   6.410   6.541
 2614SOL    HW2 8742   6.751   6.334   6.612
 2615SOL     OW 8743   5.786   4.958   1.982
 2615SOL    HW1 8744   5.866   4.994   2.031
 2615SOL    HW2 8745   5.725   4.912   2.047
 2616SOL     OW 8746   3.644   2.887   2.679
 2616SOL    HW1 8747   3.661   2.800   2.725
 2616SOL    HW2 8748   3.551   2.886   2.641
 2617SOL     OW 8749   3.907   0.426   1.629
 2617SOL    HW1 8750   3.894   0.462   1.537
 2617SOL    HW2 8751   3.979   0.357   1.628
 2618SOL     OW 8752   0.926   0.559   1.100
 2618SOL    HW1 8753   0.905   0.574   1.003
 2618SOL    HW2 8754   0.881   0.628   1.156
 2619SOL     OW 8755   4.834   1.695   1.570
 2619SOL    HW1 8756   4.765   1.698   1.497
 2619SOL    HW2 8757   4.915   1.647   1.537
 2620SOL     OW 8758   1.547   4.153   3.962
 2620SOL    HW1 8759   1.534   4.196   4.052
 2620SOL    HW2 8760   1.614   4.206   3.910
 2621SOL     OW 8761   0.945   4.862   3.909
 2621SOL    HW1 8762   0.882   4.936   3.885
 2621SOL    HW2 8763   0.896   4.793   3.962
 2622SOL     OW 8764   2.828   3.259   6.275
 2622SOL    HW1 8765   2.737   3.274   6.313
 2622SOL    HW2 8766   2.826   3.281   6.177
 2623SOL     OW 8767   3.186   1.007   5.438
 2623SOL    HW1 8768   3.204   0.928   5.497
 2623SOL    HW2 8769   3.094   0.999   5.398
 2624SOL     OW 8770   6.702   2.222   4.076
 2624SOL    HW1 8771   6.638   2.294   4.048
 2624SOL    HW2 8772   6.710   2.153   4.004
 2625SOL     OW 8773   3.978   0.829   5.462
 2625SOL    HW1 8774   4.055   0.854   5.403
 2625SOL    HW2 8775   3.896   0.816   5.407
 2626SOL     OW 8776   2.149   6.564   2.486
 2626SOL    HW1 8777   2.166   6.615   2.570
 2626SOL    HW2 8778   2.172   6.622   2.407
 2627SOL     OW 8779   0.141   0.079   4.420
 2627SOL    HW1 8780   0.048   0.048   4.440
 2627SOL    HW2 8781   0.143   0.119   4.328
 2628SOL     OW 8782   4.130   5.284   5.686
 2628SOL    HW1 8783   4.090   5.229   5.760
 2628SOL    HW2 8784   4.057   5.316   5.625
 2629SOL     OW 8785   3.724   4.075   1.289
 2629SOL    HW1 8786   3.811   4.027   1.276
 2629SOL    HW2 8787   3.726   4.125   1.375
 2630SOL     OW 8788   2.678   2.273   2.217
 2630SOL    HW1 8789   2.771   2.303   2.198
 2630SOL    HW2 8790   2.620   2.354   2.233
 2631SOL     OW 8791   4.812   6.358   4.447
 2631SOL    HW1 8792   4.738   6.305   4.406
 2631SOL    HW2 8793   4.843   6.428   4.382
 2632SOL     OW 8794   4.974   1.923   0.502
 2632SOL    HW1 8795   5.034   1.986   0.552
 2632SOL    HW2 8796   4.886   1.968   0.485
 2633SOL     OW 8797   6.149   2.269   6.452
 2633SOL    HW1 8798   6.100   2.347   6.490
 2633SOL    HW2 8799   6.216   2.236   6.519
 2634SOL     OW 8800   2.471   5.339   1.297
 2634SOL    HW1 8801   2.419   5.293   1.369
 2634SOL    HW2 8802   2.409   5.364   1.222
 2635SOL     OW 8803   5.094   4.550   4.268
 2635SOL    HW1 8804   5.071   4.459   4.301
 2635SOL    HW2 8805   5.163   4.543   4.196
 2636SOL     OW 8806   6.001   0.472   4.996
 2636SOL    HW1 8807   5.921   0.453   5.053
 2636SOL    HW2 8808   6.009   0.570   4.982
 2637SOL     OW 8809   5.013   6.573   2.548
 2637SOL    HW1 8810   4.931   6.625   2.527
 2637SOL    HW2 8811   5.050   6.534   2.464
 2638SOL     OW 8812   5.626   6.219   0.793
 2638SOL    HW1 8813   5.668   6.215   0.884
 2638SOL    HW2 8814   5.658   6.301   0.745
 2639SOL     OW 8815   6.589   6.270   0.513
 2639SOL    HW1 8816   6.684   6.239   0.511
 2639SOL    HW2 8817   6.552   6.269   0.420
 2640SOL     OW 8818   6.970   6.807   5.853
 2640SOL    HW1 8819   0.006   6.845   5.774
 2640SOL    HW2 8820   6.986   6.708   5.857
 2641SOL     OW 8821   5.778   5.072   0.234
 2641SOL    HW1 8822   5.679   5.089   0.236
 2641SOL    HW2 8823   5.802   5.029   0.147
 2642SOL     OW 8824   6.354   6.979   3.769
 2642SOL    HW1 8825   6.399   6.892   3.789
 2642SOL    HW2 8826   6.341   0.019   3.853
 2643SOL     OW 8827   0.712   0.385   2.262
 2643SOL    HW1 8828   0.629   0.384   2.319
 2643SOL    HW2 8829   0.701   0.452   2.189
 2644SOL     OW 8830   0.184   4.855   6.093
 2644SOL    HW1 8831   0.130   4.867   6.177
 2644SOL    HW2 8832   0.138   4.789   6.033
 2645SOL     OW 8833   5.484   5.900   5.686
 2645SOL    HW1 8834   5.571   5.939   5.659
 2645SOL    HW2 8835   5.450   5.841   5.613
 2646SOL     OW 8836   6.380   6.519   0.104
 2646SOL    HW1 8837   6.460   6.459   0.097
 2646SOL    HW2 8838   6.325   6.493   0.183
 2647SOL     OW 8839   4.117   1.338   0.817
 2647SOL    HW1 8840   4.018   1.337   0.802
 2647SOL    HW2 8841   4.164   1.320   0.731
 2648SOL     OW 8842   4.404   0.551   2.438
 2648SOL    HW1 8843   4.490   0.572   2.392
 2648SOL    HW2 8844   4.421   0.490   2.515
 2649SOL     OW 8845   3.375   1.757   5.923
 2649SOL    HW1 8846   3.283   1.742   5.959
 2649SOL    HW2 8847   3.407   1.675   5.876
 2650SOL     OW 8848   0.231   5.831   2.055
 2650SOL    HW1 8849   0.305   5.781   2.011
 2650SOL    HW2 8850   0.176   5.769   2.110
 2651SOL     OW 8851   6.944   0.848   3.309
 2651SOL    HW1 8852   6.967   0.816   3.401
 2651SOL    HW2 8853   6.983   0.939   3.295
 2652SOL     OW 8854   2.949   3.338   2.342
 2652SOL    HW1 8855   2.926   3.404   2.271
 2652SOL    HW2 8856   3.048   3.330   2.350
 2653SOL     OW 8857   6.402   6.659   6.315
 2653SOL    HW1 8858   6.455   6.621   6.392
 2653SOL    HW2 8859   6.358   6.584   6.265
 2654SOL     OW 8860   5.623   2.729   6.170
 2654SOL    HW1 8861   5.630   2.814   6.117
 2654SOL    HW2 8862   5.695   2.666   6.141
 2655SOL     OW 8863   5.015   6.409   5.151
 2655SOL    HW1 8864   4.974   6.362   5.073
 2655SOL    HW2 8865   5.053   6.496   5.121
 2656SOL     OW 8866   5.935   3.103   4.052
 2656SOL    HW1 8867   5.844   3.073   4.024
 2656SOL    HW2 8868   5.998   3.094   3.974
 2657SOL     OW 8869   2.143   2.859   6.557
 2657SOL    HW1 8870   2.124   2.950   6.521
 2657SOL    HW2 8871   2.066   2.828   6.613
 2658SOL     OW 8872   6.216   3.949   6.107
 2658SOL    HW1 8873   6.293   3.893   6.077
 2658SOL    HW2 8874   6.140   3.889   6.133
 2659SOL     OW 8875   6.723   2.997   3.909
 2659SOL    HW1 8876   6.768   2.924   3.857
 2659SOL    HW2 8877   6.766   3.005   3.999
 2660SOL     OW 8878   0.033   2.623   3.203
 2660SOL    HW1 8879   0.005   2.559   3.131
 2660SOL    HW2 8880   7.008   2.591   3.291
 2661SOL     OW 8881   4.512   5.872   0.455
 2661SOL    HW1 8882   4.544   5.842   0.544
 2661SOL    HW2 8883   4.550   5.962   0.434
 2662SOL     OW 8884   3.148   6.953   3.878
 2662SOL    HW1 8885   3.234   6.978   3.833
 2662SOL    HW2 8886   3.158   6.863   3.921
 2663SOL     OW 8887   1.325   3.979   2.546
 2663SOL    HW1 8888   1.257   3.907   2.547
 2663SOL    HW2 8889   1.281   4.067   2.527
 2664SOL     OW 8890   4.131   3.664   2.029
 2664SOL    HW1 8891   4.103   3.658   2.125
 2664SOL    HW2 8892   4.220   3.619   2.017
 2665SOL     OW 8893   3.805   1.030   4.487
 2665SOL    HW1 8894   3.815   1.127   4.509
 2665SOL    HW2 8895   3.809   0.977   4.571
 2666SOL     OW 8896   5.318   5.600   1.400
 2666SOL    HW1 8897   5.414   5.628   1.409
 2666SOL    HW2 8898   5.282   5.633   1.313
 2667SOL     OW 8899   1.662   5.351   3.746
 2667SOL    HW1 8900   1.684   5.308   3.834
 2667SOL    HW2 8901   1.622   5.283   3.684
 2668SOL     OW 8902   0.081   2.933   5.718
 2668SOL    HW1 8903   7.002   2.968   5.738
 2668SOL    HW2 8904   0.129   2.997   5.658
 2669SOL     OW 8905   4.416   5.013   5.017
 2669SOL    HW1 8906   4.370   4.994   5.104
 2669SOL    HW2 8907   4.445   5.109   5.015
 2670SOL     OW 8908   1.455   1.119   6.662
 2670SOL    HW1 8909   1.505   1.177   6.598
 2670SOL    HW2 8910   1.421   1.038   6.614
 2671SOL     OW 8911   2.255   3.566   5.771
 2671SOL    HW1 8912   2.272   3.649   5.717
 2671SOL    HW2 8913   2.334   3.547   5.829
 2672SOL     OW 8914   1.326   5.164   1.287
 2672SOL    HW1 8915   1.263   5.229   1.330
 2672SOL    HW2 8916   1.309   5.072   1.323
 2673SOL     OW 8917   3.895   2.139   2.933
 2673SOL    HW1 8918   3.952   2.062   2.905
 2673SOL    HW2 8919   3.914   2.162   3.028
 2674SOL     OW 8920   5.235   5.359   5.582
 2674SOL    HW1 8921   5.196   5.280   5.533
 2674SOL    HW2 8922   5.218   5.349   5.680
 2675SOL     OW 8923   0.365   5.107   5.540
 2675SOL    HW1 8924   0.350   5.034   5.472
 2675SOL    HW2 8925   0.345   5.071   5.631
 2676SOL     OW 8926   4.414   0.983   2.055
 2676SOL    HW1 8927   4.459   0.944   2.136
 2676SOL    HW2 8928   4.438   0.928   1.975
 2677SOL     OW 8929   2.355   5.216   1.851
 2677SOL    HW1 8930   2.295   5.149   1.807
 2677SOL    HW2 8931   2.320   5.237   1.942
 2678SOL     OW 8932   0.378   5.032   5.809
 2678SOL    HW1 8933   0.427   4.954   5.848
 2678SOL    HW2 8934   0.312   5.066   5.877
 2679SOL     OW 8935   2.971   4.403   1.059
 2679SOL    HW1 8936   3.039   4.446   1.119
 2679SOL    HW2 8937   2.879   4.428   1.091
 2680SOL     OW 8938   1.072   2.125   1.825
 2680SOL    HW1 8939   0.999   2.101   1.761
 2680SOL    HW2 8940   1.103   2.218   1.806
 2681SOL     OW 8941   1.663   2.326   2.695
 2681SOL    HW1 8942   1.725   2.345   2.619
 2681SOL    HW2 8943   1.713   2.332   2.782
 2682SOL     OW 8944   5.788   2.344   3.032
 2682SOL    HW1 8945   5.845   2.405   3.087
 2682SOL    HW2 8946   5.696   2.382   3.025
 2683SOL     OW 8947   0.935   6.434   1.390
 2683SOL    HW1 8948   1.019   6.398   1.349
 2683SOL    HW2 8949   0.857   6.380   1.358
 2684SOL     OW 8950   2.443   6.574   2.863
 2684SOL    HW1 8951   2.530   6.528   2.844
 2684SOL    HW2 8952   2.451   6.625   2.949
 2685SOL     OW 8953   5.471   5.746   5.446
 2685SOL    HW1 8954   5.449   5.808   5.370
 2685SOL    HW2 8955   5.530   5.672   5.412
 2686SOL     OW 8956   1.891   2.739   4.308
 2686SOL    HW1 8957   1.864   2.801   4.381
 2686SOL    HW2 8958   1.897   2.790   4.222
 2687SOL     OW 8959   4.467   5.573   2.623
 2687SOL    HW1 8960   4.505   5.564   2.531
 2687SOL    HW2 8961   4.540   5.586   2.689
 2688SOL     OW 8962   3.769   4.697   6.121
 2688SOL    HW1 8963   3.809   4.624   6.065
 2688SOL    HW2 8964   3.713   4.657   6.193
 2689SOL     OW 8965   6.677   3.481   3.821
 2689SOL    HW1 8966   6.688   3.564   3.767
 2689SOL    HW2 8967   6.764   3.431   3.824
 2690SOL     OW 8968   3.950   3.559   3.349
 2690SOL    HW1 8969   4.037   3.544   3.302
 2690SOL    HW2 8970   3.884   3.490   3.319
 2691SOL     OW 8971   1.738   6.235   1.873
 2691SOL    HW1 8972   1.778   6.225   1.782
 2691SOL    HW2 8973   1.640   6.218   1.869
 2692SOL     OW 8974   0.214   6.584   3.643
 2692SOL    HW1 8975   0.190   6.495   3.681
 2692SOL    HW2 8976   0.312   6.601   3.654
 2693SOL     OW 8977   1.871   4.013   2.866
 2693SOL    HW1 8978   1.937   4.079   2.831
 2693SOL    HW2 8979   1.878   4.007   2.965
 2694SOL     OW 8980   1.766   6.892   3.337
 2694SOL    HW1 8981   1.832   6.819   3.320
 2694SOL    HW2 8982   1.746   6.940   3.252
 2695SOL     OW 8983   4.447   1.828   3.445
 2695SOL    HW1 8984   4.430   1.891   3.521
 2695SOL    HW2 8985   4.496   1.747   3.480
 2696SOL     OW 8986   3.858   3.876   5.562
 2696SOL    HW1 8987   3.930   3.921   5.508
 2696SOL    HW2 8988   3.900   3.807   5.621
 2697SOL     OW 8989   2.473   1.589   4.169
 2697SOL    HW1 8990   2.453   1.512   4.109
 2697SOL    HW2 8991   2.408   1.663   4.152
 2698SOL     OW 8992   2.709   3.716   0.625
 2698SOL    HW1 8993   2.797   3.672   0.609
 2698SOL    HW2 8994   2.701   3.796   0.566
 2699SOL     OW 8995   3.640   5.869   1.943
 2699SOL    HW1 8996   3.693   5.800   1.991
 2699SOL    HW2 8997   3.691   5.955   1.940
 2700SOL     OW 8998   2.045   3.389   2.573
 2700SOL    HW1 8999   2.078   3.303   2.611
 2700SOL    HW2 9000   1.946   3.383   2.557
 2701SOL     OW 9001   4.055   6.799   6.677
 2701SOL    HW1 9002   4.144   6.766   6.646
 2701SOL    HW2 9003   3.987   6.785   6.605
 2702SOL     OW 9004   6.856   0.305   3.628
 2702SOL    HW1 9005   6.812   0.215   3.618
 2702SOL    HW2 9006   6.818   0.353   3.707
 2703SOL     OW 9007   1.951   1.822   2.343
 2703SOL    HW1 9008   1.920   1.749   2.282
 2703SOL    HW2 9009   1.987   1.782   2.428
 2704SOL     OW 9010   2.564   4.766   1.321
 2704SOL    HW1 9011   2.601   4.852   1.358
 2704SOL    HW2 9012   2.467   4.760   1.341
 2705SOL     OW 9013   6.557   5.306   3.390
 2705SOL    HW1 9014   6.629   5.341   3.329
 2705SOL    HW2 9015   6.499   5.242   3.339
 2706SOL     OW 9016   6.963   1.102   1.932
 2706SOL    HW1 9017   6.868   1.074   1.928
 2706SOL    HW2 9018   6.988   1.125   2.027
 2707SOL     OW 9019   2.155   1.584   5.823
 2707SOL    HW1 9020   2.147   1.489   5.795
 2707SOL    HW2 9021   2.225   1.593   5.893
 2708SOL     OW 9022   1.751   2.290   1.410
 2708SOL    HW1 9023   1.841   2.331   1.428
 2708SOL    HW2 9024   1.763   2.207   1.356
 2709SOL     OW 9025   4.581   6.156   0.501
 2709SOL    HW1 9026   4.492   6.132   0.462
 2709SOL    HW2 9027   4.595   6.255   0.493
 2710SOL     OW 9028   6.370   3.895   3.044
 2710SOL    HW1 9029   6.370   3.916   3.142
 2710SOL    HW2 9030   6.383   3.979   2.992
 2711SOL     OW 9031   1.343   0.443   2.175
 2711SOL    HW1 9032   1.246   0.443   2.200
 2711SOL    HW2 9033   1.351   0.445   2.075
 2712SOL     OW 9034   2.927   3.869   0.314
 2712SOL    HW1 9035   2.887   3.890   0.225
 2712SOL    HW2 9036   3.026   3.882   0.309
 2713SOL     OW 9037   2.217   3.197   5.129
 2713SOL    HW1 9038   2.298   3.139   5.136
 2713SOL    HW2 9039   2.142   3.146   5.087
 2714SOL     OW 9040   5.042   6.898   5.681
 2714SOL    HW1 9041   5.138   6.879   5.662
 2714SOL    HW2 9042   4.987   6.875   5.601
 2715SOL     OW 9043   6.033   1.143   6.579
 2715SOL    HW1 9044   6.073   1.235   6.585
 2715SOL    HW2 9045   6.018   1.107   6.671
 2716SOL     OW 9046   0.304   6.878   2.408
 2716SOL    HW1 9047   0.305   6.977   2.422
 2716SOL    HW2 9048   0.391   6.848   2.369
 2717SOL     OW 9049   0.703   0.806   2.525
 2717SOL    HW1 9050   0.761   0.886   2.511
 2717SOL    HW2 9051   0.692   0.790   2.623
 2718SOL     OW 9052   1.663   4.842   3.933
 2718SOL    HW1 9053   1.722   4.922   3.924
 2718SOL    HW2 9054   1.582   4.866   3.986
 2719SOL     OW 9055   4.233   5.201   1.657
 2719SOL    HW1 9056   4.280   5.264   1.595
 2719SOL    HW2 9057   4.234   5.239   1.750
 2720SOL     OW 9058   1.255   6.059   3.703
 2720SOL    HW1 9059   1.325   6.073   3.774
 2720SOL    HW2 9060   1.170   6.030   3.746
 2721SOL     OW 9061   3.861   6.913   3.997
 2721SOL    HW1 9062   3.953   6.889   3.966
 2721SOL    HW2 9063   3.796   6.891   3.925
 2722SOL     OW 9064   1.194   6.022   2.239
 2722SOL    HW1 9065   1.240   6.111   2.241
 2722SOL    HW2 9066   1.262   5.949   2.245
 2723SOL     OW 9067   1.660   1.406   5.847
 2723SOL    HW1 9068   1.560   1.397   5.844
 2723SOL    HW2 9069   1.688   1.483   5.790
 2724SOL     OW 9070   4.150   5.450   6.469
 2724SOL    HW1 9071   4.102   5.528   6.428
 2724SOL    HW2 9072   4.221   5.484   6.530
 2725SOL     OW 9073   3.201   4.929   3.887
 2725SOL    HW1 9074   3.198   4.935   3.986
 2725SOL    HW2 9075   3.290   4.960   3.854
 2726SOL     OW 9076   4.769   5.327   1.873
 2726SOL    HW1 9077   4.745   5.370   1.786
 2726SOL    HW2 9078   4.695   5.267   1.902
 2727SOL     OW 9079   2.023   5.652   2.471
 2727SOL    HW1 9080   1.957   5.589   2.430
 2727SOL    HW2 9081   1.994   5.674   2.565
 2728SOL     OW 9082   3.149   6.908   5.795
 2728SOL    HW1 9083   3.164   6.809   5.800
 2728SOL    HW2 9084   3.153   6.938   5.700
 2729SOL     OW 9085   5.531   5.114   3.009
 2729SOL    HW1 9086   5.469   5.184   2.973
 2729SOL    HW2 9087   5.586   5.077   2.934
 2730SOL     OW 9088   2.036   5.922   1.219
 2730SOL    HW1 9089   1.997   5.851   1.160
 2730SOL    HW2 9090   2.102   5.880   1.282
 2731SOL     OW 9091   3.125   4.005   1.658
 2731SOL    HW1 9092   3.076   4.074   1.711
 2731SOL    HW2 9093   3.222   4.031   1.650
 2732SOL     OW 9094   6.015   2.078   2.350
 2732SOL    HW1 9095   6.007   2.017   2.429
 2732SOL    HW2 9096   6.109   2.076   2.316
 2733SOL     OW 9097   1.210   6.728   6.123
 2733SOL    HW1 9098   1.200   6.820   6.160
 2733SOL    HW2 9099   1.158   6.720   6.038
 2734SOL     OW 9100   2.034   5.448   3.849
 2734SOL    HW1 9101   2.097   5.516   3.810
 2734SOL    HW2 9102   2.001   5.388   3.776
 2735SOL     OW 9103   1.566   5.067   2.424
 2735SOL    HW1 9104   1.536   4.979   2.386
 2735SOL    HW2 9105   1.656   5.090   2.388
 2736SOL     OW 9106   4.388   0.469   5.418
 2736SOL    HW1 9107   4.471   0.413   5.424
 2736SOL    HW2 9108   4.370   0.512   5.507
 2737SOL     OW 9109   4.656   3.690   6.560
 2737SOL    HW1 9110   4.709   3.658   6.639
 2737SOL    HW2 9111   4.718   3.715   6.486
 2738SOL     OW 9112   5.718   5.177   4.270
 2738SOL    HW1 9113   5.768   5.260   4.296
 2738SOL    HW2 9114   5.782   5.100   4.265
 2739SOL     OW 9115   6.025   2.897   0.597
 2739SOL    HW1 9116   5.929   2.891   0.621
 2739SOL    HW2 9117   6.065   2.805   0.596
 2740SOL     OW 9118   6.018   2.231   3.261
 2740SOL    HW1 9119   5.988   2.206   3.168
 2740SOL    HW2 9120   6.082   2.162   3.294
 2741SOL     OW 9121   0.502   2.592   5.915
 2741SOL    HW1 9122   0.526   2.680   5.875
 2741SOL    HW2 9123   0.535   2.588   6.010
 2742SOL     OW 9124   1.857   6.591   6.517
 2742SOL    HW1 9125   1.886   6.517   6.456
 2742SOL    HW2 9126   1.935   6.649   6.539
 2743SOL     OW 9127   5.279   5.117   0.616
 2743SOL    HW1 9128   5.260   5.019   0.614
 2743SOL    HW2 9129   5.333   5.139   0.698
 2744SOL     OW 9130   4.254   1.579   6.281
 2744SOL    HW1 9131   4.334   1.540   6.235
 2744SOL    HW2 9132   4.171   1.541   6.241
 2745SOL     OW 9133   2.567   6.147   0.615
 2745SOL    HW1 9134   2.482   6.164   0.664
 2745SOL    HW2 9135   2.598   6.054   0.634
 2746SOL     OW 9136   1.444   2.491   6.175
 2746SOL    HW1 9137   1.537   2.524   6.191
 2746SOL    HW2 9138   1.447   2.394   6.152
 2747SOL     OW 9139   3.928   5.925   4.226
 2747SOL    HW1 9140   3.938   5.944   4.129
 2747SOL    HW2 9141   4.007   5.962   4.275
 2748SOL     OW 9142   3.765   1.120   3.903
 2748SOL    HW1 9143   3.779   1.219   3.900
 2748SOL    HW2 9144   3.725   1.089   3.817
 2749SOL     OW 9145   4.569   5.308   3.667
 2749SOL    HW1 9146   4.470   5.299   3.656
 2749SOL    HW2 9147   4.591   5.326   3.763
 2750SOL     OW 9148   0.300   5.993   2.591
 2750SOL    HW1 9149   0.384   6.046   2.598
 2750SOL    HW2 9150   0.291   5.956   2.499
 2751SOL     OW 9151   1.542   0.107   6.336
 2751SOL    HW1 9152   1.506   0.144   6.421
 2751SOL    HW2 9153   1.622   0.050   6.355
 2752SOL     OW 9154   5.804   6.435   5.524
 2752SOL    HW1 9155   5.802   6.335   5.530
 2752SOL    HW2 9156   5.729   6.473   5.578
 2753SOL     OW 9157   2.465   5.205   5.403
 2753SOL    HW1 9158   2.429   5.297   5.413
 2753SOL    HW2 9159   2.422   5.160   5.325
 2754SOL     OW 9160   1.276   6.717   4.090
 2754SOL    HW1 9161   1.316   6.772   4.163
 2754SOL    HW2 9162   1.221   6.644   4.129
 2755SOL     OW 9163   3.434   6.061   1.990
 2755SOL    HW1 9164   3.414   6.108   1.904
 2755SOL    HW2 9165   3.503   5.990   1.975
 2756SOL     OW 9166   0.564   2.861   5.890
 2756SOL    HW1 9167   0.658   2.862   5.857
 2756SOL    HW2 9168   0.520   2.949   5.868
 2757SOL     OW 9169   4.265   3.326   6.792
 2757SOL    HW1 9170   4.346   3.346   6.738
 2757SOL    HW2 9171   4.220   3.412   6.818
 2758SOL     OW 9172   6.618   6.061   2.474
 2758SOL    HW1 9173   6.672   5.976   2.473
 2758SOL    HW2 9174   6.551   6.059   2.400
 2759SOL     OW 9175   2.981   3.958   5.932
 2759SOL    HW1 9176   3.066   4.007   5.956
 2759SOL    HW2 9177   2.999   3.895   5.857
 2760SOL     OW 9178   5.297   6.359   2.861
 2760SOL    HW1 9179   5.260   6.446   2.891
 2760SOL    HW2 9180   5.232   6.314   2.800
 2761SOL     OW 9181   1.254   2.648   3.488
 2761SOL    HW1 9182   1.227   2.735   3.447
 2761SOL    HW2 9183   1.328   2.607   3.435
 2762SOL     OW 9184   2.535   2.331   0.282
 2762SOL    HW1 9185   2.528   2.430   0.284
 2762SOL    HW2 9186   2.537   2.295   0.375
 2763SOL     OW 9187   6.242   1.808   4.549
 2763SOL    HW1 9188   6.257   1.765   4.460
 2763SOL    HW2 9189   6.329   1.842   4.585
 2764SOL     OW 9190   0.807   3.420   2.324
 2764SOL    HW1 9191   0.820   3.418   2.225
 2764SOL    HW2 9192   0.821   3.328   2.361
 2765SOL     OW 9193   6.669   6.937   0.163
 2765SOL    HW1 9194   6.599   7.001   0.132
 2765SOL    HW2 9195   6.652   6.847   0.123
 2766SOL     OW 9196   5.022   0.949   6.623
 2766SOL    HW1 9197   4.933   0.921   6.658
 2766SOL    HW2 9198   5.076   0.868   6.600
 2767SOL     OW 9199   6.422   5.236   6.488
 2767SOL    HW1 9200   6.496   5.238   6.554
 2767SOL    HW2 9201   6.459   5.250   6.396
 2768SOL     OW 9202   4.190   6.855   1.224
 2768SOL    HW1 9203   4.189   6.953   1.243
 2768SOL    HW2 9204   4.173   6.839   1.127
 2769SOL     OW 9205   0.575   4.563   5.823
 2769SOL    HW1 9206   0.499   4.502   5.843
 2769SOL    HW2 9207   0.652   4.511   5.786
 2770SOL     OW 9208   3.300   6.505   0.374
 2770SOL    HW1 9209   3.232   6.543   0.312
 2770SOL    HW2 9210   3.350   6.580   0.418
 2771SOL     OW 9211   4.340   6.730   4.945
 2771SOL    HW1 9212   4.428   6.712   4.988
 2771SOL    HW2 9213   4.353   6.794   4.869
 2772SOL     OW 9214   4.616   0.236   3.249
 2772SOL    HW1 9215   4.527   0.193   3.267
 2772SOL    HW2 9216   4.672   0.231   3.331
 2773SOL     OW 9217   5.487   2.873   5.203
 2773SOL    HW1 9218   5.408   2.933   5.216
 2773SOL    HW2 9219   5.458   2.778   5.210
 2774SOL     OW 9220   6.493   1.957   4.191
 2774SOL    HW1 9221   6.481   2.010   4.107
 2774SOL    HW2 9222   6.589   1.957   4.216
 2775SOL     OW 9223   0.183   3.583   3.900
 2775SOL    HW1 9224   0.241   3.515   3.945
 2775SOL    HW2 9225   0.201   3.674   3.939
 2776SOL     OW 9226   4.937   4.368   6.306
 2776SOL    HW1 9227   4.853   4.421   6.292
 2776SOL    HW2 9228   4.970   4.334   6.218
 2777SOL     OW 9229   2.697   2.154   6.475
 2777SOL    HW1 9230   2.765   2.088   6.444
 2777SOL    HW2 9231   2.626   2.163   6.405
 2778SOL     OW 9232   2.656   0.282   5.845
 2778SOL    HW1 9233   2.732   0.338   5.878
 2778SOL    HW2 9234   2.688   0.189   5.826
 2779SOL     OW 9235   5.143   0.507   1.645
 2779SOL    HW1 9236   5.110   0.470   1.558
 2779SOL    HW2 9237   5.083   0.477   1.719
 2780SOL     OW 9238   6.914   2.246   4.815
 2780SOL    HW1 9239   6.869   2.159   4.791
 2780SOL    HW2 9240   6.856   2.297   4.878
 2781SOL     OW 9241   5.596   1.518   3.463
 2781SOL    HW1 9242   5.632   1.429   3.433
 2781SOL    HW2 9243   5.627   1.537   3.556
 2782SOL     OW 9244   5.072   0.321   5.872
 2782SOL    HW1 9245   5.110   0.254   5.935
 2782SOL    HW2 9246   5.091   0.413   5.905
 2783SOL     OW 9247   5.760   4.149   1.473
 2783SOL    HW1 9248   5.801   4.240   1.478
 2783SOL    HW2 9249   5.735   4.129   1.379
 2784SOL     OW 9250   0.912   2.174   1.567
 2784SOL    HW1 9251   0.872   2.084   1.582
 2784SOL    HW2 9252   0.845   2.244   1.591
 2785SOL     OW 9253   6.186   3.074   1.537
 2785SOL    HW1 9254   6.132   3.058   1.619
 2785SOL    HW2 9255   6.148   3.022   1.461
 2786SOL     OW 9256   0.166   5.979   6.954
 2786SOL    HW1 9257   0.190   6.076   6.956
 2786SOL    HW2 9258   0.108   5.961   6.874
 2787SOL     OW 9259   6.639   5.739   6.860
 2787SOL    HW1 9260   6.593   5.679   6.925
 2787SOL    HW2 9261   6.737   5.722   6.861
 2788SOL     OW 9262   3.157   6.365   6.041
 2788SOL    HW1 9263   3.251   6.398   6.054
 2788SOL    HW2 9264   3.107   6.372   6.128
 2789SOL     OW 9265   1.214   1.856   5.255
 2789SOL    HW1 9266   1.220   1.939   5.310
 2789SOL    HW2 9267   1.287   1.856   5.186
 2790SOL     OW 9268   1.042   5.687   2.192
 2790SOL    HW1 9269   1.036   5.649   2.284
 2790SOL    HW2 9270   1.016   5.784   2.194
 2791SOL     OW 9271   0.384   3.822   2.994
 2791SOL    HW1 9272   0.284   3.824   3.000
 2791SOL    HW2 9273   0.417   3.908   2.954
 2792SOL     OW 9274   3.475   1.217   6.036
 2792SOL    HW1 9275   3.575   1.215   6.031
 2792SOL    HW2 9276   3.437   1.229   5.944
 2793SOL     OW 9277   3.569   3.860   0.222
 2793SOL    HW1 9278   3.548   3.852   0.320
 2793SOL    HW2 9279   3.617   3.946   0.205
 2794SOL     OW 9280   0.798   2.527   0.311
 2794SOL    HW1 9281   0.807   2.449   0.374
 2794SOL    HW2 9282   0.741   2.500   0.233
 2795SOL     OW 9283   0.888   5.513   1.519
 2795SOL    HW1 9284   0.858   5.418   1.517
 2795SOL    HW2 9285   0.984   5.519   1.492
 2796SOL     OW 9286   2.152   5.367   6.168
 2796SOL    HW1 9287   2.235   5.368   6.113
 2796SOL    HW2 9288   2.102   5.452   6.155
 2797SOL     OW 9289   4.978   5.852   3.308
 2797SOL    HW1 9290   5.007   5.785   3.240
 2797SOL    HW2 9291   4.883   5.833   3.335
 2798SOL     OW 9292   4.457   0.466   1.581
 2798SOL    HW1 9293   4.504   0.550   1.552
 2798SOL    HW2 9294   4.414   0.482   1.670
 2799SOL     OW 9295   3.775   5.990   5.171
 2799SOL    HW1 9296   3.856   6.048   5.166
 2799SOL    HW2 9297   3.720   6.002   5.089
 2800SOL     OW 9298   5.790   0.094   6.313
 2800SOL    HW1 9299   5.789   0.116   6.215
 2800SOL    HW2 9300   5.861   0.027   6.331
 2801SOL     OW 9301   0.619   4.724   4.624
 2801SOL    HW1 9302   0.671   4.746   4.706
 2801SOL    HW2 9303   0.567   4.640   4.641
 2802SOL     OW 9304   1.649   5.176   5.333
 2802SOL    HW1 9305   1.575   5.243   5.326
 2802SOL    HW2 9306   1.728   5.218   5.377
 2803SOL     OW 9307   3.583   2.183   5.891
 2803SOL    HW1 9308   3.507   2.130   5.928
 2803SOL    HW2 9309   3.573   2.279   5.918
 2804SOL     OW 9310   0.121   2.336   4.109
 2804SOL    HW1 9311   0.035   2.379   4.134
 2804SOL    HW2 9312   0.181   2.403   4.065
 2805SOL     OW 9313   3.704   3.279   1.138
 2805SOL    HW1 9314   3.607   3.259   1.150
 2805SOL    HW2 9315   3.759   3.218   1.196
 2806SOL     OW 9316   0.454   4.254   6.210
 2806SOL    HW1 9317   0.538   4.272   6.261
 2806SOL    HW2 9318   0.406   4.341   6.194
 2807SOL     OW 9319   3.937   0.361   3.732
 2807SOL    HW1 9320   3.954   0.449   3.687
 2807SOL    HW2 9321   3.989   0.355   3.817
 2808SOL     OW 9322   0.385   5.374   5.554
 2808SOL    HW1 9323   0.364   5.282   5.521
 2808SOL    HW2 9324   0.328   5.395   5.634
 2809SOL     OW 9325   0.097   5.230   1.810
 2809SOL    HW1 9326   0.144   5.311   1.845
 2809SOL    HW2 9327   0.115   5.220   1.712
 2810SOL     OW 9328   2.405   6.817   3.011
 2810SOL    HW1 9329   2.330   6.779   3.065
 2810SOL    HW2 9330   2.400   6.916   3.012
 2811SOL     OW 9331   0.833   1.180   1.206
 2811SOL    HW1 9332   0.757   1.117   1.224
 2811SOL    HW2 9333   0.884   1.196   1.290
 2812SOL     OW 9334   0.621   1.546   0.819
 2812SOL    HW1 9335   0.686   1.562   0.745
 2812SOL    HW2 9336   0.569   1.630   0.837
 2813SOL     OW 9337   1.101   2.857   1.259
 2813SOL    HW1 9338   1.147   2.902   1.336
 2813SOL    HW2 9339   1.148   2.879   1.174
 2814SOL     OW 9340   2.523   4.532   0.484
 2814SOL    HW1 9341   2.549   4.470   0.410
 2814SOL    HW2 9342   2.500   4.621   0.447
 2815SOL     OW 9343   0.575   5.009   4.913
 2815SOL    HW1 9344   0.561   4.995   5.011
 2815SOL    HW2 9345   0.600   5.105   4.896
 2816SOL     OW 9346   0.813   6.205   5.683
 2816SOL    HW1 9347   0.818   6.187   5.585
 2816SOL    HW2 9348   0.872   6.283   5.706
 2817SOL     OW 9349   4.140   0.730   2.421
 2817SOL    HW1 9350   4.204   0.654   2.430
 2817SOL    HW2 9351   4.165   0.786   2.342
 2818SOL     OW 9352   1.910   0.463   0.581
 2818SOL    HW1 9353   1.892   0.374   0.538
 2818SOL    HW2 9354   1.859   0.469   0.667
 2819SOL     OW 9355   0.665   0.271   6.757
 2819SOL    HW1 9356   0.755   0.245   6.794
 2819SOL    HW2 9357   0.667   0.367   6.729
 2820SOL     OW 9358   1.745   2.535   0.089
 2820SOL    HW1 9359   1.835   2.576   0.073
 2820SOL    HW2 9360   1.717   2.553   0.184
 2821SOL     OW 9361   3.149   3.355   6.151
 2821SOL    HW1 9362   3.169   3.447   6.186
 2821SOL    HW2 9363   3.068   3.318   6.197
 2822SOL     OW 9364   4.609   2.588   0.579
 2822SOL    HW1 9365   4.548   2.656   0.621
 2822SOL    HW2 9366   4.671   2.551   0.648
 2823SOL     OW 9367   4.957   2.489   1.782
 2823SOL    HW1 9368   5.051   2.481   1.749
 2823SOL    HW2 9369   4.954   2.550   1.862
 2824SOL     OW 9370   1.410   3.586   4.584
 2824SOL    HW1 9371   1.369   3.569   4.495
 2824SOL    HW2 9372   1.349   3.553   4.656
 2825SOL     OW 9373   5.533   1.958   6.301
 2825SOL    HW1 9374   5.460   1.933   6.237
 2825SOL    HW2 9375   5.500   2.029   6.363
 2826SOL     OW 9376   2.366   2.383   6.655
 2826SOL    HW1 9377   2.367   2.474   6.614
 2826SOL    HW2 9378   2.317   2.385   6.742
 2827SOL     OW 9379   6.108   0.990   6.361
 2827SOL    HW1 9380   6.116   0.905   6.413
 2827SOL    HW2 9381   6.103   1.068   6.424
 2828SOL     OW 9382   2.119   4.136   0.886
 2828SOL    HW1 9383   2.070   4.208   0.936
 2828SOL    HW2 9384   2.068   4.050   0.894
 2829SOL     OW 9385   3.297   3.827   2.301
 2829SOL    HW1 9386   3.282   3.841   2.399
 2829SOL    HW2 9387   3.330   3.912   2.259
 2830SOL     OW 9388   3.426   5.839   5.335
 2830SOL    HW1 9389   3.336   5.796   5.335
 2830SOL    HW2 9390   3.419   5.930   5.295
 2831SOL     OW 9391   5.651   1.791   1.924
 2831SOL    HW1 9392   5.669   1.804   2.022
 2831SOL    HW2 9393   5.567   1.839   1.899
 2832SOL     OW 9394   0.732   3.854   1.967
 2832SOL    HW1 9395   0.752   3.900   1.881
 2832SOL    HW2 9396   0.815   3.851   2.024
 2833SOL     OW 9397   1.584   2.541   1.936
 2833SOL    HW1 9398   1.676   2.523   1.902
 2833SOL    HW2 9399   1.534   2.595   1.868
 2834SOL     OW 9400   3.556   6.168   5.034
 2834SOL    HW1 9401   3.513   6.215   5.111
 2834SOL    HW2 9402   3.511   6.079   5.019
 2835SOL     OW 9403   6.810   0.869   0.322
 2835SOL    HW1 9404   6.806   0.770   0.334
 2835SOL    HW2 9405   6.801   0.913   0.411
 2836SOL     OW 9406   3.739   5.775   2.420
 2836SOL    HW1 9407   3.738   5.873   2.440
 2836SOL    HW2 9408   3.777   5.725   2.498
 2837SOL     OW 9409   5.234   4.209   1.770
 2837SOL    HW1 9410   5.237   4.110   1.757
 2837SOL    HW2 9411   5.150   4.245   1.728
 2838SOL     OW 9412   5.965   4.727   6.411
 2838SOL    HW1 9413   5.986   4.745   6.507
 2838SOL    HW2 9414   5.923   4.636   6.403
 2839SOL     OW 9415   6.375   3.161   4.866
 2839SOL    HW1 9416   6.397   3.258   4.875
 2839SOL    HW2 9417   6.448   3.115   4.815
 2840SOL     OW 9418   0.051   6.505   4.125
 2840SOL    HW1 9419   0.021   6.428   4.181
 2840SOL    HW2 9420   0.135   6.480   4.077
 2841SOL     OW 9421   6.151   4.049   2.325
 2841SOL    HW1 9422   6.171   3.953   2.345
 2841SOL    HW2 9423   6.216   4.107   2.373
 2842SOL     OW 9424   1.386   0.228   3.685
 2842SOL    HW1 9425   1.327   0.305   3.662
 2842SOL    HW2 9426   1.461   0.259   3.743
 2843SOL     OW 9427   2.151   2.662   4.009
 2843SOL    HW1 9428   2.156   2.563   3.992
 2843SOL    HW2 9429   2.074   2.701   3.959
 2844SOL     OW 9430   5.005   3.782   0.171
 2844SOL    HW1 9431   4.973   3.869   0.209
 2844SOL    HW2 9432   5.040   3.797   0.079
 2845SOL     OW 9433   3.265   1.782   2.806
 2845SOL    HW1 9434   3.202   1.705   2.819
 2845SOL    HW2 9435   3.274   1.832   2.892
 2846SOL     OW 9436   6.468   0.247   6.903
 2846SOL    HW1 9437   6.521   0.239   6.987
 2846SOL    HW2 9438   6.413   0.164   6.890
 2847SOL     OW 9439   4.558   4.507   1.469
 2847SOL    HW1 9440   4.480   4.484   1.409
 2847SOL    HW2 9441   4.642   4.505   1.415
 2848SOL     OW 9442   0.490   4.042   5.226
 2848SOL    HW1 9443   0.508   4.078   5.317
 2848SOL    HW2 9444   0.571   4.055   5.169
 2849SOL     OW 9445   4.680   0.295   1.760
 2849SOL    HW1 9446   4.632   0.350   1.692
 2849SOL    HW2 9447   4.743   0.233   1.714
 2850SOL     OW 9448   1.911   0.640   2.130
 2850SOL    HW1 9449   1.920   0.577   2.207
 2850SOL    HW2 9450   1.851   0.715   2.155
 2851SOL     OW 9451   3.538   3.018   1.713
 2851SOL    HW1 9452   3.476   2.996   1.788
 2851SOL    HW2 9453   3.588   2.936   1.686
 2852SOL     OW 9454   6.367   4.834   6.851
 2852SOL    HW1 9455   6.368   4.749   6.800
 2852SOL    HW2 9456   6.291   4.833   6.916
 2853SOL     OW 9457   0.068   4.225   5.719
 2853SOL    HW1 9458   0.054   4.131   5.750
 2853SOL    HW2 9459   0.161   4.236   5.685
 2854SOL     OW 9460   4.273   0.599   5.606
 2854SOL    HW1 9461   4.292   0.694   5.632
 2854SOL    HW2 9462   4.175   0.582   5.611
 2855SOL     OW 9463   2.268   2.283   5.101
 2855SOL    HW1 9464   2.252   2.377   5.132
 2855SOL    HW2 9465   2.277   2.223   5.181
 2856SOL     OW 9466   1.078   5.302   3.884
 2856SOL    HW1 9467   1.152   5.317   3.949
 2856SOL    HW2 9468   1.113   5.257   3.802
 2857SOL     OW 9469   6.756   4.451   1.181
 2857SOL    HW1 9470   6.673   4.396   1.190
 2857SOL    HW2 9471   6.792   4.472   1.272
 2858SOL     OW 9472   4.539   4.688   2.396
 2858SOL    HW1 9473   4.446   4.690   2.433
 2858SOL    HW2 9474   4.565   4.593   2.378
 2859SOL     OW 9475   5.068   4.992   0.835
 2859SOL    HW1 9476   5.113   5.072   0.874
 2859SOL    HW2 9477   5.136   4.936   0.786
 2860SOL     OW 9478   0.909   0.240   2.453
 2860SOL    HW1 9479   0.832   0.274   2.398
 2860SOL    HW2 9480   0.980   0.311   2.457
 2861SOL     OW 9481   4.771   4.921   5.702
 2861SOL    HW1 9482   4.852   4.965   5.664
 2861SOL    HW2 9483   4.747   4.964   5.788
 2862SOL     OW 9484   4.379   2.850   0.210
 2862SOL    HW1 9485   4.307   2.840   0.141
 2862SOL    HW2 9486   4.378   2.771   0.271
 2863SOL     OW 9487   6.053   0.744   4.955
 2863SOL    HW1 9488   6.002   0.781   5.033
 2863SOL    HW2 9489   6.138   0.797   4.944
 2864SOL     OW 9490   3.673   4.876   0.270
 2864SOL    HW1 9491   3.610   4.868   0.193
 2864SOL    HW2 9492   3.767   4.877   0.236
 2865SOL     OW 9493   5.698   5.231   4.724
 2865SOL    HW1 9494   5.686   5.303   4.792
 2865SOL    HW2 9495   5.655   5.147   4.756
 2866SOL     OW 9496   4.299   4.116   0.642
 2866SOL    HW1 9497   4.364   4.061   0.590
 2866SOL    HW2 9498   4.206   4.094   0.612
 2867SOL     OW 9499   5.236   6.378   2.108
 2867SOL    HW1 9500   5.248   6.364   2.010
 2867SOL    HW2 9501   5.241   6.289   2.155
 2868SOL     OW 9502   1.320   0.655   5.131
 2868SOL    HW1 9503   1.248   0.681   5.195
 2868SOL    HW2 9504   1.321   0.556   5.120
 2869SOL     OW 9505   6.373   5.427   4.174
 2869SOL    HW1 9506   6.438   5.351   4.184
 2869SOL    HW2 9507   6.328   5.421   4.085
 2870SOL     OW 9508   6.799   2.236   2.286
 2870SOL    HW1 9509   6.871   2.270   2.225
 2870SOL    HW2 9510   6.823   2.256   2.381
 2871SOL     OW 9511   5.180   2.018   2.570
 2871SOL    HW1 9512   5.238   1.949   2.525
 2871SOL    HW2 9513   5.196   2.016   2.669
 2872SOL     OW 9514   2.952   2.104   2.246
 2872SOL    HW1 9515   2.944   2.162   2.165
 2872SOL    HW2 9516   2.864   2.059   2.263
 2873SOL     OW 9517   0.827   6.891   1.047
 2873SOL    HW1 9518   0.820   6.807   0.992
 2873SOL    HW2 9519   0.800   6.871   1.141
 2874SOL     OW 9520   2.497   1.285   3.018
 2874SOL    HW1 9521   2.402   1.292   2.988
 2874SOL    HW2 9522   2.518   1.189   3.039
 2875SOL     OW 9523   1.959   6.911   2.631
 2875SOL    HW1 9524   1.940   6.858   2.713
 2875SOL    HW2 9525   1.874   6.924   2.580
 2876SOL     OW 9526   1.697   0.058   2.030
 2876SOL    HW1 9527   1.681   0.139   1.973
 2876SOL    HW2 9528   1.756   7.005   1.980
 2877SOL     OW 9529   1.131   2.346   6.852
 2877SOL    HW1 9530   1.196   2.347   6.776
 2877SOL    HW2 9531   1.126   2.254   6.890
 2878SOL     OW 9532   3.813   2.970   3.922
 2878SOL    HW1 9533   3.751   2.895   3.947
 2878SOL    HW2 9534   3.862   3.001   4.003
 2879SOL     OW 9535   4.711   4.174   0.184
 2879SOL    HW1 9536   4.616   4.145   0.199
 2879SOL    HW2 9537   4.734   4.163   0.088
 2880SOL     OW 9538   2.309   1.158   3.534
 2880SOL    HW1 9539   2.310   1.258   3.536
 2880SOL    HW2 9540   2.240   1.124   3.597
 2881SOL     OW 9541   4.995   6.178   6.835
 2881SOL    HW1 9542   5.022   6.083   6.852
 2881SOL    HW2 9543   4.984   6.226   6.922
 2882SOL     OW 9544   4.831   6.060   0.093
 2882SOL    HW1 9545   4.798   5.983   0.148
 2882SOL    HW2 9546   4.840   6.141   0.150
 2883SOL     OW 9547   5.625   5.923   3.974
 2883SOL    HW1 9548   5.601   5.837   3.929
 2883SOL    HW2 9549   5.662   5.987   3.907
 2884SOL     OW 9550   6.397   5.042   4.353
 2884SOL    HW1 9551   6.443   5.082   4.273
 2884SOL    HW2 9552   6.461   5.041   4.430
 2885SOL     OW 9553   1.157   2.333   3.451
 2885SOL    HW1 9554   1.137   2.354   3.546
 2885SOL    HW2 9555   1.250   2.297   3.444
 2886SOL     OW 9556   2.185   4.524   5.768
 2886SOL    HW1 9557   2.181   4.482   5.677
 2886SOL    HW2 9558   2.207   4.621   5.759
 2887SOL     OW 9559   0.513   5.930   3.161
 2887SOL    HW1 9560   0.610   5.927   3.187
 2887SOL    HW2 9561   0.459   5.875   3.224
 2888SOL     OW 9562   6.030   6.810   6.813
 2888SOL    HW1 9563   6.061   6.740   6.748
 2888SOL    HW2 9564   6.003   6.892   6.763
 2889SOL     OW 9565   3.616   6.501   2.336
 2889SOL    HW1 9566   3.524   6.536   2.347
 2889SOL    HW2 9567   3.616   6.401   2.349
 2890SOL     OW 9568   1.145   1.452   1.645
 2890SOL    HW1 9569   1.142   1.550   1.622
 2890SOL    HW2 9570   1.241   1.425   1.658
 2891SOL     OW 9571   0.173   2.622   4.443
 2891SOL    HW1 9572   0.109   2.678   4.495
 2891SOL    HW2 9573   0.124   2.546   4.400
 2892SOL     OW 9574   6.075   3.967   2.719
 2892SOL    HW1 9575   6.100   3.920   2.804
 2892SOL    HW2 9576   5.996   3.922   2.678
 2893SOL     OW 9577   6.521   5.591   5.011
 2893SOL    HW1 9578   6.515   5.563   4.915
 2893SOL    HW2 9579   6.588   5.535   5.059
 2894SOL     OW 9580   2.219   6.054   2.474
 2894SOL    HW1 9581   2.200   6.152   2.480
 2894SOL    HW2 9582   2.215   6.014   2.565
 2895SOL     OW 9583   4.522   0.102   6.233
 2895SOL    HW1 9584   4.575   0.187   6.230
 2895SOL    HW2 9585   4.427   0.121   6.210
 2896SOL     OW 9586   5.898   6.440   4.673
 2896SOL    HW1 9587   5.803   6.432   4.644
 2896SOL    HW2 9588   5.913   6.385   4.755
 2897SOL     OW 9589   4.133   5.068   3.177
 2897SOL    HW1 9590   4.169   5.044   3.087
 2897SOL    HW2 9591   4.209   5.083   3.240
 2898SOL     OW 9592   5.309   2.828   2.599
 2898SOL    HW1 9593   5.354   2.819   2.688
 2898SOL    HW2 9594   5.378   2.825   2.526
 2899SOL     OW 9595   6.910   3.852   0.775
 2899SOL    HW1 9596   6.864   3.794   0.708
 2899SOL    HW2 9597   6.849   3.868   0.853
 2900SOL     OW 9598   2.462   3.039   5.999
 2900SOL    HW1 9599   2.481   3.106   5.927
 2900SOL    HW2 9600   2.547   3.014   6.044
 2901SOL     OW 9601   0.937   4.212   3.184
 2901SOL    HW1 9602   0.889   4.134   3.223
 2901SOL    HW2 9603   1.021   4.180   3.140
 2902SOL     OW 9604   6.905   6.049   3.648
 2902SOL    HW1 9605   6.998   6.043   3.684
 2902SOL    HW2 9606   6.907   6.079   3.553
 2903SOL     OW 9607   4.697   4.958   0.296
 2903SOL    HW1 9608   4.608   4.953   0.340
 2903SOL    HW2 9609   4.714   5.051   0.265
 2904SOL     OW 9610   2.670   3.962   5.304
 2904SOL    HW1 9611   2.668   4.062   5.305
 2904SOL    HW2 9612   2.589   3.928   5.257
 2905SOL     OW 9613   1.034   6.082   1.724
 2905SOL    HW1 9614   1.039   6.149   1.649
 2905SOL    HW2 9615   1.048   5.990   1.688
 2906SOL     OW 9616   6.744   6.324   4.079
 2906SOL    HW1 9617   6.672   6.255   4.082
 2906SOL    HW2 9618   6.703   6.413   4.057
 2907SOL     OW 9619   0.644   0.903   4.368
 2907SOL    HW1 9620   0.578   0.967   4.408
 2907SOL    HW2 9621   0.726   0.952   4.339
 2908SOL     OW 9622   4.258   6.626   2.907
 2908SOL    HW1 9623   4.331   6.585   2.852
 2908SOL    HW2 9624   4.190   6.667   2.846
 2909SOL     OW 9625   0.586   6.439   1.508
 2909SOL    HW1 9626   0.539   6.364   1.461
 2909SOL    HW2 9627   0.523   6.483   1.572
 2910SOL     OW 9628   0.087   0.996   4.188
 2910SOL    HW1 9629   0.114   0.963   4.098
 2910SOL    HW2 9630   0.022   1.071   4.178
 2911SOL     OW 9631   6.877   4.784   5.108
 2911SOL    HW1 9632   6.896   4.806   5.204
 2911SOL    HW2 9633   6.823   4.700   5.104
 2912SOL     OW 9634   0.672   1.090   1.788
 2912SOL    HW1 9635   0.664   1.182   1.751
 2912SOL    HW2 9636   0.698   1.027   1.715
 2913SOL     OW 9637   2.733   0.042   1.507
 2913SOL    HW1 9638   2.690   0.081   1.589
 2913SOL    HW2 9639   2.732   0.111   1.434
 2914SOL     OW 9640   4.091   5.327   0.831
 2914SOL    HW1 9641   4.184   5.362   0.820
 2914SOL    HW2 9642   4.032   5.364   0.759
 2915SOL     OW 9643   2.036   0.479   2.613
 2915SOL    HW1 9644   1.962   0.541   2.638
 2915SOL    HW2 9645   2.098   0.469   2.690
 2916SOL     OW 9646   1.512   6.241   0.101
 2916SOL    HW1 9647   1.526   6.153   0.056
 2916SOL    HW2 9648   1.520   6.315   0.034
 2917SOL     OW 9649   2.733   6.422   3.782
 2917SOL    HW1 9650   2.750   6.481   3.861
 2917SOL    HW2 9651   2.650   6.370   3.797
 2918SOL     OW 9652   5.013   2.594   2.009
 2918SOL    HW1 9653   5.075   2.546   2.070
 2918SOL    HW2 9654   4.935   2.629   2.061
 2919SOL     OW 9655   0.997   5.717   4.886
 2919SOL    HW1 9656   1.063   5.753   4.820
 2919SOL    HW2 9657   0.970   5.791   4.948
 2920SOL     OW 9658   1.773   2.363   2.444
 2920SOL    HW1 9659   1.711   2.294   2.407
 2920SOL    HW2 9660   1.805   2.423   2.370
 2921SOL     OW 9661   1.032   6.342   3.818
 2921SOL    HW1 9662   1.127   6.375   3.826
 2921SOL    HW2 9663   1.026   6.248   3.852
 2922SOL     OW 9664   3.462   6.479   3.594
 2922SOL    HW1 9665   3.524   6.410   3.633
 2922SOL    HW2 9666   3.377   6.481   3.647
 2923SOL     OW 9667   6.284   5.641   5.127
 2923SOL    HW1 9668   6.374   5.626   5.086
 2923SOL    HW2 9669   6.287   5.612   5.223
 2924SOL     OW 9670   6.094   2.026   4.830
 2924SOL    HW1 9671   6.035   2.063   4.758
 2924SOL    HW2 9672   6.072   2.070   4.917
 2925SOL     OW 9673   4.874   6.246   5.995
 2925SOL    HW1 9674   4.953   6.302   6.019
 2925SOL    HW2 9675   4.816   6.295   5.930
 2926SOL     OW 9676   6.726   3.148   4.394
 2926SOL    HW1 9677   6.641   3.194   4.417
 2926SOL    HW2 9678   6.706   3.053   4.369
 2927SOL     OW 9679   0.671   1.895   2.219
 2927SOL    HW1 9680   0.705   1.893   2.125
 2927SOL    HW2 9681   0.706   1.816   2.269
 2928SOL     OW 9682   6.877   3.080   0.246
 2928SOL    HW1 9683   6.893   3.150   0.317
 2928SOL    HW2 9684   6.888   2.990   0.286
 2929SOL     OW 9685   2.431   2.133   4.206
 2929SOL    HW1 9686   2.372   2.213   4.221
 2929SOL    HW2 9687   2.518   2.163   4.167
 2930SOL     OW 9688   0.621   4.197   4.307
 2930SOL    HW1 9689   0.706   4.196   4.255
 2930SOL    HW2 9690   0.551   4.147   4.256
 2931SOL     OW 9691   4.846   3.927   5.709
 2931SOL    HW1 9692   4.807   3.986   5.638
 2931SOL    HW2 9693   4.801   3.944   5.796
 2932SOL     OW 9694   6.264   5.206   0.754
 2932SOL    HW1 9695   6.280   5.295   0.713
 2932SOL    HW2 9696   6.342   5.179   0.810
 2933SOL     OW 9697   1.092   0.339   0.229
 2933SOL    HW1 9698   1.138   0.342   0.318
 2933SOL    HW2 9699   1.122   0.416   0.173
 2934SOL     OW 9700   3.570   4.447   0.345
 2934SOL    HW1 9701   3.637   4.471   0.275
 2934SOL    HW2 9702   3.487   4.501   0.331
 2935SOL     OW 9703   0.237   2.228   6.331
 2935SOL    HW1 9704   0.249   2.162   6.405
 2935SOL    HW2 9705   0.203   2.182   6.250
 2936SOL     OW 9706   4.673   6.210   0.812
 2936SOL    HW1 9707   4.619   6.293   0.800
 2936SOL    HW2 9708   4.767   6.228   0.783
 2937SOL     OW 9709   5.012   4.662   2.612
 2937SOL    HW1 9710   5.046   4.662   2.518
 2937SOL    HW2 9711   4.915   4.641   2.612
 2938SOL     OW 9712   6.840   5.319   6.403
 2938SOL    HW1 9713   6.758   5.373   6.384
 2938SOL    HW2 9714   6.921   5.376   6.394
 2939SOL     OW 9715   0.140   6.280   1.433
 2939SOL    HW1 9716   0.217   6.235   1.479
 2939SOL    HW2 9717   0.065   6.215   1.421
 2940SOL     OW 9718   4.023   6.688   3.565
 2940SOL    HW1 9719   4.050   6.597   3.596
 2940SOL    HW2 9720   4.091   6.755   3.596
 2941SOL     OW 9721   1.980   4.573   3.656
 2941SOL    HW1 9722   1.974   4.645   3.725
 2941SOL    HW2 9723   1.890   4.531   3.644
 2942SOL     OW 9724   3.536   1.354   0.829
 2942SOL    HW1 9725   3.539   1.451   0.852
 2942SOL    HW2 9726   3.487   1.342   0.743
 2943SOL     OW 9727   5.816   3.931   2.907
 2943SOL    HW1 9728   5.721   3.959   2.894
 2943SOL    HW2 9729   5.854   3.899   2.821
 2944SOL     OW 9730   2.264   6.305   2.499
 2944SOL    HW1 9731   2.349   6.315   2.448
 2944SOL    HW2 9732   2.212   6.391   2.495
 2945SOL     OW 9733   4.936   4.290   1.050
 2945SOL    HW1 9734   4.907   4.385   1.037
 2945SOL    HW2 9735   4.863   4.240   1.096
 2946SOL     OW 9736   3.831   3.710   5.325
 2946SOL    HW1 9737   3.762   3.736   5.257
 2946SOL    HW2 9738   3.801   3.740   5.416
 2947SOL     OW 9739   6.511   6.626   0.643
 2947SOL    HW1 9740   6.496   6.537   0.685
 2947SOL    HW2 9741   6.435   6.688   0.666
 2948SOL     OW 9742   6.746   3.878   2.013
 2948SOL    HW1 9743   6.833   3.921   2.037
 2948SOL    HW2 9744   6.679   3.948   1.989
 2949SOL     OW 9745   1.244   6.690   0.888
 2949SOL    HW1 9746   1.295   6.656   0.809
 2949SOL    HW2 9747   1.184   6.764   0.859
 2950SOL     OW 9748   5.933   4.847   3.208
 2950SOL    HW1 9749   5.992   4.926   3.223
 2950SOL    HW2 9750   5.855   4.873   3.153
 2951SOL     OW 9751   6.782   1.537   1.674
 2951SOL    HW1 9752   6.729   1.460   1.641
 2951SOL    HW2 9753   6.798   1.601   1.599
 2952SOL     OW 9754   6.352   2.086   4.810
 2952SOL    HW1 9755   6.372   2.114   4.904
 2952SOL    HW2 9756   6.267   2.032   4.808
 2953SOL     OW 9757   1.269   5.299   4.061
 2953SOL    HW1 9758   1.251   5.351   4.144
 2953SOL    HW2 9759   1.360   5.258   4.066
 2954SOL     OW 9760   0.079   4.713   5.856
 2954SOL    HW1 9761   0.139   4.699   5.777
 2954SOL    HW2 9762   0.056   4.624   5.896
 2955SOL     OW 9763   1.931   3.960   6.108
 2955SOL    HW1 9764   1.931   3.944   6.010
 2955SOL    HW2 9765   1.942   3.873   6.156
 2956SOL     OW 9766   5.610   4.835   4.245
 2956SOL    HW1 9767   5.629   4.749   4.198
 2956SOL    HW2 9768   5.695   4.886   4.258
 2957SOL     OW 9769   1.998   4.707   1.324
 2957SOL    HW1 9770   2.080   4.736   1.373
 2957SOL    HW2 9771   1.925   4.687   1.389
 2958SOL     OW 9772   1.822   5.393   2.608
 2958SOL    HW1 9773   1.857   5.374   2.517
 2958SOL    HW2 9774   1.849   5.320   2.671
 2959SOL     OW 9775   6.766   3.688   2.736
 2959SOL    HW1 9776   6.680   3.708   2.689
 2959SOL    HW2 9777   6.779   3.753   2.811
 2960SOL     OW 9778   5.531   0.225   0.739
 2960SOL    HW1 9779   5.473   0.303   0.715
 2960SOL    HW2 9780   5.489   0.174   0.814
 2961SOL     OW 9781   5.633   3.430   2.000
 2961SOL    HW1 9782   5.705   3.498   2.017
 2961SOL    HW2 9783   5.567   3.467   1.934
 2962SOL     OW 9784   6.835   0.190   3.238
 2962SOL    HW1 9785   6.736   0.192   3.226
 2962SOL    HW2 9786   6.876   0.268   3.193
 2963SOL     OW 9787   1.827   0.955   5.138
 2963SOL    HW1 9788   1.860   1.019   5.069
 2963SOL    HW2 9789   1.904   0.919   5.191
 2964SOL     OW 9790   1.225   1.344   6.684
 2964SOL    HW1 9791   1.282   1.270   6.719
 2964SOL    HW2 9792   1.163   1.375   6.757
 2965SOL     OW 9793   6.784   6.771   5.096
 2965SOL    HW1 9794   6.842   6.828   5.154
 2965SOL    HW2 9795   6.708   6.825   5.060
 2966SOL     OW 9796   3.304   5.714   2.321
 2966SOL    HW1 9797   3.302   5.797   2.265
 2966SOL    HW2 9798   3.389   5.665   2.304
 2967SOL     OW 9799   5.330   0.548   4.542
 2967SOL    HW1 9800   5.256   0.601   4.584
 2967SOL    HW2 9801   5.291   0.473   4.489
 2968SOL     OW 9802   1.618   3.662   1.519
 2968SOL    HW1 9803   1.632   3.698   1.426
 2968SOL    HW2 9804   1.704   3.624   1.552
 2969SOL     OW 9805   4.807   3.287   5.191
 2969SOL    HW1 9806   4.719   3.239   5.188
 2969SOL    HW2 9807   4.792   3.384   5.175
 2970SOL     OW 9808   2.802   1.870   4.263
 2970SOL    HW1 9809   2.763   1.780   4.283
 2970SOL    HW2 9810   2.902   1.863   4.258
 2971SOL     OW 9811   5.468   2.921   6.341
 2971SOL    HW1 9812   5.517   2.854   6.285
 2971SOL    HW2 9813   5.531   2.993   6.371
 2972SOL     OW 9814   6.166   5.658   0.054
 2972SOL    HW1 9815   6.168   5.559   0.039
 2972SOL    HW2 9816   6.112   5.678   0.136
 2973SOL     OW 9817   4.222   1.197   3.376
 2973SOL    HW1 9818   4.232   1.192   3.277
 2973SOL    HW2 9819   4.305   1.235   3.417
 2974SOL     OW 9820   4.678   6.712   2.233
 2974SOL    HW1 9821   4.633   6.775   2.169
 2974SOL    HW2 9822   4.777   6.721   2.224
 2975SOL     OW 9823   4.779   4.106   4.189
 2975SOL    HW1 9824   4.808   4.091   4.283
 2975SOL    HW2 9825   4.785   4.021   4.137
 2976SOL     OW 9826   4.330   1.363   2.324
 2976SOL    HW1 9827   4.348   1.316   2.239
 2976SOL    HW2 9828   4.339   1.300   2.401
 2977SOL     OW 9829   1.350   0.599   1.294
 2977SOL    HW1 9830   1.377   0.677   1.237
 2977SOL    HW2 9831   1.347   0.627   1.390
 2978SOL     OW 9832   4.526   5.207   6.490
 2978SOL    HW1 9833   4.508   5.296   6.449
 2978SOL    HW2 9834   4.520   5.214   6.589
 2979SOL     OW 9835   3.040   0.945   3.926
 2979SOL    HW1 9836   3.122   0.930   3.871
 2979SOL    HW2 9837   2.974   0.872   3.909
 2980SOL     OW 9838   3.687   3.801   5.028
 2980SOL    HW1 9839   3.722   3.841   4.943
 2980SOL    HW2 9840   3.588   3.790   5.021
 2981SOL     OW 9841   1.988   1.055   1.537
 2981SOL    HW1 9842   1.924   1.111   1.589
 2981SOL    HW2 9843   2.016   0.976   1.592
 2982SOL     OW 9844   1.741   0.112   0.813
 2982SOL    HW1 9845   1.789   0.079   0.895
 2982SOL    HW2 9846   1.733   0.212   0.818
 2983SOL     OW 9847   6.120   3.151   5.551
 2983SOL    HW1 9848   6.025   3.175   5.567
 2983SOL    HW2 9849   6.160   3.215   5.484
 2984SOL     OW 9850   0.564   5.154   1.537
 2984SOL    HW1 9851   0.547   5.059   1.565
 2984SOL    HW2 9852   0.566   5.213   1.617
 2985SOL     OW 9853   0.108   6.955   5.665
 2985SOL    HW1 9854   0.048   0.021   5.686
 2985SOL    HW2 9855   0.181   6.984   5.604
 2986SOL     OW 9856   3.318   3.542   2.194
 2986SOL    HW1 9857   3.413   3.512   2.190
 2986SOL    HW2 9858   3.314   3.637   2.227
 2987SOL     OW 9859   1.927   6.268   5.304
 2987SOL    HW1 9860   1.835   6.265   5.344
 2987SOL    HW2 9861   1.937   6.353   5.251
 2988SOL     OW 9862   0.211   1.436   6.320
 2988SOL    HW1 9863   0.173   1.470   6.234
 2988SOL    HW2 9864   0.249   1.345   6.306
 2989SOL     OW 9865   4.779   2.978   4.637
 2989SOL    HW1 9866   4.775   2.928   4.551
 2989SOL    HW2 9867   4.838   3.058   4.627
 2990SOL     OW 9868   5.545   1.501   4.404
 2990SOL    HW1 9869   5.587   1.575   4.457
 2990SOL    HW2 9870   5.612   1.465   4.339
 2991SOL     OW 9871   0.768   3.961   0.700
 2991SOL    HW1 9872   0.807   3.869   0.702
 2991SOL    HW2 9873   0.833   4.026   0.738
 2992SOL     OW 9874   0.318   4.049   5.557
 2992SOL    HW1 9875   0.378   4.013   5.485
 2992SOL    HW2 9876   0.231   4.078   5.517
 2993SOL     OW 9877   2.460   3.416   1.166
 2993SOL    HW1 9878   2.360   3.415   1.164
 2993SOL    HW2 9879   2.494   3.469   1.088
 2994SOL     OW 9880   3.778   5.544   5.820
 2994SOL    HW1 9881   3.801   5.479   5.893
 2994SOL    HW2 9882   3.853   5.609   5.808
 2995SOL     OW 9883   4.699   0.967   0.802
 2995SOL    HW1 9884   4.645   1.050   0.787
 2995SOL    HW2 9885   4.713   0.920   0.715
 2996SOL     OW 9886   0.011   0.525   4.482
 2996SOL    HW1 9887   0.096   0.490   4.522
 2996SOL    HW2 9888   0.031   0.609   4.431
 2997SOL     OW 9889   5.148   6.386   4.342
 2997SOL    HW1 9890   5.200   6.404   4.259
 2997SOL    HW2 9891   5.051   6.377   4.319
 2998SOL     OW 9892   2.510   1.738   2.447
 2998SOL    HW1 9893   2.555   1.673   2.386
 2998SOL    HW2 9894   2.577   1.804   2.481
 2999SOL     OW 9895   3.256   3.791   1.047
 2999SOL    HW1 9896   3.252   3.691   1.053
 2999SOL    HW2 9897   3.348   3.822   1.070
 3000SOL     OW 9898   3.065   4.131   5.116
 3000SOL    HW1 9899   3.047   4.195   5.191
 3000SOL    HW2 9900   3.021   4.044   5.136
 3001SOL     OW 9901   5.681   0.678   5.752
 3001SOL    HW1 9902   5.666   0.600   5.813
 3001SOL    HW2 9903   5.772   0.672   5.712
 3002SOL     OW 9904   1.691   1.948   1.932
 3002SOL    HW1 9905   1.732   2.032   1.968
 3002SOL    HW2 9906   1.648   1.968   1.844
 3003SOL     OW 9907   1.868   6.515   0.116
 3003SOL    HW1 9908   1.810   6.500   0.035
 3003SOL    HW2 9909   1.911   6.605   0.109
 3004SOL     OW 9910   2.420   6.422   3.552
 3004SOL    HW1 9911   2.480   6.493   3.516
 3004SOL    HW2 9912   2.440   6.335   3.508
 3005SOL     OW 9913   1.006   1.985   0.117
 3005SOL    HW1 9914   1.044   1.926   0.188
 3005SOL    HW2 9915   0.975   2.071   0.159
 3006SOL     OW 9916   4.794   1.614   5.797
 3006SOL    HW1 9917   4.765   1.710   5.791
 3006SOL    HW2 9918   4.721   1.560   5.839
 3007SOL     OW 9919   5.548   5.448   6.849
 3007SOL    HW1 9920   5.521   5.377   6.784
 3007SOL    HW2 9921   5.487   5.444   6.929
 3008SOL     OW 9922   5.030   3.730   5.749
 3008SOL    HW1 9923   5.016   3.700   5.843
 3008SOL    HW2 9924   4.960   3.796   5.724
 3009SOL     OW 9925   0.380   3.436   1.663
 3009SOL    HW1 9926   0.371   3.343   1.626
 3009SOL    HW2 9927   0.292   3.465   1.701
 3010SOL     OW 9928   4.047   5.855   0.739
 3010SOL    HW1 9929   3.955   5.869   0.702
 3010SOL    HW2 9930   4.102   5.936   0.721
 3011SOL     OW 9931   6.590   0.528   1.295
 3011SOL    HW1 9932   6.683   0.531   1.331
 3011SOL    HW2 9933   6.568   0.434   1.268
 3012SOL     OW 9934   2.215   2.524   5.264
 3012SOL    HW1 9935   2.122   2.513   5.302
 3012SOL    HW2 9936   2.275   2.563   5.333
 3013SOL     OW 9937   0.857   4.785   4.811
 3013SOL    HW1 9938   0.948   4.747   4.793
 3013SOL    HW2 9939   0.867   4.866   4.869
 3014SOL     OW 9940   5.375   0.140   6.092
 3014SOL    HW1 9941   5.396   0.079   6.169
 3014SOL    HW2 9942   5.333   0.087   6.019
 3015SOL     OW 9943   1.135   1.055   6.708
 3015SOL    HW1 9944   1.215   1.089   6.758
 3015SOL    HW2 9945   1.164   1.018   6.620
 3016SOL     OW 9946   1.965   6.012   4.062
 3016SOL    HW1 9947   1.927   6.102   4.086
 3016SOL    HW2 9948   2.018   6.020   3.978
 3017SOL     OW 9949   1.076   5.053   0.428
 3017SOL    HW1 9950   1.046   4.957   0.427
 3017SOL    HW2 9951   1.086   5.084   0.522
 3018SOL     OW 9952   3.647   0.062   1.235
 3018SOL    HW1 9953   3.591   0.085   1.315
 3018SOL    HW2 9954   3.587   0.047   1.156
 3019SOL     OW 9955   2.021   0.868   6.064
 3019SOL    HW1 9956   2.081   0.927   6.009
 3019SOL    HW2 9957   2.077   0.806   6.119
 3020SOL     OW 9958   6.586   4.038   6.812
 3020SOL    HW1 9959   6.614   4.032   6.716
 3020SOL    HW2 9960   6.488   4.057   6.816
 3021SOL     OW 9961   4.199   0.332   4.986
 3021SOL    HW1 9962   4.296   0.310   4.990
 3021SOL    HW2 9963   4.186   0.417   4.936
 3022SOL     OW 9964   3.765   5.688   3.371
 3022SOL    HW1 9965   3.836   5.672   3.302
 3022SOL    HW2 9966   3.751   5.787   3.381
 3023SOL     OW 9967   5.141   5.689   4.456
 3023SOL    HW1 9968   5.129   5.613   4.392
 3023SOL    HW2 9969   5.208   5.753   4.420
 3024SOL     OW 9970   0.557   6.782   0.286
 3024SOL    HW1 9971   0.500   6.703   0.310
 3024SOL    HW2 9972   0.613   6.808   0.365
 3025SOL     OW 9973   3.930   5.260   0.395
 3025SOL    HW1 9974   4.028   5.275   0.412
 3025SOL    HW2 9975   3.879   5.281   0.478
 3026SOL     OW 9976   6.783   0.775   2.128
 3026SOL    HW1 9977   6.749   0.869   2.132
 3026SOL    HW2 9978   6.882   0.775   2.139
 3027SOL     OW 9979   4.251   0.649   0.623
 3027SOL    HW1 9980   4.226   0.657   0.719
 3027SOL    HW2 9981   4.238   0.555   0.593
 3028SOL     OW 9982   3.079   3.015   5.528
 3028SOL    HW1 9983   3.152   2.947   5.515
 3028SOL    HW2 9984   3.043   3.042   5.439
 3029SOL     OW 9985   0.169   3.235   4.475
 3029SOL    HW1 9986   0.264   3.222   4.502
 3029SOL    HW2 9987   0.109   3.212   4.551
 3030SOL     OW 9988   2.217   2.799   6.879
 3030SOL    HW1 9989   2.186   2.893   6.864
 3030SOL    HW2 9990   2.138   2.738   6.879
 3031SOL     OW 9991   0.967   6.000   0.461
 3031SOL    HW1 9992   0.935   5.923   0.406
 3031SOL    HW2 9993   1.008   6.069   0.402
 3032SOL     OW 9994   2.554   0.477   2.900
 3032SOL    HW1 9995   2.575   0.502   2.995
 3032SOL    HW2 9996   2.502   0.392   2.899
 3033SOL     OW 9997   0.569   1.407   5.411
 3033SOL    HW1 9998   0.662   1.441   5.396
 3033SOL    HW2 9999   0.503   1.472   5.372
 3034SOL     OW10000   6.390   4.536   3.203
 3034SOL    HW110001   6.294   4.562   3.190
 3034SOL    HW210002   6.421   4.569   3.292
 3035SOL     OW10003   0.613   2.979   0.749
 3035SOL    HW110004   0.591   3.075   0.729
 3035SOL    HW210005   0.702   2.957   0.711
 3036SOL     OW10006   3.154   2.300   5.427
 3036SOL    HW110007   3.161   2.325   5.331
 3036SOL    HW210008   3.159   2.200   5.437
 3037SOL     OW10009   0.840   5.657   6.695
 3037SOL    HW110010   0.891   5.665   6.610
 3037SOL    HW210011   0.903   5.666   6.773
 3038SOL     OW10012   5.828   4.344   6.160
 3038SOL    HW110013   5.828   4.338   6.060
 3038SOL    HW210014   5.921   4.355   6.193
 3039SOL     OW10015   6.899   3.664   6.151
 3039SOL    HW110016   6.812   3.614   6.151
 3039SOL    HW210017   6.971   3.604   6.117
 3040SOL     OW10018   5.323   4.628   5.905
 3040SOL    HW110019   5.283   4.695   5.967
 3040SOL    HW210020   5.323   4.538   5.949
 3041SOL     OW10021   1.492   4.529   5.686
 3041SOL    HW110022   1.427   4.573   5.748
 3041SOL    HW210023   1.506   4.434   5.714
 3042SOL     OW10024   0.017   4.999   4.021
 3042SOL    HW110025   0.077   5.068   3.980
 3042SOL    HW210026   7.002   4.933   3.951
 3043SOL     OW10027   2.588   5.175   0.811
 3043SOL    HW110028   2.668   5.232   0.831
 3043SOL    HW210029   2.591   5.145   0.715
 3044SOL     OW10030   3.782   3.622   4.345
 3044SOL    HW110031   3.714   3.562   4.303
 3044SOL    HW210032   3.873   3.601   4.308
 3045SOL     OW10033   4.126   1.997   2.383
 3045SOL    HW110034   4.117   2.052   2.301
 3045SOL    HW210035   4.042   2.003   2.437
 3046SOL     OW10036   5.181   6.309   0.861
 3046SOL    HW110037   5.251   6.261   0.809
 3046SOL    HW210038   5.185   6.281   0.957
 3047SOL     OW10039   5.943   1.439   5.137
 3047SOL    HW110040   5.959   1.341   5.151
 3047SOL    HW210041   5.915   1.480   5.224
 3048SOL     OW10042   3.664   4.528   0.887
 3048SOL    HW110043   3.732   4.599   0.873
 3048SOL    HW210044   3.625   4.500   0.799
 3049SOL     OW10045   0.953   1.504   2.908
 3049SOL    HW110046   0.948   1.474   3.003
 3049SOL    HW210047   0.875   1.564   2.888
 3050SOL     OW10048   3.708   2.162   0.609
 3050SOL    HW110049   3.712   2.248   0.660
 3050SOL    HW210050   3.689   2.181   0.513
 3051SOL     OW10051   2.233   4.951   5.490
 3051SOL    HW110052   2.317   4.897   5.481
 3051SOL    HW210053   2.254   5.039   5.534
 3052SOL     OW10054   6.874   6.928   2.255
 3052SOL    HW110055   6.787   6.880   2.244
 3052SOL    HW210056   6.949   6.862   2.244
 3053SOL     OW10057   1.099   4.097   0.716
 3053SOL    HW110058   1.124   4.177   0.661
 3053SOL    HW210059   1.172   4.030   0.713
 3054SOL     OW10060   5.598   0.674   2.503
 3054SOL    HW110061   5.518   0.618   2.525
 3054SOL    HW210062   5.583   0.721   2.416
 3055SOL     OW10063   5.755   6.361   6.574
 3055SOL    HW110064   5.742   6.266   6.544
 3055SOL    HW210065   5.672   6.413   6.558
 3056SOL     OW10066   5.084   1.091   5.684
 3056SOL    HW110067   5.034   1.068   5.768
 3056SOL    HW210068   5.020   1.131   5.618
 3057SOL     OW10069   5.243   3.783   3.091
 3057SOL    HW110070   5.331   3.737   3.081
 3057SOL    HW210071   5.257   3.882   3.093
 3058SOL     OW10072   0.024   4.193   6.340
 3058SOL    HW110073   0.087   4.206   6.264
 3058SOL    HW210074   0.031   4.269   6.403
 3059SOL     OW10075   1.671   1.723   3.226
 3059SOL    HW110076   1.680   1.716   3.325
 3059SOL    HW210077   1.724   1.651   3.182
 3060SOL     OW10078   5.757   4.839   4.760
 3060SOL    HW110079   5.831   4.901   4.734
 3060SOL    HW210080   5.669   4.888   4.755
 3061SOL     OW10081   6.054   6.811   4.402
 3061SOL    HW110082   6.024   6.824   4.307
 3061SOL    HW210083   6.028   6.719   4.433
 3062SOL     OW10084   4.116   4.273   0.862
 3062SOL    HW110085   4.161   4.243   0.947
 3062SOL    HW210086   4.183   4.320   0.804
 3063SOL     OW10087   0.762   4.770   2.751
 3063SOL    HW110088   0.698   4.846   2.747
 3063SOL    HW210089   0.779   4.735   2.659
 3064SOL     OW10090   4.537   2.026   6.898
 3064SOL    HW110091   4.466   1.962   6.927
 3064SOL    HW210092   4.530   2.109   6.953
 3065SOL     OW10093   6.065   1.674   0.159
 3065SOL    HW110094   6.158   1.657   0.189
 3065SOL    HW210095   6.066   1.725   0.073
 3066SOL     OW10096   5.031   6.935   5.046
 3066SOL    HW110097   5.097   6.969   4.978
 3066SOL    HW210098   5.074   6.931   5.136
 3067SOL     OW10099   1.185   2.676   5.714
 3067SOL    HW110100   1.131   2.703   5.794
 3067SOL    HW210101   1.260   2.742   5.701
 3068SOL     OW10102   0.136   0.672   0.711
 3068SOL    HW110103   0.186   0.596   0.752
 3068SOL    HW210104   0.173   0.759   0.746
 3069SOL     OW10105   5.425   6.701   3.176
 3069SOL    HW110106   5.496   6.690   3.107
 3069SOL    HW210107   5.458   6.759   3.251
 3070SOL     OW10108   2.139   0.798   0.491
 3070SOL    HW110109   2.137   0.749   0.578
 3070SOL    HW210110   2.120   0.895   0.506
 3071SOL     OW10111   5.696   4.546   5.554
 3071SOL    HW110112   5.778   4.494   5.578
 3071SOL    HW210113   5.720   4.618   5.488
 3072SOL     OW10114   2.011   6.783   6.246
 3072SOL    HW110115   2.006   6.697   6.196
 3072SOL    HW210116   1.972   6.856   6.189
 3073SOL     OW10117   0.126   4.750   1.869
 3073SOL    HW110118   0.154   4.663   1.911
 3073SOL    HW210119   0.043   4.735   1.815
 3074SOL     OW10120   3.219   2.658   1.741
 3074SOL    HW110121   3.194   2.567   1.709
 3074SOL    HW210122   3.230   2.719   1.663
 3075SOL     OW10123   3.322   5.413   2.021
 3075SOL    HW110124   3.257   5.441   2.092
 3075SOL    HW210125   3.355   5.494   1.973
 3076SOL     OW10126   0.803   0.679   4.913
 3076SOL    HW110127   0.757   0.763   4.885
 3076SOL    HW210128   0.902   0.693   4.915
 3077SOL     OW10129   0.102   4.191   2.537
 3077SOL    HW110130   0.080   4.095   2.554
 3077SOL    HW210131   0.089   4.244   2.620
 3078SOL     OW10132   0.185   3.393   1.865
 3078SOL    HW110133   0.213   3.426   1.955
 3078SOL    HW210134   0.086   3.404   1.854
 3079SOL     OW10135   2.125   3.833   5.643
 3079SOL    HW110136   2.107   3.835   5.545
 3079SOL    HW210137   2.221   3.813   5.660
 3080SOL     OW10138   3.543   4.271   0.710
 3080SOL    HW110139   3.554   4.255   0.612
 3080SOL    HW210140   3.453   4.311   0.727
 3081SOL     OW10141   1.394   3.535   0.707
 3081SOL    HW110142   1.471   3.599   0.702
 3081SOL    HW210143   1.414   3.455   0.649
 3082SOL     OW10144   4.605   5.442   4.345
 3082SOL    HW110145   4.654   5.398   4.421
 3082SOL    HW210146   4.533   5.380   4.312
 3083SOL     OW10147   3.762   5.577   1.490
 3083SOL    HW110148   3.853   5.552   1.524
 3083SOL    HW210149   3.771   5.643   1.416
 3084SOL     OW10150   6.765   4.442   4.582
 3084SOL    HW110151   6.862   4.465   4.575
 3084SOL    HW210152   6.739   4.436   4.679
 3085SOL     OW10153   6.125   5.194   0.315
 3085SOL    HW110154   6.216   5.234   0.300
 3085SOL    HW210155   6.101   5.138   0.236
 3086SOL     OW10156   6.222   6.856   6.440
 3086SOL    HW110157   6.260   6.947   6.458
 3086SOL    HW210158   6.289   6.800   6.392
 3087SOL     OW10159   3.279   6.953   2.126
 3087SOL    HW110160   3.353   6.921   2.066
 3087SOL    HW210161   3.193   6.955   2.075
 3088SOL     OW10162   2.068   3.017   5.765
 3088SOL    HW110163   2.097   3.058   5.851
 3088SOL    HW210164   2.130   3.046   5.692
 3089SOL     OW10165   4.474   5.625   5.824
 3089SOL    HW110166   4.570   5.618   5.797
 3089SOL    HW210167   4.440   5.534   5.848
 3090SOL     OW10168   0.376   2.877   2.307
 3090SOL    HW110169   0.295   2.876   2.249
 3090SOL    HW210170   0.452   2.835   2.258
 3091SOL     OW10171   0.870   2.587   1.495
 3091SOL    HW110172   0.897   2.666   1.549
 3091SOL    HW210173   0.787   2.547   1.533
 3092SOL     OW10174   5.856   1.349   2.524
 3092SOL    HW110175   5.893   1.303   2.443
 3092SOL    HW210176   5.931   1.372   2.587
 3093SOL     OW10177   5.872   5.876   0.401
 3093SOL    HW110178   5.776   5.857   0.420
 3093SOL    HW210179   5.879   5.933   0.319
 3094SOL     OW10180   2.361   1.882   6.767
 3094SOL    HW110181   2.433   1.951   6.762
 3094SOL    HW210182   2.352   1.837   6.678
 3095SOL     OW10183   1.918   3.636   5.414
 3095SOL    HW110184   1.917   3.561   5.479
 3095SOL    HW210185   1.841   3.628   5.351
 3096SOL     OW10186   0.469   3.295   3.759
 3096SOL    HW110187   0.482   3.310   3.661
 3096SOL    HW210188   0.558   3.285   3.803
 3097SOL     OW10189   5.500   2.628   5.443
 3097SOL    HW110190   5.453   2.603   5.358
 3097SOL    HW210191   5.442   2.604   5.521
 3098SOL     OW10192   1.918   3.053   2.901
 3098SOL    HW110193   1.856   3.004   2.961
 3098SOL    HW210194   1.898   3.029   2.806
 3099SOL     OW10195   0.423   6.190   4.886
 3099SOL    HW110196   0.336   6.141   4.877
 3099SOL    HW210197   0.488   6.133   4.937
 3100SOL     OW10198   5.575   5.028   1.515
 3100SOL    HW110199   5.484   5.067   1.530
 3100SOL    HW210200   5.594   5.023   1.417
 3101SOL     OW10201   4.277   0.009   5.628
 3101SOL    HW110202   4.221   0.090   5.609
 3101SOL    HW210203   4.356   0.036   5.682
 3102SOL     OW10204   6.847   4.682   1.771
 3102SOL    HW110205   6.795   4.767   1.777
 3102SOL    HW210206   6.807   4.614   1.832
 3103SOL     OW10207   3.318   1.264   1.636
 3103SOL    HW110208   3.379   1.326   1.686
 3103SOL    HW210209   3.231   1.256   1.685
 3104SOL     OW10210   4.705   1.634   5.281
 3104SOL    HW110211   4.668   1.562   5.340
 3104SOL    HW210212   4.732   1.712   5.336
 3105SOL     OW10213   6.000   3.481   0.335
 3105SOL    HW110214   5.905   3.512   0.337
 3105SOL    HW210215   6.016   3.418   0.411
 3106SOL     OW10216   6.032   0.866   5.851
 3106SOL    HW110217   6.086   0.895   5.930
 3106SOL    HW210218   5.952   0.925   5.841
 3107SOL     OW10219   3.419   1.882   5.090
 3107SOL    HW110220   3.375   1.902   5.178
 3107SOL    HW210221   3.404   1.786   5.067
 3108SOL     OW10222   2.276   4.145   3.781
 3108SOL    HW110223   2.290   4.072   3.849
 3108SOL    HW210224   2.332   4.224   3.806
 3109SOL     OW10225   6.924   6.327   4.283
 3109SOL    HW110226   6.874   6.329   4.370
 3109SOL    HW210227   6.861   6.304   4.209
 3110SOL     OW10228   0.887   4.652   2.957
 3110SOL    HW110229   0.858   4.556   2.959
 3110SOL    HW210230   0.840   4.700   2.883
 3111SOL     OW10231   5.921   4.642   3.892
 3111SOL    HW110232   5.898   4.632   3.989
 3111SOL    HW210233   5.929   4.739   3.869
 3112SOL     OW10234   3.620   1.490   6.061
 3112SOL    HW110235   3.578   1.523   5.976
 3112SOL    HW210236   3.556   1.504   6.137
 3113SOL     OW10237   1.843   6.334   3.325
 3113SOL    HW110238   1.776   6.336   3.399
 3113SOL    HW210239   1.844   6.243   3.283
 3114SOL     OW10240   4.921   1.222   5.490
 3114SOL    HW110241   4.907   1.307   5.540
 3114SOL    HW210242   4.865   1.223   5.407
 3115SOL     OW10243   4.666   5.607   5.317
 3115SOL    HW110244   4.651   5.632   5.413
 3115SOL    HW210245   4.655   5.508   5.306
 3116SOL     OW10246   0.402   0.740   0.082
 3116SOL    HW110247   0.448   0.652   0.094
 3116SOL    HW210248   0.343   0.737   0.002
 3117SOL     OW10249   4.779   0.800   6.276
 3117SOL    HW110250   4.854   0.782   6.340
 3117SOL    HW210251   4.809   0.777   6.184
 3118SOL     OW10252   1.300   1.245   3.693
 3118SOL    HW110253   1.212   1.240   3.646
 3118SOL    HW210254   1.368   1.191   3.643
 3119SOL     OW10255   4.421   5.567   5.002
 3119SOL    HW110256   4.474   5.650   5.019
 3119SOL    HW210257   4.333   5.574   5.049
 3120SOL     OW10258   2.050   5.640   5.634
 3120SOL    HW110259   1.961   5.672   5.665
 3120SOL    HW210260   2.054   5.645   5.534
 3121SOL     OW10261   3.794   1.771   4.575
 3121SOL    HW110262   3.775   1.747   4.480
 3121SOL    HW210263   3.749   1.857   4.598
 3122SOL     OW10264   4.891   5.031   4.416
 3122SOL    HW110265   4.805   5.004   4.459
 3122SOL    HW210266   4.875   5.109   4.355
 3123SOL     OW10267   2.304   1.429   3.582
 3123SOL    HW110268   2.242   1.506   3.595
 3123SOL    HW210269   2.398   1.461   3.579
 3124SOL     OW10270   4.859   0.061   4.318
 3124SOL    HW110271   4.797   0.098   4.249
 3124SOL    HW210272   4.875   0.131   4.388
 3125SOL     OW10273   1.516   1.197   5.002
 3125SOL    HW110274   1.421   1.168   4.995
 3125SOL    HW210275   1.557   1.158   5.085
 3126SOL     OW10276   5.649   5.556   5.374
 3126SOL    HW110277   5.723   5.580   5.436
 3126SOL    HW210278   5.616   5.464   5.395
 3127SOL     OW10279   0.410   1.141   5.190
 3127SOL    HW110280   0.340   1.171   5.255
 3127SOL    HW210281   0.366   1.101   5.110
 3128SOL     OW10282   4.117   0.417   0.487
 3128SOL    HW110283   4.101   0.319   0.472
 3128SOL    HW210284   4.043   0.470   0.445
 3129SOL     OW10285   4.564   3.812   0.158
 3129SOL    HW110286   4.516   3.760   0.229
 3129SOL    HW210287   4.659   3.784   0.155
 3130SOL     OW10288   0.004   4.725   2.505
 3130SOL    HW110289   6.975   4.640   2.541
 3130SOL    HW210290   0.013   4.718   2.406
 3131SOL     OW10291   5.934   4.300   2.853
 3131SOL    HW110292   5.973   4.252   2.932
 3131SOL    HW210293   5.997   4.295   2.776
 3132SOL     OW10294   4.433   4.473   6.950
 3132SOL    HW110295   4.369   4.519   6.888
 3132SOL    HW210296   4.382   4.428   0.011
 3133SOL     OW10297   4.148   6.887   4.177
 3133SOL    HW110298   4.055   6.923   4.183
 3133SOL    HW210299   4.213   6.964   4.183
 3134SOL     OW10300   4.966   4.775   2.296
 3134SOL    HW110301   5.053   4.798   2.340
 3134SOL    HW210302   4.982   4.702   2.230
 3135SOL     OW10303   4.554   5.655   6.730
 3135SOL    HW110304   4.622   5.645   6.657
 3135SOL    HW210305   4.571   5.586   6.800
 3136SOL     OW10306   6.849   1.500   3.193
 3136SOL    HW110307   6.844   1.442   3.274
 3136SOL    HW210308   6.944   1.526   3.176
 3137SOL     OW10309   6.117   6.649   6.595
 3137SOL    HW110310   6.153   6.734   6.555
 3137SOL    HW210311   6.174   6.572   6.567
 3138SOL     OW10312   5.934   6.228   4.082
 3138SOL    HW110313   6.024   6.235   4.125
 3138SOL    HW210314   5.863   6.246   4.151
 3139SOL     OW10315   2.609   5.024   1.360
 3139SOL    HW110316   2.634   5.080   1.439
 3139SOL    HW210317   2.510   5.030   1.345
 3140SOL     OW10318   6.615   6.894   6.391
 3140SOL    HW110319   6.529   6.845   6.371
 3140SOL    HW210320   6.615   6.981   6.342
 3141SOL     OW10321   6.847   1.620   6.069
 3141SOL    HW110322   6.748   1.620   6.085
 3141SOL    HW210323   6.867   1.667   5.983
 3142SOL     OW10324   4.194   0.640   3.903
 3142SOL    HW110325   4.256   0.562   3.912
 3142SOL    HW210326   4.180   0.682   3.993
 3143SOL     OW10327   6.260   1.051   0.758
 3143SOL    HW110328   6.349   1.067   0.800
 3143SOL    HW210329   6.251   0.954   0.735
 3144SOL     OW10330   3.739   3.945   0.602
 3144SOL    HW110331   3.782   4.020   0.653
 3144SOL    HW210332   3.643   3.966   0.586
 3145SOL     OW10333   0.259   6.428   0.523
 3145SOL    HW110334   0.200   6.446   0.602
 3145SOL    HW210335   0.352   6.411   0.555
 3146SOL     OW10336   0.392   0.506   4.911
 3146SOL    HW110337   0.491   0.498   4.896
 3146SOL    HW210338   0.375   0.530   5.007
 3147SOL     OW10339   3.791   5.401   0.634
 3147SOL    HW110340   3.798   5.469   0.707
 3147SOL    HW210341   3.752   5.316   0.671
 3148SOL     OW10342   6.859   5.412   2.235
 3148SOL    HW110343   6.867   5.414   2.135
 3148SOL    HW210344   6.881   5.321   2.269
 3149SOL     OW10345   3.078   1.792   6.748
 3149SOL    HW110346   3.050   1.884   6.775
 3149SOL    HW210347   3.150   1.798   6.679
 3150SOL     OW10348   6.324   5.613   5.391
 3150SOL    HW110349   6.256   5.639   5.460
 3150SOL    HW210350   6.380   5.538   5.427
 3151SOL     OW10351   0.058   0.709   5.785
 3151SOL    HW110352   0.032   0.643   5.855
 3151SOL    HW210353   0.078   0.797   5.828
 3152SOL     OW10354   1.287   3.423   6.216
 3152SOL    HW110355   1.318   3.328   6.214
 3152SOL    HW210356   1.280   3.458   6.122
 3153SOL     OW10357   6.395   4.683   0.884
 3153SOL    HW110358   6.490   4.701   0.857
 3153SOL    HW210359   6.394   4.635   0.971
 3154SOL     OW10360   4.511   1.117   6.935
 3154SOL    HW110361   4.413   1.136   6.938
 3154SOL    HW210362   4.559   1.193   6.891
 3155SOL     OW10363   1.362   4.695   0.737
 3155SOL    HW110364   1.303   4.766   0.774
 3155SOL    HW210365   1.436   4.737   0.684
 3156SOL     OW10366   3.669   4.209   1.825
 3156SOL    HW110367   3.710   4.295   1.794
 3156SOL    HW210368   3.722   4.173   1.902
 3157SOL     OW10369   0.520   1.201   5.855
 3157SOL    HW110370   0.568   1.241   5.777
 3157SOL    HW210371   0.582   1.196   5.933
 3158SOL     OW10372   1.776   1.166   5.778
 3158SOL    HW110373   1.778   1.208   5.688
 3158SOL    HW210374   1.771   1.237   5.848
 3159SOL     OW10375   5.911   0.304   0.270
 3159SOL    HW110376   5.993   0.264   0.229
 3159SOL    HW210377   5.830   0.272   0.221
 3160SOL     OW10378   1.751   6.964   6.388
 3160SOL    HW110379   1.780   6.974   6.483
 3160SOL    HW210380   1.820   6.912   6.338
 3161SOL     OW10381   2.382   2.253   2.049
 3161SOL    HW110382   2.471   2.265   2.006
 3161SOL    HW210383   2.385   2.283   2.144
 3162SOL     OW10384   2.328   5.383   1.067
 3162SOL    HW110385   2.337   5.384   0.967
 3162SOL    HW210386   2.271   5.460   1.095
 3163SOL     OW10387   4.256   4.359   0.091
 3163SOL    HW110388   4.192   4.293   0.053
 3163SOL    HW210389   4.239   4.369   0.189
 3164SOL     OW10390   2.715   6.695   3.000
 3164SOL    HW110391   2.623   6.724   3.024
 3164SOL    HW210392   2.711   6.627   2.927
 3165SOL     OW10393   0.652   6.638   6.802
 3165SOL    HW110394   0.703   6.670   6.722
 3165SOL    HW210395   0.682   6.691   6.882
 3166SOL     OW10396   4.964   0.618   4.624
 3166SOL    HW110397   4.879   0.633   4.675
 3166SOL    HW210398   4.948   0.554   4.550
 3167SOL     OW10399   5.591   2.901   0.444
 3167SOL    HW110400   5.592   2.894   0.543
 3167SOL    HW210401   5.670   2.954   0.413
 3168SOL     OW10402   5.309   2.039   0.395
 3168SOL    HW110403   5.385   2.005   0.449
 3168SOL    HW210404   5.242   2.083   0.455
 3169SOL     OW10405   2.346   4.590   2.207
 3169SOL    HW110406   2.404   4.558   2.131
 3169SOL    HW210407   2.250   4.572   2.186
 3170SOL     OW10408   2.491   4.539   3.431
 3170SOL    HW110409   2.522   4.546   3.526
 3170SOL    HW210410   2.428   4.462   3.421
 3171SOL     OW10411   5.021   2.335   3.981
 3171SOL    HW110412   5.061   2.244   3.968
 3171SOL    HW210413   5.017   2.383   3.894
 3172SOL     OW10414   6.077   4.648   1.611
 3172SOL    HW110415   6.133   4.677   1.689
 3172SOL    HW210416   6.029   4.563   1.635
 3173SOL     OW10417   4.381   2.740   0.675
 3173SOL    HW110418   4.293   2.759   0.630
 3173SOL    HW210419   4.383   2.786   0.763
 3174SOL     OW10420   2.972   3.602   6.372
 3174SOL    HW110421   2.929   3.596   6.282
 3174SOL    HW210422   3.071   3.614   6.361
 3175SOL     OW10423   5.513   0.702   4.440
 3175SOL    HW110424   5.574   0.629   4.409
 3175SOL    HW210425   5.426   0.662   4.469
 3176SOL     OW10426   0.790   4.744   5.087
 3176SOL    HW110427   0.694   4.715   5.091
 3176SOL    HW210428   0.808   4.789   5.000
 3177SOL     OW10429   5.277   3.652   3.583
 3177SOL    HW110430   5.218   3.650   3.664
 3177SOL    HW210431   5.350   3.719   3.597
 3178SOL     OW10432   6.615   0.780   1.561
 3178SOL    HW110433   6.656   0.693   1.587
 3178SOL    HW210434   6.519   0.781   1.589
 3179SOL     OW10435   1.152   1.645   1.951
 3179SOL    HW110436   1.084   1.572   1.949
 3179SOL    HW210437   1.116   1.722   2.004
 3180SOL     OW10438   6.877   6.236   0.458
 3180SOL    HW110439   6.945   6.234   0.532
 3180SOL    HW210440   6.925   6.241   0.370
 3181SOL     OW10441   1.870   6.932   4.668
 3181SOL    HW110442   1.809   6.887   4.734
 3181SOL    HW210443   1.828   6.931   4.578
 3182SOL     OW10444   2.737   1.364   0.514
 3182SOL    HW110445   2.762   1.402   0.604
 3182SOL    HW210446   2.803   1.395   0.446
 3183SOL     OW10447   4.226   3.761   1.324
 3183SOL    HW110448   4.216   3.760   1.225
 3183SOL    HW210449   4.231   3.855   1.356
 3184SOL     OW10450   0.502   2.709   5.072
 3184SOL    HW110451   0.524   2.699   4.975
 3184SOL    HW210452   0.464   2.624   5.107
 3185SOL     OW10453   0.336   5.548   5.890
 3185SOL    HW110454   0.379   5.506   5.970
 3185SOL    HW210455   0.406   5.593   5.835
 3186SOL     OW10456   0.575   1.796   6.371
 3186SOL    HW110457   0.603   1.857   6.297
 3186SOL    HW210458   0.524   1.848   6.439
 3187SOL     OW10459   4.292   5.942   2.219
 3187SOL    HW110460   4.244   5.888   2.288
 3187SOL    HW210461   4.226   5.980   2.154
 3188SOL     OW10462   2.364   5.210   5.853
 3188SOL    HW110463   2.404   5.150   5.921
 3188SOL    HW210464   2.316   5.156   5.784
 3189SOL     OW10465   3.327   1.902   5.361
 3189SOL    HW110466   3.266   1.954   5.421
 3189SOL    HW210467   3.320   1.805   5.383
 3190SOL     OW10468   5.688   6.131   4.952
 3190SOL    HW110469   5.604   6.167   4.912
 3190SOL    HW210470   5.667   6.066   5.025
 3191SOL     OW10471   4.281   5.584   1.545
 3191SOL    HW110472   4.333   5.499   1.555
 3191SOL    HW210473   4.335   5.660   1.580
 3192SOL     OW10474   5.643   2.037   2.621
 3192SOL    HW110475   5.732   2.066   2.654
 3192SOL    HW210476   5.580   2.115   2.620
 3193SOL     OW10477   3.409   6.831   5.290
 3193SOL    HW110478   3.412   6.753   5.352
 3193SOL    HW210479   3.494   6.835   5.237
 3194SOL     OW10480   1.639   0.568   6.398
 3194SOL    HW110481   1.694   0.649   6.421
 3194SOL    HW210482   1.657   0.495   6.464
 3195SOL     OW10483   0.013   1.887   1.333
 3195SOL    HW110484   0.027   1.830   1.252
 3195SOL    HW210485   0.037   1.836   1.415
 3196SOL     OW10486   6.260   0.406   4.102
 3196SOL    HW110487   6.332   0.466   4.069
 3196SOL    HW210488   6.261   0.405   4.202
 3197SOL     OW10489   1.888   0.975   6.611
 3197SOL    HW110490   1.965   1.016   6.660
 3197SOL    HW210491   1.826   1.048   6.582
 3198SOL     OW10492   5.656   2.782   3.004
 3198SOL    HW110493   5.731   2.831   3.049
 3198SOL    HW210494   5.573   2.792   3.059
 3199SOL     OW10495   5.476   4.129   3.402
 3199SOL    HW110496   5.397   4.080   3.365
 3199SOL    HW210497   5.474   4.224   3.371
 3200SOL     OW10498   5.477   3.071   3.703
 3200SOL    HW110499   5.395   3.062   3.647
 3200SOL    HW210500   5.481   2.997   3.770
 3201SOL     OW10501   5.680   4.242   2.726
 3201SOL    HW110502   5.634   4.155   2.747
 3201SOL    HW210503   5.760   4.252   2.785
 3202SOL     OW10504   1.835   3.928   6.822
 3202SOL    HW110505   1.754   3.913   6.767
 3202SOL    HW210506   1.912   3.877   6.784
 3203SOL     OW10507   3.254   0.097   1.517
 3203SOL    HW110508   3.314   0.087   1.597
 3203SOL    HW210509   3.235   0.007   1.479
 3204SOL     OW10510   2.724   1.682   3.044
 3204SOL    HW110511   2.731   1.584   3.029
 3204SOL    HW210512   2.637   1.703   3.088
 3205SOL     OW10513   5.065   3.241   5.508
 3205SOL    HW110514   4.990   3.188   5.548
 3205SOL    HW210515   5.052   3.338   5.528
 3206SOL     OW10516   3.258   3.311   1.140
 3206SOL    HW110517   3.227   3.373   1.211
 3206SOL    HW210518   3.197   3.232   1.136
 3207SOL     OW10519   1.534   5.439   5.603
 3207SOL    HW110520   1.469   5.514   5.619
 3207SOL    HW210521   1.535   5.379   5.683
 3208SOL     OW10522   6.099   5.040   6.287
 3208SOL    HW110523   6.138   5.034   6.379
 3208SOL    HW210524   6.165   5.004   6.221
 3209SOL     OW10525   5.301   5.962   6.938
 3209SOL    HW110526   5.208   5.934   6.963
 3209SOL    HW210527   5.365   5.893   6.970
 3210SOL     OW10528   6.225   5.086   1.703
 3210SOL    HW110529   6.203   4.997   1.742
 3210SOL    HW210530   6.223   5.081   1.603
 3211SOL     OW10531   0.869   5.123   6.372
 3211SOL    HW110532   0.858   5.196   6.439
 3211SOL    HW210533   0.932   5.153   6.300
 3212SOL     OW10534   2.221   0.388   3.198
 3212SOL    HW110535   2.290   0.320   3.179
 3212SOL    HW210536   2.141   0.372   3.140
 3213SOL     OW10537   1.282   0.635   6.496
 3213SOL    HW110538   1.286   0.612   6.398
 3213SOL    HW210539   1.332   0.566   6.548
 3214SOL     OW10540   3.350   1.113   2.917
 3214SOL    HW110541   3.269   1.169   2.935
 3214SOL    HW210542   3.362   1.047   2.992
 3215SOL     OW10543   1.797   2.824   0.714
 3215SOL    HW110544   1.814   2.777   0.801
 3215SOL    HW210545   1.878   2.877   0.688
 3216SOL     OW10546   6.002   4.507   0.295
 3216SOL    HW110547   6.101   4.510   0.282
 3216SOL    HW210548   5.981   4.503   0.393
 3217SOL     OW10549   0.509   6.153   2.572
 3217SOL    HW110550   0.469   6.228   2.625
 3217SOL    HW210551   0.605   6.144   2.596
 3218SOL     OW10552   5.629   0.849   3.006
 3218SOL    HW110553   5.681   0.852   2.921
 3218SOL    HW210554   5.677   0.902   3.076
 3219SOL     OW10555   6.062   1.054   5.674
 3219SOL    HW110556   6.127   0.999   5.726
 3219SOL    HW210557   6.047   1.141   5.720
 3220SOL     OW10558   0.056   4.395   6.506
 3220SOL    HW110559   0.116   4.449   6.564
 3220SOL    HW210560   0.004   4.456   6.446
 3221SOL     OW10561   3.612   0.693   1.565
 3221SOL    HW110562   3.541   0.721   1.501
 3221SOL    HW210563   3.570   0.655   1.647
 3222SOL     OW10564   3.695   1.627   2.936
 3222SOL    HW110565   3.672   1.701   2.873
 3222SOL    HW210566   3.793   1.609   2.934
 3223SOL     OW10567   1.140   6.456   1.011
 3223SOL    HW110568   1.172   6.534   0.958
 3223SOL    HW210569   1.041   6.463   1.023
 3224SOL     OW10570   3.696   1.945   4.094
 3224SOL    HW110571   3.710   2.032   4.143
 3224SOL    HW210572   3.693   1.962   3.996
 3225SOL     OW10573   4.013   0.605   3.687
 3225SOL    HW110574   3.970   0.695   3.682
 3225SOL    HW210575   4.075   0.602   3.766
 3226SOL     OW10576   0.224   0.055   1.359
 3226SOL    HW110577   0.238   0.154   1.363
 3226SOL    HW210578   0.131   0.033   1.389
 3227SOL     OW10579   4.833   3.942   5.386
 3227SOL    HW110580   4.920   3.975   5.423
 3227SOL    HW210581   4.838   3.937   5.286
 3228SOL     OW10582   2.573   3.786   0.239
 3228SOL    HW110583   2.589   3.689   0.260
 3228SOL    HW210584   2.613   3.843   0.311
 3229SOL     OW10585   1.525   1.450   0.832
 3229SOL    HW110586   1.442   1.500   0.856
 3229SOL    HW210587   1.573   1.423   0.915
 3230SOL     OW10588   2.717   6.019   5.575
 3230SOL    HW110589   2.682   5.925   5.585
 3230SOL    HW210590   2.801   6.029   5.629
 3231SOL     OW10591   2.344   2.032   1.836
 3231SOL    HW110592   2.340   2.107   1.902
 3231SOL    HW210593   2.427   2.040   1.781
 3232SOL     OW10594   4.011   5.507   3.946
 3232SOL    HW110595   4.102   5.468   3.955
 3232SOL    HW210596   3.946   5.436   3.919
 3233SOL     OW10597   0.176   1.950   0.861
 3233SOL    HW110598   0.245   2.011   0.899
 3233SOL    HW210599   0.179   1.955   0.761
 3234SOL     OW10600   2.173   2.635   0.523
 3234SOL    HW110601   2.099   2.685   0.479
 3234SOL    HW210602   2.256   2.691   0.523
 3235SOL     OW10603   0.779   6.980   2.475
 3235SOL    HW110604   0.841   0.023   2.419
 3235SOL    HW210605   0.720   0.030   2.528
 3236SOL     OW10606   3.619   2.406   0.096
 3236SOL    HW110607   3.613   2.456   0.182
 3236SOL    HW210608   3.612   2.308   0.113
 3237SOL     OW10609   5.955   1.319   4.855
 3237SOL    HW110610   5.982   1.224   4.873
 3237SOL    HW210611   5.922   1.361   4.939
 3238SOL     OW10612   6.591   5.291   1.238
 3238SOL    HW110613   6.672   5.319   1.289
 3238SOL    HW210614   6.555   5.205   1.276
 3239SOL     OW10615   6.644   6.971   4.415
 3239SOL    HW110616   6.568   7.008   4.468
 3239SOL    HW210617   6.635   6.872   4.408
 3240SOL     OW10618   0.321   0.876   6.746
 3240SOL    HW110619   0.244   0.914   6.694
 3240SOL    HW210620   0.291   0.794   6.794
 3241SOL     OW10621   6.016   1.834   5.947
 3241SOL    HW110622   6.021   1.895   5.868
 3241SOL    HW210623   6.108   1.816   5.982
 3242SOL     OW10624   5.603   4.101   4.711
 3242SOL    HW110625   5.569   4.109   4.617
 3242SOL    HW210626   5.598   4.190   4.756
 3243SOL     OW10627   5.518   5.333   5.456
 3243SOL    HW110628   5.421   5.351   5.473
 3243SOL    HW210629   5.529   5.239   5.422
 3244SOL     OW10630   5.088   0.044   6.793
 3244SOL    HW110631   5.037   6.971   6.808
 3244SOL    HW210632   5.025   0.120   6.778
 3245SOL     OW10633   3.968   0.889   5.138
 3245SOL    HW110634   4.008   0.966   5.188
 3245SOL    HW210635   4.012   0.881   5.049
 3246SOL     OW10636   6.686   0.531   2.989
 3246SOL    HW110637   6.717   0.616   3.031
 3246SOL    HW210638   6.659   0.467   3.061
 3247SOL     OW10639   0.574   4.228   2.815
 3247SOL    HW110640   0.532   4.204   2.902
 3247SOL    HW210641   0.542   4.319   2.787
 3248SOL     OW10642   5.072   2.048   3.943
 3248SOL    HW110643   5.141   2.070   4.012
 3248SOL    HW210644   5.114   1.994   3.870
 3249SOL     OW10645   3.242   3.701   3.996
 3249SOL    HW110646   3.213   3.751   3.915
 3249SOL    HW210647   3.335   3.730   4.021
 3250SOL     OW10648   5.036   5.266   2.193
 3250SOL    HW110649   4.984   5.224   2.118
 3250SOL    HW210650   5.108   5.203   2.223
 3251SOL     OW10651   2.222   1.380   2.881
 3251SOL    HW110652   2.274   1.411   2.802
 3251SOL    HW210653   2.152   1.315   2.852
 3252SOL     OW10654   2.080   1.281   3.141
 3252SOL    HW110655   2.134   1.328   3.071
 3252SOL    HW210656   2.082   1.334   3.226
 3253SOL     OW10657   6.617   3.491   0.465
 3253SOL    HW110658   6.697   3.548   0.446
 3253SOL    HW210659   6.629   3.402   0.421
 3254SOL     OW10660   6.264   0.349   1.019
 3254SOL    HW110661   6.174   0.313   1.040
 3254SOL    HW210662   6.289   0.419   1.087
 3255SOL     OW10663   4.987   5.539   1.204
 3255SOL    HW110664   5.066   5.576   1.155
 3255SOL    HW210665   4.903   5.576   1.165
 3256SOL     OW10666   5.178   1.750   1.244
 3256SOL    HW110667   5.214   1.734   1.152
 3256SOL    HW210668   5.080   1.770   1.238
 3257SOL     OW10669   2.780   2.058   3.089
 3257SOL    HW110670   2.815   2.139   3.040
 3257SOL    HW210671   2.754   2.084   3.182
 3258SOL     OW10672   2.064   6.061   3.461
 3258SOL    HW110673   2.162   6.039   3.454
 3258SOL    HW210674   2.010   5.982   3.432
 3259SOL     OW10675   4.685   4.321   3.623
 3259SOL    HW110676   4.713   4.402   3.573
 3259SOL    HW210677   4.661   4.347   3.717
 3260SOL     OW10678   1.058   4.766   2.401
 3260SOL    HW110679   1.122   4.784   2.326
 3260SOL    HW210680   1.092   4.810   2.484
 3261SOL     OW10681   5.378   6.731   3.923
 3261SOL    HW110682   5.288   6.758   3.888
 3261SOL    HW210683   5.447   6.747   3.853
 3262SOL     OW10684   3.129   2.092   2.437
 3262SOL    HW110685   3.052   2.106   2.374
 3262SOL    HW210686   3.141   1.994   2.452
 3263SOL     OW10687   0.490   1.512   2.130
 3263SOL    HW110688   0.423   1.521   2.204
 3263SOL    HW210689   0.503   1.601   2.087
 3264SOL     OW10690   1.688   5.481   0.760
 3264SOL    HW110691   1.626   5.508   0.686
 3264SOL    HW210692   1.655   5.397   0.802
 3265SOL     OW10693   5.458   4.802   6.196
 3265SOL    HW110694   5.480   4.708   6.170
 3265SOL    HW210695   5.542   4.853   6.214
 3266SOL     OW10696   3.110   5.057   6.605
 3266SOL    HW110697   3.152   5.146   6.623
 3266SOL    HW210698   3.055   5.062   6.522
 3267SOL     OW10699   4.314   6.841   0.965
 3267SOL    HW110700   4.336   6.934   0.934
 3267SOL    HW210701   4.386   6.808   1.025
 3268SOL     OW10702   6.723   5.358   1.715
 3268SOL    HW110703   6.773   5.279   1.752
 3268SOL    HW210704   6.630   5.330   1.693
 3269SOL     OW10705   1.523   4.844   2.164
 3269SOL    HW110706   1.532   4.760   2.111
 3269SOL    HW210707   1.602   4.855   2.224
 3270SOL     OW10708   0.439   2.971   5.102
 3270SOL    HW110709   0.431   2.877   5.137
 3270SOL    HW210710   0.506   2.973   5.028
 3271SOL     OW10711   0.500   3.068   2.906
 3271SOL    HW110712   0.519   3.131   2.981
 3271SOL    HW210713   0.504   2.974   2.939
 3272SOL     OW10714   4.229   6.237   0.708
 3272SOL    HW110715   4.200   6.330   0.684
 3272SOL    HW210716   4.188   6.211   0.796
 3273SOL     OW10717   4.934   2.346   6.571
 3273SOL    HW110718   4.942   2.406   6.490
 3273SOL    HW210719   4.885   2.395   6.643
 3274SOL     OW10720   5.629   0.350   0.391
 3274SOL    HW110721   5.638   0.300   0.305
 3274SOL    HW210722   5.717   0.348   0.440
 3275SOL     OW10723   4.811   0.496   1.300
 3275SOL    HW110724   4.911   0.505   1.297
 3275SOL    HW210725   4.786   0.408   1.338
 3276SOL     OW10726   5.015   0.101   0.377
 3276SOL    HW110727   5.012   0.048   0.292
 3276SOL    HW210728   5.110   0.125   0.399
 3277SOL     OW10729   3.984   1.781   1.613
 3277SOL    HW110730   4.077   1.819   1.612
 3277SOL    HW210731   3.930   1.827   1.683
 3278SOL     OW10732   0.053   0.209   0.143
 3278SOL    HW110733   0.129   0.187   0.204
 3278SOL    HW210734   0.060   0.305   0.116
 3279SOL     OW10735   3.538   0.140   1.475
 3279SOL    HW110736   3.440   0.139   1.495
 3279SOL    HW210737   3.589   0.158   1.560
 3280SOL     OW10738   5.571   4.232   4.241
 3280SOL    HW110739   5.555   4.314   4.295
 3280SOL    HW210740   5.537   4.152   4.291
 3281SOL     OW10741   6.081   3.428   1.520
 3281SOL    HW110742   6.160   3.405   1.463
 3281SOL    HW210743   6.083   3.371   1.603
 3282SOL     OW10744   0.386   5.085   4.058
 3282SOL    HW110745   0.372   5.116   4.152
 3282SOL    HW210746   0.379   4.986   4.054
 3283SOL     OW10747   3.701   1.833   0.378
 3283SOL    HW110748   3.610   1.868   0.354
 3283SOL    HW210749   3.770   1.903   0.358
 3284SOL     OW10750   1.676   6.168   4.382
 3284SOL    HW110751   1.613   6.099   4.346
 3284SOL    HW210752   1.765   6.125   4.401
 3285SOL     OW10753   4.579   1.835   4.661
 3285SOL    HW110754   4.604   1.927   4.692
 3285SOL    HW210755   4.522   1.842   4.579
 3286SOL     OW10756   3.155   1.698   1.147
 3286SOL    HW110757   3.178   1.639   1.069
 3286SOL    HW210758   3.239   1.722   1.196
 3287SOL     OW10759   2.010   0.392   6.578
 3287SOL    HW110760   1.944   0.465   6.595
 3287SOL    HW210761   2.029   0.345   6.664
 3288SOL     OW10762   1.955   6.585   1.815
 3288SOL    HW110763   1.993   6.498   1.783
 3288SOL    HW210764   2.029   6.643   1.849
 3289SOL     OW10765   4.119   1.538   6.705
 3289SOL    HW110766   4.049   1.535   6.776
 3289SOL    HW210767   4.209   1.536   6.748
 3290SOL     OW10768   0.387   5.046   0.424
 3290SOL    HW110769   0.312   5.088   0.373
 3290SOL    HW210770   0.471   5.099   0.410
 3291SOL     OW10771   4.875   6.519   5.360
 3291SOL    HW110772   4.801   6.468   5.405
 3291SOL    HW210773   4.885   6.486   5.265
 3292SOL     OW10774   6.764   2.255   1.320
 3292SOL    HW110775   6.793   2.254   1.224
 3292SOL    HW210776   6.667   2.277   1.325
 3293SOL     OW10777   5.796   5.144   3.127
 3293SOL    HW110778   5.859   5.177   3.056
 3293SOL    HW210779   5.705   5.133   3.088
 3294SOL     OW10780   5.154   2.104   4.893
 3294SOL    HW110781   5.221   2.139   4.828
 3294SOL    HW210782   5.154   2.160   4.975
 3295SOL     OW10783   1.380   3.048   2.533
 3295SOL    HW110784   1.426   3.067   2.446
 3295SOL    HW210785   1.286   3.017   2.514
 3296SOL     OW10786   1.461   6.967   5.810
 3296SOL    HW110787   1.369   7.007   5.816
 3296SOL    HW210788   1.479   6.938   5.716
 3297SOL     OW10789   3.298   1.440   4.857
 3297SOL    HW110790   3.280   1.467   4.763
 3297SOL    HW210791   3.324   1.520   4.911
 3298SOL     OW10792   5.830   4.324   5.842
 3298SOL    HW110793   5.816   4.230   5.873
 3298SOL    HW210794   5.922   4.332   5.803
 3299SOL     OW10795   3.005   4.921   4.386
 3299SOL    HW110796   2.988   4.848   4.452
 3299SOL    HW210797   2.991   5.010   4.431
 3300SOL     OW10798   1.661   0.124   4.123
 3300SOL    HW110799   1.563   0.129   4.142
 3300SOL    HW210800   1.708   0.076   4.197
 3301SOL     OW10801   1.650   1.394   2.642
 3301SOL    HW110802   1.747   1.386   2.616
 3301SOL    HW210803   1.613   1.479   2.605
 3302SOL     OW10804   2.452   5.122   6.325
 3302SOL    HW110805   2.462   5.026   6.350
 3302SOL    HW210806   2.491   5.180   6.397
 3303SOL     OW10807   4.013   2.859   0.262
 3303SOL    HW110808   3.921   2.874   0.298
 3303SOL    HW210809   4.008   2.797   0.183
 3304SOL     OW10810   2.669   5.247   6.474
 3304SOL    HW110811   2.696   5.341   6.495
 3304SOL    HW210812   2.646   5.199   6.559
 3305SOL     OW10813   3.114   2.210   0.949
 3305SOL    HW110814   3.022   2.202   0.989
 3305SOL    HW210815   3.172   2.262   1.011
 3306SOL     OW10816   2.028   0.660   6.954
 3306SOL    HW110817   1.948   0.642   7.011
 3306SOL    HW210818   2.003   0.720   6.878
 3307SOL     OW10819   1.885   6.831   5.027
 3307SOL    HW110820   1.949   6.841   5.104
 3307SOL    HW210821   1.886   6.735   4.996
 3308SOL     OW10822   3.767   4.247   1.095
 3308SOL    HW110823   3.738   4.192   1.173
 3308SOL    HW210824   3.865   4.263   1.100
 3309SOL     OW10825   5.933   3.307   3.692
 3309SOL    HW110826   5.835   3.299   3.711
 3309SOL    HW210827   5.954   3.400   3.663
 3310SOL     OW10828   6.556   5.507   5.999
 3310SOL    HW110829   6.593   5.541   5.912
 3310SOL    HW210830   6.456   5.505   5.995
 3311SOL     OW10831   3.514   3.101   0.373
 3311SOL    HW110832   3.551   3.097   0.466
 3311SOL    HW210833   3.415   3.095   0.376
 3312SOL     OW10834   4.304   2.733   5.908
 3312SOL    HW110835   4.243   2.654   5.913
 3312SOL    HW210836   4.279   2.789   5.829
 3313SOL     OW10837   0.914   1.129   3.169
 3313SOL    HW110838   0.940   1.033   3.174
 3313SOL    HW210839   0.871   1.147   3.080
 3314SOL     OW10840   2.641   5.395   2.776
 3314SOL    HW110841   2.741   5.397   2.774
 3314SOL    HW210842   2.605   5.487   2.756
 3315SOL     OW10843   0.235   5.322   5.237
 3315SOL    HW110844   0.267   5.415   5.218
 3315SOL    HW210845   0.311   5.266   5.270
 3316SOL     OW10846   3.245   1.988   5.767
 3316SOL    HW110847   3.181   2.010   5.841
 3316SOL    HW210848   3.290   1.901   5.788
 3317SOL     OW10849   4.650   2.639   2.948
 3317SOL    HW110850   4.691   2.548   2.948
 3317SOL    HW210851   4.557   2.634   2.912
 3318SOL     OW10852   3.096   2.207   0.532
 3318SOL    HW110853   3.025   2.256   0.583
 3318SOL    HW210854   3.072   2.110   0.527
 3319SOL     OW10855   6.955   6.143   3.387
 3319SOL    HW110856   6.872   6.198   3.385
 3319SOL    HW210857   0.018   6.197   3.425
 3320SOL     OW10858   6.075   0.150   1.352
 3320SOL    HW110859   6.083   0.151   1.252
 3320SOL    HW210860   6.019   0.071   1.380
 3321SOL     OW10861   4.766   1.264   0.320
 3321SOL    HW110862   4.835   1.320   0.273
 3321SOL    HW210863   4.733   1.193   0.257
 3322SOL     OW10864   6.632   3.844   0.980
 3322SOL    HW110865   6.692   3.774   1.019
 3322SOL    HW210866   6.556   3.800   0.933
 3323SOL     OW10867   1.381   2.005   1.865
 3323SOL    HW110868   1.322   2.085   1.857
 3323SOL    HW210869   1.409   1.992   1.960
 3324SOL     OW10870   5.093   5.638   5.918
 3324SOL    HW110871   5.160   5.577   5.877
 3324SOL    HW210872   5.138   5.721   5.952
 3325SOL     OW10873   1.880   3.607   6.438
 3325SOL    HW110874   1.793   3.656   6.438
 3325SOL    HW210875   1.890   3.556   6.352
 3326SOL     OW10876   4.504   0.863   2.853
 3326SOL    HW110877   4.494   0.768   2.822
 3326SOL    HW210878   4.484   0.925   2.777
 3327SOL     OW10879   1.392   5.427   1.042
 3327SOL    HW110880   1.451   5.488   1.095
 3327SOL    HW210881   1.297   5.454   1.054
 3328SOL     OW10882   4.796   2.283   0.268
 3328SOL    HW110883   4.800   2.217   0.193
 3328SOL    HW210884   4.700   2.309   0.284
 3329SOL     OW10885   6.410   5.222   5.936
 3329SOL    HW110886   6.456   5.162   6.001
 3329SOL    HW210887   6.478   5.271   5.881
 3330SOL     OW10888   6.461   3.639   2.265
 3330SOL    HW110889   6.442   3.607   2.358
 3330SOL    HW210890   6.449   3.563   2.201
 3331SOL     OW10891   2.245   2.833   1.042
 3331SOL    HW110892   2.342   2.836   1.015
 3331SOL    HW210893   2.215   2.738   1.048
 3332SOL     OW10894   6.123   4.707   0.812
 3332SOL    HW110895   6.221   4.705   0.833
 3332SOL    HW210896   6.096   4.801   0.790
 3333SOL     OW10897   4.258   4.783   5.960
 3333SOL    HW110898   4.271   4.700   5.905
 3333SOL    HW210899   4.161   4.805   5.965
 3334SOL     OW10900   2.486   4.311   1.754
 3334SOL    HW110901   2.419   4.339   1.684
 3334SOL    HW210902   2.499   4.212   1.750
 3335SOL     OW10903   5.151   4.520   5.213
 3335SOL    HW110904   5.095   4.550   5.290
 3335SOL    HW210905   5.151   4.420   5.209
 3336SOL     OW10906   3.449   5.012   6.237
 3336SOL    HW110907   3.361   4.965   6.223
 3336SOL    HW210908   3.440   5.079   6.310
 3337SOL     OW10909   3.505   2.022   0.899
 3337SOL    HW110910   3.508   2.016   0.799
 3337SOL    HW210911   3.577   1.965   0.938
 3338SOL     OW10912   6.959   4.494   0.995
 3338SOL    HW110913   6.936   4.505   0.898
 3338SOL    HW210914   6.883   4.449   1.042
 3339SOL     OW10915   6.932   5.605   6.618
 3339SOL    HW110916   6.888   5.577   6.704
 3339SOL    HW210917   6.876   5.675   6.573
 3340SOL     OW10918   3.376   6.381   1.676
 3340SOL    HW110919   3.285   6.340   1.684
 3340SOL    HW210920   3.366   6.478   1.652
 3341SOL     OW10921   0.716   1.074   2.446
 3341SOL    HW110922   0.699   1.013   2.369
 3341SOL    HW210923   0.641   1.140   2.453
 3342SOL     OW10924   2.275   6.470   4.336
 3342SOL    HW110925   2.343   6.440   4.403
 3342SOL    HW210926   2.204   6.523   4.383
 3343SOL     OW10927   5.535   2.916   0.791
 3343SOL    HW110928   5.472   2.973   0.737
 3343SOL    HW210929   5.483   2.851   0.845
 3344SOL     OW10930   6.938   3.682   5.754
 3344SOL    HW110931   6.909   3.654   5.662
 3344SOL    HW210932   6.958   3.601   5.809
 3345SOL     OW10933   3.175   3.036   5.788
 3345SOL    HW110934   3.139   3.031   5.695
 3345SOL    HW210935   3.256   3.094   5.789
 3346SOL     OW10936   0.846   0.422   1.755
 3346SOL    HW110937   0.906   0.357   1.708
 3346SOL    HW210938   0.756   0.380   1.770
 3347SOL     OW10939   5.832   4.060   5.338
 3347SOL    HW110940   5.868   4.139   5.389
 3347SOL    HW210941   5.742   4.083   5.300
 3348SOL     OW10942   3.892   2.963   4.187
 3348SOL    HW110943   3.922   2.875   4.149
 3348SOL    HW210944   3.811   2.948   4.244
 3349SOL     OW10945   5.911   3.674   4.777
 3349SOL    HW110946   5.909   3.640   4.872
 3349SOL    HW210947   5.829   3.727   4.759
 3350SOL     OW10948   1.367   1.180   0.976
 3350SOL    HW110949   1.279   1.210   0.939
 3350SOL    HW210950   1.429   1.158   0.901
 3351SOL     OW10951   5.217   1.575   1.687
 3351SOL    HW110952   5.174   1.584   1.597
 3351SOL    HW210953   5.305   1.624   1.687
 3352SOL     OW10954   0.247   3.789   1.288
 3352SOL    HW110955   0.324   3.777   1.225
 3352SOL    HW210956   0.164   3.809   1.236
 3353SOL     OW10957   2.290   0.092   5.946
 3353SOL    HW110958   2.216   0.119   6.008
 3353SOL    HW210959   2.361   0.044   5.997
 3354SOL     OW10960   1.054   2.179   3.140
 3354SOL    HW110961   1.075   2.274   3.165
 3354SOL    HW210962   0.988   2.178   3.066
 3355SOL     OW10963   6.714   1.075   2.542
 3355SOL    HW110964   6.709   1.135   2.622
 3355SOL    HW210965   6.714   0.980   2.571
 3356SOL     OW10966   2.641   3.169   0.071
 3356SOL    HW110967   2.658   3.117   0.155
 3356SOL    HW210968   2.725   3.215   0.043
 3357SOL     OW10969   2.622   5.149   1.818
 3357SOL    HW110970   2.672   5.092   1.883
 3357SOL    HW210971   2.526   5.157   1.847
 3358SOL     OW10972   5.155   4.936   2.439
 3358SOL    HW110973   5.204   5.011   2.395
 3358SOL    HW210974   5.077   4.973   2.490
 3359SOL     OW10975   1.919   1.355   2.573
 3359SOL    HW110976   1.976   1.437   2.584
 3359SOL    HW210977   1.976   1.279   2.544
 3360SOL     OW10978   1.198   0.572   0.112
 3360SOL    HW110979   1.144   0.574   0.027
 3360SOL    HW210980   1.229   0.664   0.134
 3361SOL     OW10981   5.615   6.710   2.971
 3361SOL    HW110982   5.640   6.618   2.941
 3361SOL    HW210983   5.537   6.742   2.919
 3362SOL     OW10984   1.876   0.933   5.826
 3362SOL    HW110985   1.851   0.897   5.916
 3362SOL    HW210986   1.844   1.027   5.818
 3363SOL     OW10987   0.406   1.247   6.629
 3363SOL    HW110988   0.417   1.318   6.698
 3363SOL    HW210989   0.343   1.177   6.662
 3364SOL     OW10990   1.773   4.633   6.160
 3364SOL    HW110991   1.820   4.718   6.183
 3364SOL    HW210992   1.836   4.556   6.168
 3365SOL     OW10993   6.236   2.060   5.238
 3365SOL    HW110994   6.333   2.065   5.262
 3365SOL    HW210995   6.201   1.968   5.256
 3366SOL     OW10996   5.521   0.958   5.716
 3366SOL    HW110997   5.551   0.886   5.653
 3366SOL    HW210998   5.584   1.035   5.712
 3367SOL     OW10999   0.978   0.849   2.055
 3367SOL    HW111000   0.930   0.771   2.016
 3367SOL    HW211001   0.919   0.930   2.052
 3368SOL     OW11002   6.598   5.904   5.953
 3368SOL    HW111003   6.647   5.820   5.928
 3368SOL    HW211004   6.586   5.960   5.871
 3369SOL     OW11005   4.337   0.164   6.755
 3369SOL    HW111006   4.392   0.238   6.794
 3369SOL    HW211007   4.264   0.141   6.820
 3370SOL     OW11008   6.175   6.705   5.646
 3370SOL    HW111009   6.167   6.679   5.742
 3370SOL    HW211010   6.229   6.789   5.639
 3371SOL     OW11011   0.684   5.374   1.810
 3371SOL    HW111012   0.715   5.282   1.835
 3371SOL    HW211013   0.759   5.439   1.826
 3372SOL     OW11014   0.768   1.195   2.961
 3372SOL    HW111015   0.670   1.187   2.949
 3372SOL    HW211016   0.795   1.291   2.956
 3373SOL     OW11017   6.247   2.264   5.038
 3373SOL    HW111018   6.261   2.185   5.098
 3373SOL    HW211019   6.293   2.344   5.077
 3374SOL     OW11020   2.927   4.754   5.496
 3374SOL    HW111021   2.935   4.853   5.484
 3374SOL    HW211022   2.837   4.724   5.463
 3375SOL     OW11023   4.222   4.907   5.200
 3375SOL    HW111024   4.197   4.811   5.215
 3375SOL    HW211025   4.242   4.950   5.288
 3376SOL     OW11026   3.230   3.770   2.037
 3376SOL    HW111027   3.208   3.675   2.016
 3376SOL    HW211028   3.233   3.782   2.136
 3377SOL     OW11029   1.638   6.271   5.361
 3377SOL    HW111030   1.623   6.183   5.317
 3377SOL    HW211031   1.581   6.278   5.443
 3378SOL     OW11032   6.567   2.037   1.130
 3378SOL    HW111033   6.588   2.016   1.034
 3378SOL    HW211034   6.588   2.133   1.148
 3379SOL     OW11035   0.599   4.541   5.423
 3379SOL    HW111036   0.603   4.626   5.475
 3379SOL    HW211037   0.511   4.497   5.437
 3380SOL     OW11038   6.920   4.042   6.528
 3380SOL    HW111039   6.958   4.085   6.610
 3380SOL    HW211040   6.964   4.080   6.447
 3381SOL     OW11041   3.289   2.156   0.194
 3381SOL    HW111042   3.296   2.108   0.282
 3381SOL    HW211043   3.205   2.127   0.148
 3382SOL     OW11044   6.886   1.262   1.098
 3382SOL    HW111045   6.837   1.338   1.055
 3382SOL    HW211046   6.820   1.192   1.125
 3383SOL     OW11047   6.028   4.921   2.686
 3383SOL    HW111048   5.963   4.974   2.632
 3383SOL    HW211049   6.106   4.897   2.630
 3384SOL     OW11050   4.045   3.193   4.252
 3384SOL    HW111051   4.006   3.219   4.340
 3384SOL    HW211052   3.991   3.118   4.213
 3385SOL     OW11053   6.245   3.752   3.278
 3385SOL    HW111054   6.325   3.805   3.308
 3385SOL    HW211055   6.215   3.693   3.353
 3386SOL     OW11056   5.873   4.292   5.455
 3386SOL    HW111057   5.956   4.301   5.511
 3386SOL    HW211058   5.876   4.358   5.380
 3387SOL     OW11059   2.323   2.193   3.024
 3387SOL    HW111060   2.378   2.123   2.978
 3387SOL    HW211061   2.242   2.213   2.969
 3388SOL     OW11062   5.815   2.149   1.475
 3388SOL    HW111063   5.756   2.220   1.436
 3388SOL    HW211064   5.817   2.159   1.574
 3389SOL     OW11065   5.725   4.065   3.493
 3389SOL    HW111066   5.629   4.070   3.467
 3389SOL    HW211067   5.743   4.127   3.570
 3390SOL     OW11068   4.695   2.804   5.490
 3390SOL    HW111069   4.612   2.755   5.465
 3390SOL    HW211070   4.699   2.817   5.589
 3391SOL     OW11071   3.939   2.166   4.808
 3391SOL    HW111072   3.984   2.085   4.846
 3391SOL    HW211073   3.840   2.152   4.808
 3392SOL     OW11074   3.745   0.363   3.991
 3392SOL    HW111075   3.719   0.445   4.042
 3392SOL    HW211076   3.844   0.358   3.984
 3393SOL     OW11077   6.871   6.903   0.357
 3393SOL    HW111078   6.824   6.821   0.391
 3393SOL    HW211079   6.845   6.919   0.261
 3394SOL     OW11080   6.034   2.742   1.158
 3394SOL    HW111081   6.117   2.755   1.104
 3394SOL    HW211082   6.028   2.647   1.188
 3395SOL     OW11083   1.244   3.514   5.202
 3395SOL    HW111084   1.186   3.487   5.278
 3395SOL    HW211085   1.268   3.611   5.211
 3396SOL     OW11086   0.056   4.083   3.813
 3396SOL    HW111087   0.148   4.089   3.850
 3396SOL    HW211088   7.001   4.087   3.887
 3397SOL     OW11089   3.958   6.504   6.087
 3397SOL    HW111090   3.915   6.557   6.160
 3397SOL    HW211091   4.012   6.430   6.126
 3398SOL     OW11092   1.132   6.568   4.494
 3398SOL    HW111093   1.119   6.486   4.438
 3398SOL    HW211094   1.089   6.646   4.449
 3399SOL     OW11095   5.386   4.831   4.081
 3399SOL    HW111096   5.449   4.820   4.157
 3399SOL    HW211097   5.438   4.840   3.996
 3400SOL     OW11098   5.008   2.378   0.414
 3400SOL    HW111099   4.919   2.352   0.377
 3400SOL    HW211100   5.078   2.370   0.343
 3401SOL     OW11101   5.912   4.040   0.339
 3401SOL    HW111102   5.978   3.979   0.382
 3401SOL    HW211103   5.917   4.131   0.381
 3402SOL     OW11104   5.810   5.596   1.470
 3402SOL    HW111105   5.795   5.515   1.414
 3402SOL    HW211106   5.902   5.632   1.455
 3403SOL     OW11107   3.646   0.672   5.378
 3403SOL    HW111108   3.633   0.768   5.356
 3403SOL    HW211109   3.634   0.616   5.296
 3404SOL     OW11110   4.546   1.182   0.495
 3404SOL    HW111111   4.633   1.228   0.476
 3404SOL    HW211112   4.510   1.141   0.412
 3405SOL     OW11113   6.564   3.733   6.454
 3405SOL    HW111114   6.597   3.823   6.483
 3405SOL    HW211115   6.625   3.662   6.490
 3406SOL     OW11116   1.710   4.047   2.676
 3406SOL    HW111117   1.615   4.072   2.694
 3406SOL    HW211118   1.761   4.042   2.761
 3407SOL     OW11119   0.800   5.785   2.449
 3407SOL    HW111120   0.853   5.839   2.384
 3407SOL    HW211121   0.827   5.689   2.443
 3408SOL     OW11122   5.103   4.082   2.359
 3408SOL    HW111123   5.035   4.015   2.328
 3408SOL    HW211124   5.181   4.080   2.296
 3409SOL     OW11125   3.543   0.466   5.841
 3409SOL    HW111126   3.478   0.515   5.782
 3409SOL    HW211127   3.498   0.386   5.880
 3410SOL     OW11128   6.616   6.891   0.702
 3410SOL    HW111129   6.571   6.809   0.667
 3410SOL    HW211130   6.604   6.897   0.801
 3411SOL     OW11131   4.948   2.197   3.029
 3411SOL    HW111132   4.861   2.195   3.079
 3411SOL    HW211133   4.937   2.155   2.940
 3412SOL     OW11134   3.845   4.422   0.032
 3412SOL    HW111135   3.767   4.485   0.027
 3412SOL    HW211136   3.870   4.409   0.128
 3413SOL     OW11137   3.612   1.837   3.451
 3413SOL    HW111138   3.600   1.936   3.440
 3413SOL    HW211139   3.618   1.794   3.360
 3414SOL     OW11140   2.922   2.473   5.270
 3414SOL    HW111141   2.964   2.550   5.318
 3414SOL    HW211142   2.992   2.427   5.214
 3415SOL     OW11143   0.558   4.612   3.868
 3415SOL    HW111144   0.642   4.568   3.837
 3415SOL    HW211145   0.485   4.595   3.803
 3416SOL     OW11146   0.995   5.492   5.055
 3416SOL    HW111147   0.982   5.573   4.997
 3416SOL    HW211148   0.906   5.459   5.086
 3417SOL     OW11149   6.774   6.851   2.596
 3417SOL    HW111150   6.759   6.782   2.525
 3417SOL    HW211151   6.796   6.939   2.554
 3418SOL     OW11152   3.091   1.733   5.705
 3418SOL    HW111153   3.030   1.781   5.642
 3418SOL    HW211154   3.063   1.751   5.799
 3419SOL     OW11155   4.242   4.711   6.853
 3419SOL    HW111156   4.146   4.720   6.880
 3419SOL    HW211157   4.290   4.797   6.873
 3420SOL     OW11158   4.022   2.190   3.884
 3420SOL    HW111159   4.066   2.104   3.856
 3420SOL    HW211160   3.992   2.182   3.979
 3421SOL     OW11161   0.260   5.931   5.331
 3421SOL    HW111162   0.259   5.985   5.246
 3421SOL    HW211163   0.349   5.886   5.340
 3422SOL     OW11164   3.404   0.892   1.347
 3422SOL    HW111165   3.380   0.800   1.314
 3422SOL    HW211166   3.457   0.939   1.276
 3423SOL     OW11167   2.413   0.345   0.859
 3423SOL    HW111168   2.347   0.386   0.921
 3423SOL    HW211169   2.440   0.413   0.789
 3424SOL     OW11170   4.200   0.822   2.953
 3424SOL    HW111171   4.227   0.912   2.919
 3424SOL    HW211172   4.209   0.755   2.879
 3425SOL     OW11173   4.595   4.497   1.761
 3425SOL    HW111174   4.579   4.423   1.826
 3425SOL    HW211175   4.571   4.467   1.669
 3426SOL     OW11176   4.165   3.688   0.394
 3426SOL    HW111177   4.115   3.701   0.479
 3426SOL    HW211178   4.259   3.661   0.414
 3427SOL     OW11179   0.200   1.100   0.517
 3427SOL    HW111180   0.114   1.082   0.469
 3427SOL    HW211181   0.220   1.197   0.515
 3428SOL     OW11182   4.217   4.770   2.222
 3428SOL    HW111183   4.236   4.701   2.152
 3428SOL    HW211184   4.154   4.838   2.185
 3429SOL     OW11185   1.575   3.324   0.563
 3429SOL    HW111186   1.513   3.246   0.560
 3429SOL    HW211187   1.669   3.292   0.554
 3430SOL     OW11188   1.412   0.177   0.141
 3430SOL    HW111189   1.441   0.271   0.156
 3430SOL    HW211190   1.384   0.166   0.046
 3431SOL     OW11191   0.987   5.803   0.650
 3431SOL    HW111192   1.045   5.883   0.660
 3431SOL    HW211193   0.895   5.832   0.623
 3432SOL     OW11194   3.236   1.477   6.031
 3432SOL    HW111195   3.164   1.442   6.091
 3432SOL    HW211196   3.323   1.477   6.079
 3433SOL     OW11197   3.346   0.586   5.059
 3433SOL    HW111198   3.316   0.491   5.071
 3433SOL    HW211199   3.445   0.588   5.044
 3434SOL     OW11200   4.766   2.783   2.124
 3434SOL    HW111201   4.760   2.876   2.088
 3434SOL    HW211202   4.732   2.782   2.218
 3435SOL     OW11203   6.906   1.852   2.182
 3435SOL    HW111204   6.811   1.881   2.170
 3435SOL    HW211205   6.968   1.928   2.164
 3436SOL     OW11206   4.062   6.641   4.528
 3436SOL    HW111207   4.049   6.671   4.622
 3436SOL    HW211208   4.033   6.546   4.518
 3437SOL     OW11209   3.951   0.102   5.427
 3437SOL    HW111210   4.032   0.148   5.465
 3437SOL    HW211211   3.915   0.156   5.351
 3438SOL     OW11212   0.735   2.517   6.424
 3438SOL    HW111213   0.691   2.450   6.484
 3438SOL    HW211214   0.784   2.584   6.479
 3439SOL     OW11215   2.854   6.643   4.438
 3439SOL    HW111216   2.836   6.548   4.463
 3439SOL    HW211217   2.791   6.671   4.366
 3440SOL     OW11218   4.876   3.244   0.955
 3440SOL    HW111219   4.810   3.203   1.017
 3440SOL    HW211220   4.854   3.341   0.942
 3441SOL     OW11221   2.833   0.184   3.682
 3441SOL    HW111222   2.855   0.262   3.740
 3441SOL    HW211223   2.853   0.099   3.732
 3442SOL     OW11224   1.848   5.039   3.773
 3442SOL    HW111225   1.789   5.119   3.787
 3442SOL    HW211226   1.943   5.064   3.795
 3443SOL     OW11227   6.034   1.685   2.802
 3443SOL    HW111228   5.953   1.710   2.748
 3443SOL    HW211229   6.006   1.663   2.896
 3444SOL     OW11230   4.864   5.469   0.134
 3444SOL    HW111231   4.888   5.423   0.219
 3444SOL    HW211232   4.769   5.502   0.141
 3445SOL     OW11233   6.643   4.708   4.180
 3445SOL    HW111234   6.608   4.650   4.106
 3445SOL    HW211235   6.720   4.661   4.225
 3446SOL     OW11236   3.921   0.203   2.765
 3446SOL    HW111237   3.835   0.248   2.789
 3446SOL    HW211238   3.946   0.226   2.671
 3447SOL     OW11239   5.579   6.548   0.190
 3447SOL    HW111240   5.544   6.548   0.096
 3447SOL    HW211241   5.550   6.464   0.236
 3448SOL     OW11242   3.615   1.113   1.748
 3448SOL    HW111243   3.683   1.040   1.738
 3448SOL    HW211244   3.524   1.076   1.734
 3449SOL     OW11245   6.558   6.877   2.811
 3449SOL    HW111246   6.524   6.786   2.834
 3449SOL    HW211247   6.635   6.869   2.747
 3450SOL     OW11248   0.744   1.583   1.922
 3450SOL    HW111249   0.655   1.601   1.881
 3450SOL    HW211250   0.789   1.508   1.874
 3451SOL     OW11251   1.263   5.724   3.920
 3451SOL    HW111252   1.222   5.789   3.984
 3451SOL    HW211253   1.349   5.761   3.885
 3452SOL     OW11254   6.045   1.199   0.655
 3452SOL    HW111255   6.138   1.196   0.693
 3452SOL    HW211256   6.037   1.132   0.582
 3453SOL     OW11257   5.779   5.611   4.627
 3453SOL    HW111258   5.684   5.578   4.624
 3453SOL    HW211259   5.786   5.696   4.575
 3454SOL     OW11260   1.114   1.240   0.833
 3454SOL    HW111261   1.100   1.236   0.734
 3454SOL    HW211262   1.037   1.288   0.875
 3455SOL     OW11263   1.521   2.690   4.521
 3455SOL    HW111264   1.505   2.693   4.422
 3455SOL    HW211265   1.489   2.603   4.557
 3456SOL     OW11266   5.732   6.725   1.697
 3456SOL    HW111267   5.830   6.709   1.710
 3456SOL    HW211268   5.716   6.765   1.607
 3457SOL     OW11269   2.790   4.842   3.650
 3457SOL    HW111270   2.882   4.882   3.646
 3457SOL    HW211271   2.722   4.914   3.632
 3458SOL     OW11272   5.936   6.978   1.145
 3458SOL    HW111273   5.896   6.973   1.054
 3458SOL    HW211274   5.964   6.886   1.174
 3459SOL     OW11275   0.297   4.947   3.665
 3459SOL    HW111276   0.353   5.028   3.684
 3459SOL    HW211277   0.218   4.974   3.610
 3460SOL     OW11278   4.575   2.627   0.028
 3460SOL    HW111279   4.483   2.662   0.007
 3460SOL    HW211280   4.622   2.691   0.089
 3461SOL     OW11281   3.658   6.016   4.030
 3461SOL    HW111282   3.594   5.990   3.958
 3461SOL    HW211283   3.752   5.999   3.999
 3462SOL     OW11284   4.999   3.698   3.056
 3462SOL    HW111285   4.973   3.623   3.117
 3462SOL    HW211286   5.098   3.714   3.063
 3463SOL     OW11287   2.342   2.877   1.296
 3463SOL    HW111288   2.307   2.854   1.205
 3463SOL    HW211289   2.344   2.976   1.307
 3464SOL     OW11290   5.228   3.042   6.310
 3464SOL    HW111291   5.313   2.990   6.318
 3464SOL    HW211292   5.180   3.042   6.398
 3465SOL     OW11293   2.116   3.699   1.867
 3465SOL    HW111294   2.172   3.630   1.914
 3465SOL    HW211295   2.125   3.787   1.914
 3466SOL     OW11296   5.502   4.919   5.160
 3466SOL    HW111297   5.410   4.958   5.169
 3466SOL    HW211298   5.511   4.875   5.071
 3467SOL     OW11299   2.587   2.608   1.021
 3467SOL    HW111300   2.624   2.689   1.066
 3467SOL    HW211301   2.661   2.555   0.980
 3468SOL     OW11302   4.708   1.617   1.340
 3468SOL    HW111303   4.759   1.531   1.344
 3468SOL    HW211304   4.615   1.599   1.307
 3469SOL     OW11305   4.446   6.758   5.978
 3469SOL    HW111306   4.411   6.679   6.028
 3469SOL    HW211307   4.428   6.747   5.881
 3470SOL     OW11308   6.967   2.587   2.094
 3470SOL    HW111309   6.906   2.662   2.068
 3470SOL    HW211310   0.009   2.616   2.174
 3471SOL     OW11311   4.685   4.154   2.994
 3471SOL    HW111312   4.641   4.228   3.045
 3471SOL    HW211313   4.745   4.192   2.925
 3472SOL     OW11314   4.688   1.796   3.296
 3472SOL    HW111315   4.614   1.857   3.323
 3472SOL    HW211316   4.743   1.772   3.377
 3473SOL     OW11317   6.949   3.952   3.352
 3473SOL    HW111318   6.950   3.897   3.436
 3473SOL    HW211319   6.873   3.922   3.294
 3474SOL     OW11320   6.317   5.095   4.780
 3474SOL    HW111321   6.350   5.090   4.685
 3474SOL    HW211322   6.294   5.190   4.802
 3475SOL     OW11323   0.065   4.532   4.096
 3475SOL    HW111324   0.144   4.589   4.119
 3475SOL    HW211325   0.096   4.445   4.058
 3476SOL     OW11326   1.404   1.720   3.370
 3476SOL    HW111327   1.355   1.799   3.405
 3476SOL    HW211328   1.475   1.750   3.306
 3477SOL     OW11329   0.266   3.918   1.518
 3477SOL    HW111330   0.272   3.872   1.430
 3477SOL    HW211331   0.332   3.878   1.582
 3478SOL     OW11332   2.335   0.151   0.004
 3478SOL    HW111333   2.264   0.145   0.075
 3478SOL    HW211334   2.296   0.127   6.927
 3479SOL     OW11335   0.846   3.299   3.465
 3479SOL    HW111336   0.937   3.303   3.423
 3479SOL    HW211337   0.851   3.243   3.548
 3480SOL     OW11338   1.043   5.742   6.886
 3480SOL    HW111339   1.070   5.713   6.977
 3480SOL    HW211340   1.028   5.841   6.885
 3481SOL     OW11341   6.188   0.504   6.636
 3481SOL    HW111342   6.261   0.479   6.572
 3481SOL    HW211343   6.228   0.525   6.726
 3482SOL     OW11344   5.607   3.724   4.325
 3482SOL    HW111345   5.559   3.700   4.410
 3482SOL    HW211346   5.697   3.761   4.347
 3483SOL     OW11347   4.471   2.014   3.619
 3483SOL    HW111348   4.566   1.986   3.628
 3483SOL    HW211349   4.431   2.029   3.709
 3484SOL     OW11350   1.906   3.451   6.213
 3484SOL    HW111351   1.823   3.425   6.264
 3484SOL    HW211352   1.938   3.372   6.161
 3485SOL     OW11353   0.118   1.552   5.344
 3485SOL    HW111354   0.101   1.609   5.424
 3485SOL    HW211355   0.030   1.519   5.308
 3486SOL     OW11356   2.079   0.378   4.561
 3486SOL    HW111357   2.047   0.328   4.641
 3486SOL    HW211358   2.169   0.343   4.534
 3487SOL     OW11359   6.063   1.748   6.696
 3487SOL    HW111360   6.007   1.665   6.699
 3487SOL    HW211361   6.015   1.818   6.642
 3488SOL     OW11362   5.911   0.625   4.258
 3488SOL    HW111363   5.955   0.590   4.175
 3488SOL    HW211364   5.831   0.569   4.279
 3489SOL     OW11365   3.178   0.296   0.728
 3489SOL    HW111366   3.149   0.386   0.758
 3489SOL    HW211367   3.098   0.237   0.714
 3490SOL     OW11368   4.428   5.048   0.648
 3490SOL    HW111369   4.525   5.068   0.639
 3490SOL    HW211370   4.411   4.953   0.622
 3491SOL     OW11371   5.228   4.015   0.276
 3491SOL    HW111372   5.193   4.068   0.199
 3491SOL    HW211373   5.177   4.039   0.359
 3492SOL     OW11374   5.496   4.246   2.423
 3492SOL    HW111375   5.539   4.177   2.364
 3492SOL    HW211376   5.546   4.251   2.509
 3493SOL     OW11377   6.247   3.529   4.544
 3493SOL    HW111378   6.231   3.431   4.533
 3493SOL    HW211379   6.295   3.564   4.464
 3494SOL     OW11380   3.480   1.831   2.388
 3494SOL    HW111381   3.457   1.928   2.374
 3494SOL    HW211382   3.547   1.803   2.319
 3495SOL     OW11383   1.113   3.329   1.965
 3495SOL    HW111384   1.159   3.395   2.024
 3495SOL    HW211385   1.181   3.268   1.924
 3496SOL     OW11386   6.812   5.019   0.685
 3496SOL    HW111387   6.866   5.090   0.730
 3496SOL    HW211388   6.825   5.025   0.586
 3497SOL     OW11389   4.214   0.594   2.756
 3497SOL    HW111390   4.188   0.521   2.819
 3497SOL    HW211391   4.131   0.635   2.718
 3498SOL     OW11392   2.192   1.815   1.352
 3498SOL    HW111393   2.265   1.873   1.387
 3498SOL    HW211394   2.186   1.731   1.407
 3499SOL     OW11395   5.879   5.561   5.565
 3499SOL    HW111396   5.963   5.603   5.529
 3499SOL    HW211397   5.845   5.616   5.642
 3500SOL     OW11398   1.156   1.643   3.783
 3500SOL    HW111399   1.080   1.632   3.718
 3500SOL    HW211400   1.136   1.719   3.844
 3501SOL     OW11401   2.104   0.068   6.405
 3501SOL    HW111402   2.092   0.086   6.502
 3501SOL    HW211403   2.064   0.144   6.352
 3502SOL     OW11404   5.402   3.366   1.615
 3502SOL    HW111405   5.349   3.364   1.530
 3502SOL    HW211406   5.407   3.274   1.653
 3503SOL     OW11407   6.591   6.098   6.175
 3503SOL    HW111408   6.570   6.054   6.088
 3503SOL    HW211409   6.509   6.100   6.232
 3504SOL     OW11410   1.217   0.991   2.044
 3504SOL    HW111411   1.203   1.056   2.118
 3504SOL    HW211412   1.145   0.922   2.046
 3505SOL     OW11413   5.683   5.070   5.695
 3505SOL    HW111414   5.739   5.136   5.644
 3505SOL    HW211415   5.611   5.034   5.636
 3506SOL     OW11416   5.361   4.575   4.640
 3506SOL    HW111417   5.433   4.634   4.602
 3506SOL    HW211418   5.271   4.611   4.615
 3507SOL     OW11419   2.532   0.163   0.442
 3507SOL    HW111420   2.432   0.160   0.442
 3507SOL    HW211421   2.563   0.257   0.453
 3508SOL     OW11422   3.270   2.589   5.313
 3508SOL    HW111423   3.255   2.502   5.266
 3508SOL    HW211424   3.182   2.636   5.326
 3509SOL     OW11425   4.306   5.767   0.082
 3509SOL    HW111426   4.377   5.798   0.020
 3509SOL    HW211427   4.244   5.843   0.104
 3510SOL     OW11428   1.846   0.734   1.110
 3510SOL    HW111429   1.898   0.818   1.129
 3510SOL    HW211430   1.885   0.687   1.032
 3511SOL     OW11431   2.268   4.689   1.417
 3511SOL    HW111432   2.253   4.616   1.351
 3511SOL    HW211433   2.284   4.650   1.508
 3512SOL     OW11434   1.155   4.109   0.192
 3512SOL    HW111435   1.101   4.190   0.169
 3512SOL    HW211436   1.192   4.118   0.284
 3513SOL     OW11437   6.297   2.248   0.508
 3513SOL    HW111438   6.292   2.265   0.607
 3513SOL    HW211439   6.266   2.156   0.488
 3514SOL     OW11440   5.264   0.815   2.659
 3514SOL    HW111441   5.207   0.764   2.594
 3514SOL    HW211442   5.205   0.867   2.721
 3515SOL     OW11443   5.737   5.864   4.453
 3515SOL    HW111444   5.718   5.937   4.518
 3515SOL    HW211445   5.728   5.899   4.359
 3516SOL     OW11446   5.231   0.572   1.101
 3516SOL    HW111447   5.225   0.663   1.061
 3516SOL    HW211448   5.313   0.566   1.159
 3517SOL     OW11449   6.645   1.666   0.522
 3517SOL    HW111450   6.561   1.718   0.508
 3517SOL    HW211451   6.645   1.586   0.462
 3518SOL     OW11452   6.056   1.778   4.745
 3518SOL    HW111453   6.119   1.761   4.669
 3518SOL    HW211454   6.079   1.866   4.788
 3519SOL     OW11455   3.141   0.764   0.183
 3519SOL    HW111456   3.163   0.857   0.155
 3519SOL    HW211457   3.074   0.724   0.120
 3520SOL     OW11458   2.873   5.391   5.363
 3520SOL    HW111459   2.942   5.430   5.424
 3520SOL    HW211460   2.801   5.349   5.417
 3521SOL     OW11461   2.951   3.084   6.888
 3521SOL    HW111462   2.930   3.162   6.947
 3521SOL    HW211463   3.022   3.110   6.822
 3522SOL     OW11464   6.523   5.625   6.627
 3522SOL    HW111465   6.592   5.645   6.696
 3522SOL    HW211466   6.442   5.588   6.671
 3523SOL     OW11467   1.620   4.950   5.764
 3523SOL    HW111468   1.612   4.858   5.801
 3523SOL    HW211469   1.569   4.957   5.678
 3524SOL     OW11470   6.378   1.915   3.304
 3524SOL    HW111471   6.278   1.912   3.296
 3524SOL    HW211472   6.414   1.981   3.238
 3525SOL     OW11473   6.197   4.778   4.058
 3525SOL    HW111474   6.148   4.859   4.026
 3525SOL    HW211475   6.269   4.806   4.121
 3526SOL     OW11476   1.181   5.916   3.247
 3526SOL    HW111477   1.143   5.951   3.333
 3526SOL    HW211478   1.269   5.959   3.229
 3527SOL     OW11479   6.385   2.591   5.920
 3527SOL    HW111480   6.372   2.584   5.822
 3527SOL    HW211481   6.385   2.500   5.961
 3528SOL     OW11482   2.551   6.623   5.495
 3528SOL    HW111483   2.568   6.694   5.563
 3528SOL    HW211484   2.617   6.631   5.421
 3529SOL     OW11485   4.961   5.684   6.972
 3529SOL    HW111486   4.942   5.629   0.042
 3529SOL    HW211487   4.987   5.623   6.897
 3530SOL     OW11488   6.970   5.969   2.327
 3530SOL    HW111489   6.892   5.909   2.347
 3530SOL    HW211490   6.941   6.045   2.269
 3531SOL     OW11491   4.551   1.419   1.814
 3531SOL    HW111492   4.640   1.399   1.773
 3531SOL    HW211493   4.558   1.502   1.869
 3532SOL     OW11494   2.149   1.180   2.195
 3532SOL    HW111495   2.175   1.084   2.184
 3532SOL    HW211496   2.127   1.198   2.291
 3533SOL     OW11497   6.505   1.662   2.556
 3533SOL    HW111498   6.459   1.602   2.621
 3533SOL    HW211499   6.587   1.701   2.598
 3534SOL     OW11500   0.320   2.207   2.281
 3534SOL    HW111501   0.403   2.172   2.323
 3534SOL    HW211502   0.342   2.254   2.195
 3535SOL     OW11503   2.799   5.033   5.133
 3535SOL    HW111504   2.881   4.999   5.178
 3535SOL    HW211505   2.725   4.967   5.143
 3536SOL     OW11506   3.204   1.864   3.090
 3536SOL    HW111507   3.108   1.862   3.060
 3536SOL    HW211508   3.232   1.959   3.104
 3537SOL     OW11509   1.496   5.824   3.052
 3537SOL    HW111510   1.477   5.822   2.954
 3537SOL    HW211511   1.587   5.787   3.069
 3538SOL     OW11512   3.063   5.543   5.113
 3538SOL    HW111513   2.975   5.588   5.130
 3538SOL    HW211514   3.051   5.444   5.113
 3539SOL     OW11515   3.362   4.072   4.420
 3539SOL    HW111516   3.384   4.101   4.327
 3539SOL    HW211517   3.431   4.007   4.451
 3540SOL     OW11518   1.765   1.958   4.199
 3540SOL    HW111519   1.746   1.897   4.123
 3540SOL    HW211520   1.733   2.050   4.177
 3541SOL     OW11521   3.193   3.355   5.079
 3541SOL    HW111522   3.275   3.331   5.027
 3541SOL    HW211523   3.183   3.455   5.079
 3542SOL     OW11524   1.481   4.770   2.853
 3542SOL    HW111525   1.573   4.779   2.814
 3542SOL    HW211526   1.488   4.746   2.949
 3543SOL     OW11527   5.275   2.256   4.321
 3543SOL    HW111528   5.176   2.269   4.330
 3543SOL    HW211529   5.323   2.313   4.387
 3544SOL     OW11530   2.230   3.999   6.775
 3544SOL    HW111531   2.195   3.906   6.764
 3544SOL    HW211532   2.297   4.019   6.704
 3545SOL     OW11533   4.463   5.507   6.113
 3545SOL    HW111534   4.410   5.563   6.177
 3545SOL    HW211535   4.405   5.436   6.074
 3546SOL     OW11536   0.141   5.599   3.582
 3546SOL    HW111537   0.140   5.552   3.493
 3546SOL    HW211538   0.099   5.689   3.572
 3547SOL     OW11539   4.182   5.132   3.991
 3547SOL    HW111540   4.260   5.094   3.942
 3547SOL    HW211541   4.128   5.189   3.928
 3548SOL     OW11542   4.886   2.309   5.669
 3548SOL    HW111543   4.904   2.374   5.595
 3548SOL    HW211544   4.798   2.329   5.711
 3549SOL     OW11545   6.484   4.606   3.473
 3549SOL    HW111546   6.408   4.549   3.505
 3549SOL    HW211547   6.465   4.702   3.493
 3550SOL     OW11548   5.229   2.077   3.353
 3550SOL    HW111549   5.287   2.071   3.434
 3550SOL    HW211550   5.134   2.062   3.380
 3551SOL     OW11551   3.592   6.239   2.414
 3551SOL    HW111552   3.538   6.156   2.402
 3551SOL    HW211553   3.589   6.267   2.510
 3552SOL     OW11554   5.294   5.919   2.699
 3552SOL    HW111555   5.343   5.996   2.658
 3552SOL    HW211556   5.319   5.911   2.795
 3553SOL     OW11557   5.390   2.515   2.442
 3553SOL    HW111558   5.455   2.524   2.517
 3553SOL    HW211559   5.352   2.422   2.443
 3554SOL     OW11560   4.380   4.528   6.587
 3554SOL    HW111561   4.345   4.515   6.494
 3554SOL    HW211562   4.313   4.493   6.652
 3555SOL     OW11563   0.977   3.571   3.004
 3555SOL    HW111564   0.992   3.605   2.911
 3555SOL    HW211565   0.906   3.501   3.003
 3556SOL     OW11566   3.116   0.420   5.364
 3556SOL    HW111567   3.121   0.510   5.321
 3556SOL    HW211568   3.028   0.377   5.343
 3557SOL     OW11569   1.759   0.231   4.495
 3557SOL    HW111570   1.850   0.193   4.483
 3557SOL    HW211571   1.744   0.305   4.429
 3558SOL     OW11572   6.992   5.879   1.468
 3558SOL    HW111573   0.041   5.852   1.542
 3558SOL    HW211574   7.009   5.974   1.443
 3559SOL     OW11575   0.774   0.764   4.554
 3559SOL    HW111576   0.736   0.812   4.475
 3559SOL    HW211577   0.749   0.813   4.638
 3560SOL     OW11578   0.811   5.782   1.193
 3560SOL    HW111579   0.727   5.762   1.243
 3560SOL    HW211580   0.791   5.794   1.096
 3561SOL     OW11581   4.797   4.269   5.695
 3561SOL    HW111582   4.716   4.311   5.654
 3561SOL    HW211583   4.774   4.232   5.785
 3562SOL     OW11584   5.708   0.284   3.549
 3562SOL    HW111585   5.788   0.253   3.498
 3562SOL    HW211586   5.664   0.206   3.594
 3563SOL     OW11587   5.232   1.168   1.167
 3563SOL    HW111588   5.219   1.073   1.138
 3563SOL    HW211589   5.316   1.176   1.221
 3564SOL     OW11590   0.215   4.321   4.480
 3564SOL    HW111591   0.186   4.335   4.574
 3564SOL    HW211592   0.311   4.346   4.469
 3565SOL     OW11593   2.601   0.809   4.444
 3565SOL    HW111594   2.662   0.879   4.407
 3565SOL    HW211595   2.628   0.719   4.408
 3566SOL     OW11596   6.952   3.343   5.954
 3566SOL    HW111597   0.001   3.265   5.973
 3566SOL    HW211598   6.874   3.311   5.900
 3567SOL     OW11599   0.402   3.350   0.868
 3567SOL    HW111600   0.321   3.313   0.914
 3567SOL    HW211601   0.455   3.405   0.933
 3568SOL     OW11602   4.363   4.581   2.872
 3568SOL    HW111603   4.358   4.573   2.971
 3568SOL    HW211604   4.277   4.618   2.836
 3569SOL     OW11605   2.973   3.623   4.592
 3569SOL    HW111606   2.917   3.640   4.673
 3569SOL    HW211607   2.922   3.563   4.529
 3570SOL     OW11608   6.564   1.733   5.730
 3570SOL    HW111609   6.646   1.787   5.751
 3570SOL    HW211610   6.573   1.694   5.638
 3571SOL     OW11611   1.730   6.442   5.172
 3571SOL    HW111612   1.656   6.472   5.113
 3571SOL    HW211613   1.698   6.368   5.231
 3572SOL     OW11614   5.099   4.428   1.252
 3572SOL    HW111615   5.182   4.410   1.305
 3572SOL    HW211616   5.082   4.352   1.189
 3573SOL     OW11617   6.413   3.764   1.763
 3573SOL    HW111618   6.450   3.801   1.848
 3573SOL    HW211619   6.325   3.807   1.743
 3574SOL     OW11620   2.802   3.275   6.007
 3574SOL    HW111621   2.863   3.289   5.929
 3574SOL    HW211622   2.708   3.292   5.979
 3575SOL     OW11623   5.036   6.785   0.583
 3575SOL    HW111624   5.135   6.774   0.577
 3575SOL    HW211625   5.005   6.844   0.508
 3576SOL     OW11626   0.681   3.247   0.253
 3576SOL    HW111627   0.593   3.280   0.219
 3576SOL    HW211628   0.741   3.325   0.271
 3577SOL     OW11629   2.320   2.654   5.465
 3577SOL    HW111630   2.254   2.712   5.513
 3577SOL    HW211631   2.391   2.712   5.424
 3578SOL     OW11632   3.302   2.833   6.688
 3578SOL    HW111633   3.252   2.783   6.618
 3578SOL    HW211634   3.387   2.785   6.709
 3579SOL     OW11635   0.133   3.569   2.535
 3579SOL    HW111636   0.187   3.545   2.454
 3579SOL    HW211637   0.180   3.641   2.585
 3580SOL     OW11638   0.583   3.619   1.622
 3580SOL    HW111639   0.660   3.564   1.589
 3580SOL    HW211640   0.502   3.562   1.628
 3581SOL     OW11641   0.438   0.394   2.338
 3581SOL    HW111642   0.379   0.422   2.414
 3581SOL    HW211643   0.425   0.456   2.261
 3582SOL     OW11644   3.622   3.852   5.907
 3582SOL    HW111645   3.596   3.827   5.814
 3582SOL    HW211646   3.539   3.877   5.959
 3583SOL     OW11647   0.223   4.666   1.451
 3583SOL    HW111648   0.189   4.631   1.364
 3583SOL    HW211649   0.244   4.588   1.512
 3584SOL     OW11650   5.411   4.623   5.253
 3584SOL    HW111651   5.323   4.604   5.209
 3584SOL    HW211652   5.463   4.688   5.197
 3585SOL     OW11653   2.751   1.822   3.992
 3585SOL    HW111654   2.762   1.826   4.092
 3585SOL    HW211655   2.840   1.806   3.949
 3586SOL     OW11656   6.536   3.120   4.131
 3586SOL    HW111657   6.449   3.107   4.082
 3586SOL    HW211658   6.544   3.051   4.203
 3587SOL     OW11659   3.787   6.769   6.550
 3587SOL    HW111660   3.772   6.855   6.500
 3587SOL    HW211661   3.702   6.739   6.591
 3588SOL     OW11662   6.744   4.303   4.264
 3588SOL    HW111663   6.700   4.379   4.313
 3588SOL    HW211664   6.729   4.314   4.166
 3589SOL     OW11665   0.413   6.973   6.343
 3589SOL    HW111666   0.469   0.008   6.412
 3589SOL    HW211667   0.323   0.005   6.339
 3590SOL     OW11668   0.160   4.683   0.724
 3590SOL    HW111669   0.256   4.710   0.735
 3590SOL    HW211670   0.139   4.674   0.627
 3591SOL     OW11671   5.672   2.131   6.660
 3591SOL    HW111672   5.618   2.140   6.576
 3591SOL    HW211673   5.732   2.211   6.670
 3592SOL     OW11674   1.672   6.914   1.694
 3592SOL    HW111675   1.687   6.991   1.632
 3592SOL    HW211676   1.605   6.851   1.655
 3593SOL     OW11677   5.243   3.284   6.188
 3593SOL    HW111678   5.218   3.280   6.091
 3593SOL    HW211679   5.219   3.197   6.232
 3594SOL     OW11680   3.968   5.043   4.139
 3594SOL    HW111681   4.041   5.094   4.093
 3594SOL    HW211682   4.006   4.963   4.185
 3595SOL     OW11683   5.409   6.158   6.064
 3595SOL    HW111684   5.454   6.069   6.071
 3595SOL    HW211685   5.321   6.147   6.019
 3596SOL     OW11686   3.371   1.394   3.419
 3596SOL    HW111687   3.405   1.419   3.328
 3596SOL    HW211688   3.443   1.344   3.468
 3597SOL     OW11689   2.257   3.467   5.284
 3597SOL    HW111690   2.239   3.426   5.195
 3597SOL    HW211691   2.289   3.561   5.272
 3598SOL     OW11692   1.832   5.662   4.528
 3598SOL    HW111693   1.840   5.675   4.429
 3598SOL    HW211694   1.751   5.709   4.562
 3599SOL     OW11695   5.043   1.913   5.101
 3599SOL    HW111696   5.062   1.955   5.013
 3599SOL    HW211697   4.991   1.978   5.158
 3600SOL     OW11698   3.431   3.347   0.675
 3600SOL    HW111699   3.416   3.287   0.753
 3600SOL    HW211700   3.442   3.441   0.707
 3601SOL     OW11701   4.825   0.965   5.080
 3601SOL    HW111702   4.876   1.019   5.147
 3601SOL    HW211703   4.855   0.992   4.988
 3602SOL     OW11704   2.448   2.102   1.194
 3602SOL    HW111705   2.410   2.137   1.280
 3602SOL    HW211706   2.373   2.084   1.130
 3603SOL     OW11707   3.067   1.340   5.873
 3603SOL    HW111708   3.138   1.388   5.925
 3603SOL    HW211709   2.990   1.402   5.858
 3604SOL     OW11710   6.496   0.509   3.556
 3604SOL    HW111711   6.561   0.537   3.485
 3604SOL    HW211712   6.541   0.512   3.645
 3605SOL     OW11713   0.936   5.770   3.464
 3605SOL    HW111714   0.970   5.802   3.376
 3605SOL    HW211715   1.013   5.746   3.523
 3606SOL     OW11716   2.356   6.757   1.584
 3606SOL    HW111717   2.420   6.718   1.649
 3606SOL    HW211718   2.405   6.786   1.502
 3607SOL     OW11719   5.078   2.614   2.905
 3607SOL    HW111720   5.049   2.686   2.968
 3607SOL    HW211721   5.053   2.639   2.812
 3608SOL     OW11722   3.184   2.182   4.711
 3608SOL    HW111723   3.130   2.207   4.791
 3608SOL    HW211724   3.263   2.127   4.738
 3609SOL     OW11725   2.219   6.788   4.645
 3609SOL    HW111726   2.304   6.760   4.600
 3609SOL    HW211727   2.206   6.887   4.633
 3610SOL     OW11728   2.413   6.429   4.955
 3610SOL    HW111729   2.406   6.365   4.878
 3610SOL    HW211730   2.321   6.457   4.983
 3611SOL     OW11731   5.117   4.839   3.285
 3611SOL    HW111732   5.099   4.935   3.266
 3611SOL    HW211733   5.216   4.824   3.290
 3612SOL     OW11734   5.653   1.336   6.783
 3612SOL    HW111735   5.651   1.242   6.819
 3612SOL    HW211736   5.623   1.400   6.853
 3613SOL     OW11737   3.461   5.282   1.118
 3613SOL    HW111738   3.466   5.377   1.086
 3613SOL    HW211739   3.412   5.279   1.205
 3614SOL     OW11740   3.852   4.200   6.455
 3614SOL    HW111741   3.928   4.248   6.499
 3614SOL    HW211742   3.878   4.175   6.362
 3615SOL     OW11743   6.189   2.410   5.490
 3615SOL    HW111744   6.283   2.441   5.502
 3615SOL    HW211745   6.126   2.483   5.515
 3616SOL     OW11746   1.489   1.812   6.642
 3616SOL    HW111747   1.453   1.853   6.558
 3616SOL    HW211748   1.499   1.714   6.629
 3617SOL     OW11749   3.796   6.381   6.461
 3617SOL    HW111750   3.748   6.293   6.457
 3617SOL    HW211751   3.811   6.406   6.557
 3618SOL     OW11752   1.836   4.214   4.782
 3618SOL    HW111753   1.852   4.141   4.848
 3618SOL    HW211754   1.884   4.193   4.696
 3619SOL     OW11755   6.023   2.932   1.365
 3619SOL    HW111756   6.025   2.860   1.296
 3619SOL    HW211757   6.009   3.021   1.321
 3620SOL     OW11758   6.076   6.443   5.097
 3620SOL    HW111759   6.082   6.350   5.133
 3620SOL    HW211760   6.169   6.480   5.084
 3621SOL     OW11761   2.959   3.286   3.696
 3621SOL    HW111762   2.996   3.205   3.652
 3621SOL    HW211763   3.033   3.346   3.725
 3622SOL     OW11764   0.934   6.882   7.004
 3622SOL    HW111765   1.008   6.824   0.028
 3622SOL    HW211766   0.949   6.977   0.023
 3623SOL     OW11767   0.770   4.628   6.023
 3623SOL    HW111768   0.734   4.659   5.935
 3623SOL    HW211769   0.862   4.666   6.037
 3624SOL     OW11770   3.171   0.972   2.330
 3624SOL    HW111771   3.240   1.032   2.290
 3624SOL    HW211772   3.186   0.966   2.429
 3625SOL     OW11773   0.038   2.343   0.730
 3625SOL    HW111774   0.133   2.370   0.716
 3625SOL    HW211775   6.991   2.424   0.729
 3626SOL     OW11776   1.009   2.278   5.047
 3626SOL    HW111777   0.972   2.349   4.989
 3626SOL    HW211778   1.089   2.237   5.003
 3627SOL     OW11779   4.018   2.440   1.647
 3627SOL    HW111780   4.025   2.502   1.725
 3627SOL    HW211781   4.046   2.348   1.675
 3628SOL     OW11782   6.658   1.982   1.919
 3628SOL    HW111783   6.633   2.030   1.835
 3628SOL    HW211784   6.647   1.884   1.905
 3629SOL     OW11785   1.632   1.488   4.384
 3629SOL    HW111786   1.703   1.551   4.353
 3629SOL    HW211787   1.596   1.437   4.305
 3630SOL     OW11788   6.853   2.507   3.601
 3630SOL    HW111789   6.869   2.498   3.700
 3630SOL    HW211790   6.757   2.488   3.581
 3631SOL     OW11791   1.644   6.654   2.023
 3631SOL    HW111792   1.658   6.565   1.980
 3631SOL    HW211793   1.627   6.641   2.121
 3632SOL     OW11794   5.034   3.985   1.098
 3632SOL    HW111795   4.959   4.043   1.131
 3632SOL    HW211796   5.111   3.990   1.162
 3633SOL     OW11797   3.810   3.117   6.234
 3633SOL    HW111798   3.788   3.037   6.178
 3633SOL    HW211799   3.815   3.090   6.330
 3634SOL     OW11800   3.123   5.344   6.651
 3634SOL    HW111801   3.167   5.378   6.734
 3634SOL    HW211802   3.024   5.355   6.659
 3635SOL     OW11803   2.785   0.220   1.290
 3635SOL    HW111804   2.748   0.289   1.229
 3635SOL    HW211805   2.814   0.263   1.376
 3636SOL     OW11806   1.092   4.767   6.976
 3636SOL    HW111807   1.090   4.733   0.059
 3636SOL    HW211808   1.148   4.705   6.920
 3637SOL     OW11809   6.934   3.016   6.548
 3637SOL    HW111810   0.015   2.988   6.573
 3637SOL    HW211811   6.874   3.006   6.627
 3638SOL     OW11812   5.596   4.518   2.700
 3638SOL    HW111813   5.559   4.556   2.615
 3638SOL    HW211814   5.598   4.418   2.694
 3639SOL     OW11815   3.498   3.885   4.581
 3639SOL    HW111816   3.583   3.841   4.611
 3639SOL    HW211817   3.450   3.922   4.661
 3640SOL     OW11818   5.513   1.878   0.862
 3640SOL    HW111819   5.489   1.973   0.839
 3640SOL    HW211820   5.537   1.829   0.778
 3641SOL     OW11821   5.901   3.695   2.197
 3641SOL    HW111822   5.874   3.683   2.292
 3641SOL    HW211823   5.830   3.746   2.149
 3642SOL     OW11824   6.331   3.118   6.183
 3642SOL    HW111825   6.290   3.041   6.135
 3642SOL    HW211826   6.321   3.105   6.282
 3643SOL     OW11827   4.090   5.352   5.277
 3643SOL    HW111828   4.025   5.355   5.353
 3643SOL    HW211829   4.169   5.297   5.302
 3644SOL     OW11830   2.888   0.779   1.831
 3644SOL    HW111831   2.847   0.757   1.919
 3644SOL    HW211832   2.985   0.754   1.832
 3645SOL     OW11833   1.761   4.253   3.800
 3645SOL    HW111834   1.747   4.318   3.725
 3645SOL    HW211835   1.850   4.269   3.843
 3646SOL     OW11836   2.273   4.203   4.687
 3646SOL    HW111837   2.213   4.260   4.742
 3646SOL    HW211838   2.271   4.109   4.720
 3647SOL     OW11839   3.274   6.827   0.254
 3647SOL    HW111840   3.267   6.895   0.181
 3647SOL    HW211841   3.183   6.794   0.278
 3648SOL     OW11842   4.186   5.421   3.350
 3648SOL    HW111843   4.150   5.513   3.365
 3648SOL    HW211844   4.284   5.426   3.334
 3649SOL     OW11845   5.841   2.784   6.880
 3649SOL    HW111846   5.841   2.697   6.930
 3649SOL    HW211847   5.931   2.827   6.888
 3650SOL     OW11848   5.918   5.642   0.212
 3650SOL    HW111849   5.867   5.602   0.137
 3650SOL    HW211850   5.886   5.603   0.299
 3651SOL     OW11851   0.710   2.381   5.857
 3651SOL    HW111852   0.779   2.439   5.814
 3651SOL    HW211853   0.638   2.438   5.897
 3652SOL     OW11854   4.561   1.486   2.377
 3652SOL    HW111855   4.626   1.431   2.325
 3652SOL    HW211856   4.471   1.441   2.376
 3653SOL     OW11857   0.753   1.708   1.283
 3653SOL    HW111858   0.670   1.653   1.280
 3653SOL    HW211859   0.731   1.803   1.262
 3654SOL     OW11860   5.400   0.474   0.790
 3654SOL    HW111861   5.313   0.523   0.794
 3654SOL    HW211862   5.439   0.483   0.699
 3655SOL     OW11863   1.646   2.427   4.250
 3655SOL    HW111864   1.704   2.408   4.329
 3655SOL    HW211865   1.627   2.525   4.246
 3656SOL     OW11866   6.920   6.766   1.890
 3656SOL    HW111867   6.957   6.685   1.845
 3656SOL    HW211868   6.996   6.821   1.926
 3657SOL     OW11869   4.895   6.237   4.914
 3657SOL    HW111870   4.848   6.159   4.955
 3657SOL    HW211871   4.888   6.232   4.814
 3658SOL     OW11872   1.439   4.630   6.155
 3658SOL    HW111873   1.479   4.541   6.177
 3658SOL    HW211874   1.508   4.687   6.110
 3659SOL     OW11875   6.853   1.326   6.397
 3659SOL    HW111876   6.767   1.331   6.347
 3659SOL    HW211877   6.907   1.408   6.378
 3660SOL     OW11878   5.638   5.344   6.262
 3660SOL    HW111879   5.687   5.278   6.205
 3660SOL    HW211880   5.544   5.312   6.276
 3661SOL     OW11881   0.182   2.200   4.836
 3661SOL    HW111882   0.082   2.207   4.829
 3661SOL    HW211883   0.224   2.268   4.776
 3662SOL     OW11884   2.860   1.373   5.641
 3662SOL    HW111885   2.801   1.293   5.634
 3662SOL    HW211886   2.851   1.429   5.558
 3663SOL     OW11887   2.397   2.159   6.489
 3663SOL    HW111888   2.385   2.241   6.544
 3663SOL    HW211889   2.373   2.179   6.394
 3664SOL     OW11890   4.089   1.127   2.192
 3664SOL    HW111891   4.058   1.194   2.124
 3664SOL    HW211892   4.119   1.175   2.274
 3665SOL     OW11893   0.866   5.944   6.060
 3665SOL    HW111894   0.962   5.960   6.037
 3665SOL    HW211895   0.834   6.016   6.121
 3666SOL     OW11896   2.038   2.577   4.749
 3666SOL    HW111897   1.939   2.582   4.734
 3666SOL    HW211898   2.060   2.621   4.836
 3667SOL     OW11899   1.347   0.696   2.343
 3667SOL    HW111900   1.372   0.601   2.322
 3667SOL    HW211901   1.387   0.757   2.275
 3668SOL     OW11902   0.336   0.933   1.768
 3668SOL    HW111903   0.389   0.953   1.685
 3668SOL    HW211904   0.346   1.008   1.833
 3669SOL     OW11905   0.235   1.234   3.768
 3669SOL    HW111906   0.293   1.308   3.734
 3669SOL    HW211907   0.142   1.246   3.734
 3670SOL     OW11908   3.038   5.512   1.864
 3670SOL    HW111909   2.965   5.460   1.819
 3670SOL    HW211910   3.104   5.449   1.904
 3671SOL     OW11911   6.526   0.181   3.553
 3671SOL    HW111912   6.514   0.279   3.534
 3671SOL    HW211913   6.542   0.168   3.651
 3672SOL     OW11914   3.955   6.941   2.722
 3672SOL    HW111915   3.938   6.874   2.794
 3672SOL    HW211916   3.930   0.021   2.755
 3673SOL     OW11917   4.118   5.914   1.008
 3673SOL    HW111918   4.123   6.013   0.994
 3673SOL    HW211919   4.111   5.868   0.920
 3674SOL     OW11920   1.017   4.753   6.107
 3674SOL    HW111921   1.090   4.686   6.119
 3674SOL    HW211922   1.055   4.837   6.069
 3675SOL     OW11923   1.229   0.942   4.005
 3675SOL    HW111924   1.246   1.039   3.987
 3675SOL    HW211925   1.170   0.933   4.086
 3676SOL     OW11926   3.804   1.720   3.947
 3676SOL    HW111927   3.788   1.665   3.865
 3676SOL    HW211928   3.799   1.817   3.923
 3677SOL     OW11929   2.299   0.388   3.937
 3677SOL    HW111930   2.301   0.315   4.005
 3677SOL    HW211931   2.267   0.473   3.980
 3678SOL     OW11932   1.256   0.490   3.675
 3678SOL    HW111933   1.238   0.569   3.615
 3678SOL    HW211934   1.334   0.510   3.734
 3679SOL     OW11935   4.495   0.612   2.730
 3679SOL    HW111936   4.396   0.595   2.726
 3679SOL    HW211937   4.534   0.559   2.805
 3680SOL     OW11938   3.919   1.312   4.540
 3680SOL    HW111939   3.957   1.317   4.448
 3680SOL    HW211940   3.895   1.404   4.571
 3681SOL     OW11941   1.906   5.975   4.696
 3681SOL    HW111942   1.983   6.036   4.714
 3681SOL    HW211943   1.902   5.954   4.598
 3682SOL     OW11944   5.719   1.684   1.511
 3682SOL    HW111945   5.639   1.695   1.571
 3682SOL    HW211946   5.787   1.753   1.534
 3683SOL     OW11947   5.610   1.224   5.698
 3683SOL    HW111948   5.649   1.291   5.635
 3683SOL    HW211949   5.531   1.264   5.744
 3684SOL     OW11950   2.300   6.659   5.670
 3684SOL    HW111951   2.346   6.744   5.645
 3684SOL    HW211952   2.258   6.668   5.760
 3685SOL     OW11953   2.106   6.672   5.466
 3685SOL    HW111954   2.173   6.631   5.527
 3685SOL    HW211955   2.091   6.611   5.388
 3686SOL     OW11956   1.031   4.045   3.704
 3686SOL    HW111957   1.099   3.986   3.660
 3686SOL    HW211958   1.069   4.080   3.789
 3687SOL     OW11959   5.781   5.464   4.407
 3687SOL    HW111960   5.793   5.521   4.488
 3687SOL    HW211961   5.684   5.450   4.390
 3688SOL     OW11962   6.112   2.628   0.566
 3688SOL    HW111963   6.044   2.565   0.531
 3688SOL    HW211964   6.142   2.598   0.657
 3689SOL     OW11965   1.763   6.427   5.796
 3689SOL    HW111966   1.827   6.478   5.738
 3689SOL    HW211967   1.681   6.482   5.810
 3690SOL     OW11968   5.150   5.312   1.193
 3690SOL    HW111969   5.104   5.400   1.184
 3690SOL    HW211970   5.176   5.297   1.288
 3691SOL     OW11971   1.918   2.355   0.435
 3691SOL    HW111972   1.978   2.408   0.375
 3691SOL    HW211973   1.888   2.412   0.511
 3692SOL     OW11974   0.763   3.459   5.915
 3692SOL    HW111975   0.731   3.450   6.010
 3692SOL    HW211976   0.712   3.531   5.869
 3693SOL     OW11977   6.635   1.392   2.302
 3693SOL    HW111978   6.712   1.452   2.277
 3693SOL    HW211979   6.560   1.448   2.337
 3694SOL     OW11980   6.323   0.966   1.871
 3694SOL    HW111981   6.344   0.943   1.966
 3694SOL    HW211982   6.244   0.914   1.840
 3695SOL     OW11983   6.045   3.181   2.624
 3695SOL    HW111984   6.114   3.216   2.560
 3695SOL    HW211985   6.030   3.083   2.607
 3696SOL     OW11986   4.358   0.805   4.517
 3696SOL    HW111987   4.426   0.805   4.591
 3696SOL    HW211988   4.266   0.796   4.557
 3697SOL     OW11989   0.270   6.168   3.237
 3697SOL    HW111990   0.366   6.180   3.211
 3697SOL    HW211991   0.211   6.195   3.161
 3698SOL     OW11992   1.470   0.255   2.976
 3698SOL    HW111993   1.433   0.162   2.986
 3698SOL    HW211994   1.569   0.253   2.988
 3699SOL     OW11995   2.364   2.413   3.727
 3699SOL    HW111996   2.388   2.510   3.729
 3699SOL    HW211997   2.404   2.367   3.807
 3700SOL     OW11998   1.121   5.023   4.044
 3700SOL    HW111999   1.097   5.115   4.015
 3700SOL    HW212000   1.063   4.956   3.996
 3701SOL     OW12001   1.499   0.619   2.576
 3701SOL    HW112002   1.451   0.621   2.488
 3701SOL    HW212003   1.440   0.577   2.645
 3702SOL     OW12004   5.242   4.362   3.614
 3702SOL    HW112005   5.316   4.351   3.548
 3702SOL    HW212006   5.174   4.290   3.600
 3703SOL     OW12007   1.210   1.473   4.449
 3703SOL    HW112008   1.205   1.384   4.404
 3703SOL    HW212009   1.269   1.467   4.529
 3704SOL     OW12010   6.664   2.289   0.837
 3704SOL    HW112011   6.631   2.382   0.850
 3704SOL    HW212012   6.721   2.285   0.755
 3705SOL     OW12013   5.046   4.821   2.859
 3705SOL    HW112014   5.024   4.761   2.782
 3705SOL    HW212015   5.049   4.768   2.943
 3706SOL     OW12016   0.581   3.699   0.478
 3706SOL    HW112017   0.533   3.672   0.395
 3706SOL    HW212018   0.528   3.670   0.558
 3707SOL     OW12019   1.287   5.099   3.691
 3707SOL    HW112020   1.223   5.028   3.719
 3707SOL    HW212021   1.242   5.162   3.628
 3708SOL     OW12022   3.243   6.599   0.914
 3708SOL    HW112023   3.181   6.634   0.984
 3708SOL    HW212024   3.290   6.518   0.949
 3709SOL     OW12025   1.447   1.631   2.395
 3709SOL    HW112026   1.435   1.647   2.297
 3709SOL    HW212027   1.421   1.713   2.446
 3710SOL     OW12028   6.924   4.831   5.379
 3710SOL    HW112029   6.884   4.776   5.453
 3710SOL    HW212030   6.918   4.928   5.402
 3711SOL     OW12031   1.564   5.922   4.254
 3711SOL    HW112032   1.592   5.896   4.162
 3711SOL    HW212033   1.518   5.845   4.298
 3712SOL     OW12034   1.995   5.047   4.612
 3712SOL    HW112035   1.939   5.120   4.574
 3712SOL    HW212036   1.964   5.027   4.705
 3713SOL     OW12037   5.749   6.978   4.296
 3713SOL    HW112038   5.760   6.926   4.211
 3713SOL    HW212039   5.828   6.964   4.355
 3714SOL     OW12040   0.566   4.279   0.864
 3714SOL    HW112041   0.488   4.243   0.914
 3714SOL    HW212042   0.585   4.221   0.784
 3715SOL     OW12043   5.572   5.492   3.433
 3715SOL    HW112044   5.616   5.406   3.406
 3715SOL    HW212045   5.620   5.569   3.391
 3716SOL     OW12046   4.994   5.703   4.141
 3716SOL    HW112047   4.954   5.769   4.076
 3716SOL    HW212048   5.036   5.628   4.090
 3717SOL     OW12049   4.287   1.184   0.971
 3717SOL    HW112050   4.271   1.250   0.897
 3717SOL    HW212051   4.377   1.201   1.011
 3718SOL     OW12052   6.899   0.295   5.511
 3718SOL    HW112053   6.923   0.376   5.565
 3718SOL    HW212054   6.888   0.217   5.573
 3719SOL     OW12055   3.517   3.936   6.699
 3719SOL    HW112056   3.548   3.986   6.780
 3719SOL    HW212057   3.505   3.839   6.722
 3720SOL     OW12058   0.264   2.947   1.383
 3720SOL    HW112059   0.254   2.906   1.292
 3720SOL    HW212060   0.287   2.875   1.449
 3721SOL     OW12061   6.286   5.567   5.920
 3721SOL    HW112062   6.309   5.654   5.964
 3721SOL    HW212063   6.209   5.525   5.969
 3722SOL     OW12064   4.821   6.139   3.420
 3722SOL    HW112065   4.846   6.203   3.347
 3722SOL    HW212066   4.821   6.046   3.384
 3723SOL     OW12067   4.682   3.566   0.447
 3723SOL    HW112068   4.729   3.528   0.526
 3723SOL    HW212069   4.706   3.515   0.365
 3724SOL     OW12070   1.300   4.767   4.796
 3724SOL    HW112071   1.265   4.859   4.817
 3724SOL    HW212072   1.382   4.750   4.851
 3725SOL     OW12073   0.716   5.472   6.864
 3725SOL    HW112074   0.617   5.460   6.869
 3725SOL    HW212075   0.739   5.531   6.787
 3726SOL     OW12076   6.035   3.701   4.545
 3726SOL    HW112077   5.995   3.682   4.635
 3726SOL    HW212078   6.107   3.634   4.526
 3727SOL     OW12079   6.268   3.884   3.721
 3727SOL    HW112080   6.271   3.984   3.716
 3727SOL    HW212081   6.205   3.857   3.793
 3728SOL     OW12082   3.382   2.648   0.133
 3728SOL    HW112083   3.345   2.555   0.139
 3728SOL    HW212084   3.450   2.661   0.205
 3729SOL     OW12085   0.685   0.414   5.422
 3729SOL    HW112086   0.642   0.332   5.385
 3729SOL    HW212087   0.743   0.390   5.500
 3730SOL     OW12088   3.654   6.298   4.196
 3730SOL    HW112089   3.689   6.205   4.186
 3730SOL    HW212090   3.727   6.364   4.176
 3731SOL     OW12091   0.498   2.123   6.801
 3731SOL    HW112092   0.512   2.032   6.838
 3731SOL    HW212093   0.424   2.168   6.851
 3732SOL     OW12094   3.134   2.212   6.394
 3732SOL    HW112095   3.226   2.182   6.369
 3732SOL    HW212096   3.135   2.310   6.413
 3733SOL     OW12097   1.905   1.546   3.664
 3733SOL    HW112098   1.806   1.553   3.655
 3733SOL    HW212099   1.934   1.453   3.642
 3734SOL     OW12100   4.268   6.703   0.734
 3734SOL    HW112101   4.292   6.759   0.813
 3734SOL    HW212102   4.349   6.689   0.678
 3735SOL     OW12103   4.158   0.082   2.387
 3735SOL    HW112104   4.109   0.165   2.416
 3735SOL    HW212105   4.096   0.024   2.334
 3736SOL     OW12106   6.701   1.086   1.219
 3736SOL    HW112107   6.642   1.066   1.297
 3736SOL    HW212108   6.729   1.001   1.176
 3737SOL     OW12109   0.049   2.785   2.908
 3737SOL    HW112110   0.029   2.848   2.984
 3737SOL    HW212111   0.077   2.837   2.828
 3738SOL     OW12112   6.846   6.688   1.266
 3738SOL    HW112113   6.945   6.677   1.255
 3738SOL    HW212114   6.828   6.736   1.352
 3739SOL     OW12115   3.112   3.731   0.668
 3739SOL    HW112116   3.138   3.646   0.714
 3739SOL    HW212117   3.089   3.800   0.736
 3740SOL     OW12118   5.085   5.420   6.439
 3740SOL    HW112119   5.062   5.358   6.365
 3740SOL    HW212120   5.043   5.510   6.423
 3741SOL     OW12121   5.200   3.574   0.196
 3741SOL    HW112122   5.293   3.602   0.173
 3741SOL    HW212123   5.145   3.656   0.215
 3742SOL     OW12124   3.779   5.546   6.894
 3742SOL    HW112125   3.835   5.504   6.823
 3742SOL    HW212126   3.775   5.486   6.974
 3743SOL     OW12127   4.323   3.275   1.659
 3743SOL    HW112128   4.231   3.254   1.628
 3743SOL    HW212129   4.333   3.375   1.668
 3744SOL     OW12130   0.598   0.308   1.772
 3744SOL    HW112131   0.589   0.240   1.844
 3744SOL    HW212132   0.508   0.342   1.746
 3745SOL     OW12133   5.067   3.645   2.331
 3745SOL    HW112134   5.024   3.735   2.323
 3745SOL    HW212135   5.163   3.651   2.302
 3746SOL     OW12136   6.443   0.553   4.747
 3746SOL    HW112137   6.384   0.504   4.811
 3746SOL    HW212138   6.405   0.645   4.731
 3747SOL     OW12139   3.157   6.560   5.713
 3747SOL    HW112140   3.125   6.617   5.637
 3747SOL    HW212141   3.099   6.576   5.793
 3748SOL     OW12142   5.213   1.551   2.936
 3748SOL    HW112143   5.294   1.570   2.991
 3748SOL    HW212144   5.138   1.609   2.966
 3749SOL     OW12145   0.058   6.593   2.558
 3749SOL    HW112146   0.134   6.599   2.493
 3749SOL    HW212147   6.994   6.649   2.526
 3750SOL     OW12148   5.886   4.263   0.500
 3750SOL    HW112149   5.926   4.214   0.578
 3750SOL    HW212150   5.865   4.357   0.527
 3751SOL     OW12151   2.085   3.831   2.390
 3751SOL    HW112152   1.989   3.841   2.416
 3751SOL    HW212153   2.094   3.756   2.324
 3752SOL     OW12154   0.642   6.077   6.750
 3752SOL    HW112155   0.639   6.151   6.683
 3752SOL    HW212156   0.626   6.115   6.841
 3753SOL     OW12157   6.483   6.484   4.383
 3753SOL    HW112158   6.400   6.428   4.374
 3753SOL    HW212159   6.559   6.426   4.412
 3754SOL     OW12160   6.541   6.435   1.155
 3754SOL    HW112161   6.639   6.423   1.136
 3754SOL    HW212162   6.523   6.530   1.180
 3755SOL     OW12163   5.163   3.890   3.492
 3755SOL    HW112164   5.204   3.801   3.508
 3755SOL    HW212165   5.064   3.884   3.506
 3756SOL     OW12166   3.172   0.469   6.956
 3756SOL    HW112167   3.259   0.487   7.003
 3756SOL    HW212168   3.188   0.401   6.883
 3757SOL     OW12169   2.860   5.442   6.615
 3757SOL    HW112170   2.896   5.490   6.535
 3757SOL    HW212171   2.842   5.508   6.688
 3758SOL     OW12172   2.178   1.441   4.211
 3758SOL    HW112173   2.215   1.500   4.283
 3758SOL    HW212174   2.087   1.409   4.238
 3759SOL     OW12175   4.729   4.714   6.154
 3759SOL    HW112176   4.814   4.743   6.111
 3759SOL    HW212177   4.657   4.781   6.135
 3760SOL     OW12178   1.342   2.561   4.935
 3760SOL    HW112179   1.246   2.562   4.960
 3760SOL    HW212180   1.368   2.650   4.898
 3761SOL     OW12181   0.445   6.314   4.311
 3761SOL    HW112182   0.347   6.329   4.325
 3761SOL    HW212183   0.461   6.217   4.290
 3762SOL     OW12184   0.250   4.017   0.351
 3762SOL    HW112185   0.321   4.034   0.420
 3762SOL    HW212186   0.162   4.003   0.396
 3763SOL     OW12187   6.914   3.506   6.457
 3763SOL    HW112188   6.899   3.411   6.428
 3763SOL    HW212189   7.010   3.530   6.441
 3764SOL     OW12190   2.575   6.693   3.441
 3764SOL    HW112191   2.540   6.766   3.500
 3764SOL    HW212192   2.660   6.724   3.398
 3765SOL     OW12193   6.022   0.703   4.675
 3765SOL    HW112194   6.063   0.642   4.607
 3765SOL    HW212195   5.976   0.649   4.745
 3766SOL     OW12196   1.557   0.765   4.682
 3766SOL    HW112197   1.616   0.795   4.606
 3766SOL    HW212198   1.594   0.800   4.768
 3767SOL     OW12199   1.663   5.196   1.034
 3767SOL    HW112200   1.624   5.207   0.942
 3767SOL    HW212201   1.609   5.249   1.099
 3768SOL     OW12202   4.633   6.829   0.358
 3768SOL    HW112203   4.653   6.924   0.337
 3768SOL    HW212204   4.574   6.791   0.287
 3769SOL     OW12205   4.500   6.568   5.241
 3769SOL    HW112206   4.532   6.475   5.262
 3769SOL    HW212207   4.503   6.623   5.324
 3770SOL     OW12208   1.805   1.668   6.689
 3770SOL    HW112209   1.790   1.707   6.599
 3770SOL    HW212210   1.899   1.685   6.718
 3771SOL     OW12211   5.439   2.546   6.340
 3771SOL    HW112212   5.407   2.578   6.251
 3771SOL    HW212213   5.539   2.544   6.341
 3772SOL     OW12214   5.457   1.129   2.022
 3772SOL    HW112215   5.378   1.177   2.060
 3772SOL    HW212216   5.528   1.196   2.000
 3773SOL     OW12217   6.624   2.822   6.461
 3773SOL    HW112218   6.718   2.814   6.425
 3773SOL    HW212219   6.624   2.879   6.543
 3774SOL     OW12220   0.293   0.880   1.459
 3774SOL    HW112221   0.342   0.967   1.465
 3774SOL    HW212222   0.199   0.892   1.489
 3775SOL     OW12223   5.771   3.891   3.825
 3775SOL    HW112224   5.692   3.941   3.859
 3775SOL    HW212225   5.777   3.802   3.871
 3776SOL     OW12226   2.535   3.612   0.981
 3776SOL    HW112227   2.469   3.686   0.968
 3776SOL    HW212228   2.594   3.605   0.901
 3777SOL     OW12229   2.166   4.386   4.293
 3777SOL    HW112230   2.258   4.403   4.329
 3777SOL    HW212231   2.161   4.417   4.198
 3778SOL     OW12232   2.899   5.872   1.797
 3778SOL    HW112233   2.966   5.844   1.865
 3778SOL    HW212234   2.850   5.792   1.762
 3779SOL     OW12235   2.696   5.232   6.164
 3779SOL    HW112236   2.642   5.226   6.248
 3779SOL    HW212237   2.791   5.208   6.183
 3780SOL     OW12238   3.177   6.517   5.349
 3780SOL    HW112239   3.161   6.447   5.280
 3780SOL    HW212240   3.274   6.541   5.350
 3781SOL     OW12241   2.888   5.769   4.772
 3781SOL    HW112242   2.917   5.679   4.740
 3781SOL    HW212243   2.960   5.836   4.754
 3782SOL     OW12244   2.148   1.690   3.636
 3782SOL    HW112245   2.059   1.645   3.648
 3782SOL    HW212246   2.159   1.761   3.705
 3783SOL     OW12247   5.139   6.211   5.551
 3783SOL    HW112248   5.082   6.150   5.496
 3783SOL    HW212249   5.171   6.162   5.632
 3784SOL     OW12250   5.275   1.462   3.540
 3784SOL    HW112251   5.259   1.561   3.535
 3784SOL    HW212252   5.273   1.434   3.636
 3785SOL     OW12253   1.997   1.757   1.190
 3785SOL    HW112254   2.077   1.777   1.246
 3785SOL    HW212255   2.015   1.785   1.096
 3786SOL     OW12256   3.144   5.100   2.919
 3786SOL    HW112257   3.098   5.012   2.917
 3786SOL    HW212258   3.121   5.152   2.836
 3787SOL     OW12259   3.824   1.399   3.895
 3787SOL    HW112260   3.728   1.413   3.919
 3787SOL    HW212261   3.849   1.460   3.819
 3788SOL     OW12262   5.490   3.093   2.316
 3788SOL    HW112263   5.562   3.111   2.384
 3788SOL    HW212264   5.500   3.000   2.281
 3789SOL     OW12265   1.791   5.076   3.501
 3789SOL    HW112266   1.792   5.043   3.595
 3789SOL    HW212267   1.867   5.035   3.450
 3790SOL     OW12268   1.876   3.266   3.557
 3790SOL    HW112269   1.827   3.303   3.636
 3790SOL    HW212270   1.973   3.287   3.565
 3791SOL     OW12271   4.667   6.867   1.344
 3791SOL    HW112272   4.658   6.967   1.351
 3791SOL    HW212273   4.644   6.825   1.432
 3792SOL     OW12274   6.271   6.523   5.345
 3792SOL    HW112275   6.173   6.504   5.348
 3792SOL    HW212276   6.321   6.437   5.361
 3793SOL     OW12277   1.782   0.968   2.843
 3793SOL    HW112278   1.752   1.012   2.928
 3793SOL    HW212279   1.728   1.003   2.767
 3794SOL     OW12280   4.554   6.079   1.603
 3794SOL    HW112281   4.461   6.055   1.632
 3794SOL    HW212282   4.554   6.102   1.506
 3795SOL     OW12283   5.512   6.926   6.344
 3795SOL    HW112284   5.597   6.876   6.334
 3795SOL    HW212285   5.515   6.980   6.428
 3796SOL     OW12286   1.620   2.853   1.998
 3796SOL    HW112287   1.577   2.846   1.908
 3796SOL    HW212288   1.719   2.844   1.988
 3797SOL     OW12289   0.384   4.980   3.058
 3797SOL    HW112290   0.446   4.955   2.983
 3797SOL    HW212291   0.350   4.897   3.103
 3798SOL     OW12292   1.854   5.068   2.384
 3798SOL    HW112293   1.854   4.987   2.325
 3798SOL    HW212294   1.882   5.041   2.476
 3799SOL     OW12295   2.012   0.463   5.362
 3799SOL    HW112296   2.090   0.489   5.306
 3799SOL    HW212297   2.013   0.515   5.447
 3800SOL     OW12298   4.734   2.528   4.546
 3800SOL    HW112299   4.695   2.564   4.461
 3800SOL    HW212300   4.675   2.554   4.623
 3801SOL     OW12301   0.284   6.781   6.134
 3801SOL    HW112302   0.346   6.818   6.203
 3801SOL    HW212303   0.331   6.710   6.081
 3802SOL     OW12304   1.505   1.567   5.361
 3802SOL    HW112305   1.427   1.548   5.301
 3802SOL    HW212306   1.587   1.526   5.322
 3803SOL     OW12307   3.402   1.004   1.593
 3803SOL    HW112308   3.412   0.960   1.504
 3803SOL    HW212309   3.365   1.096   1.581
 3804SOL     OW12310   4.699   2.135   4.181
 3804SOL    HW112311   4.710   2.159   4.085
 3804SOL    HW212312   4.698   2.035   4.190
 3805SOL     OW12313   2.722   4.406   1.645
 3805SOL    HW112314   2.811   4.437   1.680
 3805SOL    HW212315   2.654   4.413   1.718
 3806SOL     OW12316   2.795   1.918   7.007
 3806SOL    HW112317   2.753   2.001   6.972
 3806SOL    HW212318   2.737   1.879   0.067
 3807SOL     OW12319   1.495   6.542   3.405
 3807SOL    HW112320   1.529   6.566   3.314
 3807SOL    HW212321   1.531   6.453   3.432
 3808SOL     OW12322   3.108   0.345   1.583
 3808SOL    HW112323   3.161   0.260   1.581
 3808SOL    HW212324   3.170   0.423   1.584
 3809SOL     OW12325   5.395   1.299   6.647
 3809SOL    HW112326   5.460   1.308   6.723
 3809SOL    HW212327   5.344   1.214   6.657
 3810SOL     OW12328   3.167   2.921   5.003
 3810SOL    HW112329   3.138   2.865   4.925
 3810SOL    HW212330   3.088   2.968   5.041
 3811SOL     OW12331   0.742   5.442   5.112
 3811SOL    HW112332   0.732   5.467   5.208
 3811SOL    HW212333   0.652   5.419   5.074
 3812SOL     OW12334   5.635   1.631   5.275
 3812SOL    HW112335   5.593   1.603   5.189
 3812SOL    HW212336   5.563   1.648   5.343
 3813SOL     OW12337   3.198   5.225   0.584
 3813SOL    HW112338   3.257   5.257   0.658
 3813SOL    HW212339   3.219   5.129   0.565
 3814SOL     OW12340   0.235   5.880   2.337
 3814SOL    HW112341   0.136   5.884   2.330
 3814SOL    HW212342   0.276   5.909   2.250
 3815SOL     OW12343   5.164   2.279   1.903
 3815SOL    HW112344   5.179   2.259   1.999
 3815SOL    HW212345   5.118   2.201   1.860
 3816SOL     OW12346   1.458   0.218   0.974
 3816SOL    HW112347   1.541   0.199   0.922
 3816SOL    HW212348   1.483   0.244   1.067
 3817SOL     OW12349   5.455   2.151   5.434
 3817SOL    HW112350   5.499   2.175   5.520
 3817SOL    HW212351   5.368   2.105   5.453
 3818SOL     OW12352   4.737   5.479   1.588
 3818SOL    HW112353   4.718   5.577   1.589
 3818SOL    HW212354   4.827   5.462   1.547
 3819SOL     OW12355   5.433   4.921   0.240
 3819SOL    HW112356   5.385   4.842   0.277
 3819SOL    HW212357   5.487   4.965   0.313
 3820SOL     OW12358   5.117   6.507   4.564
 3820SOL    HW112359   5.128   6.470   4.472
 3820SOL    HW212360   5.042   6.459   4.611
 3821SOL     OW12361   1.214   3.885   2.092
 3821SOL    HW112362   1.240   3.859   2.185
 3821SOL    HW212363   1.197   3.803   2.038
 3822SOL     OW12364   2.741   5.676   1.168
 3822SOL    HW112365   2.833   5.660   1.204
 3822SOL    HW212366   2.745   5.688   1.069
 3823SOL     OW12367   3.312   2.863   5.479
 3823SOL    HW112368   3.324   2.874   5.380
 3823SOL    HW212369   3.272   2.773   5.498
 3824SOL     OW12370   0.017   2.255   5.866
 3824SOL    HW112371   0.095   2.275   5.806
 3824SOL    HW212372   6.974   2.338   5.879
 3825SOL     OW12373   6.890   6.839   6.794
 3825SOL    HW112374   6.990   6.848   6.792
 3825SOL    HW212375   6.850   6.922   6.833
 3826SOL     OW12376   6.731   2.903   1.736
 3826SOL    HW112377   6.638   2.888   1.769
 3826SOL    HW212378   6.780   2.961   1.801
 3827SOL     OW12379   4.119   3.088   1.116
 3827SOL    HW112380   4.047   3.127   1.173
 3827SOL    HW212381   4.195   3.057   1.174
 3828SOL     OW12382   4.823   1.166   2.804
 3828SOL    HW112383   4.853   1.071   2.798
 3828SOL    HW212384   4.849   1.204   2.893
 3829SOL     OW12385   2.266   4.991   4.304
 3829SOL    HW112386   2.334   4.935   4.257
 3829SOL    HW212387   2.187   5.005   4.243
 3830SOL     OW12388   2.801   1.033   5.325
 3830SOL    HW112389   2.742   0.968   5.277
 3830SOL    HW212390   2.884   1.047   5.272
 3831SOL     OW12391   3.760   1.328   1.863
 3831SOL    HW112392   3.703   1.250   1.840
 3831SOL    HW212393   3.702   1.408   1.882
 3832SOL     OW12394   6.531   0.445   2.029
 3832SOL    HW112395   6.489   0.514   1.971
 3832SOL    HW212396   6.563   0.488   2.114
 3833SOL     OW12397   1.580   4.430   0.090
 3833SOL    HW112398   1.486   4.414   0.120
 3833SOL    HW212399   1.641   4.363   0.134
 3834SOL     OW12400   2.745   1.880   6.671
 3834SOL    HW112401   2.765   1.838   6.759
 3834SOL    HW212402   2.761   1.979   6.677
 3835SOL     OW12403   3.648   5.211   5.211
 3835SOL    HW112404   3.727   5.267   5.184
 3835SOL    HW212405   3.634   5.139   5.144
 3836SOL     OW12406   0.904   3.976   6.015
 3836SOL    HW112407   0.956   3.969   5.930
 3836SOL    HW212408   0.936   4.056   6.067
 3837SOL     OW12409   3.505   2.817   0.687
 3837SOL    HW112410   3.443   2.888   0.654
 3837SOL    HW212411   3.586   2.814   0.629
 3838SOL     OW12412   5.910   3.008   5.398
 3838SOL    HW112413   5.972   3.056   5.337
 3838SOL    HW212414   5.847   2.951   5.345
 3839SOL     OW12415   6.252   6.658   5.890
 3839SOL    HW112416   6.340   6.614   5.873
 3839SOL    HW212417   6.204   6.610   5.964
 3840SOL     OW12418   1.807   1.090   4.251
 3840SOL    HW112419   1.848   1.017   4.306
 3840SOL    HW212420   1.708   1.091   4.267
 3841SOL     OW12421   0.665   3.674   4.526
 3841SOL    HW112422   0.713   3.747   4.476
 3841SOL    HW212423   0.609   3.622   4.462
 3842SOL     OW12424   0.513   5.175   6.646
 3842SOL    HW112425   0.416   5.185   6.666
 3842SOL    HW212426   0.567   5.195   6.728
 3843SOL     OW12427   5.633   3.063   1.118
 3843SOL    HW112428   5.544   3.074   1.162
 3843SOL    HW212429   5.625   3.091   1.022
 3844SOL     OW12430   2.066   4.704   6.420
 3844SOL    HW112431   2.133   4.652   6.473
 3844SOL    HW212432   2.110   4.741   6.338
 3845SOL     OW12433   3.452   4.104   3.994
 3845SOL    HW112434   3.433   4.017   4.040
 3845SOL    HW212435   3.397   4.110   3.911
 3846SOL     OW12436   0.247   4.870   4.628
 3846SOL    HW112437   0.179   4.907   4.692
 3846SOL    HW212438   0.200   4.829   4.549
 3847SOL     OW12439   0.749   0.336   0.912
 3847SOL    HW112440   0.823   0.391   0.874
 3847SOL    HW212441   0.768   0.315   1.008
 3848SOL     OW12442   2.935   5.411   1.200
 3848SOL    HW112443   2.846   5.383   1.163
 3848SOL    HW212444   3.002   5.339   1.187
 3849SOL     OW12445   1.079   2.138   5.898
 3849SOL    HW112446   1.027   2.220   5.921
 3849SOL    HW212447   1.154   2.163   5.838
 3850SOL     OW12448   2.769   3.900   1.615
 3850SOL    HW112449   2.849   3.846   1.640
 3850SOL    HW212450   2.798   3.993   1.592
 3851SOL     OW12451   2.344   2.558   1.869
 3851SOL    HW112452   2.364   2.656   1.856
 3851SOL    HW212453   2.426   2.511   1.899
 3852SOL     OW12454   3.773   0.927   4.725
 3852SOL    HW112455   3.819   0.963   4.805
 3852SOL    HW212456   3.732   0.838   4.747
 3853SOL     OW12457   1.453   3.056   1.673
 3853SOL    HW112458   1.522   3.089   1.607
 3853SOL    HW212459   1.381   3.008   1.623
 3854SOL     OW12460   1.097   3.105   3.812
 3854SOL    HW112461   1.196   3.097   3.823
 3854SOL    HW212462   1.052   3.067   3.892
 3855SOL     OW12463   6.605   2.255   5.611
 3855SOL    HW112464   6.657   2.322   5.665
 3855SOL    HW212465   6.611   2.278   5.514
 3856SOL     OW12466   0.623   6.512   5.979
 3856SOL    HW112467   0.631   6.412   5.970
 3856SOL    HW212468   0.568   6.534   6.060
 3857SOL     OW12469   0.497   6.916   5.771
 3857SOL    HW112470   0.447   6.840   5.731
 3857SOL    HW212471   0.435   6.971   5.827
 3858SOL     OW12472   2.390   5.575   6.932
 3858SOL    HW112473   2.443   5.545   0.001
 3858SOL    HW212474   2.395   5.505   6.861
 3859SOL     OW12475   0.011   2.330   2.035
 3859SOL    HW112476   0.061   2.322   1.949
 3859SOL    HW212477   6.999   2.426   2.051
 3860SOL     OW12478   2.263   6.409   5.488
 3860SOL    HW112479   2.277   6.473   5.413
 3860SOL    HW212480   2.210   6.330   5.455
 3861SOL     OW12481   4.215   4.521   0.428
 3861SOL    HW112482   4.159   4.603   0.440
 3861SOL    HW212483   4.306   4.548   0.397
 3862SOL     OW12484   1.510   5.673   5.802
 3862SOL    HW112485   1.433   5.614   5.777
 3862SOL    HW212486   1.479   5.745   5.864
 3863SOL     OW12487   3.348   2.763   1.099
 3863SOL    HW112488   3.301   2.827   1.160
 3863SOL    HW212489   3.411   2.706   1.152
 3864SOL     OW12490   3.752   2.208   0.307
 3864SOL    HW112491   3.839   2.214   0.260
 3864SOL    HW212492   3.689   2.149   0.256
 3865SOL     OW12493   4.747   0.303   2.745
 3865SOL    HW112494   4.654   0.305   2.781
 3865SOL    HW212495   4.760   0.221   2.689
 3866SOL     OW12496   4.112   6.336   6.566
 3866SOL    HW112497   4.160   6.253   6.592
 3866SOL    HW212498   4.025   6.342   6.615
 3867SOL     OW12499   2.047   2.842   3.804
 3867SOL    HW112500   2.000   2.755   3.791
 3867SOL    HW212501   2.042   2.895   3.719
 3868SOL     OW12502   1.439   6.010   2.573
 3868SOL    HW112503   1.436   5.937   2.506
 3868SOL    HW212504   1.348   6.050   2.584
 3869SOL     OW12505   1.434   2.270   3.369
 3869SOL    HW112506   1.446   2.232   3.277
 3869SOL    HW212507   1.464   2.365   3.370
 3870SOL     OW12508   2.938   5.041   0.427
 3870SOL    HW112509   2.981   4.964   0.379
 3870SOL    HW212510   3.006   5.113   0.441
 3871SOL     OW12511   2.452   0.903   3.897
 3871SOL    HW112512   2.519   0.971   3.866
 3871SOL    HW212513   2.388   0.946   3.961
 3872SOL     OW12514   4.256   3.245   0.048
 3872SOL    HW112515   4.261   3.256   6.960
 3872SOL    HW212516   4.341   3.277   0.089
 3873SOL     OW12517   5.084   4.897   2.093
 3873SOL    HW112518   5.005   4.903   2.032
 3873SOL    HW212519   5.053   4.869   2.184
 3874SOL     OW12520   4.093   6.710   5.919
 3874SOL    HW112521   4.169   6.711   5.855
 3874SOL    HW212522   4.058   6.616   5.928
 3875SOL     OW12523   2.275   4.522   0.644
 3875SOL    HW112524   2.362   4.509   0.596
 3875SOL    HW212525   2.209   4.454   0.612
 3876SOL     OW12526   5.203   3.751   2.776
 3876SOL    HW112527   5.161   3.756   2.867
 3876SOL    HW212528   5.290   3.800   2.776
 3877SOL     OW12529   5.278   1.251   2.213
 3877SOL    HW112530   5.196   1.195   2.202
 3877SOL    HW212531   5.253   1.337   2.258
 3878SOL     OW12532   3.186   5.877   5.043
 3878SOL    HW112533   3.258   5.828   4.995
 3878SOL    HW212534   3.185   5.972   5.013
 3879SOL     OW12535   3.667   6.232   0.840
 3879SOL    HW112536   3.580   6.223   0.791
 3879SOL    HW212537   3.700   6.326   0.833
 3880SOL     OW12538   5.315   2.754   4.021
 3880SOL    HW112539   5.323   2.698   4.103
 3880SOL    HW212540   5.306   2.695   3.940
 3881SOL     OW12541   0.741   4.725   0.746
 3881SOL    HW112542   0.685   4.709   0.664
 3881SOL    HW212543   0.708   4.668   0.821
 3882SOL     OW12544   0.104   6.925   6.566
 3882SOL    HW112545   0.178   6.860   6.581
 3882SOL    HW212546   0.140   0.007   6.571
 3883SOL     OW12547   3.051   1.090   5.751
 3883SOL    HW112548   3.049   1.186   5.777
 3883SOL    HW212549   2.958   1.052   5.754
 3884SOL     OW12550   1.660   4.713   5.908
 3884SOL    HW112551   1.612   4.626   5.905
 3884SOL    HW212552   1.758   4.699   5.895
 3885SOL     OW12553   0.358   1.739   4.933
 3885SOL    HW112554   0.367   1.799   4.854
 3885SOL    HW212555   0.415   1.657   4.918
 3886SOL     OW12556   6.950   6.044   4.986
 3886SOL    HW112557   6.890   6.123   4.996
 3886SOL    HW212558   6.920   5.988   4.908
 3887SOL     OW12559   5.160   2.274   5.120
 3887SOL    HW112560   5.257   2.273   5.143
 3887SOL    HW212561   5.124   2.367   5.131
 3888SOL     OW12562   5.862   1.896   1.778
 3888SOL    HW112563   5.787   1.889   1.843
 3888SOL    HW212564   5.866   1.989   1.742
 3889SOL     OW12565   0.078   5.488   6.935
 3889SOL    HW112566   0.133   5.532   6.864
 3889SOL    HW212567   0.110   5.515   0.014
 3890SOL     OW12568   6.324   3.672   1.138
 3890SOL    HW112569   6.304   3.762   1.100
 3890SOL    HW212570   6.272   3.659   1.222
 3891SOL     OW12571   5.579   5.220   5.939
 3891SOL    HW112572   5.612   5.126   5.945
 3891SOL    HW212573   5.656   5.281   5.919
 3892SOL     OW12574   5.278   6.467   3.890
 3892SOL    HW112575   5.308   6.562   3.901
 3892SOL    HW212576   5.332   6.423   3.818
 3893SOL     OW12577   3.024   6.183   4.192
 3893SOL    HW112578   3.036   6.154   4.097
 3893SOL    HW212579   2.981   6.273   4.194
 3894SOL     OW12580   5.090   5.050   6.630
 3894SOL    HW112581   5.080   4.965   6.578
 3894SOL    HW212582   5.175   5.096   6.603
 3895SOL     OW12583   1.711   1.801   5.916
 3895SOL    HW112584   1.809   1.782   5.913
 3895SOL    HW212585   1.668   1.765   5.834
 3896SOL     OW12586   6.679   2.523   5.707
 3896SOL    HW112587   6.696   2.621   5.699
 3896SOL    HW212588   6.745   2.483   5.771
 3897SOL     OW12589   3.572   6.793   2.705
 3897SOL    HW112590   3.502   6.854   2.667
 3897SOL    HW212591   3.647   6.784   2.639
 3898SOL     OW12592   3.383   4.172   4.683
 3898SOL    HW112593   3.310   4.162   4.751
 3898SOL    HW212594   3.364   4.115   4.604
 3899SOL     OW12595   5.290   1.517   5.226
 3899SOL    HW112596   5.327   1.577   5.156
 3899SOL    HW212597   5.194   1.540   5.242
 3900SOL     OW12598   6.865   2.430   4.188
 3900SOL    HW112599   6.832   2.344   4.150
 3900SOL    HW212600   6.914   2.412   4.274
 3901SOL     OW12601   2.469   5.647   4.766
 3901SOL    HW112602   2.377   5.638   4.727
 3901SOL    HW212603   2.521   5.563   4.748
 3902SOL     OW12604   3.871   4.747   1.797
 3902SOL    HW112605   3.776   4.748   1.825
 3902SOL    HW212606   3.881   4.692   1.714
 3903SOL     OW12607   4.116   2.552   6.053
 3903SOL    HW112608   4.158   2.559   6.143
 3903SOL    HW212609   4.127   2.459   6.018
 3904SOL     OW12610   2.542   5.869   0.682
 3904SOL    HW112611   2.497   5.782   0.699
 3904SOL    HW212612   2.617   5.856   0.617
 3905SOL     OW12613   0.506   0.365   5.841
 3905SOL    HW112614   0.541   0.309   5.766
 3905SOL    HW212615   0.406   0.368   5.837
 3906SOL     OW12616   0.941   5.920   5.049
 3906SOL    HW112617   1.008   5.909   5.122
 3906SOL    HW212618   0.864   5.975   5.082
 3907SOL     OW12619   1.198   1.314   4.754
 3907SOL    HW112620   1.250   1.396   4.732
 3907SOL    HW212621   1.235   1.236   4.703
 3908SOL     OW12622   2.569   1.070   4.335
 3908SOL    HW112623   2.508   1.109   4.266
 3908SOL    HW212624   2.515   1.018   4.401
 3909SOL     OW12625   5.203   2.734   1.653
 3909SOL    HW112626   5.207   2.652   1.710
 3909SOL    HW212627   5.295   2.770   1.638
 3910SOL     OW12628   3.599   2.279   1.219
 3910SOL    HW112629   3.680   2.262   1.164
 3910SOL    HW212630   3.520   2.233   1.178
 3911SOL     OW12631   6.478   0.982   1.392
 3911SOL    HW112632   6.379   0.977   1.383
 3911SOL    HW212633   6.514   0.891   1.413
 3912SOL     OW12634   3.938   3.063   6.807
 3912SOL    HW112635   3.935   3.111   6.895
 3912SOL    HW212636   4.032   3.059   6.774
 3913SOL     OW12637   4.032   5.668   1.583
 3913SOL    HW112638   4.045   5.757   1.538
 3913SOL    HW212639   4.117   5.616   1.579
 3914SOL     OW12640   6.685   1.528   6.922
 3914SOL    HW112641   6.704   1.509   6.826
 3914SOL    HW212642   6.753   1.483   6.979
 3915SOL     OW12643   5.198   6.219   5.225
 3915SOL    HW112644   5.146   6.139   5.256
 3915SOL    HW212645   5.136   6.296   5.209
 3916SOL     OW12646   2.269   1.917   2.669
 3916SOL    HW112647   2.353   1.899   2.618
 3916SOL    HW212648   2.280   1.887   2.764
 3917SOL     OW12649   3.429   4.587   1.160
 3917SOL    HW112650   3.333   4.612   1.162
 3917SOL    HW212651   3.483   4.658   1.204
 3918SOL     OW12652   4.788   0.903   6.766
 3918SOL    HW112653   4.753   0.963   6.693
 3918SOL    HW212654   4.729   0.822   6.773
 3919SOL     OW12655   4.600   6.180   2.454
 3919SOL    HW112656   4.546   6.231   2.387
 3919SOL    HW212657   4.559   6.090   2.468
 3920SOL     OW12658   3.299   1.635   5.380
 3920SOL    HW112659   3.203   1.644   5.352
 3920SOL    HW212660   3.303   1.587   5.468
 3921SOL     OW12661   0.163   2.912   6.642
 3921SOL    HW112662   0.128   2.869   6.725
 3921SOL    HW212663   0.250   2.871   6.617
 3922SOL     OW12664   5.050   4.079   3.043
 3922SOL    HW112665   4.978   4.030   2.994
 3922SOL    HW212666   5.045   4.176   3.022
 3923SOL     OW12667   4.974   1.451   1.980
 3923SOL    HW112668   4.933   1.465   1.890
 3923SOL    HW212669   5.073   1.462   1.974
 3924SOL     OW12670   5.626   5.383   3.886
 3924SOL    HW112671   5.591   5.342   3.802
 3924SOL    HW212672   5.628   5.314   3.959
 3925SOL     OW12673   5.256   5.602   1.120
 3925SOL    HW112674   5.206   5.583   1.035
 3925SOL    HW212675   5.342   5.551   1.120
 3926SOL     OW12676   0.827   5.529   4.630
 3926SOL    HW112677   0.864   5.622   4.641
 3926SOL    HW212678   0.730   5.535   4.605
 3927SOL     OW12679   5.806   1.665   6.007
 3927SOL    HW112680   5.869   1.737   5.978
 3927SOL    HW212681   5.859   1.584   6.034
 3928SOL     OW12682   3.451   5.678   1.981
 3928SOL    HW112683   3.516   5.748   1.952
 3928SOL    HW212684   3.486   5.630   2.061
 3929SOL     OW12685   0.685   1.707   5.619
 3929SOL    HW112686   0.688   1.729   5.521
 3929SOL    HW212687   0.666   1.791   5.671
 3930SOL     OW12688   2.125   4.530   4.027
 3930SOL    HW112689   2.042   4.585   4.025
 3930SOL    HW212690   2.178   4.548   3.944
 3931SOL     OW12691   1.525   2.047   0.387
 3931SOL    HW112692   1.605   2.043   0.447
 3931SOL    HW212693   1.459   2.113   0.425
 3932SOL     OW12694   2.448   4.382   3.801
 3932SOL    HW112695   2.511   4.435   3.745
 3932SOL    HW212696   2.354   4.412   3.785
 3933SOL     OW12697   1.329   6.349   1.499
 3933SOL    HW112698   1.404   6.287   1.477
 3933SOL    HW212699   1.328   6.425   1.435
 3934SOL     OW12700   1.234   0.057   0.989
 3934SOL    HW112701   1.317   0.108   0.966
 3934SOL    HW212702   1.258   6.992   1.049
 3935SOL     OW12703   0.096   4.069   5.398
 3935SOL    HW112704   0.007   4.080   5.444
 3935SOL    HW212705   0.082   4.023   5.311
 3936SOL     OW12706   0.127   4.185   4.947
 3936SOL    HW112707   0.198   4.115   4.958
 3936SOL    HW212708   0.037   4.142   4.945
 3937SOL     OW12709   0.536   5.876   1.143
 3937SOL    HW112710   0.625   5.911   1.111
 3937SOL    HW212711   0.481   5.952   1.176
 3938SOL     OW12712   0.871   3.179   1.524
 3938SOL    HW112713   0.969   3.157   1.532
 3938SOL    HW212714   0.836   3.146   1.437
 3939SOL     OW12715   0.543   0.657   2.988
 3939SOL    HW112716   0.484   0.594   2.937
 3939SOL    HW212717   0.579   0.611   3.069
 3940SOL     OW12718   2.682   6.319   0.156
 3940SOL    HW112719   2.757   6.254   0.148
 3940SOL    HW212720   2.710   6.395   0.215
 3941SOL     OW12721   5.012   5.823   2.278
 3941SOL    HW112722   5.053   5.820   2.370
 3941SOL    HW212723   4.950   5.901   2.271
 3942SOL     OW12724   6.813   6.066   5.650
 3942SOL    HW112725   6.897   6.102   5.610
 3942SOL    HW212726   6.835   6.016   5.734
 3943SOL     OW12727   1.961   3.090   0.293
 3943SOL    HW112728   2.056   3.104   0.322
 3943SOL    HW212729   1.960   3.039   0.207
 3944SOL     OW12730   4.701   2.701   6.789
 3944SOL    HW112731   4.650   2.782   6.817
 3944SOL    HW212732   4.796   2.709   6.821
 3945SOL     OW12733   5.703   0.346   3.973
 3945SOL    HW112734   5.766   0.346   4.051
 3945SOL    HW212735   5.737   0.408   3.903
 3946SOL     OW12736   0.167   3.847   0.765
 3946SOL    HW112737   0.207   3.938   0.755
 3946SOL    HW212738   0.067   3.854   0.765
 3947SOL     OW12739   6.173   5.822   2.029
 3947SOL    HW112740   6.112   5.854   1.957
 3947SOL    HW212741   6.122   5.760   2.090
 3948SOL     OW12742   1.349   2.901   5.875
 3948SOL    HW112743   1.438   2.879   5.836
 3948SOL    HW212744   1.330   2.839   5.951
 3949SOL     OW12745   5.881   0.385   2.517
 3949SOL    HW112746   5.922   0.347   2.433
 3949SOL    HW212747   5.792   0.343   2.532
 3950SOL     OW12748   2.957   4.716   1.683
 3950SOL    HW112749   2.870   4.761   1.704
 3950SOL    HW212750   2.953   4.621   1.713
 3951SOL     OW12751   0.660   2.583   4.681
 3951SOL    HW112752   0.561   2.596   4.686
 3951SOL    HW212753   0.705   2.670   4.704
 3952SOL     OW12754   5.618   4.138   0.361
 3952SOL    HW112755   5.710   4.139   0.399
 3952SOL    HW212756   5.623   4.125   0.262
 3953SOL     OW12757   3.278   3.575   6.637
 3953SOL    HW112758   3.340   3.616   6.704
 3953SOL    HW212759   3.190   3.555   6.682
 3954SOL     OW12760   0.706   3.321   5.300
 3954SOL    HW112761   0.651   3.281   5.374
 3954SOL    HW212762   0.798   3.282   5.302
 3955SOL     OW12763   6.688   3.691   0.678
 3955SOL    HW112764   6.612   3.706   0.742
 3955SOL    HW212765   6.660   3.717   0.586
 3956SOL     OW12766   6.692   2.820   5.624
 3956SOL    HW112767   6.698   2.893   5.691
 3956SOL    HW212768   6.651   2.855   5.540
 3957SOL     OW12769   0.757   1.651   2.832
 3957SOL    HW112770   0.658   1.665   2.837
 3957SOL    HW212771   0.777   1.581   2.764
 3958SOL     OW12772   5.062   6.936   0.156
 3958SOL    HW112773   5.093   6.858   0.210
 3958SOL    HW212774   5.141   6.987   0.122
 3959SOL     OW12775   2.226   6.360   1.318
 3959SOL    HW112776   2.270   6.270   1.321
 3959SOL    HW212777   2.289   6.426   1.279
 3960SOL     OW12778   5.299   3.411   1.292
 3960SOL    HW112779   5.248   3.492   1.321
 3960SOL    HW212780   5.295   3.403   1.192
 3961SOL     OW12781   5.544   0.502   1.016
 3961SOL    HW112782   5.540   0.600   1.035
 3961SOL    HW212783   5.516   0.485   0.921
 3962SOL     OW12784   0.611   6.577   5.696
 3962SOL    HW112785   0.537   6.633   5.660
 3962SOL    HW212786   0.613   6.583   5.795
 3963SOL     OW12787   4.489   4.469   2.646
 3963SOL    HW112788   4.437   4.385   2.633
 3963SOL    HW212789   4.447   4.524   2.718
 3964SOL     OW12790   5.886   6.037   6.805
 3964SOL    HW112791   5.794   5.999   6.813
 3964SOL    HW212792   5.894   6.117   6.865
 3965SOL     OW12793   3.758   3.391   0.852
 3965SOL    HW112794   3.719   3.377   0.943
 3965SOL    HW212795   3.737   3.484   0.821
 3966SOL     OW12796   6.403   3.759   5.219
 3966SOL    HW112797   6.325   3.755   5.280
 3966SOL    HW212798   6.484   3.789   5.270
 3967SOL     OW12799   1.819   6.982   6.643
 3967SOL    HW112800   1.732   0.004   6.679
 3967SOL    HW212801   1.833   6.887   6.671
 3968SOL     OW12802   4.903   0.781   1.595
 3968SOL    HW112803   4.904   0.708   1.663
 3968SOL    HW212804   4.810   0.817   1.585
 3969SOL     OW12805   0.473   6.214   1.393
 3969SOL    HW112806   0.455   6.153   1.471
 3969SOL    HW212807   0.411   6.190   1.317
 3970SOL     OW12808   4.878   4.039   4.440
 3970SOL    HW112809   4.894   3.956   4.494
 3970SOL    HW212810   4.965   4.087   4.428
 3971SOL     OW12811   0.829   5.945   3.632
 3971SOL    HW112812   0.901   5.900   3.579
 3971SOL    HW212813   0.778   6.007   3.573
 3972SOL     OW12814   1.062   0.564   6.803
 3972SOL    HW112815   0.964   0.561   6.824
 3972SOL    HW212816   1.098   0.655   6.826
 3973SOL     OW12817   3.259   2.943   3.794
 3973SOL    HW112818   3.239   3.009   3.865
 3973SOL    HW212819   3.179   2.885   3.777
 3974SOL     OW12820   5.429   0.333   6.532
 3974SOL    HW112821   5.361   0.317   6.461
 3974SOL    HW212822   5.485   0.251   6.544
 3975SOL     OW12823   6.726   6.300   5.006
 3975SOL    HW112824   6.627   6.287   5.001
 3975SOL    HW212825   6.746   6.377   5.066
 3976SOL     OW12826   0.928   3.126   0.093
 3976SOL    HW112827   0.903   3.222   0.078
 3976SOL    HW212828   0.986   3.095   0.019
 3977SOL     OW12829   3.545   5.158   5.721
 3977SOL    HW112830   3.570   5.063   5.702
 3977SOL    HW212831   3.513   5.165   5.816
 3978SOL     OW12832   6.491   4.159   6.433
 3978SOL    HW112833   6.454   4.247   6.462
 3978SOL    HW212834   6.421   4.089   6.442
 3979SOL     OW12835   1.237   6.550   3.160
 3979SOL    HW112836   1.144   6.578   3.136
 3979SOL    HW212837   1.241   6.526   3.257
 3980SOL     OW12838   4.906   3.538   4.802
 3980SOL    HW112839   4.951   3.456   4.836
 3980SOL    HW212840   4.831   3.564   4.864
 3981SOL     OW12841   6.457   2.056   5.369
 3981SOL    HW112842   6.478   2.148   5.402
 3981SOL    HW212843   6.420   2.001   5.444
 3982SOL     OW12844   2.294   2.817   4.208
 3982SOL    HW112845   2.290   2.815   4.308
 3982SOL    HW212846   2.233   2.746   4.171
 3983SOL     OW12847   3.571   0.348   3.403
 3983SOL    HW112848   3.531   0.436   3.377
 3983SOL    HW212849   3.600   0.352   3.498
 3984SOL     OW12850   2.049   6.982   1.680
 3984SOL    HW112851   2.071   0.004   1.772
 3984SOL    HW212852   2.103   6.901   1.660
 3985SOL     OW12853   1.856   3.492   1.604
 3985SOL    HW112854   1.813   3.404   1.586
 3985SOL    HW212855   1.953   3.478   1.625
 3986SOL     OW12856   1.719   2.234   1.927
 3986SOL    HW112857   1.644   2.259   1.988
 3986SOL    HW212858   1.696   2.261   1.833
 3987SOL     OW12859   1.286   4.289   5.276
 3987SOL    HW112860   1.320   4.383   5.287
 3987SOL    HW212861   1.234   4.282   5.191
 3988SOL     OW12862   4.678   1.015   0.126
 3988SOL    HW112863   4.777   1.007   0.119
 3988SOL    HW212864   4.635   0.979   0.043
 3989SOL     OW12865   4.230   0.734   6.057
 3989SOL    HW112866   4.312   0.688   6.023
 3989SOL    HW212867   4.208   0.811   5.997
 3990SOL     OW12868   0.948   2.525   3.748
 3990SOL    HW112869   0.860   2.483   3.725
 3990SOL    HW212870   0.935   2.589   3.824
 3991SOL     OW12871   0.654   1.293   3.976
 3991SOL    HW112872   0.568   1.242   3.984
 3991SOL    HW212873   0.649   1.376   4.031
 3992SOL     OW12874   5.926   3.886   6.613
 3992SOL    HW112875   5.897   3.981   6.629
 3992SOL    HW212876   5.850   3.824   6.634
 3993SOL     OW12877   1.482   0.789   4.337
 3993SOL    HW112878   1.579   0.774   4.356
 3993SOL    HW212879   1.432   0.800   4.423
 3994SOL     OW12880   2.846   2.290   2.975
 3994SOL    HW112881   2.790   2.364   2.939
 3994SOL    HW212882   2.938   2.294   2.934
 3995SOL     OW12883   1.105   3.414   2.452
 3995SOL    HW112884   1.084   3.358   2.532
 3995SOL    HW212885   1.023   3.422   2.395
 3996SOL     OW12886   5.903   6.694   4.158
 3996SOL    HW112887   5.847   6.614   4.182
 3996SOL    HW212888   5.846   6.762   4.113
 3997SOL     OW12889   4.958   3.530   2.818
 3997SOL    HW112890   4.936   3.599   2.749
 3997SOL    HW212891   4.961   3.574   2.908
 3998SOL     OW12892   5.156   2.370   3.050
 3998SOL    HW112893   5.136   2.453   2.999
 3998SOL    HW212894   5.072   2.316   3.060
 3999SOL     OW12895   4.572   2.712   1.302
 3999SOL    HW112896   4.525   2.765   1.373
 3999SOL    HW212897   4.664   2.690   1.334
 4000SOL     OW12898   2.722   5.387   2.438
 4000SOL    HW112899   2.685   5.472   2.476
 4000SOL    HW212900   2.646   5.327   2.411
 4001SOL     OW12901   1.282   4.995   4.284
 4001SOL    HW112902   1.232   4.981   4.198
 4001SOL    HW212903   1.235   5.064   4.339
 4002SOL     OW12904   3.605   4.098   3.724
 4002SOL    HW112905   3.637   4.187   3.757
 4002SOL    HW212906   3.505   4.095   3.729
 4003SOL     OW12907   1.989   0.663   5.545
 4003SOL    HW112908   1.892   0.647   5.562
 4003SOL    HW212909   2.018   0.748   5.590
 4004SOL     OW12910   1.044   3.623   3.672
 4004SOL    HW112911   0.959   3.638   3.722
 4004SOL    HW212912   1.082   3.534   3.697
 4005SOL     OW12913   4.805   3.031   0.203
 4005SOL    HW112914   4.872   3.084   0.255
 4005SOL    HW212915   4.844   3.007   0.114
 4006SOL     OW12916   5.405   5.315   2.892
 4006SOL    HW112917   5.483   5.373   2.868
 4006SOL    HW212918   5.339   5.316   2.818
 4007SOL     OW12919   6.948   0.694   2.642
 4007SOL    HW112920   6.973   0.662   2.734
 4007SOL    HW212921   0.015   0.738   2.600
 4008SOL     OW12922   3.439   1.019   0.567
 4008SOL    HW112923   3.523   0.978   0.603
 4008SOL    HW212924   3.360   0.966   0.597
 4009SOL     OW12925   4.889   1.832   0.945
 4009SOL    HW112926   4.913   1.736   0.932
 4009SOL    HW212927   4.971   1.884   0.968
 4010SOL     OW12928   2.767   5.038   1.999
 4010SOL    HW112929   2.816   4.953   1.979
 4010SOL    HW212930   2.734   5.036   2.093
 4011SOL     OW12931   5.092   6.342   6.625
 4011SOL    HW112932   5.153   6.401   6.678
 4011SOL    HW212933   5.031   6.293   6.686
 4012SOL     OW12934   4.812   6.842   3.042
 4012SOL    HW112935   4.882   6.893   3.091
 4012SOL    HW212936   4.735   6.903   3.021
 4013SOL     OW12937   0.070   1.117   5.556
 4013SOL    HW112938   7.005   1.054   5.543
 4013SOL    HW212939   0.052   1.174   5.637
 4014SOL     OW12940   3.198   4.849   2.582
 4014SOL    HW112941   3.244   4.904   2.513
 4014SOL    HW212942   3.178   4.759   2.545
 4015SOL     OW12943   4.362   4.754   6.219
 4015SOL    HW112944   4.326   4.752   6.126
 4015SOL    HW212945   4.354   4.847   6.256
 4016SOL     OW12946   4.459   5.217   5.421
 4016SOL    HW112947   4.526   5.218   5.496
 4016SOL    HW212948   4.367   5.209   5.458
 4017SOL     OW12949   0.602   4.745   5.608
 4017SOL    HW112950   0.611   4.844   5.614
 4017SOL    HW212951   0.584   4.708   5.699
 4018SOL     OW12952   4.351   5.857   1.128
 4018SOL    HW112953   4.366   5.876   1.225
 4018SOL    HW212954   4.255   5.873   1.105
 4019SOL     OW12955   5.500   3.771   2.698
 4019SOL    HW112956   5.448   3.824   2.630
 4019SOL    HW212957   5.534   3.687   2.655
 4020SOL     OW12958   6.933   5.489   4.599
 4020SOL    HW112959   6.907   5.524   4.689
 4020SOL    HW212960   6.989   5.557   4.552
 4021SOL     OW12961   4.240   3.712   6.640
 4021SOL    HW112962   4.170   3.712   6.569
 4021SOL    HW212963   4.309   3.642   6.619
 4022SOL     OW12964   2.269   0.502   1.312
 4022SOL    HW112965   2.222   0.525   1.397
 4022SOL    HW212966   2.269   0.403   1.300
 4023SOL     OW12967   0.478   1.155   4.783
 4023SOL    HW112968   0.554   1.194   4.836
 4023SOL    HW212969   0.515   1.093   4.713
 4024SOL     OW12970   0.841   6.382   4.372
 4024SOL    HW112971   0.817   6.285   4.371
 4024SOL    HW212972   0.940   6.392   4.381
 4025SOL     OW12973   6.902   5.451   3.625
 4025SOL    HW112974   6.827   5.508   3.590
 4025SOL    HW212975   6.987   5.504   3.624
 4026SOL     OW12976   6.834   0.150   3.963
 4026SOL    HW112977   6.791   0.123   4.049
 4026SOL    HW212978   6.913   0.092   3.946
 4027SOL     OW12979   2.736   4.234   6.185
 4027SOL    HW112980   2.681   4.240   6.268
 4027SOL    HW212981   2.764   4.139   6.171
 4028SOL     OW12982   4.714   1.471   3.408
 4028SOL    HW112983   4.663   1.527   3.473
 4028SOL    HW212984   4.767   1.529   3.347
 4029SOL     OW12985   1.654   5.546   0.198
 4029SOL    HW112986   1.586   5.612   0.165
 4029SOL    HW212987   1.723   5.530   0.127
 4030SOL     OW12988   0.138   1.067   2.711
 4030SOL    HW112989   0.123   1.057   2.809
 4030SOL    HW212990   0.088   1.148   2.678
 4031SOL     OW12991   6.061   6.535   0.590
 4031SOL    HW112992   6.032   6.603   0.523
 4031SOL    HW212993   6.062   6.444   0.548
 4032SOL     OW12994   5.558   0.675   2.247
 4032SOL    HW112995   5.476   0.651   2.195
 4032SOL    HW212996   5.638   0.637   2.202
 4033SOL     OW12997   1.868   3.068   2.411
 4033SOL    HW112998   1.810   3.012   2.351
 4033SOL    HW212999   1.964   3.053   2.388
 4034SOL     OW13000   0.255   3.165   5.279
 4034SOL    HW113001   0.324   3.118   5.225
 4034SOL    HW213002   0.164   3.146   5.242
 4035SOL     OW13003   4.553   1.635   1.996
 4035SOL    HW113004   4.583   1.724   1.962
 4035SOL    HW213005   4.512   1.647   2.087
 4036SOL     OW13006   2.695   5.678   2.805
 4036SOL    HW113007   2.792   5.688   2.826
 4036SOL    HW213008   2.647   5.643   2.886
 4037SOL     OW13009   2.651   1.447   5.820
 4037SOL    HW113010   2.582   1.504   5.775
 4037SOL    HW213011   2.738   1.455   5.772
 4038SOL     OW13012   3.347   3.655   5.945
 4038SOL    HW113013   3.290   3.572   5.953
 4038SOL    HW213014   3.434   3.631   5.903
 4039SOL     OW13015   6.189   5.065   1.444
 4039SOL    HW113016   6.236   5.009   1.376
 4039SOL    HW213017   6.123   5.125   1.398
 4040SOL     OW13018   3.047   6.386   4.854
 4040SOL    HW113019   3.135   6.369   4.899
 4040SOL    HW213020   3.059   6.386   4.755
 4041SOL     OW13021   2.393   6.474   0.788
 4041SOL    HW113022   2.421   6.531   0.711
 4041SOL    HW213023   2.400   6.377   0.763
 4042SOL     OW13024   6.469   0.922   3.048
 4042SOL    HW113025   6.435   0.860   3.119
 4042SOL    HW213026   6.475   0.872   2.961
 4043SOL     OW13027   5.548   3.402   0.080
 4043SOL    HW113028   5.537   3.460   0.161
 4043SOL    HW213029   5.626   3.341   0.093
 4044SOL     OW13030   4.691   5.414   3.216
 4044SOL    HW113031   4.724   5.372   3.132
 4044SOL    HW213032   4.762   5.474   3.253
 4045SOL     OW13033   5.175   0.579   5.348
 4045SOL    HW113034   5.222   0.533   5.424
 4045SOL    HW213035   5.135   0.510   5.288
 4046SOL     OW13036   6.103   1.919   2.586
 4046SOL    HW113037   6.101   1.820   2.576
 4046SOL    HW213038   6.197   1.952   2.573
 4047SOL     OW13039   2.891   3.336   0.012
 4047SOL    HW113040   2.840   3.414   6.987
 4047SOL    HW213041   2.920   3.356   0.106
 4048SOL     OW13042   4.455   1.673   2.239
 4048SOL    HW113043   4.501   1.752   2.280
 4048SOL    HW213044   4.493   1.589   2.278
 4049SOL     OW13045   3.967   4.673   6.908
 4049SOL    HW113046   3.987   4.615   6.987
 4049SOL    HW213047   3.907   4.625   6.845
 4050SOL     OW13048   0.359   5.503   2.133
 4050SOL    HW113049   0.411   5.572   2.083
 4050SOL    HW213050   0.347   5.533   2.228
 4051SOL     OW13051   5.305   1.068   5.034
 4051SOL    HW113052   5.363   1.045   5.112
 4051SOL    HW213053   5.363   1.084   4.953
 4052SOL     OW13054   6.304   2.186   3.858
 4052SOL    HW113055   6.389   2.144   3.826
 4052SOL    HW213056   6.243   2.115   3.892
 4053SOL     OW13057   1.317   5.375   4.353
 4053SOL    HW113058   1.238   5.436   4.351
 4053SOL    HW213059   1.290   5.287   4.392
 4054SOL     OW13060   4.090   3.707   0.678
 4054SOL    HW113061   4.186   3.706   0.704
 4054SOL    HW213062   4.050   3.616   0.690
 4055SOL     OW13063   0.459   4.873   1.417
 4055SOL    HW113064   0.386   4.804   1.422
 4055SOL    HW213065   0.548   4.828   1.423
 4056SOL     OW13066   5.159   3.434   1.053
 4056SOL    HW113067   5.131   3.478   0.968
 4056SOL    HW213068   5.080   3.424   1.113
 4057SOL     OW13069   0.281   3.125   0.061
 4057SOL    HW113070   0.266   3.069   0.142
 4057SOL    HW213071   0.196   3.172   0.036
 4058SOL     OW13072   2.947   6.669   5.922
 4058SOL    HW113073   2.894   6.670   5.837
 4058SOL    HW213074   2.904   6.606   5.987
 4059SOL     OW13075   0.570   1.680   3.791
 4059SOL    HW113076   0.477   1.714   3.776
 4059SOL    HW213077   0.631   1.719   3.722
 4060SOL     OW13078   6.096   5.704   5.536
 4060SOL    HW113079   6.130   5.756   5.614
 4060SOL    HW213080   6.030   5.760   5.486
 4061SOL     OW13081   2.151   5.816   0.820
 4061SOL    HW113082   2.239   5.831   0.867
 4061SOL    HW213083   2.155   5.731   0.768
 4062SOL     OW13084   1.330   2.297   1.810
 4062SOL    HW113085   1.414   2.340   1.777
 4062SOL    HW213086   1.296   2.348   1.889
 4063SOL     OW13087   4.609   0.849   0.354
 4063SOL    HW113088   4.613   0.754   0.322
 4063SOL    HW213089   4.611   0.911   0.275
 4064SOL     OW13090   2.100   1.911   5.318
 4064SOL    HW113091   2.048   1.945   5.397
 4064SOL    HW213092   2.038   1.903   5.239
 4065SOL     OW13093   2.642   6.801   1.072
 4065SOL    HW113094   2.616   6.887   1.116
 4065SOL    HW213095   2.560   6.749   1.048
 4066SOL     OW13096   0.399   4.302   3.577
 4066SOL    HW113097   0.396   4.397   3.610
 4066SOL    HW213098   0.314   4.281   3.529
 4067SOL     OW13099   4.564   4.894   0.887
 4067SOL    HW113100   4.611   4.828   0.828
 4067SOL    HW213101   4.518   4.962   0.829
 4068SOL     OW13102   1.961   2.579   5.339
 4068SOL    HW113103   1.910   2.639   5.401
 4068SOL    HW213104   1.906   2.563   5.257
 4069SOL     OW13105   4.282   0.198   6.503
 4069SOL    HW113106   4.216   0.133   6.466
 4069SOL    HW213107   4.289   0.186   6.602
 4070SOL     OW13108   1.389   3.156   3.910
 4070SOL    HW113109   1.430   3.246   3.925
 4070SOL    HW213110   1.447   3.086   3.950
 4071SOL     OW13111   0.802   0.293   3.876
 4071SOL    HW113112   0.775   0.301   3.972
 4071SOL    HW213113   0.900   0.308   3.868
 4072SOL     OW13114   2.382   5.736   3.208
 4072SOL    HW113115   2.398   5.822   3.159
 4072SOL    HW213116   2.290   5.704   3.190
 4073SOL     OW13117   2.679   4.970   0.321
 4073SOL    HW113118   2.773   4.988   0.351
 4073SOL    HW213119   2.676   4.969   0.221
 4074SOL     OW13120   1.435   5.785   2.791
 4074SOL    HW113121   1.408   5.856   2.725
 4074SOL    HW213122   1.445   5.698   2.744
 4075SOL     OW13123   5.801   0.690   0.713
 4075SOL    HW113124   5.749   0.741   0.782
 4075SOL    HW213125   5.816   0.596   0.746
 4076SOL     OW13126   2.926   3.905   5.208
 4076SOL    HW113127   2.837   3.918   5.253
 4076SOL    HW213128   2.996   3.892   5.278
 4077SOL     OW13129   2.674   1.203   1.749
 4077SOL    HW113130   2.747   1.170   1.809
 4077SOL    HW213131   2.684   1.302   1.736
 4078SOL     OW13132   2.558   4.595   2.854
 4078SOL    HW113133   2.524   4.527   2.920
 4078SOL    HW213134   2.654   4.615   2.873
 4079SOL     OW13135   1.063   2.397   4.734
 4079SOL    HW113136   0.986   2.335   4.749
 4079SOL    HW213137   1.031   2.492   4.740
 4080SOL     OW13138   6.090   1.613   4.998
 4080SOL    HW113139   6.041   1.677   4.938
 4080SOL    HW213140   6.027   1.541   5.027
 4081SOL     OW13141   2.137   3.270   3.624
 4081SOL    HW113142   2.235   3.251   3.623
 4081SOL    HW213143   2.110   3.305   3.714
 4082SOL     OW13144   1.249   3.275   1.072
 4082SOL    HW113145   1.247   3.195   1.012
 4082SOL    HW213146   1.328   3.267   1.134
 4083SOL     OW13147   5.364   2.632   5.220
 4083SOL    HW113148   5.375   2.601   5.126
 4083SOL    HW213149   5.272   2.611   5.252
 4084SOL     OW13150   0.759   1.005   4.002
 4084SOL    HW113151   0.749   1.104   3.992
 4084SOL    HW213152   0.686   0.958   3.953
 4085SOL     OW13153   3.557   6.486   0.225
 4085SOL    HW113154   3.483   6.515   0.286
 4085SOL    HW213155   3.636   6.546   0.240
 4086SOL     OW13156   1.701   4.581   1.006
 4086SOL    HW113157   1.748   4.669   1.006
 4086SOL    HW213158   1.653   4.569   1.093
 4087SOL     OW13159   1.499   1.436   3.097
 4087SOL    HW113160   1.504   1.503   3.022
 4087SOL    HW213161   1.423   1.460   3.158
 4088SOL     OW13162   6.709   1.612   1.284
 4088SOL    HW113163   6.690   1.666   1.367
 4088SOL    HW213164   6.702   1.671   1.204
 4089SOL     OW13165   1.071   0.564   4.239
 4089SOL    HW113166   1.001   0.624   4.201
 4089SOL    HW213167   1.159   0.584   4.196
 4090SOL     OW13168   1.948   4.139   5.751
 4090SOL    HW113169   1.923   4.161   5.656
 4090SOL    HW213170   1.904   4.054   5.779
 4091SOL     OW13171   4.339   5.684   0.341
 4091SOL    HW113172   4.408   5.754   0.359
 4091SOL    HW213173   4.306   5.694   0.247
 4092SOL     OW13174   6.971   3.057   4.846
 4092SOL    HW113175   6.910   3.104   4.782
 4092SOL    HW213176   7.010   3.124   4.909
 4093SOL     OW13177   5.495   0.452   4.163
 4093SOL    HW113178   5.557   0.407   4.097
 4093SOL    HW213179   5.407   0.405   4.163
 4094SOL     OW13180   2.152   4.214   5.150
 4094SOL    HW113181   2.196   4.126   5.131
 4094SOL    HW213182   2.114   4.213   5.242
 4095SOL     OW13183   1.012   3.736   6.377
 4095SOL    HW113184   0.944   3.703   6.311
 4095SOL    HW213185   0.965   3.781   6.453
 4096SOL     OW13186   3.716   4.083   0.242
 4096SOL    HW113187   3.803   4.044   0.274
 4096SOL    HW213188   3.724   4.107   0.145
 4097SOL     OW13189   3.602   3.520   5.930
 4097SOL    HW113190   3.626   3.424   5.942
 4097SOL    HW213191   3.648   3.557   5.849
 4098SOL     OW13192   0.675   2.015   3.184
 4098SOL    HW113193   0.677   2.009   3.284
 4098SOL    HW213194   0.714   1.931   3.145
 4099SOL     OW13195   4.000   5.656   1.875
 4099SOL    HW113196   4.086   5.706   1.873
 4099SOL    HW213197   3.976   5.625   1.783
 4100SOL     OW13198   3.638   5.971   3.658
 4100SOL    HW113199   3.566   5.995   3.723
 4100SOL    HW213200   3.605   5.898   3.598
 4101SOL     OW13201   6.041   1.580   6.307
 4101SOL    HW113202   6.112   1.605   6.372
 4101SOL    HW213203   5.953   1.617   6.337
 4102SOL     OW13204   6.062   1.209   0.268
 4102SOL    HW113205   6.084   1.295   0.315
 4102SOL    HW213206   6.028   1.142   0.335
 4103SOL     OW13207   0.586   0.598   2.109
 4103SOL    HW113208   0.537   0.613   2.023
 4103SOL    HW213209   0.526   0.624   2.185
 4104SOL     OW13210   1.130   4.728   2.769
 4104SOL    HW113211   1.049   4.714   2.826
 4104SOL    HW213212   1.179   4.641   2.758
 4105SOL     OW13213   4.187   4.700   0.178
 4105SOL    HW113214   4.222   4.624   0.232
 4105SOL    HW213215   4.264   4.754   0.144
 4106SOL     OW13216   7.009   3.607   4.633
 4106SOL    HW113217   6.974   3.685   4.581
 4106SOL    HW213218   0.084   3.632   4.676
 4107SOL     OW13219   6.787   0.563   1.665
 4107SOL    HW113220   6.781   0.504   1.746
 4107SOL    HW213221   6.837   0.516   1.593
 4108SOL     OW13222   6.183   3.641   6.169
 4108SOL    HW113223   6.147   3.580   6.240
 4108SOL    HW213224   6.276   3.668   6.192
 4109SOL     OW13225   3.172   6.473   3.714
 4109SOL    HW113226   3.159   6.377   3.690
 4109SOL    HW213227   3.093   6.526   3.683
 4110SOL     OW13228   4.780   3.503   6.148
 4110SOL    HW113229   4.707   3.572   6.145
 4110SOL    HW213230   4.756   3.427   6.087
 4111SOL     OW13231   4.297   2.902   6.805
 4111SOL    HW113232   4.266   2.954   6.884
 4111SOL    HW213233   4.299   2.805   6.828
 4112SOL     OW13234   3.242   1.492   3.827
 4112SOL    HW113235   3.255   1.579   3.780
 4112SOL    HW213236   3.329   1.444   3.834
 4113SOL     OW13237   3.476   4.846   5.118
 4113SOL    HW113238   3.380   4.837   5.091
 4113SOL    HW213239   3.523   4.908   5.056
 4114SOL     OW13240   2.926   1.847   2.991
 4114SOL    HW113241   2.891   1.935   3.022
 4114SOL    HW213242   2.857   1.776   3.007
 4115SOL     OW13243   5.026   5.072   1.419
 4115SOL    HW113244   4.953   5.127   1.459
 4115SOL    HW213245   4.992   5.027   1.336
 4116SOL     OW13246   3.588   1.553   1.481
 4116SOL    HW113247   3.668   1.604   1.450
 4116SOL    HW213248   3.520   1.548   1.408
 4117SOL     OW13249   1.142   5.606   1.487
 4117SOL    HW113250   1.224   5.552   1.472
 4117SOL    HW213251   1.101   5.630   1.398
 4118SOL     OW13252   1.338   6.351   0.327
 4118SOL    HW113253   1.401   6.365   0.403
 4118SOL    HW213254   1.384   6.301   0.254
 4119SOL     OW13255   3.420   0.520   4.234
 4119SOL    HW113256   3.394   0.429   4.200
 4119SOL    HW213257   3.359   0.589   4.196
 4120SOL     OW13258   3.276   0.544   1.627
 4120SOL    HW113259   3.346   0.573   1.692
 4120SOL    HW213260   3.304   0.569   1.535
 4121SOL     OW13261   6.933   3.191   4.572
 4121SOL    HW113262   6.846   3.152   4.542
 4121SOL    HW213263   6.919   3.286   4.599
 4122SOL     OW13264   1.772   5.756   5.774
 4122SOL    HW113265   1.680   5.717   5.780
 4122SOL    HW213266   1.837   5.695   5.819
 4123SOL     OW13267   4.850   4.051   6.521
 4123SOL    HW113268   4.919   4.113   6.481
 4123SOL    HW213269   4.771   4.105   6.550
 4124SOL     OW13270   5.752   6.882   4.051
 4124SOL    HW113271   5.792   6.945   3.984
 4124SOL    HW213272   5.655   6.906   4.065
 4125SOL     OW13273   4.311   1.058   0.672
 4125SOL    HW113274   4.342   1.061   0.767
 4125SOL    HW213275   4.367   0.992   0.621
 4126SOL     OW13276   2.120   3.970   4.858
 4126SOL    HW113277   2.206   3.990   4.904
 4126SOL    HW213278   2.044   4.007   4.911
 4127SOL     OW13279   5.508   3.560   5.530
 4127SOL    HW113280   5.578   3.490   5.521
 4127SOL    HW213281   5.421   3.516   5.554
 4128SOL     OW13282   1.327   2.877   1.996
 4128SOL    HW113283   1.427   2.873   2.003
 4128SOL    HW213284   1.291   2.946   2.059
 4129SOL     OW13285   5.726   2.472   6.050
 4129SOL    HW113286   5.711   2.397   6.114
 4129SOL    HW213287   5.805   2.453   5.993
 4130SOL     OW13288   6.375   3.814   0.070
 4130SOL    HW113289   6.380   3.741   0.138
 4130SOL    HW213290   6.285   3.858   0.074
 4131SOL     OW13291   6.375   4.799   4.249
 4131SOL    HW113292   6.377   4.895   4.276
 4131SOL    HW213293   6.466   4.771   4.218
 4132SOL     OW13294   5.034   2.703   3.285
 4132SOL    HW113295   5.084   2.768   3.227
 4132SOL    HW213296   4.943   2.740   3.305
 4133SOL     OW13297   2.965   1.277   1.074
 4133SOL    HW113298   3.038   1.274   1.142
 4133SOL    HW213299   2.987   1.215   0.999
 4134SOL     OW13300   1.866   1.798   0.101
 4134SOL    HW113301   1.825   1.881   0.062
 4134SOL    HW213302   1.843   1.792   0.198
 4135SOL     OW13303   2.092   1.599   2.026
 4135SOL    HW113304   2.110   1.572   2.120
 4135SOL    HW213305   2.106   1.697   2.015
 4136SOL     OW13306   0.240   1.900   4.173
 4136SOL    HW113307   0.167   1.841   4.209
 4136SOL    HW213308   0.199   1.973   4.118
 4137SOL     OW13309   3.208   3.904   6.647
 4137SOL    HW113310   3.195   3.807   6.666
 4137SOL    HW213311   3.292   3.935   6.693
 4138SOL     OW13312   4.103   4.764   3.516
 4138SOL    HW113313   4.113   4.724   3.607
 4138SOL    HW213314   4.008   4.757   3.486
 4139SOL     OW13315   1.655   2.061   6.251
 4139SOL    HW113316   1.689   2.060   6.157
 4139SOL    HW213317   1.712   2.122   6.306
 4140SOL     OW13318   4.301   1.114   4.922
 4140SOL    HW113319   4.396   1.132   4.896
 4140SOL    HW213320   4.284   1.150   5.014
 4141SOL     OW13321   5.586   5.849   0.474
 4141SOL    HW113322   5.489   5.832   0.485
 4141SOL    HW213323   5.617   5.913   0.544
 4142SOL     OW13324   0.078   4.307   1.387
 4142SOL    HW113325   0.161   4.262   1.420
 4142SOL    HW213326   0.009   4.239   1.364
 4143SOL     OW13327   0.006   2.854   0.745
 4143SOL    HW113328   0.081   2.846   0.678
 4143SOL    HW213329   0.011   2.943   0.789
 4144SOL     OW13330   5.220   1.344   2.524
 4144SOL    HW113331   5.153   1.417   2.509
 4144SOL    HW213332   5.200   1.296   2.609
 4145SOL     OW13333   2.110   6.756   1.499
 4145SOL    HW113334   2.100   6.846   1.456
 4145SOL    HW213335   2.200   6.750   1.543
 4146SOL     OW13336   4.587   0.178   0.013
 4146SOL    HW113337   4.672   0.127   0.021
 4146SOL    HW213338   4.588   0.231   6.939
 4147SOL     OW13339   3.343   1.607   5.077
 4147SOL    HW113340   3.377   1.566   5.162
 4147SOL    HW213341   3.246   1.628   5.086
 4148SOL     OW13342   6.695   0.551   3.373
 4148SOL    HW113343   6.793   0.534   3.366
 4148SOL    HW213344   6.678   0.648   3.385
 4149SOL     OW13345   5.955   4.204   1.840
 4149SOL    HW113346   5.952   4.285   1.782
 4149SOL    HW213347   6.011   4.223   1.921
 4150SOL     OW13348   5.455   0.134   6.852
 4150SOL    HW113349   5.500   0.050   6.882
 4150SOL    HW213350   5.407   0.117   6.766
 4151SOL     OW13351   0.336   5.466   0.574
 4151SOL    HW113352   0.238   5.444   0.576
 4151SOL    HW213353   0.349   5.557   0.535
 4152SOL     OW13354   3.969   4.625   1.540
 4152SOL    HW113355   3.950   4.548   1.479
 4152SOL    HW213356   4.060   4.613   1.580
 4153SOL     OW13357   6.413   4.568   6.233
 4153SOL    HW113358   6.343   4.627   6.195
 4153SOL    HW213359   6.480   4.545   6.163
 4154SOL     OW13360   5.883   3.042   5.852
 4154SOL    HW113361   5.845   3.120   5.802
 4154SOL    HW213362   5.900   2.967   5.789
 4155SOL     OW13363   1.319   3.370   1.672
 4155SOL    HW113364   1.414   3.400   1.663
 4155SOL    HW213365   1.307   3.320   1.757
 4156SOL     OW13366   5.491   6.976   5.549
 4156SOL    HW113367   5.443   0.023   5.614
 4156SOL    HW213368   5.576   0.009   5.521
 4157SOL     OW13369   4.002   0.316   4.540
 4157SOL    HW113370   4.054   0.258   4.603
 4157SOL    HW213371   4.045   0.406   4.534
 4158SOL     OW13372   0.758   6.124   3.440
 4158SOL    HW113373   0.833   6.175   3.400
 4158SOL    HW213374   0.681   6.185   3.458
 4159SOL     OW13375   1.010   2.655   4.785
 4159SOL    HW113376   1.016   2.682   4.689
 4159SOL    HW213377   1.039   2.731   4.843
 4160SOL     OW13378   0.232   0.595   1.440
 4160SOL    HW113379   0.269   0.688   1.438
 4160SOL    HW213380   0.148   0.595   1.495
 4161SOL     OW13381   0.135   1.817   0.365
 4161SOL    HW113382   0.037   1.836   0.362
 4161SOL    HW213383   0.162   1.772   0.279
 4162SOL     OW13384   5.973   6.944   5.073
 4162SOL    HW113385   6.072   6.951   5.088
 4162SOL    HW213386   5.926   0.002   5.127
 4163SOL     OW13387   5.676   1.326   4.137
 4163SOL    HW113388   5.774   1.316   4.153
 4163SOL    HW213389   5.653   1.423   4.125
 4164SOL     OW13390   1.854   0.587   6.647
 4164SOL    HW113391   1.790   0.512   6.661
 4164SOL    HW213392   1.812   0.673   6.674
 4165SOL     OW13393   3.827   6.458   1.368
 4165SOL    HW113394   3.741   6.508   1.376
 4165SOL    HW213395   3.890   6.507   1.308
 4166SOL     OW13396   4.991   3.020   0.843
 4166SOL    HW113397   4.976   3.118   0.858
 4166SOL    HW213398   4.962   2.969   0.924
 4167SOL     OW13399   2.575   2.676   1.366
 4167SOL    HW113400   2.517   2.756   1.352
 4167SOL    HW213401   2.529   2.594   1.331
 4168SOL     OW13402   1.301   5.802   1.876
 4168SOL    HW113403   1.400   5.811   1.885
 4168SOL    HW213404   1.270   5.722   1.927
 4169SOL     OW13405   5.605   3.073   4.185
 4169SOL    HW113406   5.551   3.064   4.101
 4169SOL    HW213407   5.579   3.157   4.233
 4170SOL     OW13408   3.717   2.758   5.639
 4170SOL    HW113409   3.810   2.726   5.621
 4170SOL    HW213410   3.712   2.857   5.624
 4171SOL     OW13411   5.179   3.643   1.357
 4171SOL    HW113412   5.122   3.610   1.433
 4171SOL    HW213413   5.129   3.712   1.305
 4172SOL     OW13414   0.921   2.084   0.973
 4172SOL    HW113415   0.888   1.993   0.949
 4172SOL    HW213416   0.913   2.098   1.072
 4173SOL     OW13417   5.003   3.103   5.277
 4173SOL    HW113418   5.037   3.121   5.369
 4173SOL    HW213419   4.930   3.168   5.255
 4174SOL     OW13420   4.783   0.578   4.065
 4174SOL    HW113421   4.737   0.664   4.041
 4174SOL    HW213422   4.869   0.598   4.112
 4175SOL     OW13423   2.758   0.566   3.135
 4175SOL    HW113424   2.763   0.664   3.114
 4175SOL    HW213425   2.669   0.545   3.176
 4176SOL     OW13426   4.946   6.353   3.259
 4176SOL    HW113427   5.024   6.322   3.315
 4176SOL    HW213428   4.926   6.449   3.280
 4177SOL     OW13429   0.387   6.361   2.683
 4177SOL    HW113430   0.438   6.391   2.764
 4177SOL    HW213431   0.295   6.334   2.711
 4178SOL     OW13432   3.632   2.216   5.617
 4178SOL    HW113433   3.610   2.194   5.713
 4178SOL    HW213434   3.561   2.275   5.579
 4179SOL     OW13435   5.666   3.907   5.585
 4179SOL    HW113436   5.631   3.837   5.523
 4179SOL    HW213437   5.703   3.983   5.532
 4180SOL     OW13438   4.760   4.066   1.535
 4180SOL    HW113439   4.671   4.068   1.489
 4180SOL    HW213440   4.756   4.126   1.615
 4181SOL     OW13441   1.046   1.435   0.533
 4181SOL    HW113442   1.122   1.414   0.593
 4181SOL    HW213443   0.962   1.395   0.569
 4182SOL     OW13444   5.611   0.394   2.776
 4182SOL    HW113445   5.584   0.366   2.684
 4182SOL    HW213446   5.560   0.476   2.802
 4183SOL     OW13447   1.563   2.045   1.676
 4183SOL    HW113448   1.497   2.012   1.744
 4183SOL    HW213449   1.586   1.971   1.614
 4184SOL     OW13450   4.178   5.270   0.521
 4184SOL    HW113451   4.230   5.340   0.472
 4184SOL    HW213452   4.233   5.236   0.597
 4185SOL     OW13453   0.305   0.163   3.790
 4185SOL    HW113454   0.279   0.122   3.703
 4185SOL    HW213455   0.354   0.249   3.773
 4186SOL     OW13456   2.808   3.956   1.133
 4186SOL    HW113457   2.756   3.944   1.049
 4186SOL    HW213458   2.798   3.876   1.191
 4187SOL     OW13459   3.782   3.315   6.613
 4187SOL    HW113460   3.873   3.332   6.575
 4187SOL    HW213461   3.779   3.347   6.708
 4188SOL     OW13462   4.610   6.981   4.796
 4188SOL    HW113463   4.535   6.923   4.765
 4188SOL    HW213464   4.683   6.981   4.727
 4189SOL     OW13465   2.329   1.743   4.694
 4189SOL    HW113466   2.384   1.826   4.705
 4189SOL    HW213467   2.232   1.764   4.707
 4190SOL     OW13468   3.247   1.166   0.405
 4190SOL    HW113469   3.346   1.151   0.413
 4190SOL    HW213470   3.215   1.132   0.317
 4191SOL     OW13471   6.366   1.942   2.508
 4191SOL    HW113472   6.332   1.917   2.418
 4191SOL    HW213473   6.463   1.919   2.515
 4192SOL     OW13474   6.289   1.158   3.480
 4192SOL    HW113475   6.346   1.213   3.419
 4192SOL    HW213476   6.199   1.145   3.438
 4193SOL     OW13477   2.099   6.994   1.950
 4193SOL    HW113478   2.001   6.978   1.947
 4193SOL    HW213479   2.120   0.046   2.025
 4194SOL     OW13480   0.556   0.876   3.898
 4194SOL    HW113481   0.535   0.828   3.984
 4194SOL    HW213482   0.558   0.810   3.823
 4195SOL     OW13483   5.285   0.153   1.623
 4195SOL    HW113484   5.325   0.182   1.710
 4195SOL    HW213485   5.328   0.203   1.548
 4196SOL     OW13486   5.056   2.480   3.741
 4196SOL    HW113487   5.125   2.438   3.682
 4196SOL    HW213488   4.975   2.504   3.687
 4197SOL     OW13489   4.772   4.402   4.386
 4197SOL    HW113490   4.789   4.492   4.424
 4197SOL    HW213491   4.858   4.360   4.359
 4198SOL     OW13492   6.722   3.579   6.611
 4198SOL    HW113493   6.806   3.562   6.559
 4198SOL    HW213494   6.678   3.491   6.632
 4199SOL     OW13495   2.959   3.307   5.532
 4199SOL    HW113496   2.927   3.400   5.513
 4199SOL    HW213497   3.034   3.284   5.471
 4200SOL     OW13498   1.983   0.163   6.772
 4200SOL    HW113499   1.937   0.238   6.820
 4200SOL    HW213500   1.919   0.120   6.708
 4201SOL     OW13501   5.581   5.930   3.559
 4201SOL    HW113502   5.656   5.865   3.567
 4201SOL    HW213503   5.498   5.891   3.601
 4202SOL     OW13504   5.535   4.990   4.733
 4202SOL    HW113505   5.510   5.016   4.639
 4202SOL    HW213506   5.471   5.032   4.797
 4203SOL     OW13507   5.318   5.584   3.344
 4203SOL    HW113508   5.318   5.566   3.246
 4203SOL    HW213509   5.410   5.573   3.380
 4204SOL     OW13510   3.222   3.328   1.596
 4204SOL    HW113511   3.155   3.263   1.633
 4204SOL    HW213512   3.190   3.362   1.508
 4205SOL     OW13513   2.604   5.038   3.635
 4205SOL    HW113514   2.587   5.109   3.703
 4205SOL    HW213515   2.597   5.077   3.543
 4206SOL     OW13516   5.205   0.339   4.409
 4206SOL    HW113517   5.232   0.349   4.313
 4206SOL    HW213518   5.112   0.373   4.422
 4207SOL     OW13519   0.948   1.328   1.774
 4207SOL    HW113520   0.865   1.320   1.718
 4207SOL    HW213521   1.026   1.346   1.715
 4208SOL     OW13522   0.670   3.614   1.200
 4208SOL    HW113523   0.693   3.615   1.103
 4208SOL    HW213524   0.712   3.693   1.246
 4209SOL     OW13525   2.876   0.258   4.883
 4209SOL    HW113526   2.947   0.227   4.820
 4209SOL    HW213527   2.807   0.309   4.832
 4210SOL     OW13528   5.093   2.929   0.614
 4210SOL    HW113529   5.031   2.867   0.566
 4210SOL    HW213530   5.057   2.948   0.705
 4211SOL     OW13531   4.561   4.932   3.493
 4211SOL    HW113532   4.629   4.971   3.431
 4211SOL    HW213533   4.581   4.835   3.508
 4212SOL     OW13534   6.213   0.962   2.772
 4212SOL    HW113535   6.117   0.958   2.802
 4212SOL    HW213536   6.264   0.889   2.818
 4213SOL     OW13537   1.135   1.163   2.581
 4213SOL    HW113538   1.065   1.191   2.514
 4213SOL    HW213539   1.110   1.199   2.671
 4214SOL     OW13540   1.263   2.961   4.427
 4214SOL    HW113541   1.303   2.886   4.373
 4214SOL    HW213542   1.335   3.024   4.455
 4215SOL     OW13543   0.892   5.234   4.075
 4215SOL    HW113544   0.895   5.290   4.158
 4215SOL    HW213545   0.950   5.274   4.005
 4216SOL     OW13546   1.294   3.100   5.036
 4216SOL    HW113547   1.266   3.196   5.028
 4216SOL    HW213548   1.272   3.066   5.128
 4217SOL     OW13549   6.936   0.370   3.057
 4217SOL    HW113550   6.940   0.459   3.011
 4217SOL    HW213551   6.887   0.305   2.999
 4218SOL     OW13552   4.529   6.941   2.139
 4218SOL    HW113553   4.440   6.926   2.096
 4218SOL    HW213554   4.570   0.012   2.101
 4219SOL     OW13555   4.132   6.020   3.260
 4219SOL    HW113556   4.051   6.053   3.309
 4219SOL    HW213557   4.212   6.031   3.318
 4220SOL     OW13558   6.127   2.720   3.429
 4220SOL    HW113559   6.048   2.682   3.477
 4220SOL    HW213560   6.165   2.650   3.368
 4221SOL     OW13561   5.644   5.639   5.929
 4221SOL    HW113562   5.702   5.693   5.869
 4221SOL    HW213563   5.696   5.614   6.011
 4222SOL     OW13564   4.514   2.062   1.081
 4222SOL    HW113565   4.472   1.989   1.028
 4222SOL    HW213566   4.613   2.057   1.073
 4223SOL     OW13567   3.952   3.844   2.470
 4223SOL    HW113568   4.030   3.899   2.499
 4223SOL    HW213569   3.872   3.867   2.525
 4224SOL     OW13570   4.441   2.455   5.010
 4224SOL    HW113571   4.506   2.438   5.084
 4224SOL    HW213572   4.350   2.469   5.049
 4225SOL     OW13573   5.620   0.169   4.683
 4225SOL    HW113574   5.702   0.183   4.738
 4225SOL    HW213575   5.573   0.086   4.715
 4226SOL     OW13576   1.238   1.212   3.954
 4226SOL    HW113577   1.259   1.226   3.857
 4226SOL    HW213578   1.167   1.277   3.983
 4227SOL     OW13579   5.697   4.144   0.084
 4227SOL    HW113580   5.677   4.119   7.000
 4227SOL    HW213581   5.773   4.208   0.086
 4228SOL     OW13582   6.046   5.290   2.438
 4228SOL    HW113583   6.139   5.318   2.412
 4228SOL    HW213584   5.985   5.302   2.360
 4229SOL     OW13585   5.232   4.658   5.625
 4229SOL    HW113586   5.281   4.602   5.558
 4229SOL    HW213587   5.273   4.645   5.715
 4230SOL     OW13588   3.163   6.807   4.721
 4230SOL    HW113589   3.072   6.831   4.756
 4230SOL    HW213590   3.230   6.872   4.756
 4231SOL     OW13591   4.288   6.753   5.713
 4231SOL    HW113592   4.284   6.846   5.676
 4231SOL    HW213593   4.218   6.697   5.669
 4232SOL     OW13594   2.194   4.146   2.197
 4232SOL    HW113595   2.095   4.148   2.209
 4232SOL    HW213596   2.234   4.227   2.241
 4233SOL     OW13597   6.318   6.662   0.912
 4233SOL    HW113598   6.287   6.569   0.893
 4233SOL    HW213599   6.387   6.660   0.985
 4234SOL     OW13600   2.823   4.491   5.658
 4234SOL    HW113601   2.793   4.529   5.570
 4234SOL    HW213602   2.914   4.450   5.647
 4235SOL     OW13603   6.331   3.788   5.733
 4235SOL    HW113604   6.289   3.858   5.676
 4235SOL    HW213605   6.266   3.757   5.802
 4236SOL     OW13606   1.309   3.301   4.467
 4236SOL    HW113607   1.222   3.336   4.432
 4236SOL    HW213608   1.294   3.258   4.556
 4237SOL     OW13609   5.430   3.292   5.071
 4237SOL    HW113610   5.439   3.194   5.086
 4237SOL    HW213611   5.334   3.316   5.061
 4238SOL     OW13612   4.299   5.046   4.226
 4238SOL    HW113613   4.241   4.976   4.267
 4238SOL    HW213614   4.264   5.069   4.135
 4239SOL     OW13615   4.807   5.586   5.759
 4239SOL    HW113616   4.846   5.514   5.700
 4239SOL    HW213617   4.880   5.630   5.810
 4240SOL     OW13618   2.377   4.745   6.778
 4240SOL    HW113619   2.325   4.675   6.729
 4240SOL    HW213620   2.383   4.827   6.722
 4241SOL     OW13621   3.910   0.539   6.328
 4241SOL    HW113622   3.987   0.602   6.317
 4241SOL    HW213623   3.852   0.571   6.404
 4242SOL     OW13624   1.812   0.629   2.719
 4242SOL    HW113625   1.793   0.715   2.670
 4242SOL    HW213626   1.757   0.555   2.679
 4243SOL     OW13627   1.599   2.834   3.358
 4243SOL    HW113628   1.647   2.882   3.431
 4243SOL    HW213629   1.631   2.869   3.269
 4244SOL     OW13630   3.758   6.575   1.734
 4244SOL    HW113631   3.788   6.599   1.642
 4244SOL    HW213632   3.805   6.492   1.764
 4245SOL     OW13633   6.192   3.739   0.914
 4245SOL    HW113634   6.163   3.656   0.961
 4245SOL    HW213635   6.113   3.799   0.900
 4246SOL     OW13636   5.138   1.625   3.798
 4246SOL    HW113637   5.143   1.713   3.750
 4246SOL    HW213638   5.209   1.622   3.869
 4247SOL     OW13639   1.479   5.114   5.938
 4247SOL    HW113640   1.540   5.134   5.861
 4247SOL    HW213641   1.476   5.015   5.952
 4248SOL     OW13642   1.662   0.819   3.436
 4248SOL    HW113643   1.700   0.886   3.499
 4248SOL    HW213644   1.702   0.729   3.455
 4249SOL     OW13645   6.497   6.708   4.832
 4249SOL    HW113646   6.594   6.702   4.805
 4249SOL    HW213647   6.439   6.695   4.752
 4250SOL     OW13648   0.052   5.631   4.266
 4250SOL    HW113649   0.085   5.619   4.360
 4250SOL    HW213650   0.090   5.559   4.208
 4251SOL     OW13651   6.403   2.111   5.735
 4251SOL    HW113652   6.322   2.131   5.680
 4251SOL    HW213653   6.483   2.158   5.696
 4252SOL     OW13654   0.010   6.571   0.104
 4252SOL    HW113655   0.068   6.516   0.044
 4252SOL    HW213656   0.050   6.573   0.196
 4253SOL     OW13657   4.711   5.643   2.767
 4253SOL    HW113658   4.763   5.704   2.707
 4253SOL    HW213659   4.754   5.552   2.767
 4254SOL     OW13660   1.640   3.151   0.082
 4254SOL    HW113661   1.681   3.146   0.174
 4254SOL    HW213662   1.548   3.190   0.089
 4255SOL     OW13663   1.286   3.447   3.204
 4255SOL    HW113664   1.266   3.531   3.154
 4255SOL    HW213665   1.372   3.458   3.254
 4256SOL     OW13666   0.648   6.032   1.624
 4256SOL    HW113667   0.699   5.992   1.547
 4256SOL    HW213668   0.670   6.129   1.632
 4257SOL     OW13669   6.599   0.341   4.662
 4257SOL    HW113670   6.687   0.380   4.634
 4257SOL    HW213671   6.543   0.412   4.705
 4258SOL     OW13672   3.255   6.165   0.714
 4258SOL    HW113673   3.320   6.235   0.687
 4258SOL    HW213674   3.209   6.129   0.633
 4259SOL     OW13675   1.469   0.240   1.740
 4259SOL    HW113676   1.566   0.214   1.738
 4259SOL    HW213677   1.443   0.279   1.652
 4260SOL     OW13678   5.771   1.200   4.493
 4260SOL    HW113679   5.732   1.108   4.488
 4260SOL    HW213680   5.777   1.238   4.401
 4261SOL     OW13681   2.106   6.349   4.049
 4261SOL    HW113682   2.039   6.308   4.111
 4261SOL    HW213683   2.196   6.309   4.067
 4262SOL     OW13684   2.056   4.127   6.592
 4262SOL    HW113685   2.112   4.072   6.654
 4262SOL    HW213686   1.970   4.080   6.573
 4263SOL     OW13687   2.296   1.610   4.398
 4263SOL    HW113688   2.331   1.637   4.487
 4263SOL    HW213689   2.369   1.566   4.345
 4264SOL     OW13690   5.012   1.594   5.212
 4264SOL    HW113691   5.009   1.688   5.245
 4264SOL    HW213692   4.935   1.578   5.149
 4265SOL     OW13693   3.234   0.278   6.760
 4265SOL    HW113694   3.209   0.319   6.673
 4265SOL    HW213695   3.330   0.251   6.758
 4266SOL     OW13696   0.894   5.299   1.294
 4266SOL    HW113697   0.905   5.248   1.379
 4266SOL    HW213698   0.937   5.388   1.302
 4267SOL     OW13699   1.766   4.677   4.785
 4267SOL    HW113700   1.765   4.701   4.688
 4267SOL    HW213701   1.848   4.715   4.828
 4268SOL     OW13702   1.301   4.142   0.425
 4268SOL    HW113703   1.396   4.116   0.408
 4268SOL    HW213704   1.299   4.231   0.471
 4269SOL     OW13705   3.036   1.487   5.023
 4269SOL    HW113706   3.110   1.478   4.956
 4269SOL    HW213707   3.064   1.443   5.109
 4270SOL     OW13708   3.858   2.880   0.960
 4270SOL    HW113709   3.865   2.818   0.882
 4270SOL    HW213710   3.874   2.830   1.045
 4271SOL     OW13711   0.009   0.891   1.505
 4271SOL    HW113712   0.006   0.823   1.578
 4271SOL    HW213713   6.945   0.875   1.442
 4272SOL     OW13714   0.145   1.148   6.693
 4272SOL    HW113715   0.117   1.082   6.623
 4272SOL    HW213716   0.119   1.240   6.663
 4273SOL     OW13717   3.133   5.873   4.653
 4273SOL    HW113718   3.077   5.950   4.624
 4273SOL    HW213719   3.128   5.801   4.584
 4274SOL     OW13720   6.706   1.601   1.931
 4274SOL    HW113721   6.745   1.566   1.846
 4274SOL    HW213722   6.606   1.592   1.928
 4275SOL     OW13723   6.907   3.075   3.547
 4275SOL    HW113724   6.807   3.086   3.546
 4275SOL    HW213725   6.947   3.125   3.471
 4276SOL     OW13726   2.315   5.968   3.452
 4276SOL    HW113727   2.336   5.948   3.548
 4276SOL    HW213728   2.386   5.928   3.393
 4277SOL     OW13729   5.827   5.767   2.670
 4277SOL    HW113730   5.864   5.674   2.672
 4277SOL    HW213731   5.748   5.773   2.731
 4278SOL     OW13732   1.492   6.843   1.879
 4278SOL    HW113733   1.532   6.752   1.893
 4278SOL    HW213734   1.562   6.907   1.848
 4279SOL     OW13735   1.102   1.392   3.520
 4279SOL    HW113736   1.192   1.430   3.497
 4279SOL    HW213737   1.083   1.314   3.461
 4280SOL     OW13738   0.957   6.941   6.380
 4280SOL    HW113739   0.949   6.874   6.307
 4280SOL    HW213740   0.867   6.961   6.418
 4281SOL     OW13741   5.290   5.556   3.067
 4281SOL    HW113742   5.298   5.496   2.988
 4281SOL    HW213743   5.195   5.554   3.100
 4282SOL     OW13744   3.645   3.981   0.922
 4282SOL    HW113745   3.571   3.930   0.878
 4282SOL    HW213746   3.731   3.931   0.911
 4283SOL     OW13747   5.007   1.291   4.819
 4283SOL    HW113748   5.103   1.312   4.834
 4283SOL    HW213749   4.975   1.338   4.736
 4284SOL     OW13750   4.576   5.843   6.338
 4284SOL    HW113751   4.484   5.806   6.351
 4284SOL    HW213752   4.601   5.836   6.241
 4285SOL     OW13753   3.701   0.492   5.580
 4285SOL    HW113754   3.642   0.497   5.661
 4285SOL    HW213755   3.673   0.563   5.515
 4286SOL     OW13756   5.712   0.636   6.563
 4286SOL    HW113757   5.729   0.583   6.480
 4286SOL    HW213758   5.773   0.715   6.566
 4287SOL     OW13759   4.377   0.227   0.515
 4287SOL    HW113760   4.292   0.272   0.543
 4287SOL    HW213761   4.365   0.128   0.518
 4288SOL     OW13762   6.738   6.479   2.663
 4288SOL    HW113763   6.819   6.473   2.721
 4288SOL    HW213764   6.659   6.443   2.712
 4289SOL     OW13765   0.464   4.049   4.139
 4289SOL    HW113766   0.402   4.097   4.077
 4289SOL    HW213767   0.499   3.966   4.095
 4290SOL     OW13768   0.692   0.920   3.550
 4290SOL    HW113769   0.618   0.870   3.594
 4290SOL    HW213770   0.748   0.966   3.620
 4291SOL     OW13771   4.923   3.450   6.389
 4291SOL    HW113772   5.019   3.452   6.359
 4291SOL    HW213773   4.863   3.442   6.310
 4292SOL     OW13774   6.561   2.431   1.515
 4292SOL    HW113775   6.586   2.449   1.419
 4292SOL    HW213776   6.504   2.349   1.519
 4293SOL     OW13777   4.064   3.927   0.079
 4293SOL    HW113778   4.050   3.961   0.172
 4293SOL    HW213779   4.119   3.992   0.027
 4294SOL     OW13780   1.492   1.807   6.331
 4294SOL    HW113781   1.394   1.811   6.312
 4294SOL    HW213782   1.538   1.884   6.286
 4295SOL     OW13783   4.365   6.033   3.097
 4295SOL    HW113784   4.280   6.040   3.150
 4295SOL    HW213785   4.432   5.980   3.148
 4296SOL     OW13786   3.073   6.506   2.724
 4296SOL    HW113787   3.159   6.464   2.695
 4296SOL    HW213788   3.091   6.576   2.793
 4297SOL     OW13789   5.711   5.246   0.464
 4297SOL    HW113790   5.647   5.298   0.406
 4297SOL    HW213791   5.772   5.193   0.406
 4298SOL     OW13792   1.919   6.567   0.846
 4298SOL    HW113793   2.002   6.607   0.806
 4298SOL    HW213794   1.941   6.526   0.934
 4299SOL     OW13795   0.631   3.004   0.120
 4299SOL    HW113796   0.659   3.090   0.163
 4299SOL    HW213797   0.587   2.946   0.188
 4300SOL     OW13798   2.533   0.959   1.223
 4300SOL    HW113799   2.607   1.023   1.240
 4300SOL    HW213800   2.570   0.872   1.188
 4301SOL     OW13801   2.676   6.483   0.974
 4301SOL    HW113802   2.579   6.508   0.972
 4301SOL    HW213803   2.731   6.556   0.933
 4302SOL     OW13804   2.510   5.799   6.117
 4302SOL    HW113805   2.591   5.816   6.061
 4302SOL    HW213806   2.434   5.770   6.058
 4303SOL     OW13807   5.892   5.261   2.876
 4303SOL    HW113808   5.881   5.240   2.779
 4303SOL    HW213809   5.963   5.330   2.888
 4304SOL     OW13810   3.797   3.706   1.410
 4304SOL    HW113811   3.746   3.777   1.457
 4304SOL    HW213812   3.875   3.678   1.465
 4305SOL     OW13813   1.530   6.736   5.312
 4305SOL    HW113814   1.563   6.677   5.238
 4305SOL    HW213815   1.511   6.827   5.275
 4306SOL     OW13816   5.908   3.867   5.145
 4306SOL    HW113817   5.885   3.878   5.242
 4306SOL    HW213818   5.868   3.782   5.110
 4307SOL     OW13819   0.456   1.559   5.984
 4307SOL    HW113820   0.532   1.549   6.049
 4307SOL    HW213821   0.490   1.543   5.891
 4308SOL     OW13822   5.035   5.937   6.977
 4308SOL    HW113823   4.970   5.996   0.013
 4308SOL    HW213824   5.009   5.841   6.992
 4309SOL     OW13825   1.159   2.064   0.821
 4309SOL    HW113826   1.067   2.066   0.861
 4309SOL    HW213827   1.156   2.108   0.731
 4310SOL     OW13828   0.097   1.990   3.254
 4310SOL    HW113829   0.073   1.914   3.194
 4310SOL    HW213830   0.080   2.076   3.207
 4311SOL     OW13831   0.318   0.424   1.887
 4311SOL    HW113832   0.373   0.507   1.892
 4311SOL    HW213833   0.312   0.394   1.792
 4312SOL     OW13834   0.541   4.525   2.437
 4312SOL    HW113835   0.501   4.616   2.429
 4312SOL    HW213836   0.636   4.533   2.467
 4313SOL     OW13837   6.689   2.509   6.601
 4313SOL    HW113838   6.700   2.550   6.691
 4313SOL    HW213839   6.719   2.414   6.603
 4314SOL     OW13840   0.295   1.643   5.622
 4314SOL    HW113841   0.232   1.607   5.691
 4314SOL    HW213842   0.383   1.596   5.629
 4315SOL     OW13843   2.911   1.176   4.652
 4315SOL    HW113844   2.951   1.087   4.672
 4315SOL    HW213845   2.819   1.164   4.614
 4316SOL     OW13846   5.437   6.470   1.591
 4316SOL    HW113847   5.526   6.428   1.575
 4316SOL    HW213848   5.396   6.495   1.504
 4317SOL     OW13849   4.903   0.837   5.693
 4317SOL    HW113850   4.963   0.825   5.772
 4317SOL    HW213851   4.928   0.771   5.622
 4318SOL     OW13852   0.815   0.218   4.416
 4318SOL    HW113853   0.787   0.193   4.509
 4318SOL    HW213854   0.904   0.263   4.419
 4319SOL     OW13855   1.660   5.081   2.807
 4319SOL    HW113856   1.730   5.151   2.798
 4319SOL    HW213857   1.586   5.098   2.741
 4320SOL     OW13858   3.037   6.671   1.069
 4320SOL    HW113859   3.035   6.609   1.147
 4320SOL    HW213860   3.068   6.762   1.100
 4321SOL     OW13861   6.128   6.404   2.932
 4321SOL    HW113862   6.146   6.309   2.906
 4321SOL    HW213863   6.161   6.420   3.026
 4322SOL     OW13864   1.161   3.341   4.995
 4322SOL    HW113865   1.193   3.403   5.066
 4322SOL    HW213866   1.068   3.311   5.015
 4323SOL     OW13867   3.721   4.885   6.973
 4323SOL    HW113868   3.761   4.894   6.881
 4323SOL    HW213869   3.794   4.875   0.029
 4324SOL     OW13870   0.234   4.643   5.635
 4324SOL    HW113871   0.179   4.638   5.552
 4324SOL    HW213872   0.294   4.563   5.641
 4325SOL     OW13873   2.166   0.777   2.571
 4325SOL    HW113874   2.240   0.710   2.578
 4325SOL    HW213875   2.113   0.777   2.656
 4326SOL     OW13876   5.222   2.294   2.500
 4326SOL    HW113877   5.141   2.345   2.528
 4326SOL    HW213878   5.203   2.196   2.508
 4327SOL     OW13879   2.866   6.250   3.584
 4327SOL    HW113880   2.804   6.263   3.506
 4327SOL    HW213881   2.827   6.294   3.665
 4328SOL     OW13882   5.984   6.985   4.610
 4328SOL    HW113883   5.970   6.923   4.532
 4328SOL    HW213884   6.082   6.992   4.629
 4329SOL     OW13885   0.201   1.583   6.093
 4329SOL    HW113886   0.181   1.679   6.073
 4329SOL    HW213887   0.298   1.565   6.076
 4330SOL     OW13888   3.061   4.819   4.924
 4330SOL    HW113889   3.134   4.846   4.987
 4330SOL    HW213890   3.004   4.750   4.969
 4331SOL     OW13891   5.932   1.241   2.040
 4331SOL    HW113892   5.898   1.167   1.982
 4331SOL    HW213893   5.857   1.302   2.064
 4332SOL     OW13894   0.370   4.999   2.624
 4332SOL    HW113895   0.299   5.069   2.624
 4332SOL    HW213896   0.331   4.912   2.593
 4333SOL     OW13897   3.782   2.543   5.843
 4333SOL    HW113898   3.722   2.553   5.763
 4333SOL    HW213899   3.727   2.516   5.922
 4334SOL     OW13900   0.179   2.950   4.388
 4334SOL    HW113901   0.134   2.879   4.443
 4334SOL    HW213902   0.143   3.040   4.414
 4335SOL     OW13903   2.567   3.708   1.480
 4335SOL    HW113904   2.473   3.714   1.514
 4335SOL    HW213905   2.621   3.783   1.517
 4336SOL     OW13906   2.647   5.222   5.780
 4336SOL    HW113907   2.552   5.251   5.790
 4336SOL    HW213908   2.698   5.248   5.861
 4337SOL     OW13909   1.431   5.108   3.927
 4337SOL    HW113910   1.425   5.118   3.828
 4337SOL    HW213911   1.367   5.037   3.958
 4338SOL     OW13912   3.783   1.261   5.682
 4338SOL    HW113913   3.816   1.167   5.688
 4338SOL    HW213914   3.688   1.261   5.651
 4339SOL     OW13915   4.039   3.733   6.459
 4339SOL    HW113916   3.986   3.659   6.417
 4339SOL    HW213917   4.102   3.771   6.391
 4340SOL     OW13918   6.636   4.303   0.727
 4340SOL    HW113919   6.689   4.264   0.803
 4340SOL    HW213920   6.549   4.337   0.761
 4341SOL     OW13921   6.797   0.119   2.481
 4341SOL    HW113922   6.882   0.171   2.476
 4341SOL    HW213923   6.771   0.090   2.388
 4342SOL     OW13924   4.975   3.732   2.609
 4342SOL    HW113925   5.067   3.756   2.640
 4342SOL    HW213926   4.983   3.671   2.530
 4343SOL     OW13927   3.903   6.893   5.833
 4343SOL    HW113928   3.819   6.916   5.883
 4343SOL    HW213929   3.944   6.811   5.872
 4344SOL     OW13930   6.966   3.402   3.786
 4344SOL    HW113931   7.011   3.476   3.835
 4344SOL    HW213932   0.022   3.345   3.740
 4345SOL     OW13933   3.101   3.126   2.600
 4345SOL    HW113934   3.104   3.100   2.503
 4345SOL    HW213935   3.016   3.175   2.618
 4346SOL     OW13936   0.954   3.179   2.408
 4346SOL    HW113937   1.026   3.154   2.472
 4346SOL    HW213938   0.877   3.116   2.417
 4347SOL     OW13939   6.081   6.051   0.555
 4347SOL    HW113940   6.081   5.951   0.551
 4347SOL    HW213941   6.146   6.087   0.489
 4348SOL     OW13942   5.924   5.413   4.002
 4348SOL    HW113943   5.897   5.319   3.980
 4348SOL    HW213944   5.870   5.476   3.946
 4349SOL     OW13945   6.934   3.821   4.142
 4349SOL    HW113946   6.845   3.782   4.122
 4349SOL    HW213947   6.937   3.852   4.238
 4350SOL     OW13948   4.077   1.561   4.845
 4350SOL    HW113949   4.175   1.543   4.835
 4350SOL    HW213950   4.050   1.636   4.784
 4351SOL     OW13951   1.213   6.588   0.304
 4351SOL    HW113952   1.131   6.579   0.360
 4351SOL    HW213953   1.269   6.506   0.312
 4352SOL     OW13954   3.739   3.648   0.746
 4352SOL    HW113955   3.717   3.629   0.650
 4352SOL    HW213956   3.827   3.695   0.752
 4353SOL     OW13957   3.026   2.859   1.428
 4353SOL    HW113958   3.054   2.765   1.449
 4353SOL    HW213959   2.929   2.871   1.453
 4354SOL     OW13960   5.922   0.107   3.523
 4354SOL    HW113961   5.963   0.088   3.434
 4354SOL    HW213962   5.958   0.042   3.590
 4355SOL     OW13963   1.670   5.962   2.738
 4355SOL    HW113964   1.687   5.864   2.745
 4355SOL    HW213965   1.578   5.977   2.701
 4356SOL     OW13966   5.387   2.555   6.071
 4356SOL    HW113967   5.450   2.614   6.020
 4356SOL    HW213968   5.293   2.580   6.049
 4357SOL     OW13969   5.854   0.666   2.435
 4357SOL    HW113970   5.755   0.666   2.446
 4357SOL    HW213971   5.891   0.577   2.461
 4358SOL     OW13972   2.183   0.009   6.821
 4358SOL    HW113973   2.093   0.051   6.817
 4358SOL    HW213974   2.238   0.039   6.742
 4359SOL     OW13975   2.467   2.117   6.857
 4359SOL    HW113976   2.481   2.183   6.783
 4359SOL    HW213977   2.516   2.148   6.939
 4360SOL     OW13978   1.867   3.571   3.812
 4360SOL    HW113979   1.898   3.552   3.718
 4360SOL    HW213980   1.769   3.590   3.812
 4361SOL     OW13981   6.586   2.033   0.835
 4361SOL    HW113982   6.628   2.124   0.834
 4361SOL    HW213983   6.487   2.042   0.842
 4362SOL     OW13984   1.202   5.601   3.285
 4362SOL    HW113985   1.263   5.680   3.277
 4362SOL    HW213986   1.189   5.578   3.381
 4363SOL     OW13987   4.571   1.265   2.839
 4363SOL    HW113988   4.576   1.284   2.937
 4363SOL    HW213989   4.658   1.227   2.808
 4364SOL     OW13990   4.159   3.409   2.382
 4364SOL    HW113991   4.234   3.412   2.315
 4364SOL    HW213992   4.075   3.377   2.337
 4365SOL     OW13993   2.440   2.212   1.445
 4365SOL    HW113994   2.514   2.181   1.505
 4365SOL    HW213995   2.354   2.212   1.496
 4366SOL     OW13996   4.491   6.047   4.648
 4366SOL    HW113997   4.434   6.108   4.593
 4366SOL    HW213998   4.435   5.971   4.682
 4367SOL     OW13999   2.686   5.440   3.129
 4367SOL    HW114000   2.676   5.389   3.215
 4367SOL    HW214001   2.782   5.461   3.114
 4368SOL     OW14002   4.716   4.194   3.343
 4368SOL    HW114003   4.667   4.198   3.430
 4368SOL    HW214004   4.652   4.212   3.268
 4369SOL     OW14005   4.428   4.575   3.198
 4369SOL    HW114006   4.358   4.607   3.263
 4369SOL    HW214007   4.510   4.630   3.208
 4370SOL     OW14008   3.754   4.437   1.705
 4370SOL    HW114009   3.741   4.465   1.609
 4370SOL    HW214010   3.706   4.501   1.765
 4371SOL     OW14011   2.979   1.975   0.556
 4371SOL    HW114012   2.923   1.959   0.636
 4371SOL    HW214013   3.031   1.892   0.533
 4372SOL     OW14014   1.799   3.217   4.461
 4372SOL    HW114015   1.878   3.261   4.504
 4372SOL    HW214016   1.716   3.264   4.489
 4373SOL     OW14017   4.289   1.357   5.833
 4373SOL    HW114018   4.272   1.338   5.737
 4373SOL    HW214019   4.281   1.273   5.886
 4374SOL     OW14020   2.092   0.846   1.683
 4374SOL    HW114021   2.041   0.800   1.756
 4374SOL    HW214022   2.187   0.816   1.686
 4375SOL     OW14023   4.674   1.294   4.214
 4375SOL    HW114024   4.737   1.233   4.261
 4375SOL    HW214025   4.651   1.256   4.124
 4376SOL     OW14026   1.791   5.892   6.817
 4376SOL    HW114027   1.808   5.854   6.908
 4376SOL    HW214028   1.827   5.985   6.812
 4377SOL     OW14029   6.055   0.002   6.592
 4377SOL    HW114030   6.150   7.006   6.623
 4377SOL    HW214031   6.031   0.098   6.582
 4378SOL     OW14032   2.605   5.633   2.524
 4378SOL    HW114033   2.552   5.705   2.478
 4378SOL    HW214034   2.645   5.670   2.608
 4379SOL     OW14035   1.323   0.810   1.855
 4379SOL    HW114036   1.292   0.862   1.934
 4379SOL    HW214037   1.266   0.832   1.776
 4380SOL     OW14038   2.312   5.336   4.722
 4380SOL    HW114039   2.317   5.431   4.692
 4380SOL    HW214040   2.268   5.281   4.651
 4381SOL     OW14041   4.105   6.012   5.708
 4381SOL    HW114042   4.015   5.981   5.679
 4381SOL    HW214043   4.100   6.108   5.735
 4382SOL     OW14044   4.845   3.668   3.335
 4382SOL    HW114045   4.864   3.764   3.315
 4382SOL    HW214046   4.748   3.657   3.357
 4383SOL     OW14047   0.988   2.825   6.909
 4383SOL    HW114048   1.051   2.827   6.986
 4383SOL    HW214049   1.010   2.748   6.849
 4384SOL     OW14050   3.923   6.172   1.127
 4384SOL    HW114051   3.882   6.262   1.110
 4384SOL    HW214052   3.875   6.127   1.202
 4385SOL     OW14053   6.898   1.854   2.623
 4385SOL    HW114054   6.991   1.820   2.633
 4385SOL    HW214055   6.871   1.903   2.706
 4386SOL     OW14056   1.037   3.413   0.046
 4386SOL    HW114057   1.079   3.497   0.011
 4386SOL    HW214058   1.061   3.336   6.997
 4387SOL     OW14059   6.901   3.438   1.918
 4387SOL    HW114060   6.933   3.454   2.011
 4387SOL    HW214061   6.815   3.488   1.904
 4388SOL     OW14062   3.572   1.522   5.370
 4388SOL    HW114063   3.611   1.519   5.462
 4388SOL    HW214064   3.505   1.596   5.365
 4389SOL     OW14065   4.499   2.532   2.690
 4389SOL    HW114066   4.516   2.459   2.756
 4389SOL    HW214067   4.413   2.514   2.642
 4390SOL     OW14068   4.653   2.526   2.126
 4390SOL    HW114069   4.705   2.611   2.131
 4390SOL    HW214070   4.605   2.511   2.212
 4391SOL     OW14071   0.632   5.916   0.548
 4391SOL    HW114072   0.581   5.971   0.615
 4391SOL    HW214073   0.660   5.830   0.591
 4392SOL     OW14074   5.582   3.324   4.314
 4392SOL    HW114075   5.675   3.331   4.350
 4392SOL    HW214076   5.517   3.325   4.390
 4393SOL     OW14077   4.553   6.637   3.485
 4393SOL    HW114078   4.608   6.590   3.416
 4393SOL    HW214079   4.457   6.633   3.459
 4394SOL     OW14080   4.866   0.779   2.227
 4394SOL    HW114081   4.963   0.753   2.228
 4394SOL    HW214082   4.839   0.805   2.135
 4395SOL     OW14083   5.182   1.809   2.098
 4395SOL    HW114084   5.090   1.830   2.129
 4395SOL    HW214085   5.180   1.727   2.040
 4396SOL     OW14086   1.409   0.557   3.917
 4396SOL    HW114087   1.464   0.474   3.921
 4396SOL    HW214088   1.368   0.574   4.007
 4397SOL     OW14089   6.726   0.357   5.888
 4397SOL    HW114090   6.794   0.428   5.869
 4397SOL    HW214091   6.677   0.335   5.804
 4398SOL     OW14092   6.670   4.776   4.503
 4398SOL    HW114093   6.682   4.708   4.575
 4398SOL    HW214094   6.618   4.737   4.428
 4399SOL     OW14095   2.133   1.637   1.536
 4399SOL    HW114096   2.165   1.544   1.554
 4399SOL    HW214097   2.149   1.693   1.617
 4400SOL     OW14098   3.212   6.120   4.932
 4400SOL    HW114099   3.184   6.089   4.841
 4400SOL    HW214100   3.260   6.207   4.924
 4401SOL     OW14101   5.473   6.215   4.818
 4401SOL    HW114102   5.469   6.314   4.808
 4401SOL    HW214103   5.401   6.184   4.880
 4402SOL     OW14104   6.961   6.977   3.134
 4402SOL    HW114105   6.912   0.046   3.168
 4402SOL    HW214106   0.011   6.944   3.205
 4403SOL     OW14107   0.773   0.255   2.682
 4403SOL    HW114108   0.755   0.330   2.746
 4403SOL    HW214109   0.752   0.286   2.589
 4404SOL     OW14110   1.548   4.010   3.239
 4404SOL    HW114111   1.583   4.020   3.332
 4404SOL    HW214112   1.576   4.088   3.184
 4405SOL     OW14113   3.450   4.097   5.756
 4405SOL    HW114114   3.524   4.037   5.725
 4405SOL    HW214115   3.429   4.075   5.852
 4406SOL     OW14116   5.448   3.948   1.308
 4406SOL    HW114117   5.351   3.949   1.331
 4406SOL    HW214118   5.492   3.869   1.350
 4407SOL     OW14119   6.539   6.731   0.034
 4407SOL    HW114120   6.472   6.667   0.072
 4407SOL    HW214121   6.615   6.680   7.006
 4408SOL     OW14122   4.861   5.856   6.763
 4408SOL    HW114123   4.881   5.781   6.826
 4408SOL    HW214124   4.877   5.943   6.810
 4409SOL     OW14125   3.368   1.596   2.022
 4409SOL    HW114126   3.317   1.644   2.094
 4409SOL    HW214127   3.308   1.530   1.977
 4410SOL     OW14128   2.444   5.569   1.573
 4410SOL    HW114129   2.500   5.625   1.634
 4410SOL    HW214130   2.498   5.540   1.495
 4411SOL     OW14131   3.699   3.156   2.339
 4411SOL    HW114132   3.662   3.073   2.297
 4411SOL    HW214133   3.727   3.136   2.433
 4412SOL     OW14134   3.731   2.322   6.520
 4412SOL    HW114135   3.828   2.325   6.545
 4412SOL    HW214136   3.698   2.415   6.505
 4413SOL     OW14137   3.884   5.905   4.598
 4413SOL    HW114138   3.804   5.880   4.543
 4413SOL    HW214139   3.872   5.873   4.692
 4414SOL     OW14140   3.694   5.036   1.918
 4414SOL    HW114141   3.609   5.090   1.921
 4414SOL    HW214142   3.676   4.944   1.951
 4415SOL     OW14143   5.138   2.495   0.129
 4415SOL    HW114144   5.173   2.406   0.099
 4415SOL    HW214145   5.056   2.518   0.077
 4416SOL     OW14146   3.754   0.745   3.412
 4416SOL    HW114147   3.829   0.717   3.352
 4416SOL    HW214148   3.790   0.772   3.501
 4417SOL     OW14149   0.031   0.278   1.599
 4417SOL    HW114150   0.055   0.330   1.681
 4417SOL    HW214151   7.006   0.340   1.530
 4418SOL     OW14152   4.014   6.848   3.336
 4418SOL    HW114153   4.003   6.783   3.411
 4418SOL    HW214154   4.077   6.811   3.268
 4419SOL     OW14155   0.319   5.239   6.354
 4419SOL    HW114156   0.409   5.203   6.378
 4419SOL    HW214157   0.296   5.314   6.417
 4420SOL     OW14158   5.298   1.582   6.587
 4420SOL    HW114159   5.249   1.495   6.578
 4420SOL    HW214160   5.371   1.587   6.519
 4421SOL     OW14161   1.693   1.676   3.508
 4421SOL    HW114162   1.645   1.753   3.551
 4421SOL    HW214163   1.665   1.591   3.553
 4422SOL     OW14164   2.526   3.379   6.009
 4422SOL    HW114165   2.550   3.473   5.984
 4422SOL    HW214166   2.490   3.378   6.102
 4423SOL     OW14167   0.911   2.110   6.775
 4423SOL    HW114168   0.938   2.148   6.687
 4423SOL    HW214169   0.992   2.090   6.830
 4424SOL     OW14170   0.133   6.814   3.303
 4424SOL    HW114171   0.194   6.741   3.272
 4424SOL    HW214172   0.103   6.794   3.397
 4425SOL     OW14173   4.634   4.246   6.609
 4425SOL    HW114174   4.582   4.239   6.695
 4425SOL    HW214175   4.707   4.313   6.620
 4426SOL     OW14176   1.049   0.493   5.629
 4426SOL    HW114177   1.054   0.470   5.532
 4426SOL    HW214178   1.122   0.447   5.679
 4427SOL     OW14179   0.815   6.848   3.739
 4427SOL    HW114180   0.908   6.819   3.716
 4427SOL    HW214181   0.772   6.780   3.798
 4428SOL     OW14182   2.483   5.559   3.019
 4428SOL    HW114183   2.547   5.499   3.066
 4428SOL    HW214184   2.437   5.618   3.085
 4429SOL     OW14185   4.136   0.037   3.081
 4429SOL    HW114186   4.117   6.960   3.123
 4429SOL    HW214187   4.050   0.085   3.065
 4430SOL     OW14188   1.847   1.259   1.641
 4430SOL    HW114189   1.775   1.317   1.603
 4430SOL    HW214190   1.905   1.313   1.702
 4431SOL     OW14191   1.908   2.071   2.841
 4431SOL    HW114192   1.844   2.076   2.765
 4431SOL    HW214193   1.877   2.002   2.906
 4432SOL     OW14194   2.882   3.625   2.707
 4432SOL    HW114195   2.904   3.670   2.793
 4432SOL    HW214196   2.784   3.606   2.704
 4433SOL     OW14197   6.339   0.289   3.171
 4433SOL    HW114198   6.357   0.259   3.078
 4433SOL    HW214199   6.359   0.215   3.235
 4434SOL     OW14200   5.619   2.143   4.491
 4434SOL    HW114201   5.655   2.195   4.569
 4434SOL    HW214202   5.521   2.128   4.503
 4435SOL     OW14203   3.698   2.796   1.734
 4435SOL    HW114204   3.715   2.827   1.828
 4435SOL    HW214205   3.744   2.709   1.719
 4436SOL     OW14206   4.864   1.488   6.937
 4436SOL    HW114207   4.953   1.460   6.903
 4436SOL    HW214208   4.840   1.578   6.899
 4437SOL     OW14209   3.317   0.216   4.598
 4437SOL    HW114210   3.359   0.148   4.539
 4437SOL    HW214211   3.367   0.221   4.685
 4438SOL     OW14212   4.357   3.276   6.117
 4438SOL    HW114213   4.403   3.311   6.036
 4438SOL    HW214214   4.268   3.239   6.091
 4439SOL     OW14215   2.392   5.618   2.028
 4439SOL    HW114216   2.387   5.587   1.933
 4439SOL    HW214217   2.325   5.691   2.043
 4440SOL     OW14218   0.240   0.503   6.165
 4440SOL    HW114219   0.309   0.573   6.185
 4440SOL    HW214220   0.284   0.413   6.159
 4441SOL     OW14221   6.279   2.663   2.843
 4441SOL    HW114222   6.297   2.621   2.932
 4441SOL    HW214223   6.198   2.621   2.802
 4442SOL     OW14224   3.118   6.867   2.730
 4442SOL    HW114225   3.062   6.821   2.661
 4442SOL    HW214226   3.064   6.878   2.814
 4443SOL     OW14227   2.620   1.880   5.311
 4443SOL    HW114228   2.699   1.940   5.327
 4443SOL    HW214229   2.536   1.935   5.312
 4444SOL     OW14230   5.341   0.567   2.114
 4444SOL    HW114231   5.266   0.607   2.167
 4444SOL    HW214232   5.337   0.599   2.020
 4445SOL     OW14233   1.644   1.022   6.197
 4445SOL    HW114234   1.631   0.997   6.101
 4445SOL    HW214235   1.654   1.121   6.205
 4446SOL     OW14236   6.678   6.154   3.774
 4446SOL    HW114237   6.754   6.094   3.751
 4446SOL    HW214238   6.711   6.248   3.782
 4447SOL     OW14239   5.159   2.904   5.532
 4447SOL    HW114240   5.256   2.921   5.518
 4447SOL    HW214241   5.145   2.857   5.619
 4448SOL     OW14242   2.580   2.935   6.388
 4448SOL    HW114243   2.641   2.987   6.448
 4448SOL    HW214244   2.608   2.949   6.293
 4449SOL     OW14245   1.024   1.353   5.121
 4449SOL    HW114246   1.040   1.449   5.098
 4449SOL    HW214247   0.948   1.318   5.066
 4450SOL     OW14248   3.734   4.027   3.466
 4450SOL    HW114249   3.698   4.045   3.557
 4450SOL    HW214250   3.670   4.060   3.397
 4451SOL     OW14251   6.116   4.205   2.046
 4451SOL    HW114252   6.112   4.141   2.123
 4451SOL    HW214253   6.144   4.295   2.080
 4452SOL     OW14254   6.236   6.001   6.233
 4452SOL    HW114255   6.295   6.073   6.267
 4452SOL    HW214256   6.149   6.003   6.283
 4453SOL     OW14257   5.565   1.990   1.496
 4453SOL    HW114258   5.640   2.019   1.436
 4453SOL    HW214259   5.522   2.070   1.537
 4454SOL     OW14260   5.000   3.215   1.597
 4454SOL    HW114261   4.987   3.216   1.696
 4454SOL    HW214262   4.920   3.175   1.554
 4455SOL     OW14263   4.403   1.252   2.091
 4455SOL    HW114264   4.420   1.158   2.061
 4455SOL    HW214265   4.472   1.313   2.052
 4456SOL     OW14266   0.761   5.949   3.247
 4456SOL    HW114267   0.835   5.986   3.191
 4456SOL    HW214268   0.763   5.991   3.337
 4457SOL     OW14269   5.498   2.205   6.448
 4457SOL    HW114270   5.495   2.291   6.396
 4457SOL    HW214271   5.429   2.208   6.520
 4458SOL     OW14272   3.858   2.080   5.920
 4458SOL    HW114273   3.770   2.128   5.928
 4458SOL    HW214274   3.861   2.031   5.833
 4459SOL     OW14275   4.755   5.957   4.690
 4459SOL    HW114276   4.783   5.934   4.783
 4459SOL    HW214277   4.673   6.015   4.693
 4460SOL     OW14278   1.947   1.747   6.202
 4460SOL    HW114279   1.959   1.761   6.103
 4460SOL    HW214280   2.034   1.716   6.241
 4461SOL     OW14281   2.517   0.319   1.894
 4461SOL    HW114282   2.486   0.412   1.874
 4461SOL    HW214283   2.617   0.316   1.892
 4462SOL     OW14284   6.663   5.607   1.601
 4462SOL    HW114285   6.687   5.583   1.507
 4462SOL    HW214286   6.682   5.529   1.661
 4463SOL     OW14287   1.124   3.929   6.201
 4463SOL    HW114288   1.079   3.923   6.112
 4463SOL    HW214289   1.084   3.862   6.263
 4464SOL     OW14290   5.823   3.484   6.773
 4464SOL    HW114291   5.798   3.477   6.676
 4464SOL    HW214292   5.774   3.561   6.814
 4465SOL     OW14293   1.326   6.247   2.232
 4465SOL    HW114294   1.318   6.335   2.185
 4465SOL    HW214295   1.395   6.254   2.305
 4466SOL     OW14296   0.710   2.183   3.724
 4466SOL    HW114297   0.639   2.133   3.774
 4466SOL    HW214298   0.694   2.281   3.732
 4467SOL     OW14299   0.977   6.664   3.054
 4467SOL    HW114300   1.023   6.753   3.054
 4467SOL    HW214301   0.884   6.675   3.019
 4468SOL     OW14302   1.405   2.262   0.532
 4468SOL    HW114303   1.391   2.355   0.498
 4468SOL    HW214304   1.323   2.233   0.583
 4469SOL     OW14305   4.376   0.519   0.026
 4469SOL    HW114306   4.294   0.494   6.986
 4469SOL    HW214307   4.350   0.539   0.121
 4470SOL     OW14308   4.380   4.731   1.215
 4470SOL    HW114309   4.349   4.797   1.147
 4470SOL    HW214310   4.412   4.780   1.297
 4471SOL     OW14311   6.451   3.469   0.688
 4471SOL    HW114312   6.500   3.478   0.601
 4471SOL    HW214313   6.497   3.402   0.746
 4472SOL     OW14314   1.783   4.578   2.354
 4472SOL    HW114315   1.700   4.536   2.315
 4472SOL    HW214316   1.836   4.508   2.402
 4473SOL     OW14317   0.367   6.696   5.364
 4473SOL    HW114318   0.307   6.747   5.301
 4473SOL    HW214319   0.425   6.634   5.312
 4474SOL     OW14320   4.622   0.442   3.704
 4474SOL    HW114321   4.690   0.514   3.716
 4474SOL    HW214322   4.538   0.482   3.665
 4475SOL     OW14323   1.900   4.098   0.444
 4475SOL    HW114324   1.883   4.000   0.434
 4475SOL    HW214325   1.812   4.146   0.445
 4476SOL     OW14326   4.563   6.224   1.842
 4476SOL    HW114327   4.538   6.163   1.767
 4476SOL    HW214328   4.655   6.259   1.828
 4477SOL     OW14329   1.134   1.789   0.817
 4477SOL    HW114330   1.165   1.883   0.827
 4477SOL    HW214331   1.148   1.759   0.723
 4478SOL     OW14332   2.093   6.079   1.509
 4478SOL    HW114333   2.039   6.163   1.516
 4478SOL    HW214334   2.038   6.002   1.539
 4479SOL     OW14335   0.596   0.220   5.265
 4479SOL    HW114336   0.631   0.136   5.305
 4479SOL    HW214337   0.496   0.217   5.262
 4480SOL     OW14338   0.868   4.696   3.517
 4480SOL    HW114339   0.805   4.641   3.461
 4480SOL    HW214340   0.954   4.647   3.528
 4481SOL     OW14341   1.192   6.914   4.615
 4481SOL    HW114342   1.152   6.878   4.531
 4481SOL    HW214343   1.223   7.008   4.601
 4482SOL     OW14344   6.926   4.088   4.041
 4482SOL    HW114345   6.926   3.991   4.062
 4482SOL    HW214346   6.973   4.138   4.114
 4483SOL     OW14347   5.685   2.610   2.133
 4483SOL    HW114348   5.711   2.522   2.092
 4483SOL    HW214349   5.715   2.612   2.228
 4484SOL     OW14350   4.142   2.621   5.635
 4484SOL    HW114351   4.164   2.601   5.539
 4484SOL    HW214352   4.169   2.714   5.657
 4485SOL     OW14353   5.305   1.528   6.193
 4485SOL    HW114354   5.339   1.435   6.185
 4485SOL    HW214355   5.348   1.586   6.124
 4486SOL     OW14356   6.219   2.841   3.970
 4486SOL    HW114357   6.243   2.938   3.975
 4486SOL    HW214358   6.135   2.830   3.917
 4487SOL     OW14359   3.261   3.004   6.349
 4487SOL    HW114360   3.253   3.089   6.402
 4487SOL    HW214361   3.357   2.989   6.324
 4488SOL     OW14362   0.334   1.379   5.021
 4488SOL    HW114363   0.261   1.437   4.982
 4488SOL    HW214364   0.296   1.290   5.046
 4489SOL     OW14365   6.357   6.880   4.402
 4489SOL    HW114366   6.363   6.804   4.467
 4489SOL    HW214367   6.272   6.931   4.419
 4490SOL     OW14368   6.853   1.935   3.571
 4490SOL    HW114369   6.856   1.843   3.533
 4490SOL    HW214370   6.943   1.978   3.561
 4491SOL     OW14371   1.098   3.037   2.884
 4491SOL    HW114372   1.091   3.105   2.957
 4491SOL    HW214373   1.115   2.947   2.923
 4492SOL     OW14374   4.544   3.284   6.659
 4492SOL    HW114375   4.604   3.321   6.730
 4492SOL    HW214376   4.559   3.185   6.651
 4493SOL     OW14377   6.113   5.063   4.049
 4493SOL    HW114378   6.182   5.085   3.979
 4493SOL    HW214379   6.092   5.146   4.101
 4494SOL     OW14380   6.343   4.099   4.096
 4494SOL    HW114381   6.267   4.133   4.040
 4494SOL    HW214382   6.361   4.164   4.170
 4495SOL     OW14383   5.120   6.528   1.189
 4495SOL    HW114384   5.163   6.541   1.100
 4495SOL    HW214385   5.042   6.589   1.198
 4496SOL     OW14386   5.026   4.038   5.537
 4496SOL    HW114387   5.019   4.137   5.539
 4496SOL    HW214388   5.004   4.002   5.628
 4497SOL     OW14389   6.104   4.820   0.381
 4497SOL    HW114390   6.006   4.810   0.364
 4497SOL    HW214391   6.142   4.732   0.411
 4498SOL     OW14392   0.260   3.687   0.104
 4498SOL    HW114393   0.322   3.766   0.111
 4498SOL    HW214394   0.263   3.636   0.190
 4499SOL     OW14395   0.105   3.128   6.016
 4499SOL    HW114396   0.077   3.032   6.007
 4499SOL    HW214397   0.102   3.154   6.113
 4500SOL     OW14398   3.069   4.033   4.447
 4500SOL    HW114399   3.020   4.060   4.364
 4500SOL    HW214400   3.162   4.071   4.445
 4501SOL     OW14401   0.469   4.205   4.789
 4501SOL    HW114402   0.424   4.173   4.706
 4501SOL    HW214403   0.504   4.297   4.776
 4502SOL     OW14404   0.603   3.029   0.431
 4502SOL    HW114405   0.686   3.049   0.378
 4502SOL    HW214406   0.548   3.111   0.440
 4503SOL     OW14407   1.370   1.492   3.808
 4503SOL    HW114408   1.375   1.396   3.780
 4503SOL    HW214409   1.281   1.530   3.781
 4504SOL     OW14410   5.059   1.682   4.893
 4504SOL    HW114411   5.074   1.722   4.802
 4504SOL    HW214412   5.035   1.755   4.957
 4505SOL     OW14413   1.928   5.546   5.871
 4505SOL    HW114414   2.019   5.551   5.830
 4505SOL    HW214415   1.932   5.579   5.965
 4506SOL     OW14416   4.177   0.294   5.441
 4506SOL    HW114417   4.172   0.312   5.539
 4506SOL    HW214418   4.248   0.351   5.400
 4507SOL     OW14419   6.257   4.534   0.255
 4507SOL    HW114420   6.312   4.458   0.289
 4507SOL    HW214421   6.288   4.619   0.298
 4508SOL     OW14422   1.561   3.970   0.690
 4508SOL    HW114423   1.616   3.918   0.755
 4508SOL    HW214424   1.615   4.046   0.654
 4509SOL     OW14425   2.298   1.814   4.181
 4509SOL    HW114426   2.233   1.887   4.201
 4509SOL    HW214427   2.301   1.750   4.258
 4510SOL     OW14428   3.936   6.302   5.427
 4510SOL    HW114429   3.912   6.399   5.415
 4510SOL    HW214430   3.908   6.271   5.518
 4511SOL     OW14431   6.061   2.389   0.350
 4511SOL    HW114432   6.142   2.353   0.396
 4511SOL    HW214433   5.998   2.428   0.418
 4512SOL     OW14434   2.567   5.131   0.024
 4512SOL    HW114435   2.613   5.199   0.080
 4512SOL    HW214436   2.490   5.173   6.987
 4513SOL     OW14437   4.973   0.722   1.921
 4513SOL    HW114438   5.037   0.775   1.977
 4513SOL    HW214439   4.884   0.767   1.922
 4514SOL     OW14440   3.587   1.519   4.942
 4514SOL    HW114441   3.633   1.595   4.987
 4514SOL    HW214442   3.490   1.520   4.966
 4515SOL     OW14443   0.499   5.044   1.199
 4515SOL    HW114444   0.428   4.994   1.149
 4515SOL    HW214445   0.508   5.006   1.291
 4516SOL     OW14446   1.239   0.706   4.882
 4516SOL    HW114447   1.155   0.759   4.878
 4516SOL    HW214448   1.271   0.700   4.977
 4517SOL     OW14449   3.448   6.544   5.373
 4517SOL    HW114450   3.528   6.565   5.430
 4517SOL    HW214451   3.476   6.541   5.277
 4518SOL     OW14452   1.081   1.921   4.572
 4518SOL    HW114453   1.179   1.907   4.587
 4518SOL    HW214454   1.066   1.947   4.477
 4519SOL     OW14455   6.489   3.110   3.758
 4519SOL    HW114456   6.544   3.108   3.842
 4519SOL    HW214457   6.443   3.198   3.750
 4520SOL     OW14458   6.791   3.884   2.929
 4520SOL    HW114459   6.775   3.899   3.026
 4520SOL    HW214460   6.840   3.962   2.890
 4521SOL     OW14461   5.968   2.203   6.799
 4521SOL    HW114462   5.937   2.110   6.781
 4521SOL    HW214463   5.995   2.247   6.713
 4522SOL     OW14464   6.025   0.533   4.022
 4522SOL    HW114465   6.015   0.516   3.924
 4522SOL    HW214466   6.112   0.496   4.054
 4523SOL     OW14467   3.871   3.508   0.192
 4523SOL    HW114468   3.961   3.549   0.180
 4523SOL    HW214469   3.870   3.417   0.150
 4524SOL     OW14470   5.738   6.814   4.939
 4524SOL    HW114471   5.765   6.791   4.846
 4524SOL    HW214472   5.813   6.859   4.986
 4525SOL     OW14473   6.630   1.553   4.984
 4525SOL    HW114474   6.532   1.546   5.004
 4525SOL    HW214475   6.660   1.648   4.993
 4526SOL     OW14476   4.794   0.485   0.965
 4526SOL    HW114477   4.770   0.508   1.059
 4526SOL    HW214478   4.860   0.552   0.930
 4527SOL     OW14479   5.030   0.706   2.533
 4527SOL    HW114480   5.045   0.614   2.569
 4527SOL    HW214481   4.934   0.730   2.542
 4528SOL     OW14482   6.295   0.022   6.836
 4528SOL    HW114483   6.280   0.018   6.935
 4528SOL    HW214484   6.335   6.947   6.805
 4529SOL     OW14485   3.926   6.174   2.954
 4529SOL    HW114486   3.969   6.218   2.875
 4529SOL    HW214487   3.831   6.154   2.933
 4530SOL     OW14488   0.407   3.415   5.407
 4530SOL    HW114489   0.377   3.355   5.334
 4530SOL    HW214490   0.454   3.362   5.478
 4531SOL     OW14491   0.181   3.851   4.075
 4531SOL    HW114492   0.203   3.908   3.996
 4531SOL    HW214493   0.083   3.832   4.076
 4532SOL     OW14494   6.001   1.681   0.598
 4532SOL    HW114495   6.010   1.775   0.630
 4532SOL    HW214496   5.945   1.679   0.515
 4533SOL     OW14497   2.792   5.945   2.662
 4533SOL    HW114498   2.862   5.969   2.729
 4533SOL    HW214499   2.718   5.896   2.707
 4534SOL     OW14500   6.136   4.014   5.114
 4534SOL    HW114501   6.058   3.958   5.142
 4534SOL    HW214502   6.205   3.956   5.072
 4535SOL     OW14503   4.995   2.866   1.912
 4535SOL    HW114504   4.935   2.917   1.975
 4535SOL    HW214505   5.016   2.777   1.951
 4536SOL     OW14506   6.435   0.914   4.514
 4536SOL    HW114507   6.496   0.863   4.453
 4536SOL    HW214508   6.396   0.992   4.465
 4537SOL     OW14509   3.505   3.010   6.462
 4537SOL    HW114510   3.429   2.963   6.507
 4537SOL    HW214511   3.559   2.945   6.409
 4538SOL     OW14512   2.965   1.188   2.990
 4538SOL    HW114513   2.897   1.122   3.021
 4538SOL    HW214514   2.940   1.279   3.023
 4539SOL     OW14515   1.858   1.358   2.894
 4539SOL    HW114516   1.916   1.277   2.886
 4539SOL    HW214517   1.805   1.370   2.810
 4540SOL     OW14518   3.693   2.915   4.363
 4540SOL    HW114519   3.604   2.871   4.349
 4540SOL    HW214520   3.686   3.013   4.347
 4541SOL     OW14521   5.086   1.579   1.447
 4541SOL    HW114522   5.094   1.492   1.398
 4541SOL    HW214523   5.139   1.649   1.400
 4542SOL     OW14524   4.911   0.550   2.841
 4542SOL    HW114525   4.850   0.613   2.889
 4542SOL    HW214526   4.858   0.476   2.800
 4543SOL     OW14527   5.756   1.415   1.544
 4543SOL    HW114528   5.795   1.380   1.458
 4543SOL    HW214529   5.741   1.514   1.535
 4544SOL     OW14530   3.654   4.928   6.384
 4544SOL    HW114531   3.738   4.979   6.367
 4544SOL    HW214532   3.586   4.953   6.315
 4545SOL     OW14533   3.968   2.136   5.578
 4545SOL    HW114534   3.948   2.060   5.640
 4545SOL    HW214535   4.045   2.111   5.519
 4546SOL     OW14536   1.277   6.441   6.453
 4546SOL    HW114537   1.371   6.439   6.418
 4546SOL    HW214538   1.272   6.387   6.537
 4547SOL     OW14539   4.875   1.820   2.113
 4547SOL    HW114540   4.794   1.840   2.057
 4547SOL    HW214541   4.854   1.837   2.209
 4548SOL     OW14542   1.219   3.837   3.666
 4548SOL    HW114543   1.146   3.769   3.660
 4548SOL    HW214544   1.299   3.806   3.614
 4549SOL     OW14545   6.472   3.059   2.675
 4549SOL    HW114546   6.449   3.024   2.765
 4549SOL    HW214547   6.446   2.992   2.605
 4550SOL     OW14548   1.191   5.950   4.093
 4550SOL    HW114549   1.210   5.922   4.187
 4550SOL    HW214550   1.264   6.010   4.061
 4551SOL     OW14551   0.875   2.835   5.649
 4551SOL    HW114552   0.796   2.774   5.644
 4551SOL    HW214553   0.920   2.824   5.737
 4552SOL     OW14554   0.240   3.606   4.785
 4552SOL    HW114555   0.275   3.522   4.826
 4552SOL    HW214556   0.316   3.668   4.766
 4553SOL     OW14557   5.116   4.888   0.148
 4553SOL    HW114558   5.113   4.901   0.049
 4553SOL    HW214559   5.165   4.964   0.190
 4554SOL     OW14560   5.221   6.737   2.663
 4554SOL    HW114561   5.178   6.826   2.675
 4554SOL    HW214562   5.152   6.670   2.635
 4555SOL     OW14563   5.331   1.999   6.812
 4555SOL    HW114564   5.423   2.015   6.848
 4555SOL    HW214565   5.304   1.905   6.832
 4556SOL     OW14566   4.651   1.146   3.992
 4556SOL    HW114567   4.563   1.113   3.956
 4556SOL    HW214568   4.681   1.224   3.937
 4557SOL     OW14569   5.174   0.028   5.920
 4557SOL    HW114570   5.159   6.988   6.005
 4557SOL    HW214571   5.099   0.010   5.857
 4558SOL     OW14572   6.502   3.378   6.622
 4558SOL    HW114573   6.490   3.404   6.526
 4558SOL    HW214574   6.413   3.370   6.666
 4559SOL     OW14575   1.073   6.668   1.216
 4559SOL    HW114576   1.009   6.613   1.269
 4559SOL    HW214577   1.138   6.607   1.170
 4560SOL     OW14578   4.851   3.300   3.178
 4560SOL    HW114579   4.845   3.258   3.087
 4560SOL    HW214580   4.832   3.231   3.248
 4561SOL     OW14581   3.237   0.362   6.450
 4561SOL    HW114582   3.271   0.390   6.360
 4561SOL    HW214583   3.186   0.277   6.441
 4562SOL     OW14584   2.316   5.008   6.626
 4562SOL    HW114585   2.310   4.984   6.529
 4562SOL    HW214586   2.411   5.024   6.650
 4563SOL     OW14587   6.337   2.490   6.679
 4563SOL    HW114588   6.323   2.391   6.684
 4563SOL    HW214589   6.355   2.517   6.584
 4564SOL     OW14590   1.859   5.811   0.059
 4564SOL    HW114591   1.911   5.840   0.139
 4564SOL    HW214592   1.853   5.711   0.057
 4565SOL     OW14593   2.268   0.556   5.224
 4565SOL    HW114594   2.292   0.653   5.228
 4565SOL    HW214595   2.339   0.502   5.269
 4566SOL     OW14596   0.420   1.494   6.710
 4566SOL    HW114597   0.426   1.535   6.619
 4566SOL    HW214598   0.478   1.544   6.773
 4567SOL     OW14599   0.413   1.090   0.917
 4567SOL    HW114600   0.417   1.014   0.853
 4567SOL    HW214601   0.379   1.172   0.870
 4568SOL     OW14602   3.686   4.375   5.434
 4568SOL    HW114603   3.722   4.299   5.380
 4568SOL    HW214604   3.634   4.437   5.375
 4569SOL     OW14605   0.576   2.066   4.617
 4569SOL    HW114606   0.513   1.993   4.592
 4569SOL    HW214607   0.567   2.086   4.714
 4570SOL     OW14608   0.622   5.254   3.964
 4570SOL    HW114609   0.553   5.197   4.008
 4570SOL    HW214610   0.711   5.238   4.008
 4571SOL     OW14611   3.595   2.877   4.764
 4571SOL    HW114612   3.575   2.779   4.773
 4571SOL    HW214613   3.570   2.924   4.848
 4572SOL     OW14614   1.690   6.479   1.146
 4572SOL    HW114615   1.633   6.543   1.095
 4572SOL    HW214616   1.643   6.391   1.154
 4573SOL     OW14617   5.279   0.041   0.868
 4573SOL    HW114618   5.301   6.970   0.919
 4573SOL    HW214619   5.256   0.115   0.932
 4574SOL     OW14620   0.373   4.649   2.116
 4574SOL    HW114621   0.447   4.590   2.083
 4574SOL    HW214622   0.401   4.745   2.107
 4575SOL     OW14623   6.151   0.313   2.908
 4575SOL    HW114624   6.110   0.252   2.975
 4575SOL    HW214625   6.090   0.325   2.831
 4576SOL     OW14626   3.049   5.830   5.699
 4576SOL    HW114627   3.139   5.789   5.717
 4576SOL    HW214628   2.977   5.768   5.729
 4577SOL     OW14629   1.042   3.088   3.327
 4577SOL    HW114630   1.066   3.128   3.415
 4577SOL    HW214631   1.110   3.019   3.302
 4578SOL     OW14632   6.680   4.291   3.996
 4578SOL    HW114633   6.735   4.279   3.913
 4578SOL    HW214634   6.642   4.203   4.024
 4579SOL     OW14635   5.962   1.857   3.469
 4579SOL    HW114636   6.014   1.834   3.387
 4579SOL    HW214637   6.014   1.830   3.550
 4580SOL     OW14638   6.907   5.654   0.572
 4580SOL    HW114639   6.873   5.578   0.627
 4580SOL    HW214640   6.998   5.681   0.606
 4581SOL     OW14641   3.432   5.766   2.793
 4581SOL    HW114642   3.336   5.790   2.784
 4581SOL    HW214643   3.442   5.691   2.859
 4582SOL     OW14644   4.860   6.186   2.359
 4582SOL    HW114645   4.919   6.167   2.438
 4582SOL    HW214646   4.765   6.189   2.389
 4583SOL     OW14647   4.348   1.845   5.902
 4583SOL    HW114648   4.336   1.924   5.841
 4583SOL    HW214649   4.351   1.877   5.997
 4584SOL     OW14650   0.483   5.822   5.448
 4584SOL    HW114651   0.536   5.755   5.499
 4584SOL    HW214652   0.506   5.914   5.478
 4585SOL     OW14653   3.874   6.559   2.510
 4585SOL    HW114654   3.793   6.572   2.453
 4585SOL    HW214655   3.947   6.518   2.455
 4586SOL     OW14656   3.712   5.329   2.193
 4586SOL    HW114657   3.644   5.266   2.156
 4586SOL    HW214658   3.723   5.313   2.291
 4587SOL     OW14659   2.182   4.194   1.713
 4587SOL    HW114660   2.161   4.272   1.772
 4587SOL    HW214661   2.231   4.226   1.632
 4588SOL     OW14662   4.209   3.639   5.173
 4588SOL    HW114663   4.190   3.636   5.075
 4588SOL    HW214664   4.170   3.722   5.212
 4589SOL     OW14665   6.590   2.334   4.760
 4589SOL    HW114666   6.625   2.312   4.669
 4589SOL    HW214667   6.494   2.359   4.754
 4590SOL     OW14668   4.574   5.540   2.377
 4590SOL    HW114669   4.601   5.631   2.345
 4590SOL    HW214670   4.548   5.484   2.298
 4591SOL     OW14671   5.548   6.196   5.585
 4591SOL    HW114672   5.480   6.244   5.640
 4591SOL    HW214673   5.521   6.199   5.489
 4592SOL     OW14674   3.660   2.069   6.437
 4592SOL    HW114675   3.748   2.027   6.418
 4592SOL    HW214676   3.670   2.169   6.440
 4593SOL     OW14677   4.006   6.026   2.430
 4593SOL    HW114678   3.934   6.055   2.493
 4593SOL    HW214679   4.082   6.091   2.435
 4594SOL     OW14680   2.383   1.312   1.815
 4594SOL    HW114681   2.346   1.310   1.723
 4594SOL    HW214682   2.438   1.230   1.831
 4595SOL     OW14683   3.697   2.911   6.096
 4595SOL    HW114684   3.604   2.922   6.063
 4595SOL    HW214685   3.748   2.852   6.034
 4596SOL     OW14686   5.449   6.967   1.977
 4596SOL    HW114687   5.357   7.001   1.957
 4596SOL    HW214688   5.505   0.029   2.014
 4597SOL     OW14689   5.991   4.855   6.683
 4597SOL    HW114690   5.918   4.923   6.683
 4597SOL    HW214691   5.974   4.787   6.754
 4598SOL     OW14692   2.539   4.762   7.010
 4598SOL    HW114693   2.490   4.738   6.926
 4598SOL    HW214694   2.494   4.840   0.042
 4599SOL     OW14695   1.689   4.572   0.597
 4599SOL    HW114696   1.649   4.525   0.519
 4599SOL    HW214697   1.622   4.635   0.636
 4600SOL     OW14698   3.160   5.803   1.361
 4600SOL    HW114699   3.236   5.745   1.390
 4600SOL    HW214700   3.190   5.898   1.359
 4601SOL     OW14701   2.178   6.174   5.333
 4601SOL    HW114702   2.089   6.218   5.321
 4601SOL    HW214703   2.218   6.154   5.244
 4602SOL     OW14704   1.889   0.580   1.376
 4602SOL    HW114705   1.968   0.640   1.369
 4602SOL    HW214706   1.873   0.534   1.288
 4603SOL     OW14707   3.631   6.648   1.422
 4603SOL    HW114708   3.556   6.668   1.485
 4603SOL    HW214709   3.650   6.729   1.366
 4604SOL     OW14710   3.645   6.899   2.147
 4604SOL    HW114711   3.667   6.929   2.240
 4604SOL    HW214712   3.680   6.806   2.134
 4605SOL     OW14713   5.322   6.944   4.513
 4605SOL    HW114714   5.233   6.905   4.536
 4605SOL    HW214715   5.315   0.032   4.508
 4606SOL     OW14716   0.043   6.091   5.488
 4606SOL    HW114717   7.003   6.163   5.441
 4606SOL    HW214718   0.126   6.130   5.528
 4607SOL     OW14719   3.214   2.017   1.387
 4607SOL    HW114720   3.131   1.961   1.391
 4607SOL    HW214721   3.227   2.063   1.475
 4608SOL     OW14722   1.577   4.216   5.402
 4608SOL    HW114723   1.549   4.206   5.498
 4608SOL    HW214724   1.509   4.171   5.343
 4609SOL     OW14725   4.462   6.339   6.729
 4609SOL    HW114726   4.386   6.274   6.719
 4609SOL    HW214727   4.427   6.432   6.722
 4610SOL     OW14728   0.445   3.299   6.662
 4610SOL    HW114729   0.477   3.241   6.737
 4610SOL    HW214730   0.359   3.263   6.626
 4611SOL     OW14731   0.846   4.130   0.333
 4611SOL    HW114732   0.768   4.068   0.330
 4611SOL    HW214733   0.931   4.077   0.342
 4612SOL     OW14734   2.196   6.759   6.915
 4612SOL    HW114735   2.284   6.732   6.955
 4612SOL    HW214736   2.199   6.856   6.891
 4613SOL     OW14737   3.476   5.176   1.981
 4613SOL    HW114738   3.428   5.096   2.018
 4613SOL    HW214739   3.453   5.256   2.036
 4614SOL     OW14740   1.616   5.540   0.478
 4614SOL    HW114741   1.546   5.608   0.498
 4614SOL    HW214742   1.636   5.540   0.380
 4615SOL     OW14743   0.504   2.380   0.260
 4615SOL    HW114744   0.473   2.467   0.221
 4615SOL    HW214745   0.552   2.398   0.346
 4616SOL     OW14746   5.331   1.028   6.735
 4616SOL    HW114747   5.309   1.002   6.641
 4616SOL    HW214748   5.311   0.952   6.797
 4617SOL     OW14749   0.189   2.941   2.130
 4617SOL    HW114750   0.089   2.939   2.126
 4617SOL    HW214751   0.226   2.946   2.038
 4618SOL     OW14752   0.914   2.337   6.093
 4618SOL    HW114753   0.839   2.363   6.033
 4618SOL    HW214754   0.879   2.282   6.169
 4619SOL     OW14755   3.210   1.100   3.688
 4619SOL    HW114756   3.164   1.188   3.698
 4619SOL    HW214757   3.275   1.087   3.763
 4620SOL     OW14758   2.392   4.099   6.565
 4620SOL    HW114759   2.475   4.055   6.531
 4620SOL    HW214760   2.357   4.161   6.495
 4621SOL     OW14761   0.032   6.182   6.055
 4621SOL    HW114762   6.951   6.216   6.069
 4621SOL    HW214763   0.062   6.132   6.137
 4622SOL     OW14764   2.128   3.878   1.218
 4622SOL    HW114765   2.217   3.922   1.207
 4622SOL    HW214766   2.115   3.852   1.313
 4623SOL     OW14767   6.197   4.695   1.837
 4623SOL    HW114768   6.284   4.719   1.880
 4623SOL    HW214769   6.129   4.764   1.859
 4624SOL     OW14770   4.961   0.216   4.865
 4624SOL    HW114771   4.935   0.145   4.930
 4624SOL    HW214772   4.946   0.182   4.772
 4625SOL     OW14773   0.807   3.486   6.940
 4625SOL    HW114774   0.853   3.510   6.855
 4625SOL    HW214775   0.875   3.466   7.011
 4626SOL     OW14776   6.573   5.392   0.986
 4626SOL    HW114777   6.585   5.356   1.078
 4626SOL    HW214778   6.661   5.425   0.952
 4627SOL     OW14779   3.144   6.670   6.112
 4627SOL    HW114780   3.225   6.614   6.091
 4627SOL    HW214781   3.082   6.668   6.034
 4628SOL     OW14782   0.115   3.781   1.999
 4628SOL    HW114783   0.181   3.719   2.043
 4628SOL    HW214784   0.076   3.842   2.067
 4629SOL     OW14785   2.446   4.789   5.472
 4629SOL    HW114786   2.430   4.695   5.440
 4629SOL    HW214787   2.527   4.791   5.531
 4630SOL     OW14788   1.587   6.704   2.510
 4630SOL    HW114789   1.585   6.624   2.569
 4630SOL    HW214790   1.662   6.764   2.537
 4631SOL     OW14791   3.346   6.936   2.616
 4631SOL    HW114792   3.274   6.898   2.675
 4631SOL    HW214793   3.304   6.977   2.535
 4632SOL     OW14794   5.148   5.511   3.942
 4632SOL    HW114795   5.119   5.505   3.846
 4632SOL    HW214796   5.198   5.428   3.966
 4633SOL     OW14797   6.262   2.372   4.783
 4633SOL    HW114798   6.282   2.335   4.873
 4633SOL    HW214799   6.249   2.298   4.718
 4634SOL     OW14800   3.200   4.169   0.702
 4634SOL    HW114801   3.223   4.091   0.761
 4634SOL    HW214802   3.114   4.151   0.655
 4635SOL     OW14803   5.515   4.205   1.541
 4635SOL    HW114804   5.605   4.178   1.506
 4635SOL    HW214805   5.462   4.123   1.565
 4636SOL     OW14806   2.367   5.373   0.793
 4636SOL    HW114807   2.292   5.331   0.741
 4636SOL    HW214808   2.449   5.316   0.783
 4637SOL     OW14809   1.494   1.484   5.042
 4637SOL    HW114810   1.485   1.453   4.948
 4637SOL    HW214811   1.429   1.435   5.100
 4638SOL     OW14812   5.320   3.314   5.353
 4638SOL    HW114813   5.336   3.413   5.354
 4638SOL    HW214814   5.230   3.294   5.392
 4639SOL     OW14815   7.001   3.887   5.205
 4639SOL    HW114816   0.045   3.875   5.123
 4639SOL    HW214817   0.014   3.818   5.273
 4640SOL     OW14818   5.571   3.991   2.860
 4640SOL    HW114819   5.530   3.920   2.802
 4640SOL    HW214820   5.503   4.023   2.926
 4641SOL     OW14821   2.243   4.863   5.030
 4641SOL    HW114822   2.160   4.891   4.984
 4641SOL    HW214823   2.273   4.935   5.092
 4642SOL     OW14824   5.493   6.212   4.112
 4642SOL    HW114825   5.509   6.192   4.015
 4642SOL    HW214826   5.440   6.297   4.120
 4643SOL     OW14827   4.255   2.118   1.748
 4643SOL    HW114828   4.158   2.119   1.722
 4643SOL    HW214829   4.287   2.023   1.753
 4644SOL     OW14830   2.200   5.515   5.211
 4644SOL    HW114831   2.154   5.489   5.126
 4644SOL    HW214832   2.287   5.560   5.190
 4645SOL     OW14833   2.238   5.957   4.597
 4645SOL    HW114834   2.211   5.925   4.688
 4645SOL    HW214835   2.267   5.879   4.542
 4646SOL     OW14836   4.222   0.296   1.521
 4646SOL    HW114837   4.304   0.349   1.542
 4646SOL    HW214838   4.203   0.233   1.597
 4647SOL     OW14839   6.844   0.503   4.672
 4647SOL    HW114840   6.897   0.518   4.589
 4647SOL    HW214841   6.905   0.467   4.744
 4648SOL     OW14842   2.401   5.905   2.852
 4648SOL    HW114843   2.317   5.960   2.850
 4648SOL    HW214844   2.477   5.959   2.817
 4649SOL     OW14845   5.413   0.408   6.043
 4649SOL    HW114846   5.403   0.311   6.064
 4649SOL    HW214847   5.434   0.459   6.127
 4650SOL     OW14848   6.488   4.543   2.126
 4650SOL    HW114849   6.475   4.497   2.038
 4650SOL    HW214850   6.554   4.618   2.115
 4651SOL     OW14851   0.142   2.333   1.792
 4651SOL    HW114852   0.166   2.330   1.695
 4651SOL    HW214853   0.226   2.332   1.846
 4652SOL     OW14854   6.886   6.410   6.350
 4652SOL    HW114855   6.861   6.507   6.344
 4652SOL    HW214856   6.861   6.364   6.265
 4653SOL     OW14857   0.307   5.770   0.063
 4653SOL    HW114858   0.241   5.829   0.015
 4653SOL    HW214859   0.391   5.765   0.010
 4654SOL     OW14860   1.273   1.045   6.976
 4654SOL    HW114861   1.334   1.123   6.961
 4654SOL    HW214862   1.184   1.079   7.006
 4655SOL     OW14863   0.072   4.733   3.115
 4655SOL    HW114864   0.046   4.827   3.090
 4655SOL    HW214865   0.048   4.716   3.210
 4656SOL     OW14866   2.080   6.677   3.475
 4656SOL    HW114867   2.160   6.623   3.504
 4656SOL    HW214868   2.037   6.632   3.397
 4657SOL     OW14869   5.679   0.255   0.160
 4657SOL    HW114870   5.674   0.338   0.104
 4657SOL    HW214871   5.647   0.177   0.105
 4658SOL     OW14872   5.534   0.489   3.488
 4658SOL    HW114873   5.583   0.548   3.424
 4658SOL    HW214874   5.589   0.407   3.505
 4659SOL     OW14875   1.477   2.476   5.150
 4659SOL    HW114876   1.420   2.496   5.229
 4659SOL    HW214877   1.454   2.538   5.075
 4660SOL     OW14878   0.030   0.288   5.999
 4660SOL    HW114879   0.013   0.385   5.983
 4660SOL    HW214880   6.991   0.258   6.080
 4661SOL     OW14881   4.066   3.797   3.767
 4661SOL    HW114882   3.976   3.836   3.784
 4661SOL    HW214883   4.113   3.782   3.854
 4662SOL     OW14884   5.030   0.433   5.183
 4662SOL    HW114885   4.939   0.399   5.206
 4662SOL    HW214886   5.084   0.359   5.141
 4663SOL     OW14887   0.134   2.246   2.768
 4663SOL    HW114888   0.120   2.321   2.833
 4663SOL    HW214889   0.211   2.269   2.708
 4664SOL     OW14890   3.050   2.467   6.448
 4664SOL    HW114891   3.006   2.465   6.537
 4664SOL    HW214892   2.994   2.520   6.384
 4665SOL     OW14893   5.228   0.780   0.218
 4665SOL    HW114894   5.214   0.790   0.317
 4665SOL    HW214895   5.222   0.684   0.193
 4666SOL     OW14896   2.051   1.012   0.613
 4666SOL    HW114897   2.060   1.106   0.580
 4666SOL    HW214898   2.071   1.008   0.711
 4667SOL     OW14899   0.166   5.367   5.779
 4667SOL    HW114900   0.226   5.442   5.806
 4667SOL    HW214901   0.179   5.290   5.841
 4668SOL     OW14902   6.610   1.381   3.987
 4668SOL    HW114903   6.612   1.424   4.077
 4668SOL    HW214904   6.541   1.426   3.930
 4669SOL     OW14905   2.240   0.172   0.481
 4669SOL    HW114906   2.223   0.268   0.457
 4669SOL    HW214907   2.193   0.151   0.567
 4670SOL     OW14908   2.356   1.888   3.928
 4670SOL    HW114909   2.319   1.981   3.923
 4670SOL    HW214910   2.342   1.852   4.021
 4671SOL     OW14911   5.729   4.098   1.190
 4671SOL    HW114912   5.742   4.000   1.177
 4671SOL    HW214913   5.638   4.124   1.157
 4672SOL     OW14914   1.745   3.629   5.969
 4672SOL    HW114915   1.818   3.561   5.980
 4672SOL    HW214916   1.709   3.653   6.059
 4673SOL     OW14917   3.971   0.836   2.749
 4673SOL    HW114918   4.013   0.871   2.665
 4673SOL    HW214919   3.925   0.910   2.797
 4674SOL     OW14920   4.614   6.119   6.172
 4674SOL    HW114921   4.524   6.097   6.208
 4674SOL    HW214922   4.663   6.178   6.236
 4675SOL     OW14923   1.092   4.368   0.090
 4675SOL    HW114924   0.996   4.386   0.109
 4675SOL    HW214925   1.116   4.405   7.011
 4676SOL     OW14926   0.948   5.648   3.895
 4676SOL    HW114927   0.908   5.561   3.866
 4676SOL    HW214928   1.047   5.644   3.888
 4677SOL     OW14929   1.609   2.887   0.219
 4677SOL    HW114930   1.674   2.929   0.155
 4677SOL    HW214931   1.636   2.909   0.313
 4678SOL     OW14932   2.641   4.788   2.557
 4678SOL    HW114933   2.730   4.801   2.601
 4678SOL    HW214934   2.647   4.713   2.492
 4679SOL     OW14935   5.055   6.967   1.973
 4679SOL    HW114936   5.115   0.017   2.024
 4679SOL    HW214937   5.106   6.883   1.950
 4680SOL     OW14938   2.161   1.199   1.415
 4680SOL    HW114939   2.123   1.284   1.378
 4680SOL    HW214940   2.092   1.154   1.472
 4681SOL     OW14941   5.160   4.724   1.176
 4681SOL    HW114942   5.189   4.637   1.218
 4681SOL    HW214943   5.234   4.759   1.119
 4682SOL     OW14944   3.833   3.475   6.865
 4682SOL    HW114945   3.930   3.477   6.890
 4682SOL    HW214946   3.809   3.560   6.817
 4683SOL     OW14947   6.149   4.284   3.235
 4683SOL    HW114948   6.194   4.297   3.323
 4683SOL    HW214949   6.146   4.372   3.187
 4684SOL     OW14950   5.105   6.677   0.271
 4684SOL    HW114951   5.177   6.697   0.338
 4684SOL    HW214952   5.146   6.668   0.180
 4685SOL     OW14953   2.967   3.268   5.790
 4685SOL    HW114954   3.030   3.192   5.809
 4685SOL    HW214955   2.939   3.263   5.694
 4686SOL     OW14956   2.703   5.376   0.143
 4686SOL    HW114957   2.620   5.426   0.168
 4686SOL    HW214958   2.752   5.350   0.227
 4687SOL     OW14959   3.154   0.843   3.100
 4687SOL    HW114960   3.097   0.804   3.028
 4687SOL    HW214961   3.101   0.912   3.150
 4688SOL     OW14962   5.787   3.233   5.666
 4688SOL    HW114963   5.828   3.324   5.660
 4688SOL    HW214964   5.710   3.227   5.602
 4689SOL     OW14965   5.747   1.197   1.698
 4689SOL    HW114966   5.725   1.289   1.668
 4689SOL    HW214967   5.833   1.168   1.655
 4690SOL     OW14968   2.797   1.759   0.355
 4690SOL    HW114969   2.849   1.697   0.413
 4690SOL    HW214970   2.796   1.724   0.261
 4691SOL     OW14971   6.998   4.147   1.800
 4691SOL    HW114972   6.985   4.091   1.718
 4691SOL    HW214973   0.081   4.138   1.832
 4692SOL     OW14974   5.684   3.823   2.405
 4692SOL    HW114975   5.632   3.907   2.421
 4692SOL    HW214976   5.629   3.761   2.349
 4693SOL     OW14977   2.060   0.794   3.726
 4693SOL    HW114978   1.988   0.733   3.759
 4693SOL    HW214979   2.146   0.772   3.771
 4694SOL     OW14980   2.041   1.188   7.006
 4694SOL    HW114981   2.043   1.142   0.083
 4694SOL    HW214982   1.946   1.196   6.975
 4695SOL     OW14983   0.916   6.143   1.445
 4695SOL    HW114984   0.930   6.210   1.372
 4695SOL    HW214985   0.852   6.180   1.512
 4696SOL     OW14986   1.220   5.353   6.008
 4696SOL    HW114987   1.226   5.353   5.909
 4696SOL    HW214988   1.206   5.259   6.041
 4697SOL     OW14989   3.548   4.762   0.654
 4697SOL    HW114990   3.595   4.848   0.635
 4697SOL    HW214991   3.542   4.748   0.752
 4698SOL     OW14992   5.657   1.225   3.198
 4698SOL    HW114993   5.729   1.286   3.164
 4698SOL    HW214994   5.687   1.130   3.189
 4699SOL     OW14995   1.013   0.100   2.715
 4699SOL    HW114996   0.914   0.110   2.715
 4699SOL    HW214997   1.051   0.136   2.630
 4700SOL     OW14998   6.186   2.058   3.095
 4700SOL    HW114999   6.285   2.076   3.098
 4700SOL    HW215000   6.145   2.111   3.021
 4701SOL     OW15001   3.437   1.862   1.931
 4701SOL    HW115002   3.514   1.889   1.989
 4701SOL    HW215003   3.440   1.764   1.915
 4702SOL     OW15004   5.522   4.528   6.526
 4702SOL    HW115005   5.513   4.507   6.623
 4702SOL    HW215006   5.471   4.460   6.473
 4703SOL     OW15007   0.968   5.075   3.503
 4703SOL    HW115008   0.997   5.022   3.582
 4703SOL    HW215009   0.883   5.125   3.525
 4704SOL     OW15010   1.214   5.107   5.573
 4704SOL    HW115011   1.152   5.087   5.498
 4704SOL    HW215012   1.304   5.067   5.555
 4705SOL     OW15013   3.516   2.336   1.656
 4705SOL    HW115014   3.469   2.419   1.688
 4705SOL    HW215015   3.595   2.318   1.715
 4706SOL     OW15016   2.153   0.425   0.443
 4706SOL    HW115017   2.118   0.407   0.351
 4706SOL    HW215018   2.079   0.456   0.503
 4707SOL     OW15019   2.023   6.218   1.201
 4707SOL    HW115020   2.048   6.280   1.275
 4707SOL    HW215021   2.061   6.127   1.219
 4708SOL     OW15022   0.489   2.844   4.107
 4708SOL    HW115023   0.516   2.773   4.172
 4708SOL    HW215024   0.452   2.922   4.156
 4709SOL     OW15025   4.866   3.642   5.339
 4709SOL    HW115026   4.869   3.737   5.308
 4709SOL    HW215027   4.795   3.593   5.288
 4710SOL     OW15028   5.999   6.268   4.472
 4710SOL    HW115029   5.991   6.169   4.458
 4710SOL    HW215030   5.969   6.290   4.564
 4711SOL     OW15031   5.618   3.412   3.416
 4711SOL    HW115032   5.645   3.448   3.505
 4711SOL    HW215033   5.595   3.315   3.425
 4712SOL     OW15034   4.606   4.160   5.213
 4712SOL    HW115035   4.577   4.104   5.290
 4712SOL    HW215036   4.632   4.101   5.136
 4713SOL     OW15037   6.076   4.300   1.191
 4713SOL    HW115038   6.016   4.323   1.115
 4713SOL    HW215039   6.104   4.204   1.183
 4714SOL     OW15040   5.653   1.140   6.172
 4714SOL    HW115041   5.636   1.219   6.114
 4714SOL    HW215042   5.738   1.154   6.224
 4715SOL     OW15043   6.195   1.245   1.745
 4715SOL    HW115044   6.206   1.228   1.843
 4715SOL    HW215045   6.245   1.175   1.694
 4716SOL     OW15046   3.863   4.172   6.182
 4716SOL    HW115047   3.823   4.263   6.178
 4716SOL    HW215048   3.816   4.112   6.117
 4717SOL     OW15049   2.803   5.211   4.808
 4717SOL    HW115050   2.802   5.257   4.897
 4717SOL    HW215051   2.806   5.112   4.822
 4718SOL     OW15052   4.772   4.413   0.262
 4718SOL    HW115053   4.856   4.436   0.212
 4718SOL    HW215054   4.748   4.318   0.246
 4719SOL     OW15055   0.051   3.867   3.600
 4719SOL    HW115056   0.119   3.813   3.550
 4719SOL    HW215057   0.092   3.905   3.682
 4720SOL     OW15058   2.809   4.076   0.128
 4720SOL    HW115059   2.817   4.108   0.034
 4720SOL    HW215060   2.877   4.124   0.185
 4721SOL     OW15061   6.181   3.123   3.128
 4721SOL    HW115062   6.259   3.165   3.081
 4721SOL    HW215063   6.213   3.047   3.185
 4722SOL     OW15064   1.497   4.483   6.771
 4722SOL    HW115065   1.494   4.385   6.791
 4722SOL    HW215066   1.551   4.530   6.841
 4723SOL     OW15067   3.795   3.981   6.792
 4723SOL    HW115068   3.815   3.974   6.694
 4723SOL    HW215069   3.818   3.894   6.836
 4724SOL     OW15070   1.444   6.732   4.662
 4724SOL    HW115071   1.359   6.773   4.629
 4724SOL    HW215072   1.484   6.791   4.732
 4725SOL     OW15073   5.102   6.102   0.322
 4725SOL    HW115074   5.051   6.187   0.334
 4725SOL    HW215075   5.043   6.025   0.343
 4726SOL     OW15076   0.957   3.196   5.315
 4726SOL    HW115077   0.970   3.144   5.231
 4726SOL    HW215078   0.942   3.133   5.392
 4727SOL     OW15079   0.742   5.392   0.651
 4727SOL    HW115080   0.818   5.335   0.620
 4727SOL    HW215081   0.703   5.353   0.735
 4728SOL     OW15082   6.537   1.608   4.443
 4728SOL    HW115083   6.627   1.644   4.422
 4728SOL    HW215084   6.518   1.619   4.540
 4729SOL     OW15085   6.132   0.996   1.313
 4729SOL    HW115086   6.094   0.948   1.235
 4729SOL    HW215087   6.139   1.094   1.293
 4730SOL     OW15088   3.215   6.660   5.067
 4730SOL    HW115089   3.301   6.613   5.085
 4730SOL    HW215090   3.234   6.752   5.033
 4731SOL     OW15091   3.684   0.351   0.443
 4731SOL    HW115092   3.710   0.329   0.537
 4731SOL    HW215093   3.640   0.272   0.401
 4732SOL     OW15094   0.365   4.570   3.671
 4732SOL    HW115095   0.283   4.594   3.724
 4732SOL    HW215096   0.376   4.635   3.597
 4733SOL     OW15097   1.995   3.704   3.225
 4733SOL    HW115098   2.017   3.669   3.316
 4733SOL    HW215099   2.024   3.638   3.156
 4734SOL     OW15100   4.845   3.239   6.680
 4734SOL    HW115101   4.877   3.311   6.619
 4734SOL    HW215102   4.846   3.272   6.774
 4735SOL     OW15103   6.905   0.089   5.053
 4735SOL    HW115104   6.865   0.140   5.129
 4735SOL    HW215105   6.991   0.133   5.025
 4736SOL     OW15106   6.714   2.159   3.536
 4736SOL    HW115107   6.738   2.194   3.445
 4736SOL    HW215108   6.774   2.083   3.559
 4737SOL     OW15109   2.461   4.334   1.060
 4737SOL    HW115110   2.511   4.270   1.001
 4737SOL    HW215111   2.480   4.428   1.031
 4738SOL     OW15112   1.728   6.489   3.766
 4738SOL    HW115113   1.652   6.535   3.811
 4738SOL    HW215114   1.780   6.555   3.712
 4739SOL     OW15115   5.686   3.230   3.859
 4739SOL    HW115116   5.613   3.291   3.892
 4739SOL    HW215117   5.646   3.158   3.801
 4740SOL     OW15118   0.608   1.262   1.403
 4740SOL    HW115119   0.683   1.327   1.392
 4740SOL    HW215120   0.606   1.199   1.325
 4741SOL     OW15121   4.194   4.560   1.764
 4741SOL    HW115122   4.244   4.489   1.714
 4741SOL    HW215123   4.228   4.565   1.858
 4742SOL     OW15124   2.579   6.232   1.879
 4742SOL    HW115125   2.651   6.187   1.826
 4742SOL    HW215126   2.579   6.330   1.857
 4743SOL     OW15127   2.372   1.988   0.392
 4743SOL    HW115128   2.290   1.938   0.365
 4743SOL    HW215129   2.442   1.976   0.321
 4744SOL     OW15130   1.843   3.349   5.311
 4744SOL    HW115131   1.866   3.402   5.229
 4744SOL    HW215132   1.927   3.312   5.352
 4745SOL     OW15133   2.756   5.484   4.916
 4745SOL    HW115134   2.782   5.440   5.002
 4745SOL    HW215135   2.662   5.520   4.924
 4746SOL     OW15136   6.580   0.544   0.544
 4746SOL    HW115137   6.484   0.536   0.515
 4746SOL    HW215138   6.603   0.640   0.556
 4747SOL     OW15139   6.274   2.553   0.773
 4747SOL    HW115140   6.361   2.526   0.815
 4747SOL    HW215141   6.199   2.527   0.834
 4748SOL     OW15142   1.659   1.029   1.706
 4748SOL    HW115143   1.729   1.099   1.690
 4748SOL    HW215144   1.592   1.064   1.771
 4749SOL     OW15145   1.361   6.643   6.727
 4749SOL    HW115146   1.363   6.705   6.648
 4749SOL    HW215147   1.388   6.692   6.809
 4750SOL     OW15148   0.198   0.895   4.632
 4750SOL    HW115149   0.170   0.821   4.694
 4750SOL    HW215150   0.172   0.872   4.539
 4751SOL     OW15151   1.247   3.894   6.617
 4751SOL    HW115152   1.300   3.827   6.565
 4751SOL    HW215153   1.282   3.898   6.711
 4752SOL     OW15154   2.863   5.915   1.367
 4752SOL    HW115155   2.866   5.944   1.271
 4752SOL    HW215156   2.943   5.858   1.387
 4753SOL     OW15157   5.881   6.808   5.302
 4753SOL    HW115158   5.908   6.838   5.210
 4753SOL    HW215159   5.943   6.735   5.333
 4754SOL     OW15160   0.838   0.291   5.621
 4754SOL    HW115161   0.932   0.284   5.588
 4754SOL    HW215162   0.835   0.272   5.719
 4755SOL     OW15163   2.695   1.629   6.510
 4755SOL    HW115164   2.791   1.657   6.503
 4755SOL    HW215165   2.682   1.578   6.595
 4756SOL     OW15166   4.920   2.883   1.069
 4756SOL    HW115167   4.826   2.860   1.044
 4756SOL    HW215168   4.946   2.832   1.151
 4757SOL     OW15169   2.181   1.706   0.979
 4757SOL    HW115170   2.184   1.769   0.902
 4757SOL    HW215171   2.274   1.694   1.015
 4758SOL     OW15172   5.236   5.148   5.388
 4758SOL    HW115173   5.139   5.125   5.381
 4758SOL    HW215174   5.264   5.202   5.307
 4759SOL     OW15175   5.346   5.558   5.834
 4759SOL    HW115176   5.427   5.596   5.878
 4759SOL    HW215177   5.321   5.613   5.755
 4760SOL     OW15178   1.462   1.619   1.620
 4760SOL    HW115179   1.414   1.645   1.703
 4760SOL    HW215180   1.455   1.520   1.607
 4761SOL     OW15181   0.820   6.574   6.525
 4761SOL    HW115182   0.752   6.615   6.464
 4761SOL    HW215183   0.885   6.644   6.555
 4762SOL     OW15184   2.438   5.844   2.456
 4762SOL    HW115185   2.521   5.885   2.420
 4762SOL    HW215186   2.358   5.887   2.414
 4763SOL     OW15187   6.128   5.809   3.628
 4763SOL    HW115188   6.206   5.769   3.579
 4763SOL    HW215189   6.059   5.838   3.561
 4764SOL     OW15190   3.711   3.636   4.059
 4764SOL    HW115191   3.647   3.589   4.119
 4764SOL    HW215192   3.727   3.581   3.978
 4765SOL     OW15193   5.368   5.638   4.669
 4765SOL    HW115194   5.300   5.692   4.618
 4765SOL    HW215195   5.371   5.669   4.764
 4766SOL     OW15196   2.825   0.705   2.627
 4766SOL    HW115197   2.752   0.773   2.617
 4766SOL    HW215198   2.889   0.712   2.551
 4767SOL     OW15199   4.132   5.835   6.569
 4767SOL    HW115200   4.033   5.843   6.566
 4767SOL    HW215201   4.174   5.919   6.536
 4768SOL     OW15202   0.106   0.493   5.435
 4768SOL    HW115203   0.078   0.515   5.341
 4768SOL    HW215204   0.204   0.510   5.445
 4769SOL     OW15205   3.921   0.051   1.564
 4769SOL    HW115206   3.935   0.072   1.468
 4769SOL    HW215207   3.849   0.110   1.601
 4770SOL     OW15208   2.393   0.838   3.166
 4770SOL    HW115209   2.360   0.754   3.122
 4770SOL    HW215210   2.332   0.863   3.240
 4771SOL     OW15211   3.870   4.135   5.297
 4771SOL    HW115212   3.780   4.098   5.322
 4771SOL    HW215213   3.890   4.112   5.202
 4772SOL     OW15214   2.671   2.130   1.694
 4772SOL    HW115215   2.677   2.107   1.791
 4772SOL    HW215216   2.705   2.223   1.680
 4773SOL     OW15217   0.144   6.042   3.756
 4773SOL    HW115218   0.168   6.017   3.850
 4773SOL    HW215219   0.219   6.018   3.695
 4774SOL     OW15220   0.488   3.953   1.211
 4774SOL    HW115221   0.563   3.930   1.149
 4774SOL    HW215222   0.509   4.038   1.258
 4775SOL     OW15223   4.192   0.624   2.091
 4775SOL    HW115224   4.284   0.587   2.080
 4775SOL    HW215225   4.197   0.720   2.117
 4776SOL     OW15226   3.152   5.526   2.189
 4776SOL    HW115227   3.055   5.546   2.173
 4776SOL    HW215228   3.189   5.591   2.255
 4777SOL     OW15229   3.066   4.148   1.063
 4777SOL    HW115230   3.024   4.238   1.052
 4777SOL    HW215231   3.009   4.092   1.123
 4778SOL     OW15232   4.936   3.905   2.193
 4778SOL    HW115233   4.840   3.917   2.218
 4778SOL    HW215234   4.948   3.925   2.096
 4779SOL     OW15235   5.140   0.826   2.951
 4779SOL    HW115236   5.161   0.733   2.980
 4779SOL    HW215237   5.045   0.831   2.920
 4780SOL     OW15238   0.903   6.422   6.243
 4780SOL    HW115239   0.996   6.449   6.217
 4780SOL    HW215240   0.874   6.477   6.322
 4781SOL     OW15241   2.275   5.250   1.493
 4781SOL    HW115242   2.260   5.322   1.562
 4781SOL    HW215243   2.197   5.247   1.430
 4782SOL     OW15244   5.606   6.547   6.375
 4782SOL    HW115245   5.675   6.616   6.350
 4782SOL    HW215246   5.616   6.468   6.315
 4783SOL     OW15247   5.531   4.654   1.322
 4783SOL    HW115248   5.526   4.732   1.261
 4783SOL    HW215249   5.614   4.660   1.377
 4784SOL     OW15250   5.941   5.036   4.685
 4784SOL    HW115251   5.991   5.089   4.754
 4784SOL    HW215252   5.987   5.044   4.597
 4785SOL     OW15253   6.436   0.488   1.525
 4785SOL    HW115254   6.431   0.581   1.560
 4785SOL    HW215255   6.505   0.484   1.452
 4786SOL     OW15256   1.727   3.188   1.848
 4786SOL    HW115257   1.822   3.210   1.827
 4786SOL    HW215258   1.702   3.102   1.804
 4787SOL     OW15259   3.649   2.049   2.986
 4787SOL    HW115260   3.592   2.047   2.904
 4787SOL    HW215261   3.741   2.078   2.962
 4788SOL     OW15262   1.633   5.345   4.293
 4788SOL    HW115263   1.534   5.355   4.301
 4788SOL    HW215264   1.655   5.295   4.209
 4789SOL     OW15265   5.551   0.779   0.560
 4789SOL    HW115266   5.597   0.694   0.533
 4789SOL    HW215267   5.510   0.767   0.651
 4790SOL     OW15268   5.668   1.733   6.251
 4790SOL    HW115269   5.634   1.824   6.229
 4790SOL    HW215270   5.706   1.690   6.169
 4791SOL     OW15271   5.519   0.058   2.445
 4791SOL    HW115272   5.440   0.036   2.503
 4791SOL    HW215273   5.546   6.988   2.393
 4792SOL     OW15274   2.098   2.475   2.093
 4792SOL    HW115275   2.159   2.537   2.044
 4792SOL    HW215276   2.151   2.401   2.134
 4793SOL     OW15277   1.096   6.722   5.855
 4793SOL    HW115278   1.117   6.792   5.787
 4793SOL    HW215279   0.997   6.719   5.870
 4794SOL     OW15280   2.642   0.745   2.292
 4794SOL    HW115281   2.556   0.707   2.325
 4794SOL    HW215282   2.682   0.804   2.363
 4795SOL     OW15283   6.298   3.098   4.024
 4795SOL    HW115284   6.262   3.158   4.095
 4795SOL    HW215285   6.240   3.104   3.942
 4796SOL     OW15286   5.530   4.823   0.672
 4796SOL    HW115287   5.441   4.863   0.695
 4796SOL    HW215288   5.573   4.786   0.754
 4797SOL     OW15289   0.134   4.965   5.208
 4797SOL    HW115290   0.089   5.027   5.272
 4797SOL    HW215291   0.128   5.002   5.115
 4798SOL     OW15292   6.876   4.588   4.272
 4798SOL    HW115293   6.967   4.578   4.231
 4798SOL    HW215294   6.872   4.536   4.357
 4799SOL     OW15295   4.430   1.448   4.974
 4799SOL    HW115296   4.464   1.532   5.015
 4799SOL    HW215297   4.501   1.410   4.913
 4800SOL     OW15298   1.792   2.373   4.898
 4800SOL    HW115299   1.751   2.286   4.869
 4800SOL    HW215300   1.840   2.414   4.821
 4801SOL     OW15301   0.584   2.254   1.089
 4801SOL    HW115302   0.667   2.250   1.145
 4801SOL    HW215303   0.595   2.324   1.018
 4802SOL     OW15304   2.753   0.572   1.639
 4802SOL    HW115305   2.758   0.666   1.604
 4802SOL    HW215306   2.784   0.571   1.734
 4803SOL     OW15307   1.106   6.964   0.384
 4803SOL    HW115308   1.201   6.983   0.406
 4803SOL    HW215309   1.048   6.993   0.460
 4804SOL     OW15310   4.062   5.104   0.141
 4804SOL    HW115311   3.988   5.161   0.178
 4804SOL    HW215312   4.064   5.111   0.041
 4805SOL     OW15313   6.730   1.735   1.049
 4805SOL    HW115314   6.810   1.767   0.999
 4805SOL    HW215315   6.658   1.709   0.985
 4806SOL     OW15316   0.783   2.855   3.094
 4806SOL    HW115317   0.722   2.776   3.098
 4806SOL    HW215318   0.755   2.922   3.163
 4807SOL     OW15319   0.001   0.021   1.499
 4807SOL    HW115320   6.926   6.986   1.520
 4807SOL    HW215321   0.009   0.103   1.556
 4808SOL     OW15322   4.941   3.105   1.239
 4808SOL    HW115323   4.890   3.083   1.322
 4808SOL    HW215324   4.911   3.046   1.165
 4809SOL     OW15325   3.801   5.492   6.494
 4809SOL    HW115326   3.860   5.548   6.435
 4809SOL    HW215327   3.845   5.480   6.583
 4810SOL     OW15328   1.090   0.184   1.353
 4810SOL    HW115329   1.076   0.146   1.261
 4810SOL    HW215330   1.178   0.153   1.389
 4811SOL     OW15331   4.163   5.283   2.281
 4811SOL    HW115332   4.137   5.306   2.187
 4811SOL    HW215333   4.137   5.189   2.301
 4812SOL     OW15334   6.915   5.910   4.451
 4812SOL    HW115335   7.001   5.864   4.473
 4812SOL    HW215336   6.898   5.904   4.352
 4813SOL     OW15337   5.409   2.289   3.300
 4813SOL    HW115338   5.376   2.368   3.249
 4813SOL    HW215339   5.334   2.223   3.311
 4814SOL     OW15340   6.705   3.644   1.897
 4814SOL    HW115341   6.638   3.657   1.824
 4814SOL    HW215342   6.727   3.733   1.937
 4815SOL     OW15343   4.675   6.352   1.144
 4815SOL    HW115344   4.697   6.287   1.217
 4815SOL    HW215345   4.759   6.398   1.114
 4816SOL     OW15346   5.287   4.806   3.607
 4816SOL    HW115347   5.221   4.733   3.589
 4816SOL    HW215348   5.341   4.823   3.525
 4817SOL     OW15349   0.485   1.944   6.583
 4817SOL    HW115350   0.502   2.040   6.607
 4817SOL    HW215351   0.454   1.894   6.664
 4818SOL     OW15352   0.492   0.166   4.208
 4818SOL    HW115353   0.471   0.083   4.156
 4818SOL    HW215354   0.549   0.227   4.153
 4819SOL     OW15355   1.999   3.382   0.640
 4819SOL    HW115356   2.061   3.342   0.573
 4819SOL    HW215357   1.917   3.325   0.648
 4820SOL     OW15358   6.727   3.178   1.869
 4820SOL    HW115359   6.639   3.223   1.854
 4820SOL    HW215360   6.801   3.243   1.853
 4821SOL     OW15361   6.656   5.564   2.381
 4821SOL    HW115362   6.718   5.511   2.324
 4821SOL    HW215363   6.589   5.503   2.424
 4822SOL     OW15364   1.187   3.504   4.055
 4822SOL    HW115365   1.263   3.471   4.112
 4822SOL    HW215366   1.211   3.592   4.015
 4823SOL     OW15367   1.877   3.039   1.409
 4823SOL    HW115368   1.912   3.011   1.320
 4823SOL    HW215369   1.943   3.013   1.480
 4824SOL     OW15370   6.073   1.718   5.587
 4824SOL    HW115371   6.095   1.626   5.620
 4824SOL    HW215372   6.139   1.783   5.624
 4825SOL     OW15373   1.810   0.094   3.899
 4825SOL    HW115374   1.809   7.006   3.906
 4825SOL    HW215375   1.778   0.135   3.985
 4826SOL     OW15376   4.192   0.512   1.338
 4826SOL    HW115377   4.291   0.518   1.322
 4826SOL    HW215378   4.173   0.444   1.408
 4827SOL     OW15379   6.774   1.770   1.506
 4827SOL    HW115380   6.825   1.855   1.517
 4827SOL    HW215381   6.691   1.773   1.561
 4828SOL     OW15382   4.855   0.607   3.693
 4828SOL    HW115383   4.907   0.593   3.778
 4828SOL    HW215384   4.862   0.703   3.666
 4829SOL     OW15385   3.921   6.817   4.952
 4829SOL    HW115386   4.011   6.809   4.995
 4829SOL    HW215387   3.918   6.901   4.898
 4830SOL     OW15388   3.137   5.904   3.261
 4830SOL    HW115389   3.075   5.982   3.261
 4830SOL    HW215390   3.112   5.841   3.335
 4831SOL     OW15391   3.092   4.621   5.324
 4831SOL    HW115392   3.024   4.569   5.272
 4831SOL    HW215393   3.053   4.648   5.412
 4832SOL     OW15394   3.758   3.318   4.728
 4832SOL    HW115395   3.765   3.243   4.793
 4832SOL    HW215396   3.732   3.282   4.638
 4833SOL     OW15397   6.793   3.184   4.137
 4833SOL    HW115398   6.711   3.153   4.090
 4833SOL    HW215399   6.777   3.184   4.236
 4834SOL     OW15400   0.979   4.996   1.268
 4834SOL    HW115401   0.929   5.071   1.223
 4834SOL    HW215402   1.048   4.960   1.206
 4835SOL     OW15403   6.574   2.334   5.353
 4835SOL    HW115404   6.653   2.392   5.370
 4835SOL    HW215405   6.493   2.391   5.339
 4836SOL     OW15406   5.057   1.130   5.126
 4836SOL    HW115407   5.125   1.100   5.060
 4836SOL    HW215408   5.099   1.140   5.216
 4837SOL     OW15409   0.307   4.151   3.911
 4837SOL    HW115410   0.383   4.132   3.848
 4837SOL    HW215411   0.331   4.229   3.969
 4838SOL     OW15412   2.187   4.215   6.349
 4838SOL    HW115413   2.134   4.252   6.273
 4838SOL    HW215414   2.126   4.195   6.426
 4839SOL     OW15415   2.484   1.400   0.413
 4839SOL    HW115416   2.572   1.383   0.457
 4839SOL    HW215417   2.425   1.320   0.426
 4840SOL     OW15418   5.852   3.872   4.434
 4840SOL    HW115419   5.903   3.928   4.369
 4840SOL    HW215420   5.908   3.794   4.462
 4841SOL     OW15421   3.588   6.270   2.691
 4841SOL    HW115422   3.622   6.222   2.772
 4841SOL    HW215423   3.569   6.365   2.714
 4842SOL     OW15424   3.203   5.497   2.995
 4842SOL    HW115425   3.273   5.440   3.038
 4842SOL    HW215426   3.200   5.478   2.897
 4843SOL     OW15427   0.360   1.698   1.253
 4843SOL    HW115428   0.419   1.616   1.253
 4843SOL    HW215429   0.346   1.728   1.348
 4844SOL     OW15430   1.501   5.515   4.949
 4844SOL    HW115431   1.544   5.427   4.965
 4844SOL    HW215432   1.429   5.505   4.880
 4845SOL     OW15433   4.844   3.834   4.846
 4845SOL    HW115434   4.939   3.862   4.862
 4845SOL    HW215435   4.821   3.758   4.907
 4846SOL     OW15436   6.580   3.762   4.260
 4846SOL    HW115437   6.622   3.849   4.286
 4846SOL    HW215438   6.630   3.723   4.182
 4847SOL     OW15439   2.419   5.817   6.530
 4847SOL    HW115440   2.438   5.878   6.453
 4847SOL    HW215441   2.427   5.868   6.615
 4848SOL     OW15442   3.229   0.982   4.286
 4848SOL    HW115443   3.292   0.942   4.354
 4848SOL    HW215444   3.239   1.081   4.286
 4849SOL     OW15445   2.029   6.754   1.227
 4849SOL    HW115446   1.990   6.748   1.319
 4849SOL    HW215447   2.008   6.671   1.176
 4850SOL     OW15448   4.494   0.311   0.273
 4850SOL    HW115449   4.440   0.290   0.354
 4850SOL    HW215450   4.438   0.301   0.191
 4851SOL     OW15451   3.743   4.271   6.709
 4851SOL    HW115452   3.729   4.259   6.610
 4851SOL    HW215453   3.654   4.266   6.756
 4852SOL     OW15454   5.002   5.600   4.720
 4852SOL    HW115455   4.908   5.604   4.686
 4852SOL    HW215456   5.065   5.589   4.643
 4853SOL     OW15457   4.422   6.636   1.907
 4853SOL    HW115458   4.522   6.641   1.907
 4853SOL    HW215459   4.385   6.726   1.932
 4854SOL     OW15460   5.207   6.291   1.830
 4854SOL    HW115461   5.285   6.319   1.775
 4854SOL    HW215462   5.214   6.194   1.851
 4855SOL     OW15463   5.083   4.988   5.661
 4855SOL    HW115464   5.180   4.965   5.674
 4855SOL    HW215465   5.060   4.983   5.564
 4856SOL     OW15466   6.978   4.058   2.817
 4856SOL    HW115467   0.002   4.025   2.729
 4856SOL    HW215468   6.914   4.134   2.801
 4857SOL     OW15469   2.537   2.311   5.045
 4857SOL    HW115470   2.536   2.400   5.001
 4857SOL    HW215471   2.444   2.277   5.056
 4858SOL     OW15472   0.857   6.106   4.477
 4858SOL    HW115473   0.770   6.126   4.523
 4858SOL    HW215474   0.928   6.089   4.546
 4859SOL     OW15475   0.541   6.415   2.400
 4859SOL    HW115476   0.506   6.351   2.469
 4859SOL    HW215477   0.615   6.371   2.348
 4860SOL     OW15478   4.468   5.247   1.092
 4860SOL    HW115479   4.553   5.245   1.040
 4860SOL    HW215480   4.470   5.326   1.155
 4861SOL     OW15481   0.274   4.178   6.600
 4861SOL    HW115482   0.316   4.109   6.659
 4861SOL    HW215483   0.213   4.236   6.654
 4862SOL     OW15484   2.355   5.456   5.440
 4862SOL    HW115485   2.286   5.462   5.368
 4862SOL    HW215486   2.309   5.456   5.529
 4863SOL     OW15487   4.767   1.900   3.009
 4863SOL    HW115488   4.721   1.874   3.094
 4863SOL    HW215489   4.715   1.866   2.931
 4864SOL     OW15490   1.950   1.272   1.226
 4864SOL    HW115491   2.034   1.264   1.173
 4864SOL    HW215492   1.921   1.368   1.229
 4865SOL     OW15493   3.575   5.965   5.801
 4865SOL    HW115494   3.589   6.039   5.735
 4865SOL    HW215495   3.596   5.878   5.758
 4866SOL     OW15496   7.011   4.549   2.134
 4866SOL    HW115497   0.050   4.486   2.192
 4866SOL    HW215498   0.036   4.547   2.041
 4867SOL     OW15499   4.721   5.871   3.428
 4867SOL    HW115500   4.719   5.923   3.514
 4867SOL    HW215501   4.650   5.800   3.431
 4868SOL     OW15502   0.958   6.032   0.981
 4868SOL    HW115503   1.034   6.042   0.917
 4868SOL    HW215504   0.993   6.017   1.073
 4869SOL     OW15505   6.482   0.684   0.950
 4869SOL    HW115506   6.470   0.593   0.909
 4869SOL    HW215507   6.523   0.674   1.041
 4870SOL     OW15508   6.685   0.037   1.588
 4870SOL    HW115509   6.605   0.091   1.564
 4870SOL    HW215510   6.680   0.012   1.685
 4871SOL     OW15511   0.405   3.452   3.976
 4871SOL    HW115512   0.488   3.496   4.010
 4871SOL    HW215513   0.429   3.390   3.901
 4872SOL     OW15514   0.876   0.452   3.382
 4872SOL    HW115515   0.892   0.497   3.470
 4872SOL    HW215516   0.873   0.521   3.310
 4873SOL     OW15517   0.886   5.748   5.342
 4873SOL    HW115518   0.979   5.734   5.310
 4873SOL    HW215519   0.883   5.741   5.442
 4874SOL     OW15520   5.038   3.457   3.309
 4874SOL    HW115521   4.962   3.406   3.268
 4874SOL    HW215522   5.006   3.548   3.337
 4875SOL     OW15523   6.367   2.938   6.648
 4875SOL    HW115524   6.329   2.951   6.556
 4875SOL    HW215525   6.293   2.917   6.712
 4876SOL     OW15526   0.586   1.353   6.419
 4876SOL    HW115527   0.646   1.428   6.447
 4876SOL    HW215528   0.541   1.314   6.500
 4877SOL     OW15529   6.546   1.572   0.882
 4877SOL    HW115530   6.544   1.510   0.803
 4877SOL    HW215531   6.463   1.627   0.883
 4878SOL     OW15532   6.852   2.051   1.471
 4878SOL    HW115533   6.910   1.993   1.413
 4878SOL    HW215534   6.837   2.139   1.425
 4879SOL     OW15535   4.240   5.690   3.288
 4879SOL    HW115536   4.289   5.772   3.319
 4879SOL    HW215537   4.301   5.637   3.228
 4880SOL     OW15538   5.630   2.179   6.098
 4880SOL    HW115539   5.586   2.113   6.159
 4880SOL    HW215540   5.719   2.144   6.069
 4881SOL     OW15541   3.217   5.924   6.603
 4881SOL    HW115542   3.178   5.972   6.682
 4881SOL    HW215543   3.316   5.915   6.616
 4882SOL     OW15544   5.505   0.742   5.545
 4882SOL    HW115545   5.407   0.750   5.558
 4882SOL    HW215546   5.550   0.728   5.634
 4883SOL     OW15547   0.509   5.770   0.871
 4883SOL    HW115548   0.433   5.812   0.822
 4883SOL    HW215549   0.517   5.810   0.962
 4884SOL     OW15550   3.281   6.532   1.902
 4884SOL    HW115551   3.298   6.465   1.829
 4884SOL    HW215552   3.323   6.501   1.987
 4885SOL     OW15553   2.107   0.166   2.145
 4885SOL    HW115554   2.152   0.254   2.156
 4885SOL    HW215555   2.015   0.171   2.184
 4886SOL     OW15556   6.038   0.647   6.245
 4886SOL    HW115557   5.941   0.620   6.244
 4886SOL    HW215558   6.079   0.620   6.332
 4887SOL     OW15559   0.507   1.808   5.232
 4887SOL    HW115560   0.476   1.719   5.267
 4887SOL    HW215561   0.461   1.827   5.146
 4888SOL     OW15562   2.695   5.430   1.818
 4888SOL    HW115563   2.670   5.333   1.820
 4888SOL    HW215564   2.665   5.474   1.902
 4889SOL     OW15565   1.470   2.420   0.040
 4889SOL    HW115566   1.549   2.467   0.001
 4889SOL    HW215567   1.397   2.486   0.058
 4890SOL     OW15568   1.433   0.328   4.633
 4890SOL    HW115569   1.402   0.420   4.658
 4890SOL    HW215570   1.492   0.292   4.705
 4891SOL     OW15571   1.299   3.941   0.789
 4891SOL    HW115572   1.388   3.940   0.742
 4891SOL    HW215573   1.302   3.879   0.867
 4892SOL     OW15574   1.308   6.032   1.283
 4892SOL    HW115575   1.209   6.024   1.291
 4892SOL    HW215576   1.352   5.995   1.365
 4893SOL     OW15577   0.687   3.480   6.500
 4893SOL    HW115578   0.609   3.430   6.538
 4893SOL    HW215579   0.678   3.577   6.523
 4894SOL     OW15580   2.109   1.081   3.744
 4894SOL    HW115581   2.060   0.994   3.745
 4894SOL    HW215582   2.046   1.155   3.768
 4895SOL     OW15583   0.241   3.521   0.342
 4895SOL    HW115584   0.163   3.475   0.297
 4895SOL    HW215585   0.208   3.595   0.399
 4896SOL     OW15586   4.321   5.249   3.583
 4896SOL    HW115587   4.327   5.155   3.617
 4896SOL    HW215588   4.284   5.248   3.490
 4897SOL     OW15589   3.346   5.470   5.877
 4897SOL    HW115590   3.398   5.514   5.951
 4897SOL    HW215591   3.342   5.532   5.799
 4898SOL     OW15592   5.721   2.544   5.559
 4898SOL    HW115593   5.743   2.615   5.625
 4898SOL    HW215594   5.639   2.570   5.509
 4899SOL     OW15595   5.339   4.124   4.862
 4899SOL    HW115596   5.339   4.224   4.870
 4899SOL    HW215597   5.421   4.094   4.813
 4900SOL     OW15598   1.134   6.749   5.405
 4900SOL    HW115599   1.131   6.654   5.435
 4900SOL    HW215600   1.191   6.756   5.323
 4901SOL     OW15601   1.505   6.543   3.120
 4901SOL    HW115602   1.533   6.575   3.029
 4901SOL    HW215603   1.405   6.538   3.125
 4902SOL     OW15604   2.981   4.809   1.943
 4902SOL    HW115605   3.010   4.814   1.847
 4902SOL    HW215606   2.933   4.722   1.958
 4903SOL     OW15607   5.053   6.326   6.346
 4903SOL    HW115608   5.077   6.343   6.442
 4903SOL    HW215609   4.961   6.287   6.340
 4904SOL     OW15610   3.389   6.139   3.477
 4904SOL    HW115611   3.420   6.189   3.558
 4904SOL    HW215612   3.448   6.061   3.461
 4905SOL     OW15613   6.006   3.259   2.901
 4905SOL    HW115614   6.075   3.217   2.961
 4905SOL    HW215615   6.019   3.226   2.807
 4906SOL     OW15616   5.993   1.121   1.584
 4906SOL    HW115617   6.032   1.036   1.547
 4906SOL    HW215618   6.050   1.153   1.659
 4907SOL     OW15619   2.795   1.101   2.360
 4907SOL    HW115620   2.769   1.040   2.435
 4907SOL    HW215621   2.801   1.195   2.395
 4908SOL     OW15622   3.347   5.622   6.602
 4908SOL    HW115623   3.298   5.633   6.688
 4908SOL    HW215624   3.281   5.605   6.529
 4909SOL     OW15625   6.786   0.419   5.023
 4909SOL    HW115626   6.825   0.489   4.963
 4909SOL    HW215627   6.755   0.341   4.969
 4910SOL     OW15628   6.414   0.267   5.352
 4910SOL    HW115629   6.491   0.205   5.342
 4910SOL    HW215630   6.411   0.331   5.275
 4911SOL     OW15631   0.418   3.269   6.047
 4911SOL    HW115632   0.470   3.276   6.133
 4911SOL    HW215633   0.323   3.244   6.067
 4912SOL     OW15634   2.601   2.407   1.903
 4912SOL    HW115635   2.645   2.397   1.814
 4912SOL    HW215636   2.658   2.365   1.974
 4913SOL     OW15637   2.989   3.932   2.258
 4913SOL    HW115638   2.992   3.894   2.350
 4913SOL    HW215639   2.895   3.931   2.224
 4914SOL     OW15640   1.630   6.314   3.514
 4914SOL    HW115641   1.580   6.227   3.514
 4914SOL    HW215642   1.648   6.341   3.608
 4915SOL     OW15643   3.351   5.730   3.495
 4915SOL    HW115644   3.272   5.786   3.471
 4915SOL    HW215645   3.380   5.676   3.415
 4916SOL     OW15646   2.185   1.444   2.266
 4916SOL    HW115647   2.215   1.365   2.212
 4916SOL    HW215648   2.085   1.449   2.266
 4917SOL     OW15649   1.193   5.271   0.229
 4917SOL    HW115650   1.105   5.313   0.249
 4917SOL    HW215651   1.223   5.215   0.307
 4918SOL     OW15652   2.409   0.322   2.366
 4918SOL    HW115653   2.451   0.249   2.311
 4918SOL    HW215654   2.472   0.349   2.439
 4919SOL     OW15655   2.625   2.633   1.645
 4919SOL    HW115656   2.622   2.654   1.547
 4919SOL    HW215657   2.638   2.534   1.657
 4920SOL     OW15658   4.263   0.836   6.868
 4920SOL    HW115659   4.329   0.899   6.909
 4920SOL    HW215660   4.220   0.880   6.789
 4921SOL     OW15661   1.576   4.513   2.034
 4921SOL    HW115662   1.599   4.596   1.984
 4921SOL    HW215663   1.506   4.462   1.984
 4922SOL     OW15664   1.016   2.788   5.885
 4922SOL    HW115665   0.995   2.882   5.914
 4922SOL    HW215666   1.004   2.726   5.963
 4923SOL     OW15667   3.917   1.541   1.002
 4923SOL    HW115668   3.840   1.561   1.063
 4923SOL    HW215669   3.985   1.487   1.051
 4924SOL     OW15670   0.900   4.268   4.438
 4924SOL    HW115671   0.904   4.361   4.401
 4924SOL    HW215672   0.899   4.202   4.363
 4925SOL     OW15673   4.374   6.136   6.298
 4925SOL    HW115674   4.339   6.226   6.270
 4925SOL    HW215675   4.320   6.064   6.255
 4926SOL     OW15676   4.831   2.333   2.046
 4926SOL    HW115677   4.773   2.410   2.071
 4926SOL    HW215678   4.893   2.359   1.973
 4927SOL     OW15679   3.550   3.732   2.987
 4927SOL    HW115680   3.604   3.767   3.063
 4927SOL    HW215681   3.612   3.692   2.918
 4928SOL     OW15682   0.774   6.152   0.725
 4928SOL    HW115683   0.856   6.206   0.745
 4928SOL    HW215684   0.791   6.094   0.646
 4929SOL     OW15685   0.827   5.012   4.249
 4929SOL    HW115686   0.848   5.068   4.169
 4929SOL    HW215687   0.818   4.917   4.222
 4930SOL     OW15688   6.839   2.167   0.626
 4930SOL    HW115689   6.920   2.203   0.673
 4930SOL    HW215690   6.826   2.071   0.652
 4931SOL     OW15691   6.974   0.702   1.269
 4931SOL    HW115692   0.021   0.634   1.224
 4931SOL    HW215693   7.011   0.793   1.253
 4932SOL     OW15694   3.385   2.245   1.038
 4932SOL    HW115695   3.398   2.318   0.971
 4932SOL    HW215696   3.435   2.163   1.009
 4933SOL     OW15697   2.661   0.980   4.687
 4933SOL    HW115698   2.646   1.025   4.775
 4933SOL    HW215699   2.758   0.957   4.678
 4934SOL     OW15700   1.117   6.214   4.940
 4934SOL    HW115701   1.038   6.233   4.999
 4934SOL    HW215702   1.136   6.293   4.883
 4935SOL     OW15703   1.674   1.140   0.516
 4935SOL    HW115704   1.597   1.160   0.455
 4935SOL    HW215705   1.728   1.224   0.530
 4936SOL     OW15706   3.799   5.878   0.608
 4936SOL    HW115707   3.713   5.867   0.658
 4936SOL    HW215708   3.821   5.793   0.560
 4937SOL     OW15709   0.709   3.375   6.200
 4937SOL    HW115710   0.698   3.302   6.268
 4937SOL    HW215711   0.729   3.461   6.247
 4938SOL     OW15712   3.759   4.472   1.395
 4938SOL    HW115713   3.718   4.385   1.420
 4938SOL    HW215714   3.774   4.475   1.297
 4939SOL     OW15715   1.297   2.124   2.416
 4939SOL    HW115716   1.247   2.132   2.502
 4939SOL    HW215717   1.344   2.211   2.398
 4940SOL     OW15718   6.828   2.232   5.112
 4940SOL    HW115719   6.904   2.170   5.092
 4940SOL    HW215720   6.771   2.193   5.185
 4941SOL     OW15721   3.851   1.874   5.380
 4941SOL    HW115722   3.860   1.931   5.299
 4941SOL    HW215723   3.758   1.883   5.417
 4942SOL     OW15724   0.362   1.480   3.739
 4942SOL    HW115725   0.299   1.553   3.767
 4942SOL    HW215726   0.442   1.520   3.694
 4943SOL     OW15727   5.135   3.079   6.584
 4943SOL    HW115728   5.095   3.170   6.587
 4943SOL    HW215729   5.220   3.078   6.637
 4944SOL     OW15730   1.176   5.371   0.827
 4944SOL    HW115731   1.123   5.455   0.833
 4944SOL    HW215732   1.273   5.392   0.840
 4945SOL     OW15733   2.380   0.717   4.715
 4945SOL    HW115734   2.394   0.709   4.616
 4945SOL    HW215735   2.349   0.630   4.752
 4946SOL     OW15736   2.373   4.946   0.094
 4946SOL    HW115737   2.415   5.016   0.036
 4946SOL    HW215738   2.274   4.950   0.083
 4947SOL     OW15739   1.401   1.162   1.886
 4947SOL    HW115740   1.334   1.092   1.912
 4947SOL    HW215741   1.435   1.208   1.968
 4948SOL     OW15742   1.465   2.627   1.672
 4948SOL    HW115743   1.470   2.535   1.634
 4948SOL    HW215744   1.546   2.679   1.644
 4949SOL     OW15745   0.266   4.331   6.934
 4949SOL    HW115746   0.251   4.244   6.981
 4949SOL    HW215747   0.359   4.362   6.952
 4950SOL     OW15748   2.810   3.983   5.566
 4950SOL    HW115749   2.757   3.998   5.650
 4950SOL    HW215750   2.763   4.025   5.489
 4951SOL     OW15751   5.163   5.275   3.290
 4951SOL    HW115752   5.118   5.215   3.223
 4951SOL    HW215753   5.126   5.367   3.283
 4952SOL     OW15754   0.703   6.901   6.494
 4952SOL    HW115755   0.653   6.983   6.523
 4952SOL    HW215756   0.638   6.834   6.458
 4953SOL     OW15757   0.782   1.810   5.258
 4953SOL    HW115758   0.685   1.834   5.254
 4953SOL    HW215759   0.836   1.881   5.214
 4954SOL     OW15760   3.356   3.968   5.444
 4954SOL    HW115761   3.340   4.003   5.352
 4954SOL    HW215762   3.378   4.044   5.505
 4955SOL     OW15763   3.460   5.192   6.437
 4955SOL    HW115764   3.497   5.129   6.505
 4955SOL    HW215765   3.494   5.284   6.455
 4956SOL     OW15766   3.039   0.127   4.680
 4956SOL    HW115767   3.012   0.128   4.584
 4956SOL    HW215768   3.139   0.131   4.687
 4957SOL     OW15769   5.915   4.096   6.852
 4957SOL    HW115770   5.844   4.149   6.899
 4957SOL    HW215771   5.990   4.078   6.914
 4958SOL     OW15772   3.613   5.987   0.267
 4958SOL    HW115773   3.561   5.944   0.341
 4958SOL    HW215774   3.550   6.017   0.195
 4959SOL     OW15775   0.724   2.758   2.791
 4959SOL    HW115776   0.639   2.734   2.837
 4959SOL    HW215777   0.786   2.803   2.856
 4960SOL     OW15778   4.609   4.813   4.300
 4960SOL    HW115779   4.542   4.885   4.312
 4960SOL    HW215780   4.685   4.847   4.244
 4961SOL     OW15781   3.985   0.978   0.308
 4961SOL    HW115782   3.913   1.045   0.325
 4961SOL    HW215783   4.059   1.022   0.257
 4962SOL     OW15784   1.576   4.109   1.028
 4962SOL    HW115785   1.478   4.117   1.041
 4962SOL    HW215786   1.607   4.180   0.963
 4963SOL     OW15787   1.275   4.058   6.378
 4963SOL    HW115788   1.219   4.001   6.318
 4963SOL    HW215789   1.262   4.029   6.473
 4964SOL     OW15790   2.488   6.715   4.609
 4964SOL    HW115791   2.536   6.798   4.582
 4964SOL    HW215792   2.547   6.660   4.668
 4965SOL     OW15793   1.711   5.843   3.285
 4965SOL    HW115794   1.650   5.767   3.309
 4965SOL    HW215795   1.806   5.811   3.284
 4966SOL     OW15796   3.034   0.014   4.390
 4966SOL    HW115797   3.093   0.051   4.318
 4966SOL    HW215798   3.054   6.928   4.403
 4967SOL     OW15799   4.310   4.790   4.863
 4967SOL    HW115800   4.337   4.882   4.894
 4967SOL    HW215801   4.344   4.722   4.928
 4968SOL     OW15802   6.239   2.518   3.267
 4968SOL    HW115803   6.215   2.449   3.336
 4968SOL    HW215804   6.196   2.494   3.180
 4969SOL     OW15805   0.741   6.297   3.084
 4969SOL    HW115806   0.783   6.372   3.135
 4969SOL    HW215807   0.784   6.290   2.994
 4970SOL     OW15808   0.503   1.592   1.634
 4970SOL    HW115809   0.456   1.664   1.685
 4970SOL    HW215810   0.443   1.557   1.562
 4971SOL     OW15811   6.648   6.090   2.761
 4971SOL    HW115812   6.733   6.128   2.796
 4971SOL    HW215813   6.648   6.095   2.661
 4972SOL     OW15814   1.144   4.258   1.133
 4972SOL    HW115815   1.086   4.310   1.071
 4972SOL    HW215816   1.220   4.217   1.082
 4973SOL     OW15817   6.687   0.862   1.061
 4973SOL    HW115818   6.754   0.847   0.988
 4973SOL    HW215819   6.602   0.898   1.022
 4974SOL     OW15820   3.472   5.625   5.021
 4974SOL    HW115821   3.409   5.578   5.083
 4974SOL    HW215822   3.496   5.565   4.945
 4975SOL     OW15823   6.088   4.594   0.558
 4975SOL    HW115824   6.115   4.646   0.638
 4975SOL    HW215825   5.990   4.575   0.562
 4976SOL     OW15826   1.828   6.615   3.244
 4976SOL    HW115827   1.842   6.531   3.297
 4976SOL    HW215828   1.836   6.596   3.147
 4977SOL     OW15829   1.879   4.404   6.286
 4977SOL    HW115830   1.936   4.346   6.228
 4977SOL    HW215831   1.910   4.397   6.381
 4978SOL     OW15832   5.240   4.780   4.929
 4978SOL    HW115833   5.185   4.780   4.845
 4978SOL    HW215834   5.312   4.711   4.922
 4979SOL     OW15835   2.501   7.011   6.158
 4979SOL    HW115836   2.519   0.097   6.171
 4979SOL    HW215837   2.431   6.981   6.223
 4980SOL     OW15838   5.327   3.494   3.316
 4980SOL    HW115839   5.332   3.552   3.398
 4980SOL    HW215840   5.231   3.478   3.293
 4981SOL     OW15841   3.366   4.918   1.930
 4981SOL    HW115842   3.331   4.880   1.845
 4981SOL    HW215843   3.455   4.878   1.951
 4982SOL     OW15844   3.975   1.693   5.872
 4982SOL    HW115845   3.958   1.785   5.906
 4982SOL    HW215846   3.913   1.629   5.918
 4983SOL     OW15847   5.664   5.438   2.849
 4983SOL    HW115848   5.724   5.360   2.866
 4983SOL    HW215849   5.714   5.523   2.866
 4984SOL     OW15850   5.061   4.611   3.065
 4984SOL    HW115851   5.062   4.515   3.035
 4984SOL    HW215852   4.966   4.641   3.074
 4985SOL     OW15853   5.347   6.521   2.518
 4985SOL    HW115854   5.302   6.487   2.435
 4985SOL    HW215855   5.303   6.605   2.548
 4986SOL     OW15856   0.003   4.847   2.862
 4986SOL    HW115857   6.950   4.772   2.847
 4986SOL    HW215858   6.978   4.931   2.822
 4987SOL     OW15859   0.931   1.232   2.425
 4987SOL    HW115860   0.884   1.304   2.373
 4987SOL    HW215861   0.866   1.160   2.448
 4988SOL     OW15862   5.686   6.562   3.476
 4988SOL    HW115863   5.710   6.603   3.388
 4988SOL    HW215864   5.736   6.608   3.549
 4989SOL     OW15865   4.384   0.324   2.629
 4989SOL    HW115866   4.291   0.342   2.661
 4989SOL    HW215867   4.435   0.276   2.700
 4990SOL     OW15868   4.554   2.087   4.964
 4990SOL    HW115869   4.493   2.130   5.031
 4990SOL    HW215870   4.583   2.155   4.897
 4991SOL     OW15871   1.237   5.002   4.941
 4991SOL    HW115872   1.267   5.069   4.873
 4991SOL    HW215873   1.253   5.038   5.033
 4992SOL     OW15874   0.416   2.185   4.117
 4992SOL    HW115875   0.355   2.109   4.093
 4992SOL    HW215876   0.415   2.253   4.043
 4993SOL     OW15877   3.635   6.321   3.746
 4993SOL    HW115878   3.587   6.347   3.830
 4993SOL    HW215879   3.646   6.221   3.744
 4994SOL     OW15880   3.335   4.397   5.404
 4994SOL    HW115881   3.357   4.394   5.501
 4994SOL    HW215882   3.355   4.488   5.368
 4995SOL     OW15883   0.569   0.184   5.605
 4995SOL    HW115884   0.555   0.100   5.551
 4995SOL    HW215885   0.666   0.198   5.621
 4996SOL     OW15886   6.904   1.248   4.575
 4996SOL    HW115887   6.839   1.175   4.555
 4996SOL    HW215888   6.985   1.210   4.621
 4997SOL     OW15889   3.962   2.153   1.658
 4997SOL    HW115890   3.986   2.106   1.574
 4997SOL    HW215891   3.865   2.176   1.657
 4998SOL     OW15892   0.336   3.601   3.669
 4998SOL    HW115893   0.267   3.592   3.741
 4998SOL    HW215894   0.325   3.527   3.603
 4999SOL     OW15895   0.810   3.822   4.213
 4999SOL    HW115896   0.825   3.851   4.118
 4999SOL    HW215897   0.767   3.732   4.213
 5000SOL     OW15898   2.921   5.614   2.384
 5000SOL    HW115899   2.836   5.589   2.429
 5000SOL    HW215900   2.931   5.562   2.299
 5001SOL     OW15901   0.442   5.365   3.016
 5001SOL    HW115902   0.394   5.346   3.102
 5001SOL    HW215903   0.374   5.386   2.945
 5002SOL     OW15904   0.490   3.017   3.510
 5002SOL    HW115905   0.513   3.114   3.512
 5002SOL    HW215906   0.447   2.991   3.596
 5003SOL     OW15907   4.171   6.875   3.867
 5003SOL    HW115908   4.182   6.869   3.768
 5003SOL    HW215909   4.256   6.847   3.912
 5004SOL     OW15910   2.372   5.988   6.742
 5004SOL    HW115911   2.282   5.951   6.765
 5004SOL    HW215912   2.369   6.088   6.745
 5005SOL     OW15913   3.563   2.142   0.124
 5005SOL    HW115914   3.550   2.165   0.027
 5005SOL    HW215915   3.474   2.132   0.168
 5006SOL     OW15916   5.343   1.838   1.822
 5006SOL    HW115917   5.342   1.752   1.874
 5006SOL    HW215918   5.266   1.895   1.852
 5007SOL     OW15919   6.100   6.859   2.234
 5007SOL    HW115920   6.075   6.783   2.294
 5007SOL    HW215921   6.148   6.929   2.287
 5008SOL     OW15922   5.483   6.345   2.314
 5008SOL    HW115923   5.447   6.353   2.407
 5008SOL    HW215924   5.547   6.268   2.309
 5009SOL     OW15925   6.933   2.586   0.674
 5009SOL    HW115926   6.838   2.589   0.643
 5009SOL    HW215927   6.967   2.679   0.686
 5010SOL     OW15928   4.191   3.257   0.736
 5010SOL    HW115929   4.269   3.300   0.691
 5010SOL    HW215930   4.188   3.285   0.832
 5011SOL     OW15931   2.324   3.449   6.647
 5011SOL    HW115932   2.266   3.516   6.693
 5011SOL    HW215933   2.413   3.445   6.694
 5012SOL     OW15934   5.957   2.229   5.033
 5012SOL    HW115935   5.924   2.300   4.971
 5012SOL    HW215936   6.044   2.258   5.074
 5013SOL     OW15937   5.985   0.593   5.922
 5013SOL    HW115938   6.069   0.542   5.943
 5013SOL    HW215939   6.009   0.681   5.882
 5014SOL     OW15940   6.596   3.615   1.227
 5014SOL    HW115941   6.568   3.560   1.305
 5014SOL    HW215942   6.514   3.643   1.176
 5015SOL     OW15943   5.584   6.616   4.074
 5015SOL    HW115944   5.520   6.637   4.000
 5015SOL    HW215945   5.592   6.695   4.134
 5016SOL     OW15946   1.546   3.869   5.218
 5016SOL    HW115947   1.552   3.952   5.163
 5016SOL    HW215948   1.451   3.856   5.249
 5017SOL     OW15949   0.628   2.595   1.756
 5017SOL    HW115950   0.596   2.683   1.723
 5017SOL    HW215951   0.612   2.588   1.854
 5018SOL     OW15952   0.683   6.660   1.017
 5018SOL    HW115953   0.629   6.702   0.944
 5018SOL    HW215954   0.662   6.705   1.104
 5019SOL     OW15955   1.408   5.307   5.346
 5019SOL    HW115956   1.414   5.401   5.312
 5019SOL    HW215957   1.390   5.309   5.444
 5020SOL     OW15958   1.720   6.985   4.429
 5020SOL    HW115959   1.728   0.072   4.443
 5020SOL    HW215960   1.770   6.959   4.346
 5021SOL     OW15961   1.460   1.385   1.295
 5021SOL    HW115962   1.398   1.314   1.262
 5021SOL    HW215963   1.429   1.474   1.261
 5022SOL     OW15964   0.252   3.399   1.356
 5022SOL    HW115965   0.302   3.432   1.276
 5022SOL    HW215966   0.194   3.473   1.391
 5023SOL     OW15967   0.028   4.350   2.776
 5023SOL    HW115968   0.108   4.405   2.752
 5023SOL    HW215969   0.003   4.367   2.871
 5024SOL     OW15970   4.556   3.806   1.602
 5024SOL    HW115971   4.538   3.860   1.520
 5024SOL    HW215972   4.614   3.728   1.579
 5025SOL     OW15973   3.904   0.875   3.617
 5025SOL    HW115974   3.991   0.921   3.635
 5025SOL    HW215975   3.830   0.942   3.621
 5026SOL     OW15976   4.641   6.930   5.093
 5026SOL    HW115977   4.673   6.836   5.080
 5026SOL    HW215978   4.614   6.968   5.005
 5027SOL     OW15979   5.147   0.592   6.896
 5027SOL    HW115980   5.213   0.519   6.881
 5027SOL    HW215981   5.134   0.606   6.994
 5028SOL     OW15982   0.359   2.060   3.053
 5028SOL    HW115983   0.434   2.082   3.116
 5028SOL    HW215984   0.284   2.124   3.069
 5029SOL     OW15985   5.805   1.735   2.663
 5029SOL    HW115986   5.736   1.778   2.722
 5029SOL    HW215987   5.766   1.654   2.620
 5030SOL     OW15988   0.248   4.785   6.571
 5030SOL    HW115989   0.316   4.723   6.610
 5030SOL    HW215990   0.217   4.751   6.483
 5031SOL     OW15991   6.812   0.286   6.149
 5031SOL    HW115992   6.759   0.363   6.185
 5031SOL    HW215993   6.782   0.265   6.056
 5032SOL     OW15994   3.169   3.289   5.366
 5032SOL    HW115995   3.154   3.322   5.273
 5032SOL    HW215996   3.247   3.226   5.366
 5033SOL     OW15997   1.739   1.069   0.157
 5033SOL    HW115998   1.756   1.033   0.065
 5033SOL    HW215999   1.684   1.004   0.209
 5034SOL     OW16000   4.354   6.541   3.863
 5034SOL    HW116001   4.276   6.515   3.920
 5034SOL    HW216002   4.373   6.468   3.798
 5035SOL     OW16003   1.121   4.563   3.925
 5035SOL    HW116004   1.092   4.542   4.018
 5035SOL    HW216005   1.057   4.522   3.860
 5036SOL     OW16006   6.161   2.846   5.282
 5036SOL    HW116007   6.216   2.859   5.200
 5036SOL    HW216008   6.094   2.921   5.288
 5037SOL     OW16009   4.299   4.396   0.701
 5037SOL    HW116010   4.308   4.296   0.698
 5037SOL    HW216011   4.277   4.430   0.610
 5038SOL     OW16012   3.562   3.464   3.623
 5038SOL    HW116013   3.478   3.431   3.667
 5038SOL    HW216014   3.591   3.398   3.554
 5039SOL     OW16015   0.547   3.517   6.920
 5039SOL    HW116016   0.527   3.435   6.867
 5039SOL    HW216017   0.646   3.524   6.934
 5040SOL     OW16018   0.798   5.922   6.559
 5040SOL    HW116019   0.810   5.832   6.601
 5040SOL    HW216020   0.746   5.981   6.620
 5041SOL     OW16021   6.686   3.342   2.457
 5041SOL    HW116022   6.769   3.394   2.477
 5041SOL    HW216023   6.687   3.313   2.361
 5042SOL     OW16024   0.549   3.676   5.874
 5042SOL    HW116025   0.564   3.734   5.794
 5042SOL    HW216026   0.598   3.714   5.953
 5043SOL     OW16027   3.853   0.078   0.808
 5043SOL    HW116028   3.882   0.130   0.889
 5043SOL    HW216029   3.780   0.127   0.761
 5044SOL     OW16030   5.904   5.407   0.723
 5044SOL    HW116031   5.968   5.377   0.793
 5044SOL    HW216032   5.934   5.373   0.633
 5045SOL     OW16033   6.222   3.326   6.033
 5045SOL    HW116034   6.262   3.412   6.064
 5045SOL    HW216035   6.265   3.250   6.083
 5046SOL     OW16036   3.253   3.348   3.204
 5046SOL    HW116037   3.261   3.250   3.185
 5046SOL    HW216038   3.345   3.389   3.206
 5047SOL     OW16039   1.993   3.945   3.120
 5047SOL    HW116040   1.997   4.017   3.189
 5047SOL    HW216041   1.997   3.856   3.165
 5048SOL     OW16042   1.502   1.057   5.900
 5048SOL    HW116043   1.573   1.090   5.837
 5048SOL    HW216044   1.457   1.135   5.944
 5049SOL     OW16045   5.737   0.703   6.228
 5049SOL    HW116046   5.676   0.764   6.178
 5049SOL    HW216047   5.802   0.756   6.282
 5050SOL     OW16048   1.816   0.869   1.410
 5050SOL    HW116049   1.848   0.774   1.408
 5050SOL    HW216050   1.885   0.927   1.453
 5051SOL     OW16051   3.576   4.777   1.302
 5051SOL    HW116052   3.601   4.747   1.393
 5051SOL    HW216053   3.595   4.875   1.293
 5052SOL     OW16054   3.117   1.303   5.544
 5052SOL    HW116055   3.029   1.321   5.588
 5052SOL    HW216056   3.150   1.213   5.572
 5053SOL     OW16057   0.224   6.255   2.246
 5053SOL    HW116058   0.306   6.301   2.280
 5053SOL    HW216059   0.163   6.234   2.323
 5054SOL     OW16060   3.822   5.081   4.393
 5054SOL    HW116061   3.863   5.071   4.302
 5054SOL    HW216062   3.876   5.031   4.460
 5055SOL     OW16063   6.628   2.942   6.695
 5055SOL    HW116064   6.633   2.852   6.738
 5055SOL    HW216065   6.532   2.966   6.679
 5056SOL     OW16066   5.308   4.089   5.164
 5056SOL    HW116067   5.215   4.109   5.196
 5056SOL    HW216068   5.351   4.174   5.135
 5057SOL     OW16069   1.135   6.612   2.859
 5057SOL    HW116070   1.070   6.625   2.933
 5057SOL    HW216071   1.088   6.573   2.779
 5058SOL     OW16072   2.905   4.585   6.344
 5058SOL    HW116073   2.952   4.673   6.352
 5058SOL    HW216074   2.850   4.569   6.426
 5059SOL     OW16075   0.435   0.908   2.507
 5059SOL    HW116076   0.529   0.879   2.519
 5059SOL    HW216077   0.425   1.003   2.539
 5060SOL     OW16078   6.347   1.866   5.517
 5060SOL    HW116079   6.378   1.841   5.609
 5060SOL    HW216080   6.338   1.783   5.462
 5061SOL     OW16081   5.011   3.374   0.182
 5061SOL    HW116082   5.076   3.298   0.185
 5061SOL    HW216083   5.061   3.461   0.180
 5062SOL     OW16084   0.496   0.267   1.351
 5062SOL    HW116085   0.540   0.207   1.419
 5062SOL    HW216086   0.547   0.353   1.344
 5063SOL     OW16087   1.008   6.767   2.013
 5063SOL    HW116088   1.085   6.829   1.996
 5063SOL    HW216089   1.033   6.702   2.085
 5064SOL     OW16090   4.708   2.947   0.527
 5064SOL    HW116091   4.641   2.978   0.460
 5064SOL    HW216092   4.783   2.901   0.481
 5065SOL     OW16093   2.306   6.683   6.037
 5065SOL    HW116094   2.370   6.754   6.067
 5065SOL    HW216095   2.337   6.594   6.070
 5066SOL     OW16096   5.941   4.986   1.231
 5066SOL    HW116097   5.917   5.076   1.266
 5066SOL    HW216098   6.018   4.995   1.167
 5067SOL     OW16099   4.606   1.493   0.397
 5067SOL    HW116100   4.636   1.568   0.456
 5067SOL    HW216101   4.685   1.440   0.367
 5068SOL     OW16102   2.540   5.175   0.532
 5068SOL    HW116103   2.568   5.154   0.439
 5068SOL    HW216104   2.544   5.274   0.546
 5069SOL     OW16105   0.459   4.489   2.770
 5069SOL    HW116106   0.404   4.448   2.696
 5069SOL    HW216107   0.422   4.579   2.793
 5070SOL     OW16108   5.004   2.772   4.060
 5070SOL    HW116109   5.076   2.809   4.119
 5070SOL    HW216110   4.954   2.701   4.108
 5071SOL     OW16111   4.807   1.778   6.982
 5071SOL    HW116112   4.765   1.831   6.908
 5071SOL    HW216113   4.907   1.780   6.971
 5072SOL     OW16114   1.024   4.540   1.251
 5072SOL    HW116115   0.964   4.460   1.257
 5072SOL    HW216116   1.028   4.572   1.157
 5073SOL     OW16117   4.768   0.784   2.995
 5073SOL    HW116118   4.670   0.800   2.985
 5073SOL    HW216119   4.784   0.723   3.073
 5074SOL     OW16120   2.684   3.986   6.280
 5074SOL    HW116121   2.686   4.042   6.363
 5074SOL    HW216122   2.778   3.962   6.254
 5075SOL     OW16123   0.335   5.890   4.910
 5075SOL    HW116124   0.396   5.813   4.891
 5075SOL    HW216125   0.272   5.902   4.833
 5076SOL     OW16126   3.342   0.572   1.339
 5076SOL    HW116127   3.320   0.588   1.243
 5076SOL    HW216128   3.398   0.489   1.346
 5077SOL     OW16129   0.620   2.367   3.396
 5077SOL    HW116130   0.584   2.283   3.437
 5077SOL    HW216131   0.545   2.429   3.374
 5078SOL     OW16132   1.147   1.852   4.079
 5078SOL    HW116133   1.193   1.906   4.009
 5078SOL    HW216134   1.216   1.816   4.144
 5079SOL     OW16135   3.876   5.088   5.676
 5079SOL    HW116136   3.782   5.061   5.695
 5079SOL    HW216137   3.881   5.131   5.586
 5080SOL     OW16138   5.604   0.021   5.954
 5080SOL    HW116139   5.505   0.013   5.967
 5080SOL    HW216140   5.633   0.114   5.977
 5081SOL     OW16141   3.666   3.206   3.523
 5081SOL    HW116142   3.617   3.121   3.502
 5081SOL    HW216143   3.669   3.218   3.622
 5082SOL     OW16144   5.298   5.914   4.769
 5082SOL    HW116145   5.366   5.923   4.696
 5082SOL    HW216146   5.272   6.004   4.802
 5083SOL     OW16147   1.794   6.416   1.396
 5083SOL    HW116148   1.889   6.449   1.391
 5083SOL    HW216149   1.746   6.439   1.312
 5084SOL     OW16150   1.498   6.073   3.512
 5084SOL    HW116151   1.466   6.052   3.420
 5084SOL    HW216152   1.420   6.074   3.575
 5085SOL     OW16153   6.205   2.560   6.317
 5085SOL    HW116154   6.182   2.463   6.323
 5085SOL    HW216155   6.282   2.580   6.378
 5086SOL     OW16156   6.695   5.097   3.502
 5086SOL    HW116157   6.646   5.139   3.425
 5086SOL    HW216158   6.772   5.156   3.528
 5087SOL     OW16159   6.887   5.388   5.753
 5087SOL    HW116160   6.975   5.343   5.736
 5087SOL    HW216161   6.902   5.471   5.807
 5088SOL     OW16162   5.705   0.446   6.361
 5088SOL    HW116163   5.685   0.348   6.361
 5088SOL    HW216164   5.659   0.490   6.284
 5089SOL     OW16165   5.557   3.732   3.407
 5089SOL    HW116166   5.607   3.709   3.491
 5089SOL    HW216167   5.497   3.656   3.382
 5090SOL     OW16168   1.916   5.266   1.045
 5090SOL    HW116169   1.973   5.186   1.026
 5090SOL    HW216170   1.820   5.241   1.037
 5091SOL     OW16171   1.180   6.051   2.599
 5091SOL    HW116172   1.150   6.082   2.689
 5091SOL    HW216173   1.170   5.952   2.593
 5092SOL     OW16174   4.237   2.207   1.462
 5092SOL    HW116175   4.296   2.173   1.535
 5092SOL    HW216176   4.222   2.305   1.475
 5093SOL     OW16177   0.697   2.171   2.087
 5093SOL    HW116178   0.712   2.094   2.148
 5093SOL    HW216179   0.631   2.145   2.016
 5094SOL     OW16180   0.596   6.989   5.419
 5094SOL    HW116181   0.629   6.908   5.468
 5094SOL    HW216182   0.572   6.963   5.326
 5095SOL     OW16183   2.888   6.878   4.655
 5095SOL    HW116184   2.925   6.969   4.636
 5095SOL    HW216185   2.829   6.850   4.579
 5096SOL     OW16186   4.213   4.105   1.135
 5096SOL    HW116187   4.154   4.065   1.205
 5096SOL    HW216188   4.232   4.036   1.065
 5097SOL     OW16189   1.488   6.814   6.093
 5097SOL    HW116190   1.394   6.789   6.073
 5097SOL    HW216191   1.506   6.802   6.191
 5098SOL     OW16192   0.214   1.581   2.804
 5098SOL    HW116193   0.216   1.676   2.773
 5098SOL    HW216194   0.152   1.573   2.882
 5099SOL     OW16195   1.319   0.372   5.145
 5099SOL    HW116196   1.303   0.300   5.211
 5099SOL    HW216197   1.392   0.345   5.082
 5100SOL     OW16198   5.189   0.028   6.361
 5100SOL    HW116199   5.251   6.990   6.300
 5100SOL    HW216200   5.100   0.038   6.318
 5101SOL     OW16201   4.122   6.472   0.353
 5101SOL    HW116202   4.203   6.496   0.300
 5101SOL    HW216203   4.149   6.449   0.447
 5102SOL     OW16204   3.575   5.630   5.396
 5102SOL    HW116205   3.522   5.546   5.399
 5102SOL    HW216206   3.524   5.700   5.346
 5103SOL     OW16207   0.542   0.514   4.286
 5103SOL    HW116208   0.446   0.539   4.273
 5103SOL    HW216209   0.564   0.517   4.384
 5104SOL     OW16210   1.313   0.348   1.552
 5104SOL    HW116211   1.309   0.442   1.516
 5104SOL    HW216212   1.221   0.310   1.554
 5105SOL     OW16213   3.155   3.954   6.382
 5105SOL    HW116214   3.198   3.930   6.469
 5105SOL    HW216215   3.206   4.029   6.340
 5106SOL     OW16216   3.448   0.710   2.330
 5106SOL    HW116217   3.392   0.699   2.412
 5106SOL    HW216218   3.449   0.625   2.278
 5107SOL     OW16219   1.945   6.619   5.699
 5107SOL    HW116220   1.994   6.617   5.612
 5107SOL    HW216221   1.974   6.698   5.752
 5108SOL     OW16222   3.516   3.547   4.219
 5108SOL    HW116223   3.462   3.622   4.257
 5108SOL    HW216224   3.477   3.460   4.248
 5109SOL     OW16225   0.189   1.223   1.372
 5109SOL    HW116226   0.091   1.231   1.391
 5109SOL    HW216227   0.203   1.223   1.273
 5110SOL     OW16228   2.443   5.704   5.665
 5110SOL    HW116229   2.395   5.778   5.618
 5110SOL    HW216230   2.391   5.619   5.656
 5111SOL     OW16231   1.531   1.138   0.759
 5111SOL    HW116232   1.585   1.162   0.679
 5111SOL    HW216233   1.468   1.063   0.735
 5112SOL     OW16234   0.378   5.875   3.825
 5112SOL    HW116235   0.336   5.785   3.816
 5112SOL    HW216236   0.440   5.875   3.904
 5113SOL     OW16237   1.321   0.084   6.608
 5113SOL    HW116238   1.265   0.075   6.690
 5113SOL    HW216239   1.268   0.131   6.537
 5114SOL     OW16240   3.926   4.863   0.149
 5114SOL    HW116241   3.977   4.949   0.153
 5114SOL    HW216242   3.989   4.786   0.150
 5115SOL     OW16243   1.683   3.463   5.631
 5115SOL    HW116244   1.778   3.436   5.645
 5115SOL    HW216245   1.659   3.452   5.534
 5116SOL     OW16246   6.815   4.618   0.260
 5116SOL    HW116247   6.913   4.607   0.240
 5116SOL    HW216248   6.805   4.653   0.354
 5117SOL     OW16249   2.339   4.405   4.500
 5117SOL    HW116250   2.421   4.394   4.445
 5117SOL    HW216251   2.329   4.326   4.561
 5118SOL     OW16252   4.476   6.393   0.756
 5118SOL    HW116253   4.480   6.438   0.845
 5118SOL    HW216254   4.383   6.360   0.739
 5119SOL     OW16255   5.950   6.938   2.561
 5119SOL    HW116256   5.967   6.861   2.499
 5119SOL    HW216257   5.889   6.909   2.634
 5120SOL     OW16258   5.119   1.621   2.470
 5120SOL    HW116259   5.066   1.636   2.554
 5120SOL    HW216260   5.202   1.676   2.473
 5121SOL     OW16261   0.423   3.803   5.414
 5121SOL    HW116262   0.377   3.737   5.474
 5121SOL    HW216263   0.381   3.801   5.324
 5122SOL     OW16264   1.996   6.403   3.783
 5122SOL    HW116265   1.900   6.430   3.790
 5122SOL    HW216266   2.019   6.339   3.856
 5123SOL     OW16267   5.287   4.627   2.119
 5123SOL    HW116268   5.350   4.550   2.132
 5123SOL    HW216269   5.219   4.603   2.050
 5124SOL     OW16270   2.773   6.940   0.031
 5124SOL    HW116271   2.750   6.848   0.063
 5124SOL    HW216272   2.722   6.960   6.959
 5125SOL     OW16273   0.079   3.257   4.996
 5125SOL    HW116274   0.160   3.294   4.950
 5125SOL    HW216275   0.035   3.329   5.049
 5126SOL     OW16276   5.723   3.628   6.391
 5126SOL    HW116277   5.816   3.664   6.401
 5126SOL    HW216278   5.717   3.537   6.431
 5127SOL     OW16279   6.041   3.121   6.674
 5127SOL    HW116280   5.942   3.129   6.668
 5127SOL    HW216281   6.066   3.042   6.730
 5128SOL     OW16282   0.155   0.682   6.879
 5128SOL    HW116283   0.080   0.695   6.944
 5128SOL    HW216284   0.189   0.588   6.885
 5129SOL     OW16285   4.377   2.132   2.447
 5129SOL    HW116286   4.298   2.070   2.446
 5129SOL    HW216287   4.372   2.193   2.367
 5130SOL     OW16288   1.423   6.158   4.557
 5130SOL    HW116289   1.429   6.255   4.577
 5130SOL    HW216290   1.449   6.105   4.637
 5131SOL     OW16291   3.035   4.952   3.665
 5131SOL    HW116292   3.004   5.047   3.671
 5131SOL    HW216293   3.071   4.923   3.754
 5132SOL     OW16294   3.605   1.364   6.838
 5132SOL    HW116295   3.683   1.314   6.876
 5132SOL    HW216296   3.550   1.401   6.913
 5133SOL     OW16297   4.901   4.336   6.677
 5133SOL    HW116298   4.913   4.321   6.775
 5133SOL    HW216299   4.987   4.371   6.638
 5134SOL     OW16300   6.627   6.290   0.896
 5134SOL    HW116301   6.596   6.269   0.989
 5134SOL    HW216302   6.698   6.360   0.900
 5135SOL     OW16303   6.470   3.455   2.063
 5135SOL    HW116304   6.503   3.502   1.981
 5135SOL    HW216305   6.523   3.371   2.076
 5136SOL     OW16306   1.123   1.068   5.949
 5136SOL    HW116307   1.103   1.024   6.036
 5136SOL    HW216308   1.156   1.000   5.884
 5137SOL     OW16309   6.064   1.122   4.543
 5137SOL    HW116310   6.030   1.200   4.596
 5137SOL    HW216311   5.998   1.047   4.550
 5138SOL     OW16312   3.225   3.137   3.990
 5138SOL    HW116313   3.282   3.218   4.006
 5138SOL    HW216314   3.129   3.166   3.981
 5139SOL     OW16315   2.829   0.312   5.349
 5139SOL    HW116316   2.776   0.396   5.337
 5139SOL    HW216317   2.769   0.232   5.336
 5140SOL     OW16318   4.309   2.647   6.972
 5140SOL    HW116319   4.280   2.583   0.032
 5140SOL    HW216320   4.298   2.603   6.883
 5141SOL     OW16321   6.488   2.706   1.854
 5141SOL    HW116322   6.446   2.738   1.769
 5141SOL    HW216323   6.552   2.631   1.833
 5142SOL     OW16324   0.153   0.169   2.605
 5142SOL    HW116325   0.247   0.144   2.583
 5142SOL    HW216326   0.107   0.202   2.522
 5143SOL     OW16327   0.174   6.293   2.980
 5143SOL    HW116328   0.177   6.392   2.993
 5143SOL    HW216329   0.199   6.271   2.886
 5144SOL     OW16330   2.370   2.915   5.390
 5144SOL    HW116331   2.399   2.966   5.309
 5144SOL    HW216332   2.357   2.977   5.467
 5145SOL     OW16333   2.129   5.681   6.913
 5145SOL    HW116334   2.096   5.623   6.839
 5145SOL    HW216335   2.207   5.637   6.958
 5146SOL     OW16336   5.196   5.053   6.275
 5146SOL    HW116337   5.191   4.957   6.301
 5146SOL    HW216338   5.104   5.093   6.276
 5147SOL     OW16339   4.629   2.637   3.685
 5147SOL    HW116340   4.557   2.576   3.653
 5147SOL    HW216341   4.651   2.614   3.780
 5148SOL     OW16342   0.906   0.584   6.374
 5148SOL    HW116343   0.913   0.598   6.275
 5148SOL    HW216344   0.926   0.669   6.421
 5149SOL     OW16345   4.793   4.674   3.920
 5149SOL    HW116346   4.826   4.694   4.013
 5149SOL    HW216347   4.870   4.677   3.857
 5150SOL     OW16348   0.176   6.072   4.073
 5150SOL    HW116349   0.251   6.137   4.062
 5150SOL    HW216350   0.090   6.115   4.044
 5151SOL     OW16351   6.271   5.374   2.077
 5151SOL    HW116352   6.244   5.288   2.033
 5151SOL    HW216353   6.348   5.414   2.027
 5152SOL     OW16354   1.141   1.380   0.264
 5152SOL    HW116355   1.238   1.402   0.258
 5152SOL    HW216356   1.112   1.383   0.360
 5153SOL     OW16357   0.968   1.701   1.138
 5153SOL    HW116358   1.019   1.615   1.144
 5153SOL    HW216359   0.883   1.693   1.190
 5154SOL     OW16360   0.416   2.679   0.293
 5154SOL    HW116361   0.453   2.744   0.359
 5154SOL    HW216362   0.333   2.638   0.329
 5155SOL     OW16363   1.648   1.421   0.605
 5155SOL    HW116364   1.623   1.500   0.549
 5155SOL    HW216365   1.597   1.424   0.692
 5156SOL     OW16366   5.227   6.034   5.740
 5156SOL    HW116367   5.309   5.978   5.746
 5156SOL    HW216368   5.216   6.086   5.825
 5157SOL     OW16369   3.608   0.472   1.397
 5157SOL    HW116370   3.632   0.554   1.449
 5157SOL    HW216371   3.628   0.390   1.451
 5158SOL     OW16372   2.041   1.997   1.609
 5158SOL    HW116373   2.009   1.930   1.677
 5158SOL    HW216374   1.979   1.996   1.531
 5159SOL     OW16375   6.220   3.341   5.759
 5159SOL    HW116376   6.193   3.299   5.846
 5159SOL    HW216377   6.171   3.298   5.684
 5160SOL     OW16378   6.235   6.454   3.593
 5160SOL    HW116379   6.258   6.408   3.678
 5160SOL    HW216380   6.265   6.549   3.596
 5161SOL     OW16381   1.260   3.318   0.561
 5161SOL    HW116382   1.299   3.227   0.576
 5161SOL    HW216383   1.183   3.331   0.623
 5162SOL     OW16384   0.244   0.067   3.532
 5162SOL    HW116385   0.146   0.051   3.523
 5162SOL    HW216386   0.282   0.097   3.445
 5163SOL     OW16387   3.082   0.240   1.855
 5163SOL    HW116388   3.119   0.308   1.918
 5163SOL    HW216389   3.086   0.275   1.762
 5164SOL     OW16390   3.037   3.351   0.563
 5164SOL    HW116391   3.050   3.257   0.591
 5164SOL    HW216392   2.942   3.364   0.532
 5165SOL     OW16393   1.497   4.013   6.215
 5165SOL    HW116394   1.582   4.058   6.240
 5165SOL    HW216395   1.426   4.036   6.282
 5166SOL     OW16396   1.188   5.630   1.037
 5166SOL    HW116397   1.265   5.693   1.033
 5166SOL    HW216398   1.138   5.632   0.950
 5167SOL     OW16399   5.571   3.191   5.485
 5167SOL    HW116400   5.472   3.192   5.504
 5167SOL    HW216401   5.590   3.242   5.402
 5168SOL     OW16402   4.449   2.180   3.112
 5168SOL    HW116403   4.436   2.081   3.103
 5168SOL    HW216404   4.364   2.226   3.086
 5169SOL     OW16405   4.118   5.984   4.429
 5169SOL    HW116406   4.182   5.911   4.407
 5169SOL    HW216407   4.075   5.965   4.517
 5170SOL     OW16408   1.985   3.782   6.636
 5170SOL    HW116409   1.928   3.721   6.580
 5170SOL    HW216410   2.074   3.792   6.592
 5171SOL     OW16411   2.018   5.670   5.362
 5171SOL    HW116412   2.067   5.605   5.304
 5171SOL    HW216413   1.919   5.662   5.346
 5172SOL     OW16414   6.191   5.731   4.539
 5172SOL    HW116415   6.289   5.732   4.559
 5172SOL    HW216416   6.177   5.691   4.448
 5173SOL     OW16417   4.390   4.141   5.628
 5173SOL    HW116418   4.457   4.137   5.554
 5173SOL    HW216419   4.298   4.131   5.592
 5174SOL     OW16420   2.173   6.571   3.220
 5174SOL    HW116421   2.141   6.590   3.127
 5174SOL    HW216422   2.273   6.571   3.221
 5175SOL     OW16423   3.268   3.443   0.000
 5175SOL    HW116424   3.255   3.437   0.099
 5175SOL    HW216425   3.366   3.443   6.991
 5176SOL     OW16426   6.164   6.352   0.278
 5176SOL    HW116427   6.188   6.259   0.306
 5176SOL    HW216428   6.085   6.349   0.217
 5177SOL     OW16429   6.046   0.044   0.557
 5177SOL    HW116430   6.089   0.058   0.468
 5177SOL    HW216431   5.975   6.986   0.550
 5178SOL     OW16432   0.599   4.453   2.084
 5178SOL    HW116433   0.567   4.396   2.160
 5178SOL    HW216434   0.636   4.395   2.012
 5179SOL     OW16435   4.977   6.157   2.637
 5179SOL    HW116436   5.065   6.204   2.634
 5179SOL    HW216437   4.969   6.106   2.723
 5180SOL     OW16438   2.605   6.647   2.546
 5180SOL    HW116439   2.553   6.706   2.607
 5180SOL    HW216440   2.557   6.561   2.533
 5181SOL     OW16441   0.258   6.953   5.896
 5181SOL    HW116442   0.203   6.918   5.820
 5181SOL    HW216443   0.239   6.899   5.978
 5182SOL     OW16444   2.681   6.336   3.384
 5182SOL    HW116445   2.699   6.405   3.314
 5182SOL    HW216446   2.595   6.290   3.365
 5183SOL     OW16447   4.256   1.465   3.825
 5183SOL    HW116448   4.264   1.512   3.913
 5183SOL    HW216449   4.195   1.386   3.835
 5184SOL     OW16450   2.818   1.561   3.865
 5184SOL    HW116451   2.728   1.597   3.888
 5184SOL    HW216452   2.862   1.620   3.797
 5185SOL     OW16453   6.376   0.254   1.812
 5185SOL    HW116454   6.344   0.231   1.904
 5185SOL    HW216455   6.472   0.282   1.816
 5186SOL     OW16456   0.186   3.208   6.601
 5186SOL    HW116457   0.098   3.238   6.563
 5186SOL    HW216458   0.176   3.115   6.638
 5187SOL     OW16459   1.669   4.665   5.167
 5187SOL    HW116460   1.759   4.627   5.186
 5187SOL    HW216461   1.668   4.762   5.192
 5188SOL     OW16462   6.135   6.739   2.892
 5188SOL    HW116463   6.148   6.793   2.809
 5188SOL    HW216464   6.199   6.770   2.963
 5189SOL     OW16465   5.315   6.850   6.175
 5189SOL    HW116466   5.335   6.778   6.109
 5189SOL    HW216467   5.397   6.872   6.228
 5190SOL     OW16468   2.312   4.165   0.695
 5190SOL    HW116469   2.244   4.158   0.767
 5190SOL    HW216470   2.401   4.137   0.730
 5191SOL     OW16471   3.159   4.912   2.125
 5191SOL    HW116472   3.244   4.907   2.072
 5191SOL    HW216473   3.091   4.850   2.085
 5192SOL     OW16474   1.908   5.376   2.203
 5192SOL    HW116475   1.965   5.388   2.122
 5192SOL    HW216476   1.952   5.312   2.266
 5193SOL     OW16477   5.033   0.288   5.581
 5193SOL    HW116478   4.959   0.346   5.546
 5193SOL    HW216479   5.051   0.311   5.677
 5194SOL     OW16480   5.457   1.634   6.399
 5194SOL    HW116481   5.405   1.599   6.321
 5194SOL    HW216482   5.516   1.709   6.369
 5195SOL     OW16483   0.121   0.710   4.826
 5195SOL    HW116484   0.171   0.744   4.905
 5195SOL    HW216485   0.109   0.611   4.834
 5196SOL     OW16486   5.498   0.055   3.160
 5196SOL    HW116487   5.586   0.101   3.173
 5196SOL    HW216488   5.440   0.110   3.099
 5197SOL     OW16489   0.912   3.625   5.150
 5197SOL    HW116490   0.953   3.553   5.206
 5197SOL    HW216491   0.834   3.664   5.198
 5198SOL     OW16492   5.749   5.330   3.318
 5198SOL    HW116493   5.745   5.255   3.251
 5198SOL    HW216494   5.837   5.377   3.309
 5199SOL     OW16495   0.600   4.853   1.777
 5199SOL    HW116496   0.608   4.792   1.856
 5199SOL    HW216497   0.508   4.847   1.739
 5200SOL     OW16498   6.900   3.860   4.535
 5200SOL    HW116499   6.958   3.916   4.475
 5200SOL    HW216500   6.857   3.918   4.603
 5201SOL     OW16501   1.438   4.861   4.095
 5201SOL    HW116502   1.453   4.912   4.179
 5201SOL    HW216503   1.340   4.845   4.082
 5202SOL     OW16504   0.922   5.242   1.588
 5202SOL    HW116505   1.018   5.234   1.616
 5202SOL    HW216506   0.886   5.151   1.566
 5203SOL     OW16507   1.032   2.674   0.656
 5203SOL    HW116508   1.004   2.702   0.564
 5203SOL    HW216509   0.973   2.718   0.723
 5204SOL     OW16510   5.045   4.611   6.844
 5204SOL    HW116511   4.954   4.640   6.814
 5204SOL    HW216512   5.115   4.669   6.801
 5205SOL     OW16513   1.903   0.325   1.580
 5205SOL    HW116514   1.816   0.373   1.589
 5205SOL    HW216515   1.938   0.301   1.670
 5206SOL     OW16516   0.335   4.457   5.404
 5206SOL    HW116517   0.345   4.398   5.323
 5206SOL    HW216518   0.245   4.500   5.402
 5207SOL     OW16519   1.955   4.057   4.097
 5207SOL    HW116520   1.940   3.983   4.031
 5207SOL    HW216521   1.985   4.139   4.049
 5208SOL     OW16522   4.181   1.260   6.725
 5208SOL    HW116523   4.141   1.350   6.708
 5208SOL    HW216524   4.193   1.212   6.638
 5209SOL     OW16525   5.143   6.084   3.067
 5209SOL    HW116526   5.187   6.105   3.154
 5209SOL    HW216527   5.064   6.143   3.054
 5210SOL     OW16528   4.732   5.104   3.769
 5210SOL    HW116529   4.669   5.151   3.707
 5210SOL    HW216530   4.816   5.157   3.779
 5211SOL     OW16531   4.133   3.508   2.644
 5211SOL    HW116532   4.035   3.512   2.624
 5211SOL    HW216533   4.176   3.439   2.585
 5212SOL     OW16534   0.932   1.960   0.535
 5212SOL    HW116535   0.955   1.863   0.532
 5212SOL    HW216536   1.002   2.013   0.487
 5213SOL     OW16537   4.106   1.932   6.564
 5213SOL    HW116538   4.195   1.971   6.590
 5213SOL    HW216539   4.116   1.834   6.549
 5214SOL     OW16540   5.654   1.498   5.581
 5214SOL    HW116541   5.563   1.504   5.622
 5214SOL    HW216542   5.699   1.587   5.587
 5215SOL     OW16543   4.861   5.362   2.403
 5215SOL    HW116544   4.765   5.348   2.381
 5215SOL    HW216545   4.918   5.307   2.341
 5216SOL     OW16546   4.898   5.109   1.059
 5216SOL    HW116547   4.955   5.042   1.012
 5216SOL    HW216548   4.835   5.063   1.120
 5217SOL     OW16549   2.333   4.979   3.958
 5217SOL    HW116550   2.247   4.931   3.971
 5217SOL    HW216551   2.396   4.957   4.032
 5218SOL     OW16552   1.608   6.805   3.605
 5218SOL    HW116553   1.685   6.748   3.576
 5218SOL    HW216554   1.560   6.841   3.525
 5219SOL     OW16555   2.602   5.817   0.123
 5219SOL    HW116556   2.565   5.847   0.035
 5219SOL    HW216557   2.526   5.793   0.184
 5220SOL     OW16558   0.318   6.541   2.384
 5220SOL    HW116559   0.337   6.637   2.405
 5220SOL    HW216560   0.403   6.489   2.383
 5221SOL     OW16561   4.816   1.561   5.000
 5221SOL    HW116562   4.896   1.593   4.949
 5221SOL    HW216563   4.767   1.640   5.038
 5222SOL     OW16564   1.207   0.568   2.568
 5222SOL    HW116565   1.236   0.657   2.531
 5222SOL    HW216566   1.197   0.575   2.668
 5223SOL     OW16567   5.063   0.043   1.516
 5223SOL    HW116568   5.065   6.954   1.514
 5223SOL    HW216569   5.145   0.076   1.563
 5224SOL     OW16570   5.729   1.995   2.341
 5224SOL    HW116571   5.823   2.019   2.318
 5224SOL    HW216572   5.720   1.986   2.440
 5225SOL     OW16573   5.424   5.970   5.282
 5225SOL    HW116574   5.331   5.969   5.243
 5225SOL    HW216575   5.454   6.064   5.293
 5226SOL     OW16576   1.125   6.245   4.153
 5226SOL    HW116577   1.188   6.258   4.077
 5226SOL    HW216578   1.093   6.150   4.154
 5227SOL     OW16579   5.887   4.572   3.244
 5227SOL    HW116580   5.925   4.662   3.265
 5227SOL    HW216581   5.795   4.582   3.207
 5228SOL     OW16582   5.569   1.503   0.866
 5228SOL    HW116583   5.636   1.539   0.931
 5228SOL    HW216584   5.522   1.425   0.906
 5229SOL     OW16585   1.062   4.536   5.348
 5229SOL    HW116586   1.154   4.499   5.350
 5229SOL    HW216587   0.996   4.463   5.367
 5230SOL     OW16588   1.177   0.089   6.836
 5230SOL    HW116589   1.116   0.168   6.836
 5230SOL    HW216590   1.167   0.039   6.921
 5231SOL     OW16591   3.830   3.081   3.131
 5231SOL    HW116592   3.833   3.030   3.217
 5231SOL    HW216593   3.790   3.023   3.059
 5232SOL     OW16594   4.758   2.401   6.789
 5232SOL    HW116595   4.739   2.496   6.763
 5232SOL    HW216596   4.679   2.363   6.836
 5233SOL     OW16597   0.895   0.610   2.536
 5233SOL    HW116598   0.967   0.635   2.472
 5233SOL    HW216599   0.812   0.664   2.517
 5234SOL     OW16600   4.051   6.872   0.983
 5234SOL    HW116601   4.141   6.878   0.940
 5234SOL    HW216602   3.982   6.911   0.922
 5235SOL     OW16603   0.750   3.326   1.210
 5235SOL    HW116604   0.732   3.424   1.214
 5235SOL    HW216605   0.676   3.276   1.255
 5236SOL     OW16606   5.236   3.141   1.077
 5236SOL    HW116607   5.143   3.138   1.112
 5236SOL    HW216608   5.292   3.074   1.126
 5237SOL     OW16609   2.340   2.020   5.309
 5237SOL    HW116610   2.340   1.994   5.213
 5237SOL    HW216611   2.249   2.006   5.348
 5238SOL     OW16612   1.740   4.891   1.389
 5238SOL    HW116613   1.699   4.918   1.302
 5238SOL    HW216614   1.749   4.792   1.393
 5239SOL     OW16615   2.936   3.488   4.347
 5239SOL    HW116616   3.000   3.510   4.272
 5239SOL    HW216617   2.961   3.400   4.387
 5240SOL     OW16618   3.348   2.081   4.896
 5240SOL    HW116619   3.390   2.030   4.971
 5240SOL    HW216620   3.284   2.148   4.932
 5241SOL     OW16621   2.039   5.707   6.530
 5241SOL    HW116622   2.055   5.636   6.598
 5241SOL    HW216623   2.107   5.699   6.458
 5242SOL     OW16624   5.739   0.968   5.139
 5242SOL    HW116625   5.670   0.961   5.211
 5242SOL    HW216626   5.709   1.035   5.071
 5243SOL     OW16627   1.661   4.922   1.129
 5243SOL    HW116628   1.740   4.883   1.082
 5243SOL    HW216629   1.665   5.022   1.123
 5244SOL     OW16630   5.322   4.208   5.543
 5244SOL    HW116631   5.288   4.264   5.467
 5244SOL    HW216632   5.412   4.240   5.571
 5245SOL     OW16633   4.832   3.604   6.829
 5245SOL    HW116634   4.774   3.525   6.851
 5245SOL    HW216635   4.911   3.573   6.775
 5246SOL     OW16636   1.073   3.221   2.674
 5246SOL    HW116637   0.973   3.222   2.677
 5246SOL    HW216638   1.108   3.173   2.755
 5247SOL     OW16639   0.780   4.912   1.091
 5247SOL    HW116640   0.727   4.997   1.093
 5247SOL    HW216641   0.775   4.867   1.180
 5248SOL     OW16642   5.004   1.040   5.966
 5248SOL    HW116643   5.050   1.053   6.054
 5248SOL    HW216644   4.936   1.112   5.952
 5249SOL     OW16645   0.748   5.079   4.653
 5249SOL    HW116646   0.741   5.160   4.711
 5249SOL    HW216647   0.668   5.020   4.668
 5250SOL     OW16648   0.866   1.474   6.051
 5250SOL    HW116649   0.779   1.458   6.097
 5250SOL    HW216650   0.868   1.424   5.964
 5251SOL     OW16651   6.830   3.327   1.148
 5251SOL    HW116652   6.761   3.272   1.195
 5251SOL    HW216653   6.906   3.344   1.210
 5252SOL     OW16654   4.318   5.978   0.645
 5252SOL    HW116655   4.335   6.067   0.687
 5252SOL    HW216656   4.391   5.957   0.580
 5253SOL     OW16657   5.503   3.462   3.857
 5253SOL    HW116658   5.416   3.488   3.814
 5253SOL    HW216659   5.516   3.516   3.940
 5254SOL     OW16660   4.623   0.774   3.993
 5254SOL    HW116661   4.592   0.786   3.899
 5254SOL    HW216662   4.603   0.857   4.046
 5255SOL     OW16663   3.595   6.434   4.921
 5255SOL    HW116664   3.629   6.450   4.828
 5255SOL    HW216665   3.632   6.347   4.956
 5256SOL     OW16666   5.617   6.396   3.933
 5256SOL    HW116667   5.582   6.425   3.844
 5256SOL    HW216668   5.609   6.471   3.998
 5257SOL     OW16669   3.421   0.710   1.096
 5257SOL    HW116670   3.513   0.742   1.118
 5257SOL    HW216671   3.371   0.782   1.049
 5258SOL     OW16672   5.857   3.347   2.563
 5258SOL    HW116673   5.771   3.311   2.600
 5258SOL    HW216674   5.926   3.274   2.562
 5259SOL     OW16675   4.601   5.039   2.567
 5259SOL    HW116676   4.508   5.002   2.568
 5259SOL    HW216677   4.655   4.991   2.498
 5260SOL     OW16678   5.571   3.268   1.354
 5260SOL    HW116679   5.487   3.299   1.310
 5260SOL    HW216680   5.646   3.269   1.287
 5261SOL     OW16681   1.478   2.460   4.705
 5261SOL    HW116682   1.400   2.429   4.650
 5261SOL    HW216683   1.449   2.472   4.800
 5262SOL     OW16684   2.706   0.097   2.167
 5262SOL    HW116685   2.606   0.103   2.166
 5262SOL    HW216686   2.737   0.049   2.084
 5263SOL     OW16687   0.921   6.393   6.702
 5263SOL    HW116688   0.870   6.373   6.785
 5263SOL    HW216689   0.866   6.452   6.643
 5264SOL     OW16690   0.406   2.092   0.953
 5264SOL    HW116691   0.434   2.011   1.004
 5264SOL    HW216692   0.468   2.168   0.973
 5265SOL     OW16693   5.025   4.715   1.545
 5265SOL    HW116694   5.116   4.684   1.519
 5265SOL    HW216695   5.009   4.807   1.508
 5266SOL     OW16696   1.508   6.649   1.022
 5266SOL    HW116697   1.411   6.649   0.996
 5266SOL    HW216698   1.533   6.740   1.056
 5267SOL     OW16699   4.828   4.724   5.055
 5267SOL    HW116700   4.809   4.755   4.962
 5267SOL    HW216701   4.889   4.645   5.053
 5268SOL     OW16702   5.540   4.733   4.920
 5268SOL    HW116703   5.639   4.716   4.917
 5268SOL    HW216704   5.510   4.771   4.833
 5269SOL     OW16705   2.111   5.748   3.792
 5269SOL    HW116706   2.014   5.735   3.769
 5269SOL    HW216707   2.156   5.795   3.716
 5270SOL     OW16708   6.127   2.816   2.010
 5270SOL    HW116709   6.094   2.903   2.047
 5270SOL    HW216710   6.209   2.833   1.956
 5271SOL     OW16711   5.004   4.554   4.922
 5271SOL    HW116712   4.996   4.454   4.920
 5271SOL    HW216713   5.079   4.580   4.983
 5272SOL     OW16714   1.721   0.929   4.872
 5272SOL    HW116715   1.715   0.877   4.958
 5272SOL    HW216716   1.807   0.980   4.871
 5273SOL     OW16717   0.500   1.113   3.731
 5273SOL    HW116718   0.532   1.036   3.787
 5273SOL    HW216719   0.401   1.122   3.742
 5274SOL     OW16720   6.307   5.150   3.880
 5274SOL    HW116721   6.284   5.238   3.921
 5274SOL    HW216722   6.406   5.136   3.886
 5275SOL     OW16723   2.036   6.763   0.144
 5275SOL    HW116724   2.072   6.802   0.228
 5275SOL    HW216725   2.094   6.790   0.067
 5276SOL     OW16726   0.330   6.833   1.441
 5276SOL    HW116727   0.309   6.744   1.399
 5276SOL    HW216728   0.269   6.903   1.402
 5277SOL     OW16729   0.921   1.741   3.310
 5277SOL    HW116730   0.948   1.835   3.332
 5277SOL    HW216731   0.858   1.742   3.233
 5278SOL     OW16732   1.064   5.378   5.459
 5278SOL    HW116733   1.024   5.354   5.548
 5278SOL    HW216734   1.045   5.306   5.393
 5279SOL     OW16735   1.780   5.632   6.714
 5279SOL    HW116736   1.800   5.728   6.733
 5279SOL    HW216737   1.681   5.615   6.724
 5280SOL     OW16738   4.544   5.885   4.944
 5280SOL    HW116739   4.614   5.820   4.973
 5280SOL    HW216740   4.577   5.978   4.958
 5281SOL     OW16741   1.956   1.080   4.907
 5281SOL    HW116742   2.019   1.129   4.966
 5281SOL    HW216743   2.007   1.032   4.836
 5282SOL     OW16744   1.427   0.465   1.902
 5282SOL    HW116745   1.500   0.522   1.866
 5282SOL    HW216746   1.408   0.390   1.838
 5283SOL     OW16747   0.548   0.752   4.132
 5283SOL    HW116748   0.557   0.653   4.141
 5283SOL    HW216749   0.557   0.794   4.223
 5284SOL     OW16750   4.956   2.096   2.121
 5284SOL    HW116751   4.909   2.175   2.081
 5284SOL    HW216752   4.889   2.025   2.143
 5285SOL     OW16753   1.083   2.575   4.245
 5285SOL    HW116754   1.162   2.519   4.218
 5285SOL    HW216755   1.002   2.543   4.196
 5286SOL     OW16756   5.999   3.114   1.169
 5286SOL    HW116757   5.925   3.161   1.216
 5286SOL    HW216758   6.033   3.171   1.094
 5287SOL     OW16759   3.046   5.166   1.146
 5287SOL    HW116760   3.110   5.096   1.179
 5287SOL    HW216761   2.956   5.123   1.132
 5288SOL     OW16762   4.669   0.632   2.315
 5288SOL    HW116763   4.688   0.534   2.326
 5288SOL    HW216764   4.743   0.674   2.263
 5289SOL     OW16765   1.654   4.312   6.401
 5289SOL    HW116766   1.733   4.330   6.342
 5289SOL    HW216767   1.596   4.394   6.405
 5290SOL     OW16768   1.070   2.948   5.481
 5290SOL    HW116769   1.000   2.898   5.532
 5290SOL    HW216770   1.154   2.893   5.479
 5291SOL     OW16771   2.716   4.711   4.784
 5291SOL    HW116772   2.759   4.669   4.864
 5291SOL    HW216773   2.623   4.678   4.774
 5292SOL     OW16774   6.812   4.132   6.192
 5292SOL    HW116775   6.822   4.044   6.145
 5292SOL    HW216776   6.886   4.142   6.259
 5293SOL     OW16777   2.349   5.752   4.431
 5293SOL    HW116778   2.397   5.665   4.437
 5293SOL    HW216779   2.343   5.782   4.336
 5294SOL     OW16780   3.906   0.617   5.184
 5294SOL    HW116781   3.932   0.707   5.219
 5294SOL    HW216782   3.909   0.618   5.084
 5295SOL     OW16783   3.006   1.144   2.201
 5295SOL    HW116784   3.060   1.061   2.188
 5295SOL    HW216785   2.930   1.124   2.263
 5296SOL     OW16786   4.171   4.694   0.765
 5296SOL    HW116787   4.118   4.720   0.684
 5296SOL    HW216788   4.110   4.687   0.844
 5297SOL     OW16789   2.654   4.343   0.790
 5297SOL    HW116790   2.622   4.314   0.700
 5297SOL    HW216791   2.752   4.365   0.786
 5298SOL     OW16792   2.165   6.909   0.742
 5298SOL    HW116793   2.168   7.006   0.766
 5298SOL    HW216794   2.098   6.896   0.668
 5299SOL     OW16795   3.105   1.813   0.266
 5299SOL    HW116796   3.047   1.793   0.346
 5299SOL    HW216797   3.153   1.731   0.239
 5300SOL     OW16798   2.158   4.498   0.059
 5300SOL    HW116799   2.081   4.458   0.009
 5300SOL    HW216800   2.241   4.490   0.004
 5301SOL     OW16801   4.559   0.519   5.645
 5301SOL    HW116802   4.533   0.613   5.622
 5301SOL    HW216803   4.649   0.499   5.607
 5302SOL     OW16804   5.517   5.711   3.095
 5302SOL    HW116805   5.469   5.623   3.091
 5302SOL    HW216806   5.580   5.711   3.173
 5303SOL     OW16807   6.828   4.656   5.580
 5303SOL    HW116808   6.832   4.557   5.567
 5303SOL    HW216809   6.890   4.683   5.654
 5304SOL     OW16810   6.480   1.249   1.367
 5304SOL    HW116811   6.569   1.252   1.414
 5304SOL    HW216812   6.458   1.154   1.344
 5305SOL     OW16813   1.280   5.475   2.859
 5305SOL    HW116814   1.292   5.548   2.926
 5305SOL    HW216815   1.344   5.488   2.783
 5306SOL     OW16816   6.822   3.912   5.781
 5306SOL    HW116817   6.874   3.827   5.769
 5306SOL    HW216818   6.834   3.945   5.875
 5307SOL     OW16819   5.405   2.159   0.785
 5307SOL    HW116820   5.432   2.203   0.700
 5307SOL    HW216821   5.309   2.178   0.804
 5308SOL     OW16822   1.843   4.623   3.104
 5308SOL    HW116823   1.906   4.657   3.173
 5308SOL    HW216824   1.765   4.685   3.097
 5309SOL     OW16825   4.514   6.161   3.405
 5309SOL    HW116826   4.600   6.132   3.447
 5309SOL    HW216827   4.533   6.227   3.333
 5310SOL     OW16828   5.863   2.890   3.140
 5310SOL    HW116829   5.921   2.879   3.059
 5310SOL    HW216830   5.907   2.952   3.204
 5311SOL     OW16831   5.761   0.389   0.685
 5311SOL    HW116832   5.696   0.316   0.708
 5311SOL    HW216833   5.848   0.348   0.660
 5312SOL     OW16834   0.105   6.640   1.197
 5312SOL    HW116835   0.142   6.612   1.286
 5312SOL    HW216836   0.175   6.628   1.127
 5313SOL     OW16837   6.216   4.993   5.208
 5313SOL    HW116838   6.131   5.037   5.178
 5313SOL    HW216839   6.244   5.032   5.296
 5314SOL     OW16840   5.936   6.929   1.513
 5314SOL    HW116841   6.016   6.873   1.492
 5314SOL    HW216842   5.944   6.966   1.605
 5315SOL     OW16843   4.055   1.272   3.820
 5315SOL    HW116844   4.088   1.200   3.880
 5315SOL    HW216845   3.968   1.307   3.855
 5316SOL     OW16846   1.124   2.887   4.895
 5316SOL    HW116847   1.096   2.934   4.811
 5316SOL    HW216848   1.119   2.951   4.972
 5317SOL     OW16849   6.572   1.597   5.978
 5317SOL    HW116850   6.477   1.571   5.997
 5317SOL    HW216851   6.575   1.650   5.893
 5318SOL     OW16852   6.453   3.032   0.330
 5318SOL    HW116853   6.363   3.017   0.371
 5318SOL    HW216854   6.456   2.988   0.240
 5319SOL     OW16855   4.548   6.746   1.113
 5319SOL    HW116856   4.583   6.785   1.198
 5319SOL    HW216857   4.602   6.782   1.036
 5320SOL     OW16858   3.234   6.092   1.339
 5320SOL    HW116859   3.174   6.171   1.347
 5320SOL    HW216860   3.279   6.076   1.427
 5321SOL     OW16861   2.063   4.681   4.566
 5321SOL    HW116862   2.142   4.684   4.506
 5321SOL    HW216863   2.024   4.773   4.575
 5322SOL     OW16864   5.720   6.781   2.037
 5322SOL    HW116865   5.812   6.813   2.015
 5322SOL    HW216866   5.725   6.694   2.086
 5323SOL     OW16867   4.430   1.621   5.620
 5323SOL    HW116868   4.430   1.591   5.716
 5323SOL    HW216869   4.469   1.549   5.563
 5324SOL     OW16870   2.629   2.224   0.056
 5324SOL    HW116871   2.609   2.255   0.149
 5324SOL    HW216872   2.726   2.240   0.036
 5325SOL     OW16873   2.602   2.328   4.668
 5325SOL    HW116874   2.577   2.364   4.758
 5325SOL    HW216875   2.526   2.277   4.630
 5326SOL     OW16876   6.183   6.095   2.943
 5326SOL    HW116877   6.219   6.061   3.030
 5326SOL    HW216878   6.123   6.026   2.903
 5327SOL     OW16879   5.562   2.749   4.809
 5327SOL    HW116880   5.532   2.838   4.843
 5327SOL    HW216881   5.658   2.754   4.783
 5328SOL     OW16882   4.159   4.123   6.949
 5328SOL    HW116883   4.194   4.062   6.879
 5328SOL    HW216884   4.102   4.194   6.907
 5329SOL     OW16885   1.573   6.097   6.432
 5329SOL    HW116886   1.565   6.003   6.399
 5329SOL    HW216887   1.526   6.105   6.520
 5330SOL     OW16888   2.653   2.977   0.728
 5330SOL    HW116889   2.598   2.908   0.682
 5330SOL    HW216890   2.618   2.992   0.821
 5331SOL     OW16891   6.559   1.053   6.684
 5331SOL    HW116892   6.513   1.133   6.647
 5331SOL    HW216893   6.498   0.974   6.680
 5332SOL     OW16894   1.162   4.476   2.107
 5332SOL    HW116895   1.168   4.464   2.207
 5332SOL    HW216896   1.069   4.504   2.083
 5333SOL     OW16897   0.696   6.512   4.153
 5333SOL    HW116898   0.729   6.452   4.226
 5333SOL    HW216899   0.624   6.572   4.188
 5334SOL     OW16900   2.679   6.741   4.228
 5334SOL    HW116901   2.582   6.727   4.207
 5334SOL    HW216902   2.716   6.814   4.170
 5335SOL     OW16903   0.076   5.154   0.737
 5335SOL    HW116904   0.073   5.227   0.668
 5335SOL    HW216905   0.149   5.090   0.714
 5336SOL     OW16906   1.850   3.600   2.386
 5336SOL    HW116907   1.828   3.686   2.432
 5336SOL    HW216908   1.941   3.605   2.347
 5337SOL     OW16909   5.251   4.233   0.953
 5337SOL    HW116910   5.162   4.226   0.999
 5337SOL    HW216911   5.292   4.142   0.946
 5338SOL     OW16912   6.578   1.760   6.657
 5338SOL    HW116913   6.552   1.830   6.591
 5338SOL    HW216914   6.677   1.761   6.670
 5339SOL     OW16915   0.065   1.600   3.478
 5339SOL    HW116916   0.136   1.658   3.519
 5339SOL    HW216917   6.997   1.597   3.538
 5340SOL     OW16918   5.687   2.735   0.160
 5340SOL    HW116919   5.776   2.766   0.127
 5340SOL    HW216920   5.614   2.791   0.120
 5341SOL     OW16921   4.837   1.283   6.064
 5341SOL    HW116922   4.776   1.354   6.028
 5341SOL    HW216923   4.787   1.227   6.130
 5342SOL     OW16924   3.978   0.574   5.571
 5342SOL    HW116925   3.891   0.530   5.551
 5342SOL    HW216926   3.977   0.667   5.535
 5343SOL     OW16927   3.873   3.356   2.342
 5343SOL    HW116928   3.842   3.451   2.341
 5343SOL    HW216929   3.794   3.296   2.337
 5344SOL     OW16930   1.978   2.867   3.527
 5344SOL    HW116931   1.943   2.782   3.488
 5344SOL    HW216932   2.076   2.877   3.505
 5345SOL     OW16933   4.474   6.506   1.005
 5345SOL    HW116934   4.548   6.445   1.033
 5345SOL    HW216935   4.493   6.599   1.037
 5346SOL     OW16936   2.805   6.507   3.192
 5346SOL    HW116937   2.877   6.542   3.251
 5346SOL    HW216938   2.790   6.572   3.117
 5347SOL     OW16939   0.090   1.655   1.507
 5347SOL    HW116940   0.019   1.621   1.445
 5347SOL    HW216941   0.053   1.665   1.599
 5348SOL     OW16942   1.266   1.669   0.406
 5348SOL    HW116943   1.345   1.712   0.363
 5348SOL    HW216944   1.206   1.631   0.336
 5349SOL     OW16945   0.068   1.383   0.819
 5349SOL    HW116946   0.093   1.475   0.850
 5349SOL    HW216947   6.988   1.386   0.777
 5350SOL     OW16948   2.380   1.270   6.122
 5350SOL    HW116949   2.334   1.358   6.117
 5350SOL    HW216950   2.477   1.281   6.098
 5351SOL     OW16951   4.858   6.482   0.997
 5351SOL    HW116952   4.853   6.581   0.982
 5351SOL    HW216953   4.849   6.434   0.910
 5352SOL     OW16954   2.499   5.675   3.443
 5352SOL    HW116955   2.463   5.691   3.351
 5352SOL    HW216956   2.596   5.650   3.438
 5353SOL     OW16957   4.851   5.960   5.014
 5353SOL    HW116958   4.826   5.909   5.097
 5353SOL    HW216959   4.917   5.908   4.962
 5354SOL     OW16960   1.660   4.766   1.915
 5354SOL    HW116961   1.743   4.818   1.940
 5354SOL    HW216962   1.645   4.773   1.816
 5355SOL     OW16963   4.499   1.364   3.728
 5355SOL    HW116964   4.593   1.350   3.758
 5355SOL    HW216965   4.441   1.383   3.808
 5356SOL     OW16966   6.340   4.063   0.961
 5356SOL    HW116967   6.392   4.012   0.892
 5356SOL    HW216968   6.374   4.039   1.052
 5357SOL     OW16969   3.590   0.140   0.323
 5357SOL    HW116970   3.505   0.102   0.358
 5357SOL    HW216971   3.607   0.105   0.231
 5358SOL     OW16972   4.362   2.465   0.827
 5358SOL    HW116973   4.402   2.499   0.743
 5358SOL    HW216974   4.395   2.519   0.904
 5359SOL     OW16975   2.472   1.736   0.706
 5359SOL    HW116976   2.486   1.669   0.779
 5359SOL    HW216977   2.516   1.704   0.622
 5360SOL     OW16978   3.766   6.510   5.873
 5360SOL    HW116979   3.719   6.598   5.878
 5360SOL    HW216980   3.823   6.498   5.954
 5361SOL     OW16981   2.302   1.226   4.820
 5361SOL    HW116982   2.337   1.318   4.838
 5361SOL    HW216983   2.214   1.214   4.866
 5362SOL     OW16984   4.717   5.171   2.771
 5362SOL    HW116985   4.672   5.142   2.687
 5362SOL    HW216986   4.684   5.116   2.847
 5363SOL     OW16987   0.997   5.718   6.490
 5363SOL    HW116988   1.096   5.712   6.495
 5363SOL    HW216989   0.968   5.738   6.397
 5364SOL     OW16990   0.116   6.483   0.768
 5364SOL    HW116991   0.088   6.575   0.740
 5364SOL    HW216992   0.139   6.483   0.865
 5365SOL     OW16993   4.546   2.147   5.866
 5365SOL    HW116994   4.553   2.106   5.957
 5365SOL    HW216995   4.450   2.149   5.837
 5366SOL     OW16996   4.123   4.240   0.323
 5366SOL    HW116997   4.077   4.162   0.366
 5366SOL    HW216998   4.145   4.309   0.391
 5367SOL     OW16999   0.747   4.454   1.264
 5367SOL    HW117000   0.792   4.365   1.255
 5367SOL    HW217001   0.770   4.495   1.352
 5368SOL     OW17002   5.524   2.042   3.017
 5368SOL    HW117003   5.577   2.055   3.101
 5368SOL    HW217004   5.480   2.128   2.992
 5369SOL     OW17005   2.426   4.657   3.149
 5369SOL    HW117006   2.426   4.569   3.101
 5369SOL    HW217007   2.512   4.669   3.197
 5370SOL     OW17008   3.841   2.812   1.459
 5370SOL    HW117009   3.755   2.761   1.451
 5370SOL    HW217010   3.827   2.892   1.517
 5371SOL     OW17011   1.481   4.315   4.204
 5371SOL    HW117012   1.567   4.332   4.253
 5371SOL    HW217013   1.455   4.398   4.154
 5372SOL     OW17014   3.019   4.867   2.874
 5372SOL    HW117015   2.961   4.887   2.795
 5372SOL    HW217016   3.076   4.788   2.854
 5373SOL     OW17017   3.181   4.844   4.169
 5373SOL    HW117018   3.269   4.811   4.205
 5373SOL    HW217019   3.117   4.858   4.245
 5374SOL     OW17020   1.796   2.646   6.485
 5374SOL    HW117021   1.760   2.589   6.558
 5374SOL    HW217022   1.724   2.663   6.417
 5375SOL     OW17023   1.487   4.442   4.564
 5375SOL    HW117024   1.436   4.356   4.569
 5375SOL    HW217025   1.535   4.457   4.651
 5376SOL     OW17026   1.413   3.759   1.676
 5376SOL    HW117027   1.488   3.718   1.623
 5376SOL    HW217028   1.400   3.707   1.761
 5377SOL     OW17029   0.343   0.368   1.622
 5377SOL    HW117030   0.272   0.416   1.572
 5377SOL    HW217031   0.394   0.308   1.559
 5378SOL     OW17032   5.770   0.784   6.956
 5378SOL    HW117033   5.742   0.770   0.039
 5378SOL    HW217034   5.771   0.882   6.935
 5379SOL     OW17035   7.004   5.433   2.872
 5379SOL    HW117036   0.031   5.472   2.956
 5379SOL    HW217037   6.958   5.347   2.893
 5380SOL     OW17038   2.347   6.987   3.510
 5380SOL    HW117039   2.274   0.040   3.531
 5380SOL    HW217040   2.436   0.019   3.526
 5381SOL     OW17041   5.629   4.684   0.913
 5381SOL    HW117042   5.544   4.695   0.963
 5381SOL    HW217043   5.706   4.693   0.976
 5382SOL     OW17044   3.159   1.160   1.350
 5382SOL    HW117045   3.067   1.125   1.368
 5382SOL    HW217046   3.175   1.242   1.405
 5383SOL     OW17047   2.714   2.268   5.265
 5383SOL    HW117048   2.665   2.275   5.178
 5383SOL    HW217049   2.772   2.349   5.277
 5384SOL     OW17050   6.390   6.850   4.142
 5384SOL    HW117051   6.379   6.949   4.127
 5384SOL    HW217052   6.375   6.830   4.239
 5385SOL     OW17053   3.442   4.141   2.252
 5385SOL    HW117054   3.401   4.105   2.168
 5385SOL    HW217055   3.528   4.188   2.230
 5386SOL     OW17056   4.927   6.445   4.177
 5386SOL    HW117057   4.965   6.383   4.109
 5386SOL    HW217058   4.952   6.539   4.153
 5387SOL     OW17059   2.989   5.229   1.977
 5387SOL    HW117060   2.904   5.177   1.986
 5387SOL    HW217061   3.067   5.166   1.986
 5388SOL     OW17062   5.572   6.648   2.465
 5388SOL    HW117063   5.499   6.580   2.465
 5388SOL    HW217064   5.645   6.620   2.527
 5389SOL     OW17065   4.623   0.713   1.680
 5389SOL    HW117066   4.572   0.710   1.766
 5389SOL    HW217067   4.642   0.808   1.655
 5390SOL     OW17068   5.990   5.200   5.154
 5390SOL    HW117069   5.963   5.280   5.207
 5390SOL    HW217070   6.049   5.229   5.078
 5391SOL     OW17071   2.745   3.379   0.514
 5391SOL    HW117072   2.695   3.392   0.600
 5391SOL    HW217073   2.746   3.281   0.491
 5392SOL     OW17074   6.088   3.100   1.788
 5392SOL    HW117075   5.995   3.062   1.791
 5392SOL    HW217076   6.085   3.196   1.815
 5393SOL     OW17077   6.796   0.187   0.304
 5393SOL    HW117078   6.885   0.229   0.290
 5393SOL    HW217079   6.808   0.094   0.339
 5394SOL     OW17080   0.651   4.161   5.735
 5394SOL    HW117081   0.635   4.093   5.806
 5394SOL    HW217082   0.635   4.121   5.645
 5395SOL     OW17083   3.967   0.346   0.843
 5395SOL    HW117084   3.965   0.363   0.744
 5395SOL    HW217085   3.879   0.372   0.883
 5396SOL     OW17086   5.445   3.902   1.977
 5396SOL    HW117087   5.518   3.911   1.910
 5396SOL    HW217088   5.403   3.812   1.968
 5397SOL     OW17089   6.783   3.311   1.539
 5397SOL    HW117090   6.830   3.393   1.506
 5397SOL    HW217091   6.839   3.230   1.521
 5398SOL     OW17092   3.089   2.393   1.648
 5398SOL    HW117093   3.150   2.315   1.637
 5398SOL    HW217094   3.050   2.393   1.740
 5399SOL     OW17095   2.013   6.215   0.888
 5399SOL    HW117096   2.109   6.198   0.912
 5399SOL    HW217097   1.958   6.221   0.971
 5400SOL     OW17098   2.907   4.681   0.093
 5400SOL    HW117099   2.883   4.740   0.016
 5400SOL    HW217100   2.849   4.599   0.091
 5401SOL     OW17101   5.875   3.217   2.011
 5401SOL    HW117102   5.860   3.139   1.950
 5401SOL    HW217103   5.794   3.276   2.010
 5402SOL     OW17104   2.163   6.235   2.032
 5402SOL    HW117105   2.066   6.228   2.055
 5402SOL    HW217106   2.216   6.174   2.091
 5403SOL     OW17107   0.291   3.724   6.488
 5403SOL    HW117108   0.336   3.700   6.574
 5403SOL    HW217109   0.322   3.814   6.458
 5404SOL     OW17110   1.553   2.944   3.950
 5404SOL    HW117111   1.610   2.866   3.976
 5404SOL    HW217112   1.500   2.921   3.869
 5405SOL     OW17113   6.885   5.191   6.015
 5405SOL    HW117114   6.830   5.203   5.933
 5405SOL    HW217115   6.833   5.138   6.082
 5406SOL     OW17116   1.440   1.262   6.906
 5406SOL    HW117117   1.470   1.240   6.813
 5406SOL    HW217118   1.452   1.360   6.922
 5407SOL     OW17119   4.118   3.348   0.983
 5407SOL    HW117120   4.032   3.391   1.010
 5407SOL    HW217121   4.140   3.273   1.046
 5408SOL     OW17122   2.464   0.747   6.350
 5408SOL    HW117123   2.461   0.711   6.257
 5408SOL    HW217124   2.516   0.833   6.351
 5409SOL     OW17125   5.182   0.582   3.046
 5409SOL    HW117126   5.223   0.596   3.137
 5409SOL    HW217127   5.139   0.492   3.042
 5410SOL     OW17128   3.216   1.980   1.778
 5410SOL    HW117129   3.149   2.040   1.821
 5410SOL    HW217130   3.295   1.969   1.839
 5411SOL     OW17131   0.023   5.082   5.459
 5411SOL    HW117132   6.995   5.171   5.438
 5411SOL    HW217133   0.110   5.094   5.507
 5412SOL     OW17134   5.781   2.939   0.715
 5412SOL    HW117135   5.682   2.947   0.726
 5412SOL    HW217136   5.824   2.926   0.804
 5413SOL     OW17137   3.015   1.595   1.591
 5413SOL    HW117138   2.940   1.624   1.651
 5413SOL    HW217139   3.097   1.648   1.612
 5414SOL     OW17140   4.534   1.243   4.669
 5414SOL    HW117141   4.586   1.166   4.632
 5414SOL    HW217142   4.595   1.300   4.724
 5415SOL     OW17143   0.275   5.727   1.366
 5415SOL    HW117144   0.217   5.747   1.445
 5415SOL    HW217145   0.355   5.675   1.396
 5416SOL     OW17146   4.172   5.226   4.931
 5416SOL    HW117147   4.180   5.323   4.908
 5416SOL    HW217148   4.260   5.181   4.914
 5417SOL     OW17149   3.504   6.618   5.087
 5417SOL    HW117150   3.562   6.699   5.080
 5417SOL    HW217151   3.534   6.550   5.019
 5418SOL     OW17152   3.639   0.093   2.581
 5418SOL    HW117153   3.684   0.166   2.633
 5418SOL    HW217154   3.579   0.134   2.512
 5419SOL     OW17155   3.221   4.770   6.574
 5419SOL    HW117156   3.207   4.849   6.633
 5419SOL    HW217157   3.319   4.753   6.564
 5420SOL     OW17158   2.094   2.247   2.871
 5420SOL    HW117159   2.058   2.154   2.869
 5420SOL    HW217160   2.085   2.289   2.780
 5421SOL     OW17161   1.794   3.994   1.673
 5421SOL    HW117162   1.826   3.899   1.670
 5421SOL    HW217163   1.827   4.043   1.592
 5422SOL     OW17164   1.777   4.445   1.647
 5422SOL    HW117165   1.858   4.408   1.692
 5422SOL    HW217166   1.714   4.371   1.625
 5423SOL     OW17167   6.305   3.165   6.453
 5423SOL    HW117168   6.281   3.170   6.550
 5423SOL    HW217169   6.307   3.257   6.414
 5424SOL     OW17170   5.155   3.281   4.652
 5424SOL    HW117171   5.153   3.242   4.745
 5424SOL    HW217172   5.083   3.238   4.597
 5425SOL     OW17173   3.996   1.146   5.220
 5425SOL    HW117174   4.094   1.142   5.237
 5425SOL    HW217175   3.959   1.233   5.253
 5426SOL     OW17176   5.584   6.677   5.083
 5426SOL    HW117177   5.645   6.732   5.025
 5426SOL    HW217178   5.630   6.592   5.108
 5427SOL     OW17179   4.493   5.908   6.647
 5427SOL    HW117180   4.581   5.952   6.627
 5427SOL    HW217181   4.504   5.809   6.643
 5428SOL     OW17182   0.749   0.223   1.168
 5428SOL    HW117183   0.844   0.197   1.184
 5428SOL    HW217184   0.715   0.276   1.245
 5429SOL     OW17185   1.323   2.329   6.651
 5429SOL    HW117186   1.331   2.396   6.578
 5429SOL    HW217187   1.406   2.274   6.656
 5430SOL     OW17188   0.631   2.564   6.173
 5430SOL    HW117189   0.540   2.540   6.209
 5430SOL    HW217190   0.701   2.531   6.236
 5431SOL     OW17191   3.432   6.369   6.410
 5431SOL    HW117192   3.425   6.458   6.456
 5431SOL    HW217193   3.511   6.319   6.447
 5432SOL     OW17194   4.818   0.009   0.017
 5432SOL    HW117195   4.828   7.000   6.931
 5432SOL    HW217196   4.902   6.996   0.065
 5433SOL     OW17197   6.920   1.739   4.954
 5433SOL    HW117198   7.010   1.718   4.990
 5433SOL    HW217199   6.872   1.802   5.015
 5434SOL     OW17200   2.889   0.364   5.952
 5434SOL    HW117201   2.945   0.408   6.022
 5434SOL    HW217202   2.917   0.268   5.941
 5435SOL     OW17203   4.430   6.950   1.712
 5435SOL    HW117204   4.437   0.030   1.672
 5435SOL    HW217205   4.346   6.943   1.765
 5436SOL     OW17206   4.717   4.673   3.556
 5436SOL    HW117207   4.768   4.746   3.603
 5436SOL    HW217208   4.764   4.650   3.471
 5437SOL     OW17209   3.072   4.421   6.901
 5437SOL    HW117210   3.071   4.451   6.996
 5437SOL    HW217211   3.061   4.322   6.897
 5438SOL     OW17212   6.009   1.815   1.567
 5438SOL    HW117213   6.029   1.717   1.561
 5438SOL    HW217214   5.962   1.835   1.653
 5439SOL     OW17215   1.466   2.320   1.030
 5439SOL    HW117216   1.456   2.302   1.128
 5439SOL    HW217217   1.446   2.236   0.979
 5440SOL     OW17218   1.474   1.921   1.107
 5440SOL    HW117219   1.551   1.973   1.144
 5440SOL    HW217220   1.405   1.908   1.178
 5441SOL     OW17221   3.248   2.033   3.820
 5441SOL    HW117222   3.185   2.100   3.779
 5441SOL    HW217223   3.272   2.062   3.912
 5442SOL     OW17224   3.866   0.269   1.970
 5442SOL    HW117225   3.795   0.231   2.029
 5442SOL    HW217226   3.905   0.351   2.013
 5443SOL     OW17227   2.857   6.879   4.926
 5443SOL    HW117228   2.907   6.793   4.935
 5443SOL    HW217229   2.875   6.919   4.836
 5444SOL     OW17230   0.361   6.266   4.039
 5444SOL    HW117231   0.410   6.257   4.125
 5444SOL    HW217232   0.340   6.363   4.022
 5445SOL     OW17233   6.387   3.501   2.878
 5445SOL    HW117234   6.444   3.452   2.812
 5445SOL    HW217235   6.417   3.596   2.883
 5446SOL     OW17236   5.880   5.615   4.906
 5446SOL    HW117237   5.866   5.597   4.809
 5446SOL    HW217238   5.962   5.566   4.937
 5447SOL     OW17239   3.869   2.459   6.977
 5447SOL    HW117240   3.918   2.373   6.990
 5447SOL    HW217241   3.773   2.447   7.002
 5448SOL     OW17242   4.970   2.412   5.420
 5448SOL    HW117243   5.069   2.408   5.406
 5448SOL    HW217244   4.924   2.396   5.333
 5449SOL     OW17245   1.206   3.052   0.328
 5449SOL    HW117246   1.124   2.996   0.331
 5449SOL    HW217247   1.181   3.147   0.310
 5450SOL     OW17248   1.947   0.235   1.302
 5450SOL    HW117249   1.932   0.254   1.399
 5450SOL    HW217250   1.898   0.302   1.246
 5451SOL     OW17251   0.536   6.197   3.235
 5451SOL    HW117252   0.611   6.240   3.185
 5451SOL    HW217253   0.533   6.100   3.213
 5452SOL     OW17254   1.944   4.456   6.853
 5452SOL    HW117255   1.863   4.512   6.870
 5452SOL    HW217256   1.927   4.363   6.882
 5453SOL     OW17257   6.104   3.829   0.357
 5453SOL    HW117258   6.166   3.891   0.309
 5453SOL    HW217259   6.054   3.773   0.290
 5454SOL     OW17260   6.950   5.221   6.659
 5454SOL    HW117261   6.909   5.267   6.580
 5454SOL    HW217262   6.948   5.122   6.645
 5455SOL     OW17263   6.666   3.141   1.255
 5455SOL    HW117264   6.733   3.086   1.305
 5455SOL    HW217265   6.620   3.203   1.318
 5456SOL     OW17266   2.941   0.408   6.620
 5456SOL    HW117267   2.980   0.321   6.591
 5456SOL    HW217268   2.858   0.391   6.674
 5457SOL     OW17269   5.699   2.782   1.096
 5457SOL    HW117270   5.792   2.819   1.089
 5457SOL    HW217271   5.634   2.858   1.104
 5458SOL     OW17272   1.560   4.208   6.855
 5458SOL    HW117273   1.540   4.152   6.774
 5458SOL    HW217274   1.502   4.178   6.931
 5459SOL     OW17275   1.742   4.617   6.953
 5459SOL    HW117276   1.681   4.574   0.008
 5459SOL    HW217277   1.734   4.716   6.960
 5460SOL     OW17278   2.897   0.526   1.220
 5460SOL    HW117279   2.900   0.472   1.304
 5460SOL    HW217280   2.893   0.465   1.141
 5461SOL     OW17281   4.818   0.132   5.137
 5461SOL    HW117282   4.906   0.098   5.170
 5461SOL    HW217283   4.751   0.057   5.137
 5462SOL     OW17284   1.380   7.005   0.369
 5462SOL    HW117285   1.387   6.908   0.345
 5462SOL    HW217286   1.382   0.048   0.285
 5463SOL     OW17287   6.209   2.958   0.393
 5463SOL    HW117288   6.156   2.919   0.468
 5463SOL    HW217289   6.219   2.890   0.320
 5464SOL     OW17290   2.175   0.589   4.086
 5464SOL    HW117291   2.108   0.663   4.091
 5464SOL    HW217292   2.201   0.561   4.178
 5465SOL     OW17293   3.667   0.115   4.945
 5465SOL    HW117294   3.578   0.160   4.942
 5465SOL    HW217295   3.706   0.123   5.036
 5466SOL     OW17296   4.860   4.152   4.814
 5466SOL    HW117297   4.812   4.197   4.739
 5466SOL    HW217298   4.833   4.056   4.818
 5467SOL     OW17299   5.432   1.484   2.496
 5467SOL    HW117300   5.357   1.417   2.490
 5467SOL    HW217301   5.427   1.531   2.584
 5468SOL     OW17302   4.956   1.929   4.811
 5468SOL    HW117303   5.049   1.963   4.793
 5468SOL    HW217304   4.914   1.900   4.725
 5469SOL     OW17305   3.987   4.477   5.686
 5469SOL    HW117306   3.903   4.422   5.685
 5469SOL    HW217307   4.058   4.428   5.737
 5470SOL     OW17308   1.686   5.188   3.978
 5470SOL    HW117309   1.596   5.145   3.969
 5470SOL    HW217310   1.747   5.128   4.030
 5471SOL     OW17311   6.783   5.869   1.722
 5471SOL    HW117312   6.863   5.901   1.671
 5471SOL    HW217313   6.757   5.778   1.688
 5472SOL     OW17314   4.307   4.066   6.024
 5472SOL    HW117315   4.302   4.108   5.934
 5472SOL    HW217316   4.336   4.134   6.091
 5473SOL     OW17317   1.502   3.405   3.537
 5473SOL    HW117318   1.458   3.488   3.503
 5473SOL    HW217319   1.574   3.377   3.474
 5474SOL     OW17320   1.825   5.506   4.003
 5474SOL    HW117321   1.905   5.482   3.948
 5474SOL    HW217322   1.750   5.534   3.944
 5475SOL     OW17323   3.234   1.960   0.893
 5475SOL    HW117324   3.175   2.039   0.910
 5475SOL    HW217325   3.321   1.972   0.939
 5476SOL     OW17326   1.177   3.160   6.591
 5476SOL    HW117327   1.110   3.094   6.627
 5476SOL    HW217328   1.130   3.242   6.559
 5477SOL     OW17329   2.225   2.931   2.921
 5477SOL    HW117330   2.237   2.919   3.020
 5477SOL    HW217331   2.275   2.859   2.872
 5478SOL     OW17332   5.462   5.860   5.942
 5478SOL    HW117333   5.455   5.880   5.844
 5478SOL    HW217334   5.536   5.795   5.958
 5479SOL     OW17335   4.897   0.172   4.598
 5479SOL    HW117336   4.874   0.075   4.588
 5479SOL    HW217337   4.818   0.228   4.572
 5480SOL     OW17338   1.124   3.802   4.267
 5480SOL    HW117339   1.050   3.778   4.204
 5480SOL    HW217340   1.085   3.820   4.358
 5481SOL     OW17341   3.500   6.595   4.604
 5481SOL    HW117342   3.405   6.610   4.633
 5481SOL    HW217343   3.511   6.626   4.510
 5482SOL     OW17344   2.956   4.796   1.394
 5482SOL    HW117345   2.954   4.759   1.487
 5482SOL    HW217346   2.936   4.894   1.398
 5483SOL     OW17347   0.318   2.810   5.671
 5483SOL    HW117348   0.365   2.811   5.760
 5483SOL    HW217349   0.235   2.865   5.676
 5484SOL     OW17350   4.613   0.710   4.351
 5484SOL    HW117351   4.696   0.729   4.298
 5484SOL    HW217352   4.543   0.777   4.328
 5485SOL     OW17353   2.826   6.655   5.691
 5485SOL    HW117354   2.737   6.699   5.678
 5485SOL    HW217355   2.880   6.663   5.608
 5486SOL     OW17356   2.877   5.771   4.448
 5486SOL    HW117357   2.933   5.838   4.497
 5486SOL    HW217358   2.900   5.773   4.350
 5487SOL     OW17359   2.923   4.804   5.948
 5487SOL    HW117360   2.858   4.728   5.946
 5487SOL    HW217361   2.994   4.789   5.879
 5488SOL     OW17362   5.973   0.981   0.928
 5488SOL    HW117363   5.959   1.071   0.887
 5488SOL    HW217364   6.052   0.937   0.886
 5489SOL     OW17365   6.715   3.783   2.279
 5489SOL    HW117366   6.732   3.820   2.187
 5489SOL    HW217367   6.625   3.739   2.281
 5490SOL     OW17368   1.374   6.755   2.861
 5490SOL    HW117369   1.344   6.814   2.785
 5490SOL    HW217370   1.309   6.680   2.872
 5491SOL     OW17371   6.913   4.173   0.677
 5491SOL    HW117372   6.966   4.204   0.756
 5491SOL    HW217373   6.841   4.110   0.706
 5492SOL     OW17374   0.556   1.040   5.440
 5492SOL    HW117375   0.590   1.015   5.349
 5492SOL    HW217376   0.525   1.135   5.439
 5493SOL     OW17377   4.044   3.658   1.525
 5493SOL    HW117378   4.106   3.653   1.604
 5493SOL    HW217379   4.089   3.707   1.450
 5494SOL     OW17380   6.424   4.193   5.234
 5494SOL    HW117381   6.386   4.270   5.183
 5494SOL    HW217382   6.481   4.137   5.174
 5495SOL     OW17383   5.882   0.610   1.093
 5495SOL    HW117384   5.832   0.648   1.015
 5495SOL    HW217385   5.873   0.511   1.092
 5496SOL     OW17386   3.745   0.345   4.460
 5496SOL    HW117387   3.761   0.429   4.409
 5496SOL    HW217388   3.827   0.320   4.511
 5497SOL     OW17389   1.107   0.892   6.149
 5497SOL    HW117390   1.196   0.914   6.188
 5497SOL    HW217391   1.083   0.798   6.173
 5498SOL     OW17392   0.311   5.249   2.284
 5498SOL    HW117393   0.411   5.248   2.291
 5498SOL    HW217394   0.282   5.330   2.233
 5499SOL     OW17395   1.645   0.184   4.763
 5499SOL    HW117396   1.678   0.181   4.668
 5499SOL    HW217397   1.681   0.106   4.813
 5500SOL     OW17398   2.395   0.497   0.617
 5500SOL    HW117399   2.463   0.477   0.546
 5500SOL    HW217400   2.306   0.513   0.574
 5501SOL     OW17401   3.570   3.040   6.752
 5501SOL    HW117402   3.600   2.944   6.756
 5501SOL    HW217403   3.531   3.066   6.840
 5502SOL     OW17404   4.513   2.292   0.301
 5502SOL    HW117405   4.455   2.294   0.220
 5502SOL    HW217406   4.502   2.205   0.349
 5503SOL     OW17407   0.022   3.983   0.497
 5503SOL    HW117408   6.958   3.960   0.436
 5503SOL    HW217409   7.000   4.042   0.570
 5504SOL     OW17410   3.355   0.947   6.137
 5504SOL    HW117411   3.337   0.975   6.043
 5504SOL    HW217412   3.402   1.021   6.186
 5505SOL     OW17413   2.458   4.810   4.181
 5505SOL    HW117414   2.557   4.809   4.187
 5505SOL    HW217415   2.423   4.717   4.194
 5506SOL     OW17416   0.837   3.634   6.193
 5506SOL    HW117417   0.874   3.580   6.117
 5506SOL    HW217418   0.764   3.693   6.160
 5507SOL     OW17419   3.056   0.103   6.881
 5507SOL    HW117420   3.117   0.181   6.868
 5507SOL    HW217421   2.965   0.125   6.845
 5508SOL     OW17422   0.191   0.722   6.539
 5508SOL    HW117423   0.155   0.642   6.587
 5508SOL    HW217424   0.165   0.718   6.443
 5509SOL     OW17425   6.960   5.344   0.310
 5509SOL    HW117426   6.989   5.318   0.218
 5509SOL    HW217427   6.870   5.388   0.305
 5510SOL     OW17428   3.831   5.365   0.122
 5510SOL    HW117429   3.746   5.319   0.096
 5510SOL    HW217430   3.843   5.358   0.221
 5511SOL     OW17431   0.819   1.235   5.382
 5511SOL    HW117432   0.754   1.196   5.447
 5511SOL    HW217433   0.912   1.208   5.409
 5512SOL     OW17434   3.460   1.009   2.694
 5512SOL    HW117435   3.426   1.035   2.603
 5512SOL    HW217436   3.385   1.016   2.760
 5513SOL     OW17437   3.984   4.291   6.844
 5513SOL    HW117438   3.918   4.288   6.769
 5513SOL    HW217439   3.945   4.341   6.921
 5514SOL     OW17440   2.853   0.446   6.330
 5514SOL    HW117441   2.876   0.385   6.406
 5514SOL    HW217442   2.810   0.529   6.367
 5515SOL     OW17443   2.532   5.954   1.940
 5515SOL    HW117444   2.599   5.939   2.012
 5515SOL    HW217445   2.518   6.053   1.928
 5516SOL     OW17446   2.419   2.704   5.118
 5516SOL    HW117447   2.325   2.681   5.143
 5516SOL    HW217448   2.420   2.787   5.064
 5517SOL     OW17449   1.720   3.325   3.343
 5517SOL    HW117450   1.775   3.394   3.296
 5517SOL    HW217451   1.771   3.289   3.421
 5518SOL     OW17452   4.559   4.196   5.843
 5518SOL    HW117453   4.496   4.176   5.768
 5518SOL    HW217454   4.588   4.110   5.886
 5519SOL     OW17455   4.602   2.213   3.934
 5519SOL    HW117456   4.519   2.158   3.919
 5519SOL    HW217457   4.577   2.303   3.968
 5520SOL     OW17458   4.888   6.931   1.757
 5520SOL    HW117459   4.918   6.867   1.687
 5520SOL    HW217460   4.953   6.931   1.833
 5521SOL     OW17461   5.628   5.764   1.767
 5521SOL    HW117462   5.604   5.678   1.723
 5521SOL    HW217463   5.709   5.750   1.825
 5522SOL     OW17464   6.271   5.500   0.736
 5522SOL    HW117465   6.297   5.539   0.648
 5522SOL    HW217466   6.285   5.568   0.808
 5523SOL     OW17467   5.546   1.225   2.294
 5523SOL    HW117468   5.447   1.235   2.286
 5523SOL    HW217469   5.572   1.227   2.391
 5524SOL     OW17470   2.924   0.794   4.492
 5524SOL    HW117471   2.920   0.717   4.428
 5524SOL    HW217472   2.904   0.878   4.443
 5525SOL     OW17473   6.253   1.653   1.171
 5525SOL    HW117474   6.167   1.620   1.209
 5525SOL    HW217475   6.295   1.582   1.114
 5526SOL     OW17476   4.785   5.004   3.355
 5526SOL    HW117477   4.820   4.937   3.420
 5526SOL    HW217478   4.850   5.016   3.280
 5527SOL     OW17479   6.092   1.463   3.875
 5527SOL    HW117480   6.014   1.509   3.833
 5527SOL    HW217481   6.123   1.515   3.954
 5528SOL     OW17482   0.918   1.631   0.845
 5528SOL    HW117483   0.906   1.562   0.917
 5528SOL    HW217484   1.001   1.683   0.862
 5529SOL     OW17485   3.876   0.912   2.132
 5529SOL    HW117486   3.850   0.899   2.037
 5529SOL    HW217487   3.926   0.998   2.141
 5530SOL     OW17488   6.218   2.258   1.323
 5530SOL    HW117489   6.243   2.290   1.415
 5530SOL    HW217490   6.178   2.166   1.329
 5531SOL     OW17491   2.315   4.306   1.512
 5531SOL    HW117492   2.256   4.330   1.435
 5531SOL    HW217493   2.382   4.238   1.483
 5532SOL     OW17494   1.524   2.949   0.808
 5532SOL    HW117495   1.598   2.899   0.855
 5532SOL    HW217496   1.451   2.969   0.873
 5533SOL     OW17497   3.974   2.188   4.161
 5533SOL    HW117498   3.893   2.144   4.199
 5533SOL    HW217499   4.002   2.264   4.221
 5534SOL     OW17500   1.301   0.813   4.554
 5534SOL    HW117501   1.204   0.825   4.533
 5534SOL    HW217502   1.311   0.745   4.627
 5535SOL     OW17503   0.238   2.215   3.384
 5535SOL    HW117504   0.176   2.142   3.357
 5535SOL    HW217505   0.258   2.273   3.305
 5536SOL     OW17506   3.740   6.609   4.105
 5536SOL    HW117507   3.791   6.677   4.158
 5536SOL    HW217508   3.799   6.530   4.086
 5537SOL     OW17509   3.131   1.255   3.410
 5537SOL    HW117510   3.185   1.295   3.484
 5537SOL    HW217511   3.035   1.256   3.435
 5538SOL     OW17512   4.151   5.448   4.516
 5538SOL    HW117513   4.082   5.391   4.472
 5538SOL    HW217514   4.132   5.545   4.498
 5539SOL     OW17515   2.184   4.107   0.227
 5539SOL    HW117516   2.117   4.139   0.294
 5539SOL    HW217517   2.161   4.144   0.137
 5540SOL     OW17518   5.337   4.995   2.027
 5540SOL    HW117519   5.247   4.959   2.049
 5540SOL    HW217520   5.405   4.957   2.091
 5541SOL     OW17521   4.568   1.426   5.426
 5541SOL    HW117522   4.620   1.341   5.431
 5541SOL    HW217523   4.510   1.425   5.344
 5542SOL     OW17524   4.950   4.799   5.995
 5542SOL    HW117525   5.049   4.797   5.988
 5542SOL    HW217526   4.915   4.882   5.951
 5543SOL     OW17527   6.808   2.081   5.757
 5543SOL    HW117528   6.887   2.136   5.787
 5543SOL    HW217529   6.751   2.136   5.696
 5544SOL     OW17530   5.715   1.428   6.327
 5544SOL    HW117531   5.782   1.447   6.256
 5544SOL    HW217532   5.667   1.513   6.351
 5545SOL     OW17533   3.043   2.112   1.922
 5545SOL    HW117534   3.002   2.202   1.932
 5545SOL    HW217535   2.973   2.042   1.929
 5546SOL     OW17536   1.894   5.040   5.804
 5546SOL    HW117537   1.806   4.993   5.792
 5546SOL    HW217538   1.898   5.119   5.743
 5547SOL     OW17539   3.969   6.215   5.151
 5547SOL    HW117540   4.052   6.190   5.102
 5547SOL    HW217541   3.994   6.248   5.243
 5548SOL     OW17542   6.903   3.529   5.056
 5548SOL    HW117543   6.992   3.555   5.019
 5548SOL    HW217544   6.849   3.611   5.074
 5549SOL     OW17545   3.516   4.331   6.827
 5549SOL    HW117546   3.437   4.270   6.820
 5549SOL    HW217547   3.492   4.411   6.882
 5550SOL     OW17548   3.656   6.829   1.757
 5550SOL    HW117549   3.695   6.738   1.765
 5550SOL    HW217550   3.567   6.824   1.712
 5551SOL     OW17551   0.487   0.907   3.107
 5551SOL    HW117552   0.527   0.992   3.144
 5551SOL    HW217553   0.538   0.829   3.142
 5552SOL     OW17554   0.295   2.722   1.547
 5552SOL    HW117555   0.256   2.645   1.497
 5552SOL    HW217556   0.378   2.693   1.594
 5553SOL     OW17557   5.321   6.771   0.473
 5553SOL    HW117558   5.372   6.804   0.394
 5553SOL    HW217559   5.380   6.714   0.530
 5554SOL     OW17560   2.873   2.039   4.670
 5554SOL    HW117561   2.775   2.021   4.662
 5554SOL    HW217562   2.890   2.103   4.745
 5555SOL     OW17563   6.811   5.840   2.718
 5555SOL    HW117564   6.755   5.901   2.774
 5555SOL    HW217565   6.903   5.878   2.710
 5556SOL     OW17566   0.440   1.103   4.488
 5556SOL    HW117567   0.426   1.147   4.399
 5556SOL    HW217568   0.356   1.057   4.516
 5557SOL     OW17569   2.642   0.686   3.478
 5557SOL    HW117570   2.740   0.678   3.495
 5557SOL    HW217571   2.593   0.617   3.531
 5558SOL     OW17572   5.040   2.275   4.674
 5558SOL    HW117573   4.955   2.240   4.635
 5558SOL    HW217574   5.078   2.207   4.737
 5559SOL     OW17575   1.904   0.106   1.040
 5559SOL    HW117576   1.938   0.146   1.125
 5559SOL    HW217577   1.936   0.011   1.033
 5560SOL     OW17578   0.278   0.313   4.070
 5560SOL    HW117579   0.311   0.342   3.980
 5560SOL    HW217580   0.350   0.262   4.117
 5561SOL     OW17581   1.488   3.584   3.321
 5561SOL    HW117582   1.463   3.668   3.272
 5561SOL    HW217583   1.586   3.585   3.342
 5562SOL     OW17584   2.200   2.579   5.905
 5562SOL    HW117585   2.240   2.669   5.885
 5562SOL    HW217586   2.230   2.548   5.995
 5563SOL     OW17587   3.905   4.775   1.295
 5563SOL    HW117588   3.844   4.711   1.250
 5563SOL    HW217589   3.921   4.745   1.390
 5564SOL     OW17590   6.307   4.380   1.331
 5564SOL    HW117591   6.250   4.360   1.252
 5564SOL    HW217592   6.290   4.313   1.403
 5565SOL     OW17593   2.669   3.298   5.568
 5565SOL    HW117594   2.760   3.263   5.545
 5565SOL    HW217595   2.605   3.278   5.494
 5566SOL     OW17596   2.013   4.440   1.125
 5566SOL    HW117597   2.068   4.462   1.044
 5566SOL    HW217598   1.984   4.524   1.170
 5567SOL     OW17599   1.718   5.934   2.263
 5567SOL    HW117600   1.804   5.884   2.270
 5567SOL    HW217601   1.650   5.875   2.219
 5568SOL     OW17602   3.539   1.617   0.826
 5568SOL    HW117603   3.596   1.597   0.747
 5568SOL    HW217604   3.511   1.713   0.822
 5569SOL     OW17605   6.064   2.428   6.957
 5569SOL    HW117606   6.094   2.342   6.916
 5569SOL    HW217607   5.965   2.438   6.945
 5570SOL     OW17608   6.850   4.120   5.546
 5570SOL    HW117609   6.772   4.126   5.483
 5570SOL    HW217610   6.834   4.046   5.611
 5571SOL     OW17611   6.837   4.495   6.336
 5571SOL    HW117612   6.793   4.537   6.416
 5571SOL    HW217613   6.775   4.428   6.295
 5572SOL     OW17614   5.362   2.587   5.687
 5572SOL    HW117615   5.417   2.600   5.769
 5572SOL    HW217616   5.273   2.630   5.699
 5573SOL     OW17617   1.024   3.909   0.436
 5573SOL    HW117618   1.015   3.938   0.531
 5573SOL    HW217619   1.120   3.890   0.415
 5574SOL     OW17620   0.569   6.034   4.536
 5574SOL    HW117621   0.485   6.083   4.558
 5574SOL    HW217622   0.562   5.995   4.444
 5575SOL     OW17623   1.515   0.869   1.551
 5575SOL    HW117624   1.551   0.904   1.465
 5575SOL    HW217625   1.554   0.920   1.627
 5576SOL     OW17626   6.241   6.079   0.327
 5576SOL    HW117627   6.340   6.081   0.342
 5576SOL    HW217628   6.221   6.033   0.241
 5577SOL     OW17629   2.364   3.711   5.327
 5577SOL    HW117630   2.386   3.800   5.287
 5577SOL    HW217631   2.284   3.719   5.385
 5578SOL     OW17632   4.058   1.413   6.168
 5578SOL    HW117633   4.136   1.394   6.109
 5578SOL    HW217634   3.976   1.370   6.130
 5579SOL     OW17635   5.061   4.639   0.771
 5579SOL    HW117636   5.045   4.545   0.739
 5579SOL    HW217637   5.053   4.642   0.870
 5580SOL     OW17638   5.271   0.694   1.480
 5580SOL    HW117639   5.204   0.648   1.540
 5580SOL    HW217640   5.343   0.630   1.456
 5581SOL     OW17641   2.752   2.730   0.506
 5581SOL    HW117642   2.830   2.762   0.452
 5581SOL    HW217643   2.749   2.630   0.505
 5582SOL     OW17644   3.776   3.326   3.027
 5582SOL    HW117645   3.819   3.242   3.060
 5582SOL    HW217646   3.844   3.380   2.977
 5583SOL     OW17647   3.610   0.647   0.410
 5583SOL    HW117648   3.655   0.713   0.469
 5583SOL    HW217649   3.646   0.556   0.428
 5584SOL     OW17650   5.625   2.848   2.598
 5584SOL    HW117651   5.577   2.877   2.681
 5584SOL    HW217652   5.658   2.929   2.549
 5585SOL     OW17653   0.012   6.723   4.308
 5585SOL    HW117654   0.015   6.659   4.231
 5585SOL    HW217655   0.095   6.713   4.363
 5586SOL     OW17656   2.178   1.599   6.344
 5586SOL    HW117657   2.241   1.632   6.274
 5586SOL    HW217658   2.222   1.601   6.433
 5587SOL     OW17659   3.538   0.188   3.891
 5587SOL    HW117660   3.604   0.229   3.955
 5587SOL    HW217661   3.459   0.249   3.882
 5588SOL     OW17662   4.121   0.038   5.880
 5588SOL    HW117663   4.106   0.092   5.797
 5588SOL    HW217664   4.054   6.975   5.884
 5589SOL     OW17665   3.446   3.352   6.617
 5589SOL    HW117666   3.432   3.436   6.669
 5589SOL    HW217667   3.358   3.319   6.583
 5590SOL     OW17668   6.915   6.709   3.044
 5590SOL    HW117669   6.839   6.644   3.036
 5590SOL    HW217670   6.893   6.778   3.112
 5591SOL     OW17671   4.535   0.794   7.007
 5591SOL    HW117672   4.565   0.791   6.911
 5591SOL    HW217673   4.457   0.734   0.008
 5592SOL     OW17674   2.659   2.348   2.566
 5592SOL    HW117675   2.747   2.312   2.534
 5592SOL    HW217676   2.621   2.286   2.635
 5593SOL     OW17677   1.898   3.434   5.016
 5593SOL    HW117678   1.973   3.449   4.951
 5593SOL    HW217679   1.826   3.501   5.000
 5594SOL     OW17680   2.428   1.240   6.642
 5594SOL    HW117681   2.369   1.165   6.614
 5594SOL    HW217682   2.413   1.261   6.738
 5595SOL     OW17683   0.069   1.566   5.825
 5595SOL    HW117684   0.109   1.599   5.910
 5595SOL    HW217685   0.034   1.644   5.772
 5596SOL     OW17686   4.842   1.539   3.130
 5596SOL    HW117687   4.745   1.559   3.147
 5596SOL    HW217688   4.850   1.461   3.067
 5597SOL     OW17689   0.159   0.842   6.074
 5597SOL    HW117690   0.254   0.868   6.055
 5597SOL    HW217691   0.106   0.924   6.097
 5598SOL     OW17692   7.007   2.385   4.429
 5598SOL    HW117693   0.040   2.299   4.402
 5598SOL    HW217694   0.005   2.398   4.527
 5599SOL     OW17695   5.035   2.858   3.568
 5599SOL    HW117696   5.105   2.914   3.613
 5599SOL    HW217697   5.080   2.789   3.511
 5600SOL     OW17698   2.286   1.759   1.751
 5600SOL    HW117699   2.297   1.685   1.817
 5600SOL    HW217700   2.282   1.846   1.799
 5601SOL     OW17701   6.249   2.949   5.693
 5601SOL    HW117702   6.210   3.025   5.641
 5601SOL    HW217703   6.212   2.863   5.659
 5602SOL     OW17704   6.264   2.451   2.486
 5602SOL    HW117705   6.164   2.450   2.485
 5602SOL    HW217706   6.298   2.454   2.392
 5603SOL     OW17707   4.628   1.274   5.705
 5603SOL    HW117708   4.680   1.264   5.620
 5603SOL    HW217709   4.600   1.184   5.738
 5604SOL     OW17710   1.284   6.678   3.500
 5604SOL    HW117711   1.303   6.769   3.464
 5604SOL    HW217712   1.368   6.624   3.500
 5605SOL     OW17713   4.543   6.943   4.474
 5605SOL    HW117714   4.626   6.916   4.521
 5605SOL    HW217715   4.506   6.866   4.422
 5606SOL     OW17716   4.968   3.126   0.395
 5606SOL    HW117717   5.011   3.080   0.473
 5606SOL    HW217718   4.893   3.183   0.427
 5607SOL     OW17719   6.841   2.475   3.330
 5607SOL    HW117720   6.854   2.483   3.429
 5607SOL    HW217721   6.852   2.379   3.303
 5608SOL     OW17722   5.084   0.919   3.230
 5608SOL    HW117723   5.172   0.930   3.275
 5608SOL    HW217724   5.098   0.898   3.133
 5609SOL     OW17725   6.730   0.462   0.997
 5609SOL    HW117726   6.654   0.479   0.934
 5609SOL    HW217727   6.807   0.522   0.973
 5610SOL     OW17728   5.088   5.443   0.758
 5610SOL    HW117729   5.177   5.462   0.717
 5610SOL    HW217730   5.026   5.407   0.688
 5611SOL     OW17731   6.014   4.871   1.803
 5611SOL    HW117732   5.994   4.818   1.721
 5611SOL    HW217733   5.929   4.897   1.848
 5612SOL     OW17734   3.689   1.871   6.912
 5612SOL    HW117735   3.666   1.915   6.825
 5612SOL    HW217736   3.670   1.934   6.987
 5613SOL     OW17737   5.944   4.821   6.161
 5613SOL    HW117738   5.982   4.909   6.192
 5613SOL    HW217739   5.956   4.753   6.233
 5614SOL     OW17740   4.812   2.943   3.960
 5614SOL    HW117741   4.893   2.887   3.981
 5614SOL    HW217742   4.784   2.926   3.865
 5615SOL     OW17743   0.456   2.790   2.888
 5615SOL    HW117744   0.368   2.826   2.854
 5615SOL    HW217745   0.448   2.692   2.902
 5616SOL     OW17746   1.725   3.310   2.453
 5616SOL    HW117747   1.786   3.233   2.433
 5616SOL    HW217748   1.702   3.310   2.550
 5617SOL     OW17749   1.367   4.975   6.255
 5617SOL    HW117750   1.297   4.932   6.313
 5617SOL    HW217751   1.457   4.943   6.282
 5618SOL     OW17752   5.236   6.755   2.342
 5618SOL    HW117753   5.301   6.798   2.405
 5618SOL    HW217754   5.284   6.723   2.261
 5619SOL     OW17755   3.313   3.186   3.628
 5619SOL    HW117756   3.351   3.143   3.546
 5619SOL    HW217757   3.324   3.124   3.706
 5620SOL     OW17758   4.913   4.731   4.230
 5620SOL    HW117759   4.882   4.716   4.324
 5620SOL    HW217760   4.977   4.659   4.205
 5621SOL     OW17761   7.002   2.520   6.381
 5621SOL    HW117762   0.074   2.530   6.327
 5621SOL    HW217763   0.003   2.447   6.448
 5622SOL     OW17764   4.766   5.601   3.728
 5622SOL    HW117765   4.771   5.611   3.827
 5622SOL    HW217766   4.685   5.649   3.694
 5623SOL     OW17767   5.015   4.912   4.769
 5623SOL    HW117768   5.029   4.926   4.671
 5623SOL    HW217769   5.050   4.992   4.819
 5624SOL     OW17770   4.921   4.652   3.337
 5624SOL    HW117771   4.992   4.721   3.323
 5624SOL    HW217772   4.874   4.635   3.250
 5625SOL     OW17773   2.256   5.962   5.981
 5625SOL    HW117774   2.345   6.005   5.975
 5625SOL    HW217775   2.201   5.988   5.902
 5626SOL     OW17776   0.961   4.079   6.804
 5626SOL    HW117777   0.953   4.178   6.812
 5626SOL    HW217778   0.941   4.036   6.892
 5627SOL     OW17779   0.932   5.326   6.831
 5627SOL    HW117780   0.936   5.248   6.894
 5627SOL    HW217781   0.838   5.358   6.824
 5628SOL     OW17782   2.415   3.610   0.519
 5628SOL    HW117783   2.334   3.553   0.534
 5628SOL    HW217784   2.400   3.700   0.560
 5629SOL     OW17785   6.331   3.506   2.485
 5629SOL    HW117786   6.243   3.471   2.453
 5629SOL    HW217787   6.377   3.436   2.540
 5630SOL     OW17788   1.038   3.869   0.037
 5630SOL    HW117789   0.946   3.839   0.065
 5630SOL    HW217790   1.060   3.954   0.084
 5631SOL     OW17791   3.852   1.618   2.020
 5631SOL    HW117792   3.768   1.637   1.969
 5631SOL    HW217793   3.923   1.682   1.992
 5632SOL     OW17794   4.917   6.620   5.949
 5632SOL    HW117795   4.849   6.686   5.981
 5632SOL    HW217796   4.871   6.546   5.900
 5633SOL     OW17797   1.109   5.569   5.282
 5633SOL    HW117798   1.065   5.523   5.205
 5633SOL    HW217799   1.086   5.520   5.367
 5634SOL     OW17800   2.613   0.629   1.166
 5634SOL    HW117801   2.617   0.655   1.262
 5634SOL    HW217802   2.667   0.546   1.151
 5635SOL     OW17803   3.121   0.897   1.081
 5635SOL    HW117804   3.104   0.847   1.166
 5635SOL    HW217805   3.182   0.973   1.099
 5636SOL     OW17806   5.088   1.487   5.871
 5636SOL    HW117807   4.989   1.497   5.858
 5636SOL    HW217808   5.128   1.443   5.790
 5637SOL     OW17809   5.123   6.799   4.603
 5637SOL    HW117810   5.089   6.799   4.697
 5637SOL    HW217811   5.145   6.706   4.575
 5638SOL     OW17812   6.291   5.314   1.092
 5638SOL    HW117813   6.331   5.388   1.038
 5638SOL    HW217814   6.250   5.353   1.175
 5639SOL     OW17815   2.174   0.572   1.798
 5639SOL    HW117816   2.166   0.497   1.732
 5639SOL    HW217817   2.088   0.624   1.800
 5640SOL     OW17818   3.223   0.379   2.695
 5640SOL    HW117819   3.132   0.349   2.666
 5640SOL    HW217820   3.230   0.374   2.794
 5641SOL     OW17821   6.519   4.278   3.625
 5641SOL    HW117822   6.564   4.339   3.691
 5641SOL    HW217823   6.588   4.233   3.569
 5642SOL     OW17824   2.112   3.407   6.463
 5642SOL    HW117825   2.207   3.439   6.474
 5642SOL    HW217826   2.050   3.484   6.471
 5643SOL     OW17827   5.347   2.592   4.920
 5643SOL    HW117828   5.271   2.654   4.899
 5643SOL    HW217829   5.432   2.631   4.883
 5644SOL     OW17830   4.394   0.669   4.983
 5644SOL    HW117831   4.360   0.626   5.067
 5644SOL    HW217832   4.483   0.710   5.001
 5645SOL     OW17833   6.590   5.558   3.920
 5645SOL    HW117834   6.658   5.556   3.994
 5645SOL    HW217835   6.513   5.615   3.948
 5646SOL     OW17836   0.154   6.324   3.757
 5646SOL    HW117837   0.113   6.269   3.685
 5646SOL    HW217838   0.132   6.284   3.846
 5647SOL     OW17839   6.024   5.422   5.968
 5647SOL    HW117840   6.055   5.362   6.042
 5647SOL    HW217841   5.937   5.388   5.932
 5648SOL     OW17842   1.699   1.397   5.242
 5648SOL    HW117843   1.680   1.299   5.242
 5648SOL    HW217844   1.646   1.442   5.170
 5649SOL     OW17845   1.532   0.258   4.995
 5649SOL    HW117846   1.609   0.292   5.049
 5649SOL    HW217847   1.565   0.227   4.906
 5650SOL     OW17848   6.847   4.997   0.388
 5650SOL    HW117849   6.755   5.034   0.376
 5650SOL    HW217850   6.868   4.934   0.313
 5651SOL     OW17851   6.678   1.275   2.729
 5651SOL    HW117852   6.584   1.306   2.716
 5651SOL    HW217853   6.738   1.354   2.740
 5652SOL     OW17854   5.471   4.349   0.116
 5652SOL    HW117855   5.521   4.429   0.083
 5652SOL    HW217856   5.522   4.266   0.094
 5653SOL     OW17857   1.746   6.260   6.574
 5653SOL    HW117858   1.705   6.193   6.513
 5653SOL    HW217859   1.682   6.334   6.591
 5654SOL     OW17860   0.764   5.445   5.900
 5654SOL    HW117861   0.708   5.370   5.935
 5654SOL    HW217862   0.824   5.478   5.973
 5655SOL     OW17863   0.179   4.230   3.431
 5655SOL    HW117864   0.099   4.243   3.489
 5655SOL    HW217865   0.160   4.157   3.365
 5656SOL     OW17866   3.063   4.803   6.366
 5656SOL    HW117867   3.062   4.902   6.348
 5656SOL    HW217868   3.118   4.785   6.447
 5657SOL     OW17869   4.148   5.913   1.493
 5657SOL    HW117870   4.212   5.964   1.551
 5657SOL    HW217871   4.199   5.864   1.422
 5658SOL     OW17872   4.895   6.815   5.449
 5658SOL    HW117873   4.814   6.872   5.460
 5658SOL    HW217874   4.868   6.719   5.450
 5659SOL     OW17875   3.399   3.496   2.955
 5659SOL    HW117876   3.365   3.517   2.863
 5659SOL    HW217877   3.396   3.579   3.011
 5660SOL     OW17878   6.171   0.062   0.824
 5660SOL    HW117879   6.165   0.157   0.855
 5660SOL    HW217880   6.156   0.058   0.725
 5661SOL     OW17881   6.466   6.006   4.680
 5661SOL    HW117882   6.525   6.087   4.679
 5661SOL    HW217883   6.485   5.951   4.761
 5662SOL     OW17884   2.148   3.713   4.163
 5662SOL    HW117885   2.174   3.616   4.164
 5662SOL    HW217886   2.108   3.736   4.075
 5663SOL     OW17887   1.739   3.593   0.375
 5663SOL    HW117888   1.684   3.570   0.455
 5663SOL    HW217889   1.798   3.671   0.397
 5664SOL     OW17890   6.831   4.660   2.868
 5664SOL    HW117891   6.824   4.598   2.946
 5664SOL    HW217892   6.832   4.607   2.783
 5665SOL     OW17893   2.031   1.301   6.063
 5665SOL    HW117894   2.093   1.287   6.141
 5665SOL    HW217895   1.956   1.361   6.091
 5666SOL     OW17896   6.042   5.204   0.589
 5666SOL    HW117897   6.069   5.200   0.492
 5666SOL    HW217898   6.124   5.198   0.646
 5667SOL     OW17899   0.242   5.633   3.817
 5667SOL    HW117900   0.190   5.610   3.900
 5667SOL    HW217901   0.190   5.604   3.736
 5668SOL     OW17902   5.974   2.599   5.501
 5668SOL    HW117903   5.959   2.627   5.406
 5668SOL    HW217904   5.888   2.570   5.541
 5669SOL     OW17905   6.747   3.360   5.297
 5669SOL    HW117906   6.668   3.299   5.300
 5669SOL    HW217907   6.723   3.444   5.248
 5670SOL     OW17908   1.962   4.040   3.604
 5670SOL    HW117909   1.907   3.957   3.591
 5670SOL    HW217910   1.915   4.102   3.667
 5671SOL     OW17911   1.643   1.129   5.229
 5671SOL    HW117912   1.573   1.090   5.288
 5671SOL    HW217913   1.694   1.056   5.184
 5672SOL     OW17914   5.498   4.197   5.934
 5672SOL    HW117915   5.510   4.291   5.901
 5672SOL    HW217916   5.574   4.141   5.903
 5673SOL     OW17917   1.984   0.307   1.869
 5673SOL    HW117918   2.048   0.294   1.944
 5673SOL    HW217919   1.891   0.315   1.906
 5674SOL     OW17920   6.769   3.573   1.041
 5674SOL    HW117921   6.816   3.490   1.074
 5674SOL    HW217922   6.692   3.594   1.102
 5675SOL     OW17923   4.293   2.080   5.791
 5675SOL    HW117924   4.286   2.069   5.692
 5675SOL    HW217925   4.227   2.149   5.821
 5676SOL     OW17926   3.218   6.855   1.437
 5676SOL    HW117927   3.122   6.831   1.449
 5676SOL    HW217928   3.254   6.810   1.355
 5677SOL     OW17929   0.079   0.172   4.184
 5677SOL    HW117930   0.034   0.113   4.117
 5677SOL    HW217931   0.150   0.226   4.138
 5678SOL     OW17932   2.083   5.178   3.250
 5678SOL    HW117933   2.071   5.101   3.313
 5678SOL    HW217934   2.180   5.202   3.246
 5679SOL     OW17935   2.590   6.057   5.206
 5679SOL    HW117936   2.588   6.142   5.258
 5679SOL    HW217937   2.629   5.984   5.262
 5680SOL     OW17938   2.296   6.923   6.311
 5680SOL    HW117939   2.231   6.863   6.265
 5680SOL    HW217940   2.248   7.004   6.345
 5681SOL     OW17941   1.268   3.525   0.944
 5681SOL    HW117942   1.240   3.433   0.971
 5681SOL    HW217943   1.293   3.525   0.847
 5682SOL     OW17944   0.688   3.335   3.906
 5682SOL    HW117945   0.752   3.293   3.842
 5682SOL    HW217946   0.703   3.299   3.998
 5683SOL     OW17947   3.757   2.532   5.452
 5683SOL    HW117948   3.670   2.567   5.488
 5683SOL    HW217949   3.791   2.594   5.382
 5684SOL     OW17950   2.979   3.874   3.157
 5684SOL    HW117951   3.070   3.915   3.154
 5684SOL    HW217952   2.932   3.902   3.241
 5685SOL     OW17953   0.552   5.250   2.062
 5685SOL    HW117954   0.516   5.337   2.027
 5685SOL    HW217955   0.582   5.262   2.156
 5686SOL     OW17956   3.462   5.838   6.953
 5686SOL    HW117957   3.466   5.917   0.003
 5686SOL    HW217958   3.542   5.838   6.893
 5687SOL     OW17959   4.627   5.691   5.562
 5687SOL    HW117960   4.641   5.788   5.539
 5687SOL    HW217961   4.700   5.660   5.623
 5688SOL     OW17962   5.896   2.017   2.078
 5688SOL    HW117963   5.964   1.947   2.056
 5688SOL    HW217964   5.940   2.092   2.127
 5689SOL     OW17965   4.235   2.522   0.198
 5689SOL    HW117966   4.145   2.518   0.240
 5689SOL    HW217967   4.302   2.552   0.266
 5690SOL     OW17968   4.893   6.578   1.478
 5690SOL    HW117969   4.813   6.618   1.522
 5690SOL    HW217970   4.878   6.480   1.466
 5691SOL     OW17971   1.856   0.191   2.241
 5691SOL    HW117972   1.800   0.240   2.308
 5691SOL    HW217973   1.798   0.135   2.182
 5692SOL     OW17974   5.480   3.107   0.080
 5692SOL    HW117975   5.391   3.066   0.058
 5692SOL    HW217976   5.490   3.193   0.031
 5693SOL     OW17977   4.836   2.490   3.567
 5693SOL    HW117978   4.769   2.563   3.582
 5693SOL    HW217979   4.805   2.432   3.492
 5694SOL     OW17980   0.621   1.505   4.160
 5694SOL    HW117981   0.584   1.591   4.195
 5694SOL    HW217982   0.668   1.457   4.234
 5695SOL     OW17983   2.146   3.458   3.333
 5695SOL    HW117984   2.124   3.454   3.235
 5695SOL    HW217985   2.236   3.417   3.348
 5696SOL     OW17986   2.920   6.946   5.500
 5696SOL    HW117987   2.989   7.009   5.464
 5696SOL    HW217988   2.938   6.854   5.465
 5697SOL     OW17989   0.018   3.145   6.951
 5697SOL    HW117990   6.957   3.158   0.008
 5697SOL    HW217991   0.007   3.212   6.878
 5698SOL     OW17992   0.413   4.081   2.063
 5698SOL    HW117993   0.449   3.996   2.101
 5698SOL    HW217994   0.418   4.153   2.132
 5699SOL     OW17995   6.032   1.063   4.876
 5699SOL    HW117996   5.983   0.984   4.914
 5699SOL    HW217997   6.025   1.062   4.776
 5700SOL     OW17998   1.159   5.560   3.607
 5700SOL    HW117999   1.098   5.486   3.635
 5700SOL    HW218000   1.219   5.585   3.683
 5701SOL     OW18001   5.705   5.133   1.755
 5701SOL    HW118002   5.651   5.100   1.678
 5701SOL    HW218003   5.739   5.055   1.808
 5702SOL     OW18004   1.736   0.243   6.182
 5702SOL    HW118005   1.823   0.204   6.215
 5702SOL    HW218006   1.668   0.236   6.255
 5703SOL     OW18007   3.853   4.288   0.761
 5703SOL    HW118008   3.813   4.347   0.691
 5703SOL    HW218009   3.952   4.306   0.767
 5704SOL     OW18010   3.743   5.445   3.505
 5704SOL    HW118011   3.757   5.423   3.601
 5704SOL    HW218012   3.766   5.541   3.489
 5705SOL     OW18013   6.452   1.587   1.849
 5705SOL    HW118014   6.446   1.512   1.782
 5705SOL    HW218015   6.360   1.616   1.874
 5706SOL     OW18016   2.017   1.293   6.710
 5706SOL    HW118017   2.085   1.354   6.669
 5706SOL    HW218018   2.058   1.204   6.728
 5707SOL     OW18019   3.322   2.351   6.097
 5707SOL    HW118020   3.333   2.253   6.084
 5707SOL    HW218021   3.291   2.393   6.011
 5708SOL     OW18022   5.394   6.706   2.112
 5708SOL    HW118023   5.473   6.645   2.107
 5708SOL    HW218024   5.418   6.796   2.074
 5709SOL     OW18025   1.291   1.128   3.018
 5709SOL    HW118026   1.382   1.148   2.982
 5709SOL    HW218027   1.259   1.205   3.073
 5710SOL     OW18028   2.934   3.975   6.216
 5710SOL    HW118029   2.974   3.967   6.125
 5710SOL    HW218030   3.003   3.955   6.285
 5711SOL     OW18031   4.043   0.988   4.319
 5711SOL    HW118032   3.959   0.993   4.374
 5711SOL    HW218033   4.019   0.989   4.222
 5712SOL     OW18034   6.620   5.949   6.570
 5712SOL    HW118035   6.543   5.985   6.622
 5712SOL    HW218036   6.599   5.857   6.538
 5713SOL     OW18037   6.824   2.212   3.273
 5713SOL    HW118038   6.894   2.141   3.287
 5713SOL    HW218039   6.811   2.225   3.175
 5714SOL     OW18040   1.773   0.811   6.786
 5714SOL    HW118041   1.842   0.869   6.744
 5714SOL    HW218042   1.704   0.868   6.830
 5715SOL     OW18043   1.661   0.042   3.132
 5715SOL    HW118044   1.586   0.022   3.069
 5715SOL    HW218045   1.746   0.052   3.080
 5716SOL     OW18046   2.352   2.818   5.865
 5716SOL    HW118047   2.406   2.810   5.781
 5716SOL    HW218048   2.387   2.894   5.920
 5717SOL     OW18049   0.856   3.692   0.724
 5717SOL    HW118050   0.902   3.668   0.810
 5717SOL    HW218051   0.809   3.611   0.689
 5718SOL     OW18052   2.426   4.539   5.399
 5718SOL    HW118053   2.429   4.481   5.318
 5718SOL    HW218054   2.345   4.518   5.453
 5719SOL     OW18055   3.070   0.812   6.213
 5719SOL    HW118056   3.150   0.870   6.229
 5719SOL    HW218057   3.027   0.838   6.126
 5720SOL     OW18058   1.706   4.758   4.495
 5720SOL    HW118059   1.734   4.750   4.399
 5720SOL    HW218060   1.638   4.831   4.503
 5721SOL     OW18061   0.883   4.846   1.642
 5721SOL    HW118062   0.800   4.864   1.696
 5721SOL    HW218063   0.918   4.755   1.664
 5722SOL     OW18064   5.277   0.095   3.857
 5722SOL    HW118065   5.226   0.180   3.846
 5722SOL    HW218066   5.317   0.092   3.949
 5723SOL     OW18067   1.891   4.779   1.073
 5723SOL    HW118068   1.926   4.766   1.165
 5723SOL    HW218069   1.966   4.803   1.011
 5724SOL     OW18070   5.294   1.692   6.845
 5724SOL    HW118071   5.385   1.692   6.886
 5724SOL    HW218072   5.300   1.658   6.751
 5725SOL     OW18073   4.996   5.677   6.344
 5725SOL    HW118074   4.999   5.771   6.379
 5725SOL    HW218075   4.948   5.676   6.256
 5726SOL     OW18076   5.204   3.496   6.376
 5726SOL    HW118077   5.261   3.446   6.312
 5726SOL    HW218078   5.233   3.476   6.470
 5727SOL     OW18079   6.100   1.838   3.780
 5727SOL    HW118080   6.158   1.882   3.848
 5727SOL    HW218081   6.153   1.770   3.730
 5728SOL     OW18082   6.344   0.540   6.347
 5728SOL    HW118083   6.374   0.554   6.253
 5728SOL    HW218084   6.380   0.614   6.404
 5729SOL     OW18085   0.709   2.644   5.573
 5729SOL    HW118086   0.636   2.605   5.517
 5729SOL    HW218087   0.781   2.575   5.587
 5730SOL     OW18088   4.788   4.789   6.449
 5730SOL    HW118089   4.723   4.716   6.472
 5730SOL    HW218090   4.738   4.867   6.411
 5731SOL     OW18091   3.442   1.199   4.235
 5731SOL    HW118092   3.496   1.115   4.244
 5731SOL    HW218093   3.475   1.266   4.302
 5732SOL     OW18094   5.464   4.107   4.468
 5732SOL    HW118095   5.446   4.009   4.477
 5732SOL    HW218096   5.380   4.158   4.485
 5733SOL     OW18097   2.870   0.640   0.518
 5733SOL    HW118098   2.968   0.637   0.498
 5733SOL    HW218099   2.849   0.725   0.566
 5734SOL     OW18100   2.502   6.225   6.536
 5734SOL    HW118101   2.511   6.126   6.534
 5734SOL    HW218102   2.428   6.251   6.599
 5735SOL     OW18103   4.320   0.441   1.828
 5735SOL    HW118104   4.230   0.481   1.810
 5735SOL    HW218105   4.309   0.361   1.887
 5736SOL     OW18106   5.105   4.220   6.975
 5736SOL    HW118107   5.012   4.194   6.999
 5736SOL    HW218108   5.146   4.272   0.038
 5737SOL     OW18109   4.005   5.317   1.076
 5737SOL    HW118110   4.003   5.410   1.112
 5737SOL    HW218111   4.033   5.319   0.980
 5738SOL     OW18112   2.982   0.732   6.967
 5738SOL    HW118113   2.972   0.661   6.898
 5738SOL    HW218114   2.914   0.718   0.028
 5739SOL     OW18115   2.358   0.850   5.831
 5739SOL    HW118116   2.264   0.850   5.797
 5739SOL    HW218117   2.421   0.825   5.758
 5740SOL     OW18118   5.315   3.404   2.382
 5740SOL    HW118119   5.410   3.432   2.368
 5740SOL    HW218120   5.310   3.337   2.455
 5741SOL     OW18121   0.218   3.260   4.117
 5741SOL    HW118122   0.293   3.320   4.091
 5741SOL    HW218123   0.151   3.312   4.171
 5742SOL     OW18124   5.116   0.290   3.685
 5742SOL    HW118125   5.191   0.249   3.633
 5742SOL    HW218126   5.053   0.336   3.622
 5743SOL     OW18127   4.204   4.445   6.787
 5743SOL    HW118128   4.114   4.411   6.812
 5743SOL    HW218129   4.216   4.538   6.821
 5744SOL     OW18130   5.399   6.810   2.836
 5744SOL    HW118131   5.379   6.905   2.860
 5744SOL    HW218132   5.334   6.779   2.767
 5745SOL     OW18133   1.904   2.168   2.196
 5745SOL    HW118134   1.862   2.249   2.156
 5745SOL    HW218135   1.838   2.122   2.257
 5746SOL     OW18136   4.372   0.066   3.194
 5746SOL    HW118137   4.404   6.983   3.188
 5746SOL    HW218138   4.281   0.072   3.154
 5747SOL     OW18139   0.677   6.090   1.032
 5747SOL    HW118140   0.777   6.086   1.024
 5747SOL    HW218141   0.637   6.105   0.942
 5748SOL     OW18142   0.434   6.031   0.699
 5748SOL    HW118143   0.386   6.051   0.784
 5748SOL    HW218144   0.379   6.060   0.621
 5749SOL     OW18145   1.925   5.982   5.890
 5749SOL    HW118146   1.991   6.030   5.833
 5749SOL    HW218147   1.869   5.922   5.834
 5750SOL     OW18148   6.043   4.320   3.662
 5750SOL    HW118149   5.981   4.314   3.740
 5750SOL    HW218150   6.005   4.382   3.594
 5751SOL     OW18151   1.939   3.553   4.263
 5751SOL    HW118152   1.920   3.539   4.360
 5751SOL    HW218153   2.004   3.628   4.252
 5752SOL     OW18154   4.761   0.468   0.548
 5752SOL    HW118155   4.701   0.495   0.472
 5752SOL    HW218156   4.709   0.414   0.614
 5753SOL     OW18157   3.969   4.082   5.037
 5753SOL    HW118158   3.985   4.170   4.992
 5753SOL    HW218159   3.943   4.014   4.969
 5754SOL     OW18160   1.024   5.950   1.252
 5754SOL    HW118161   0.955   5.879   1.236
 5754SOL    HW218162   0.998   6.003   1.333
 5755SOL     OW18163   0.991   2.586   6.758
 5755SOL    HW118164   1.008   2.504   6.812
 5755SOL    HW218165   0.997   2.564   6.661
 5756SOL     OW18166   5.943   6.181   1.295
 5756SOL    HW118167   6.020   6.128   1.329
 5756SOL    HW218168   5.974   6.247   1.227
 5757SOL     OW18169   6.440   0.288   4.379
 5757SOL    HW118170   6.357   0.291   4.434
 5757SOL    HW218171   6.512   0.341   4.423
 5758SOL     OW18172   6.380   0.171   2.928
 5758SOL    HW118173   6.306   0.222   2.884
 5758SOL    HW218174   6.464   0.181   2.875
 5759SOL     OW18175   3.829   0.245   1.371
 5759SOL    HW118176   3.774   0.208   1.296
 5759SOL    HW218177   3.847   0.342   1.354
 5760SOL     OW18178   0.596   2.890   1.411
 5760SOL    HW118179   0.693   2.883   1.386
 5760SOL    HW218180   0.542   2.830   1.352
 5761SOL     OW18181   5.533   6.865   4.680
 5761SOL    HW118182   5.464   6.897   4.616
 5761SOL    HW218183   5.514   6.901   4.772
 5762SOL     OW18184   6.322   5.527   6.781
 5762SOL    HW118185   6.320   5.427   6.777
 5762SOL    HW218186   6.266   5.559   6.857
 5763SOL     OW18187   5.955   6.977   0.116
 5763SOL    HW118188   6.013   0.031   0.068
 5763SOL    HW218189   6.010   6.896   0.138
 5764SOL     OW18190   4.599   6.255   4.337
 5764SOL    HW118191   4.522   6.219   4.390
 5764SOL    HW218192   4.566   6.302   4.256
 5765SOL     OW18193   6.716   4.925   1.751
 5765SOL    HW118194   6.774   4.997   1.790
 5765SOL    HW218195   6.654   4.965   1.683
 5766SOL     OW18196   0.179   1.675   4.639
 5766SOL    HW118197   0.168   1.614   4.561
 5766SOL    HW218198   0.244   1.747   4.615
 5767SOL     OW18199   2.838   0.210   0.355
 5767SOL    HW118200   2.871   0.208   0.261
 5767SOL    HW218201   2.775   0.286   0.367
 5768SOL     OW18202   0.538   6.941   4.930
 5768SOL    HW118203   0.517   6.848   4.900
 5768SOL    HW218204   0.516   7.006   4.857
 5769SOL     OW18205   1.447   4.171   6.613
 5769SOL    HW118206   1.392   4.135   6.537
 5769SOL    HW218207   1.513   4.237   6.577
 5770SOL     OW18208   1.968   4.937   1.696
 5770SOL    HW118209   1.872   4.959   1.711
 5770SOL    HW218210   1.982   4.838   1.703
 5771SOL     OW18211   2.466   5.300   3.578
 5771SOL    HW118212   2.540   5.320   3.642
 5771SOL    HW218213   2.391   5.364   3.593
 5772SOL     OW18214   3.746   0.852   1.892
 5772SOL    HW118215   3.653   0.836   1.925
 5772SOL    HW218216   3.784   0.766   1.858
 5773SOL     OW18217   4.203   1.795   3.022
 5773SOL    HW118218   4.158   1.847   2.949
 5773SOL    HW218219   4.286   1.752   2.986
 5774SOL     OW18220   0.069   6.724   2.272
 5774SOL    HW118221   0.138   6.770   2.328
 5774SOL    HW218222   0.114   6.657   2.213
 5775SOL     OW18223   6.835   5.844   2.026
 5775SOL    HW118224   6.810   5.843   1.929
 5775SOL    HW218225   6.817   5.934   2.064
 5776SOL     OW18226   2.613   0.464   3.905
 5776SOL    HW118227   2.652   0.547   3.864
 5776SOL    HW218228   2.557   0.416   3.836
 5777SOL     OW18229   1.723   6.188   2.969
 5777SOL    HW118230   1.734   6.115   2.902
 5777SOL    HW218231   1.772   6.164   3.053
 5778SOL     OW18232   0.468   1.481   0.259
 5778SOL    HW118233   0.480   1.444   0.351
 5778SOL    HW218234   0.506   1.573   0.255
 5779SOL     OW18235   5.927   2.013   6.143
 5779SOL    HW118236   5.962   1.960   6.065
 5779SOL    HW218237   5.982   1.992   6.224
 5780SOL     OW18238   5.085   5.482   3.669
 5780SOL    HW118239   4.996   5.441   3.650
 5780SOL    HW218240   5.088   5.574   3.632
 5781SOL     OW18241   0.690   4.079   5.428
 5781SOL    HW118242   0.746   4.153   5.465
 5781SOL    HW218243   0.743   4.029   5.359
 5782SOL     OW18244   0.218   1.395   0.547
 5782SOL    HW118245   0.135   1.394   0.603
 5782SOL    HW218246   0.259   1.486   0.550
 5783SOL     OW18247   1.605   1.823   1.517
 5783SOL    HW118248   1.705   1.815   1.516
 5783SOL    HW218249   1.565   1.736   1.545
 5784SOL     OW18250   0.168   6.611   6.457
 5784SOL    HW118251   0.180   6.634   6.554
 5784SOL    HW218252   0.098   6.670   6.417
 5785SOL     OW18253   1.646   1.416   1.081
 5785SOL    HW118254   1.732   1.423   1.132
 5785SOL    HW218255   1.571   1.407   1.146
 5786SOL     OW18256   6.402   4.347   0.879
 5786SOL    HW118257   6.378   4.254   0.906
 5786SOL    HW218258   6.421   4.402   0.960
 5787SOL     OW18259   2.927   1.841   5.508
 5787SOL    HW118260   2.851   1.795   5.555
 5787SOL    HW218261   2.893   1.922   5.461
 5788SOL     OW18262   2.773   1.056   3.126
 5788SOL    HW118263   2.742   1.006   3.207
 5788SOL    HW218264   2.693   1.085   3.073
 5789SOL     OW18265   4.256   5.024   6.217
 5789SOL    HW118266   4.165   4.995   6.245
 5789SOL    HW218267   4.254   5.122   6.194
 5790SOL     OW18268   0.398   2.723   3.838
 5790SOL    HW118269   0.421   2.710   3.935
 5790SOL    HW218270   0.418   2.817   3.811
 5791SOL     OW18271   2.400   0.654   2.648
 5791SOL    HW118272   2.398   0.569   2.701
 5791SOL    HW218273   2.436   0.635   2.556
 5792SOL     OW18274   0.396   2.584   3.345
 5792SOL    HW118275   0.402   2.679   3.313
 5792SOL    HW218276   0.351   2.582   3.434
 5793SOL     OW18277   6.782   0.745   3.754
 5793SOL    HW118278   6.840   0.747   3.836
 5793SOL    HW218279   6.754   0.651   3.735
 5794SOL     OW18280   3.801   3.753   6.984
 5794SOL    HW118281   3.747   3.778   0.052
 5794SOL    HW218282   3.897   3.744   7.010
 5795SOL     OW18283   6.399   4.148   6.136
 5795SOL    HW118284   6.449   4.119   6.217
 5795SOL    HW218285   6.335   4.076   6.108
 5796SOL     OW18286   3.563   1.479   0.105
 5796SOL    HW118287   3.621   1.560   0.105
 5796SOL    HW218288   3.510   1.476   0.190
 5797SOL     OW18289   3.244   1.802   4.825
 5797SOL    HW118290   3.288   1.878   4.872
 5797SOL    HW218291   3.146   1.802   4.845
 5798SOL     OW18292   0.128   4.776   4.978
 5798SOL    HW118293   0.094   4.828   5.057
 5798SOL    HW218294   0.080   4.805   4.896
 5799SOL     OW18295   5.582   0.143   3.844
 5799SOL    HW118296   5.615   0.232   3.877
 5799SOL    HW218297   5.495   0.121   3.889
 5800SOL     OW18298   5.839   4.811   0.388
 5800SOL    HW118299   5.846   4.911   0.390
 5800SOL    HW218300   5.742   4.785   0.390
 5801SOL     OW18301   1.610   0.869   3.731
 5801SOL    HW118302   1.591   0.908   3.821
 5801SOL    HW218303   1.542   0.800   3.709
 5802SOL     OW18304   0.351   4.043   5.823
 5802SOL    HW118305   0.322   3.957   5.866
 5802SOL    HW218306   0.347   4.034   5.724
 5803SOL     OW18307   0.953   4.676   1.022
 5803SOL    HW118308   1.032   4.731   1.048
 5803SOL    HW218309   0.873   4.736   1.013
 5804SOL     OW18310   5.912   4.168   4.564
 5804SOL    HW118311   5.891   4.103   4.491
 5804SOL    HW218312   6.006   4.200   4.555
 5805SOL     OW18313   5.003   3.474   6.656
 5805SOL    HW118314   4.955   3.494   6.570
 5805SOL    HW218315   5.102   3.473   6.640
 5806SOL     OW18316   0.534   6.387   6.864
 5806SOL    HW118317   0.579   6.472   6.837
 5806SOL    HW218318   0.537   6.378   6.964
 5807SOL     OW18319   1.761   3.267   1.514
 5807SOL    HW118320   1.837   3.213   1.478
 5807SOL    HW218321   1.686   3.268   1.448
 5808SOL     OW18322   5.869   4.083   2.339
 5808SOL    HW118323   5.945   4.097   2.276
 5808SOL    HW218324   5.904   4.076   2.432
 5809SOL     OW18325   0.089   3.472   4.391
 5809SOL    HW118326   0.121   3.382   4.420
 5809SOL    HW218327   0.060   3.524   4.471
 5810SOL     OW18328   2.672   1.919   2.554
 5810SOL    HW118329   2.745   1.905   2.620
 5810SOL    HW218330   2.675   2.014   2.521
 5811SOL     OW18331   2.981   0.540   4.369
 5811SOL    HW118332   3.012   0.579   4.283
 5811SOL    HW218333   3.030   0.456   4.387
 5812SOL     OW18334   4.679   0.329   3.938
 5812SOL    HW118335   4.634   0.366   3.857
 5812SOL    HW218336   4.730   0.402   3.984
 5813SOL     OW18337   1.572   0.668   5.302
 5813SOL    HW118338   1.632   0.588   5.295
 5813SOL    HW218339   1.491   0.654   5.246
 5814SOL     OW18340   6.761   5.094   1.464
 5814SOL    HW118341   6.748   5.193   1.458
 5814SOL    HW218342   6.702   5.058   1.537
 5815SOL     OW18343   4.213   1.531   3.290
 5815SOL    HW118344   4.140   1.594   3.264
 5815SOL    HW218345   4.209   1.514   3.389
 5816SOL     OW18346   4.454   0.853   0.565
 5816SOL    HW118347   4.507   0.861   0.480
 5816SOL    HW218348   4.408   0.764   0.567
 5817SOL     OW18349   4.839   3.106   5.592
 5817SOL    HW118350   4.827   3.119   5.690
 5817SOL    HW218351   4.766   3.047   5.557
 5818SOL     OW18352   6.001   6.913   6.305
 5818SOL    HW118353   6.070   6.878   6.369
 5818SOL    HW218354   6.034   6.903   6.211
 5819SOL     OW18355   5.448   0.490   1.380
 5819SOL    HW118356   5.462   0.422   1.452
 5819SOL    HW218357   5.529   0.493   1.321
 5820SOL     OW18358   5.435   6.330   3.339
 5820SOL    HW118359   5.470   6.419   3.308
 5820SOL    HW218360   5.336   6.335   3.350
 5821SOL     OW18361   2.796   0.683   2.071
 5821SOL    HW118362   2.736   0.682   2.151
 5821SOL    HW218363   2.891   0.676   2.101
 5822SOL     OW18364   6.959   1.529   2.427
 5822SOL    HW118365   0.011   1.601   2.401
 5822SOL    HW218366   6.912   1.495   2.345
 5823SOL     OW18367   2.024   2.091   4.296
 5823SOL    HW118368   1.939   2.052   4.261
 5823SOL    HW218369   2.017   2.102   4.395
 5824SOL     OW18370   5.613   7.009   3.555
 5824SOL    HW118371   5.695   0.001   3.499
 5824SOL    HW218372   5.634   6.965   3.642
 5825SOL     OW18373   2.195   0.490   0.126
 5825SOL    HW118374   2.256   0.421   0.087
 5825SOL    HW218375   2.155   0.545   0.052
 5826SOL     OW18376   6.689   6.687   4.388
 5826SOL    HW118377   6.721   6.711   4.297
 5826SOL    HW218378   6.615   6.620   4.381
 5827SOL     OW18379   0.718   5.674   4.859
 5827SOL    HW118380   0.694   5.762   4.819
 5827SOL    HW218381   0.816   5.671   4.878
 5828SOL     OW18382   0.516   3.360   1.890
 5828SOL    HW118383   0.579   3.435   1.910
 5828SOL    HW218384   0.445   3.391   1.827
 5829SOL     OW18385   2.279   1.404   1.561
 5829SOL    HW118386   2.328   1.442   1.483
 5829SOL    HW218387   2.230   1.321   1.532
 5830SOL     OW18388   3.110   1.116   6.144
 5830SOL    HW118389   3.054   1.057   6.086
 5830SOL    HW218390   3.110   1.209   6.108
 5831SOL     OW18391   5.480   6.891   3.350
 5831SOL    HW118392   5.485   6.958   3.276
 5831SOL    HW218393   5.520   6.930   3.433
 5832SOL     OW18394   4.079   3.892   5.237
 5832SOL    HW118395   4.065   3.944   5.152
 5832SOL    HW218396   3.999   3.836   5.255
 5833SOL     OW18397   3.384   3.330   4.306
 5833SOL    HW118398   3.411   3.249   4.357
 5833SOL    HW218399   3.303   3.309   4.251
 5834SOL     OW18400   5.921   1.941   0.658
 5834SOL    HW118401   5.875   2.026   0.686
 5834SOL    HW218402   5.861   1.889   0.598
 5835SOL     OW18403   4.768   2.196   3.744
 5835SOL    HW118404   4.856   2.236   3.768
 5835SOL    HW218405   4.704   2.205   3.820
 5836SOL     OW18406   3.606   6.412   1.985
 5836SOL    HW118407   3.680   6.381   2.044
 5836SOL    HW218408   3.624   6.382   1.891
 5837SOL     OW18409   4.590   4.066   0.483
 5837SOL    HW118410   4.668   4.004   0.491
 5837SOL    HW218411   4.566   4.077   0.386
 5838SOL     OW18412   1.382   1.221   5.524
 5838SOL    HW118413   1.345   1.130   5.508
 5838SOL    HW218414   1.482   1.219   5.515
 5839SOL     OW18415   6.400   3.258   3.013
 5839SOL    HW118416   6.408   3.353   2.984
 5839SOL    HW218417   6.465   3.202   2.962
 5840SOL     OW18418   1.525   5.327   0.009
 5840SOL    HW118419   1.548   5.316   0.106
 5840SOL    HW218420   1.591   5.278   6.964
 5841SOL     OW18421   6.515   2.539   3.584
 5841SOL    HW118422   6.462   2.488   3.651
 5841SOL    HW218423   6.529   2.633   3.616
 5842SOL     OW18424   3.932   2.757   1.203
 5842SOL    HW118425   4.029   2.745   1.185
 5842SOL    HW218426   3.919   2.792   1.296
 5843SOL     OW18427   2.129   3.296   2.328
 5843SOL    HW118428   2.118   3.328   2.422
 5843SOL    HW218429   2.164   3.370   2.271
 5844SOL     OW18430   0.308   5.860   6.678
 5844SOL    HW118431   0.264   5.949   6.671
 5844SOL    HW218432   0.346   5.834   6.588
 5845SOL     OW18433   0.801   2.504   4.109
 5845SOL    HW118434   0.844   2.589   4.077
 5845SOL    HW218435   0.805   2.436   4.036
 5846SOL     OW18436   0.159   2.504   5.430
 5846SOL    HW118437   0.109   2.585   5.459
 5846SOL    HW218438   0.220   2.474   5.504
 5847SOL     OW18439   2.267   2.794   2.250
 5847SOL    HW118440   2.228   2.877   2.289
 5847SOL    HW218441   2.292   2.810   2.154
 5848SOL     OW18442   1.419   4.865   3.316
 5848SOL    HW118443   1.385   4.948   3.271
 5848SOL    HW218444   1.430   4.883   3.414
 5849SOL     OW18445   2.386   0.404   5.419
 5849SOL    HW118446   2.462   0.348   5.452
 5849SOL    HW218447   2.303   0.380   5.468
 5850SOL     OW18448   0.915   4.804   2.114
 5850SOL    HW118449   0.916   4.900   2.088
 5850SOL    HW218450   0.950   4.794   2.207
 5851SOL     OW18451   6.248   4.009   1.871
 5851SOL    HW118452   6.275   3.950   1.947
 5851SOL    HW218453   6.164   4.058   1.895
 5852SOL     OW18454   3.850   6.012   2.208
 5852SOL    HW118455   3.899   6.020   2.294
 5852SOL    HW218456   3.814   5.919   2.198
 5853SOL     OW18457   2.799   4.480   6.121
 5853SOL    HW118458   2.805   4.528   6.209
 5853SOL    HW218459   2.787   4.382   6.138
 5854SOL     OW18460   6.962   1.010   5.831
 5854SOL    HW118461   6.898   0.972   5.898
 5854SOL    HW218462   6.926   0.996   5.739
 5855SOL     OW18463   1.357   1.159   4.570
 5855SOL    HW118464   1.347   1.081   4.632
 5855SOL    HW218465   1.431   1.218   4.601
 5856SOL     OW18466   1.543   4.890   3.620
 5856SOL    HW118467   1.509   4.845   3.703
 5856SOL    HW218468   1.591   4.824   3.563
 5857SOL     OW18469   6.313   3.147   5.135
 5857SOL    HW118470   6.217   3.141   5.160
 5857SOL    HW218471   6.322   3.143   5.035
 5858SOL     OW18472   3.822   1.355   2.638
 5858SOL    HW118473   3.735   1.331   2.682
 5858SOL    HW218474   3.889   1.379   2.708
 5859SOL     OW18475   6.329   6.923   1.263
 5859SOL    HW118476   6.301   6.925   1.167
 5859SOL    HW218477   6.407   6.985   1.276
 5860SOL     OW18478   1.681   4.211   2.010
 5860SOL    HW118479   1.699   4.214   2.109
 5860SOL    HW218480   1.609   4.144   1.992
 5861SOL     OW18481   5.681   2.039   4.230
 5861SOL    HW118482   5.648   2.060   4.322
 5861SOL    HW218483   5.656   1.946   4.206
 5862SOL     OW18484   4.148   4.713   2.784
 5862SOL    HW118485   4.067   4.740   2.835
 5862SOL    HW218486   4.139   4.742   2.689
 5863SOL     OW18487   2.125   0.876   5.692
 5863SOL    HW118488   2.059   0.873   5.766
 5863SOL    HW218489   2.158   0.969   5.680
 5864SOL     OW18490   4.290   4.335   1.648
 5864SOL    HW118491   4.358   4.326   1.575
 5864SOL    HW218492   4.327   4.300   1.734
 5865SOL     OW18493   4.762   0.870   3.538
 5865SOL    HW118494   4.709   0.887   3.455
 5865SOL    HW218495   4.855   0.841   3.514
 5866SOL     OW18496   3.837   6.791   5.587
 5866SOL    HW118497   3.807   6.866   5.528
 5866SOL    HW218498   3.874   6.828   5.672
 5867SOL     OW18499   0.538   2.855   1.689
 5867SOL    HW118500   0.585   2.927   1.739
 5867SOL    HW218501   0.566   2.858   1.593
 5868SOL     OW18502   1.870   6.790   5.438
 5868SOL    HW118503   1.792   6.743   5.480
 5868SOL    HW218504   1.955   6.746   5.467
 5869SOL     OW18505   2.721   4.818   4.499
 5869SOL    HW118506   2.622   4.829   4.493
 5869SOL    HW218507   2.747   4.793   4.592
 5870SOL     OW18508   4.790   5.304   4.042
 5870SOL    HW118509   4.858   5.263   3.981
 5870SOL    HW218510   4.819   5.293   4.137
 5871SOL     OW18511   3.668   3.096   0.599
 5871SOL    HW118512   3.622   3.160   0.660
 5871SOL    HW218513   3.760   3.079   0.633
 5872SOL     OW18514   3.481   5.719   5.949
 5872SOL    HW118515   3.431   5.805   5.949
 5872SOL    HW218516   3.528   5.708   5.862
 5873SOL     OW18517   3.097   3.210   0.240
 5873SOL    HW118518   3.171   3.184   0.302
 5873SOL    HW218519   3.043   3.129   0.217
 5874SOL     OW18520   2.135   3.441   1.650
 5874SOL    HW118521   2.208   3.471   1.711
 5874SOL    HW218522   2.175   3.396   1.570
 5875SOL     OW18523   3.311   1.540   6.948
 5875SOL    HW118524   3.240   1.579   7.007
 5875SOL    HW218525   3.361   1.613   6.903
 5876SOL     OW18526   3.085   3.491   6.782
 5876SOL    HW118527   3.004   3.533   6.821
 5876SOL    HW218528   3.148   3.465   6.856
 5877SOL     OW18529   6.542   0.738   2.490
 5877SOL    HW118530   6.451   0.736   2.532
 5877SOL    HW218531   6.545   0.670   2.416
 5878SOL     OW18532   4.530   4.792   2.099
 5878SOL    HW118533   4.517   4.757   2.192
 5878SOL    HW218534   4.479   4.878   2.089
 5879SOL     OW18535   3.627   3.573   6.217
 5879SOL    HW118536   3.653   3.576   6.121
 5879SOL    HW218537   3.561   3.646   6.236
 5880SOL     OW18538   4.846   3.070   5.881
 5880SOL    HW118539   4.859   2.984   5.831
 5880SOL    HW218540   4.900   3.067   5.965
 5881SOL     OW18541   0.924   6.389   1.815
 5881SOL    HW118542   1.010   6.426   1.781
 5881SOL    HW218543   0.942   6.328   1.892
 5882SOL     OW18544   1.991   5.592   6.132
 5882SOL    HW118545   2.036   5.681   6.136
 5882SOL    HW218546   1.919   5.588   6.203
 5883SOL     OW18547   0.086   4.533   1.233
 5883SOL    HW118548   0.021   4.510   1.160
 5883SOL    HW218549   0.085   4.460   1.301
 5884SOL     OW18550   6.236   1.661   3.628
 5884SOL    HW118551   6.227   1.602   3.548
 5884SOL    HW218552   6.262   1.607   3.708
 5885SOL     OW18553   0.242   5.187   6.712
 5885SOL    HW118554   0.235   5.258   6.782
 5885SOL    HW218555   0.199   5.103   6.746
 5886SOL     OW18556   1.798   3.837   3.586
 5886SOL    HW118557   1.707   3.877   3.576
 5886SOL    HW218558   1.791   3.751   3.636
 5887SOL     OW18559   2.102   2.561   0.933
 5887SOL    HW118560   2.177   2.539   0.996
 5887SOL    HW218561   2.131   2.541   0.840
 5888SOL     OW18562   3.414   0.049   1.092
 5888SOL    HW118563   3.417   0.085   0.999
 5888SOL    HW218564   3.335   0.089   1.140
 5889SOL     OW18565   6.430   0.655   1.882
 5889SOL    HW118566   6.369   0.702   1.946
 5889SOL    HW218567   6.522   0.693   1.890
 5890SOL     OW18568   2.903   6.402   2.555
 5890SOL    HW118569   2.975   6.445   2.608
 5890SOL    HW218570   2.906   6.435   2.461
 5891SOL     OW18571   2.640   3.474   0.757
 5891SOL    HW118572   2.671   3.562   0.721
 5891SOL    HW218573   2.545   3.458   0.730
 5892SOL     OW18574   0.977   3.607   0.970
 5892SOL    HW118575   1.062   3.560   0.945
 5892SOL    HW218576   0.997   3.678   1.037
 5893SOL     OW18577   0.358   5.619   2.362
 5893SOL    HW118578   0.308   5.703   2.342
 5893SOL    HW218579   0.440   5.640   2.415
 5894SOL     OW18580   2.242   5.470   5.701
 5894SOL    HW118581   2.160   5.516   5.669
 5894SOL    HW218582   2.221   5.375   5.722
 5895SOL     OW18583   5.709   2.766   4.412
 5895SOL    HW118584   5.615   2.791   4.389
 5895SOL    HW218585   5.745   2.705   4.342
 5896SOL     OW18586   5.678   2.336   2.026
 5896SOL    HW118587   5.754   2.282   2.061
 5896SOL    HW218588   5.595   2.316   2.078
 5897SOL     OW18589   4.448   2.199   0.850
 5897SOL    HW118590   4.447   2.166   0.944
 5897SOL    HW218591   4.401   2.287   0.844
 5898SOL     OW18592   1.911   1.591   5.336
 5898SOL    HW118593   1.845   1.528   5.295
 5898SOL    HW218594   1.996   1.589   5.283
 5899SOL     OW18595   6.693   5.205   5.762
 5899SOL    HW118596   6.759   5.269   5.724
 5899SOL    HW218597   6.718   5.112   5.735
 5900SOL     OW18598   6.003   6.341   3.597
 5900SOL    HW118599   6.098   6.370   3.585
 5900SOL    HW218600   5.963   6.389   3.676
 5901SOL     OW18601   1.823   0.230   5.534
 5901SOL    HW118602   1.917   0.207   5.509
 5901SOL    HW218603   1.824   0.301   5.604
 5902SOL     OW18604   4.940   4.597   5.382
 5902SOL    HW118605   4.944   4.583   5.481
 5902SOL    HW218606   4.851   4.633   5.357
 5903SOL     OW18607   6.285   1.795   5.927
 5903SOL    HW118608   6.295   1.696   5.917
 5903SOL    HW218609   6.318   1.841   5.845
 5904SOL     OW18610   2.206   4.536   2.519
 5904SOL    HW118611   2.269   4.528   2.597
 5904SOL    HW218612   2.198   4.632   2.493
 5905SOL     OW18613   6.341   1.749   4.276
 5905SOL    HW118614   6.396   1.682   4.327
 5905SOL    HW218615   6.400   1.825   4.247
 5906SOL     OW18616   4.616   0.680   5.283
 5906SOL    HW118617   4.558   0.694   5.364
 5906SOL    HW218618   4.710   0.659   5.313
 5907SOL     OW18619   1.688   2.851   6.835
 5907SOL    HW118620   1.681   2.858   6.735
 5907SOL    HW218621   1.601   2.878   6.876
 5908SOL     OW18622   4.563   2.635   5.917
 5908SOL    HW118623   4.598   2.653   6.009
 5908SOL    HW218624   4.469   2.670   5.909
 5909SOL     OW18625   6.664   5.471   4.563
 5909SOL    HW118626   6.660   5.488   4.465
 5909SOL    HW218627   6.759   5.475   4.594
 5910SOL     OW18628   2.124   3.808   1.495
 5910SOL    HW118629   2.036   3.784   1.535
 5910SOL    HW218630   2.197   3.778   1.555
 5911SOL     OW18631   5.855   6.582   6.691
 5911SOL    HW118632   5.820   6.498   6.648
 5911SOL    HW218633   5.910   6.632   6.624
 5912SOL     OW18634   6.917   3.634   6.802
 5912SOL    HW118635   6.957   3.718   6.766
 5912SOL    HW218636   6.834   3.612   6.751
 5913SOL     OW18637   1.808   1.465   6.085
 5913SOL    HW118638   1.760   1.459   5.998
 5913SOL    HW218639   1.827   1.561   6.106
 5914SOL     OW18640   1.783   6.160   0.322
 5914SOL    HW118641   1.696   6.123   0.353
 5914SOL    HW218642   1.768   6.246   0.272
 5915SOL     OW18643   4.998   2.976   2.680
 5915SOL    HW118644   4.977   3.038   2.604
 5915SOL    HW218645   4.982   2.882   2.651
 5916SOL     OW18646   3.712   0.797   5.830
 5916SOL    HW118647   3.690   0.820   5.925
 5916SOL    HW218648   3.698   0.699   5.815
 5917SOL     OW18649   3.039   3.451   3.079
 5917SOL    HW118650   2.989   3.451   3.166
 5917SOL    HW218651   3.130   3.412   3.093
 5918SOL     OW18652   2.142   3.160   4.169
 5918SOL    HW118653   2.209   3.147   4.242
 5918SOL    HW218654   2.173   3.113   4.087
 5919SOL     OW18655   1.446   3.154   6.724
 5919SOL    HW118656   1.371   3.136   6.661
 5919SOL    HW218657   1.434   3.244   6.766
 5920SOL     OW18658   3.590   6.417   6.763
 5920SOL    HW118659   3.561   6.323   6.744
 5920SOL    HW218660   3.689   6.423   6.756
 5921SOL     OW18661   3.857   4.804   5.235
 5921SOL    HW118662   3.933   4.741   5.250
 5921SOL    HW218663   3.889   4.884   5.185
 5922SOL     OW18664   5.626   4.102   2.223
 5922SOL    HW118665   5.716   4.086   2.265
 5922SOL    HW218666   5.630   4.078   2.126
 5923SOL     OW18667   0.230   6.776   4.086
 5923SOL    HW118668   0.271   6.844   4.025
 5923SOL    HW218669   0.177   6.823   4.156
 5924SOL     OW18670   5.349   1.934   4.526
 5924SOL    HW118671   5.326   2.014   4.470
 5924SOL    HW218672   5.378   1.965   4.617
 5925SOL     OW18673   5.694   6.191   1.049
 5925SOL    HW118674   5.610   6.217   1.096
 5925SOL    HW218675   5.772   6.199   1.111
 5926SOL     OW18676   3.505   5.091   1.463
 5926SOL    HW118677   3.457   5.161   1.409
 5926SOL    HW218678   3.439   5.045   1.522
 5927SOL     OW18679   3.157   6.100   2.797
 5927SOL    HW118680   3.183   6.137   2.709
 5927SOL    HW218681   3.215   6.139   2.869
 5928SOL     OW18682   1.247   6.920   2.007
 5928SOL    HW118683   1.327   6.876   1.968
 5928SOL    HW218684   1.253   0.007   1.996
 5929SOL     OW18685   1.266   7.004   6.241
 5929SOL    HW118686   1.247   0.057   6.315
 5929SOL    HW218687   1.353   0.017   6.197
 5930SOL     OW18688   6.777   2.028   4.709
 5930SOL    HW118689   6.680   2.011   4.698
 5930SOL    HW218690   6.825   1.943   4.729
 5931SOL     OW18691   6.594   5.585   1.295
 5931SOL    HW118692   6.571   5.641   1.216
 5931SOL    HW218693   6.576   5.488   1.275
 5932SOL     OW18694   3.162   6.729   0.672
 5932SOL    HW118695   3.176   6.680   0.758
 5932SOL    HW218696   3.069   6.711   0.639
 5933SOL     OW18697   6.542   3.738   2.941
 5933SOL    HW118698   6.634   3.775   2.955
 5933SOL    HW218699   6.474   3.796   2.985
 5934SOL     OW18700   3.405   3.994   2.963
 5934SOL    HW118701   3.349   3.915   2.939
 5934SOL    HW218702   3.501   3.965   2.970
 5935SOL     OW18703   4.167   3.406   4.108
 5935SOL    HW118704   4.265   3.390   4.118
 5935SOL    HW218705   4.117   3.328   4.145
 5936SOL     OW18706   5.021   5.948   6.460
 5936SOL    HW118707   4.938   5.968   6.512
 5936SOL    HW218708   5.098   5.937   6.523
 5937SOL     OW18709   2.139   3.466   0.874
 5937SOL    HW118710   2.055   3.466   0.820
 5937SOL    HW218711   2.176   3.559   0.878
 5938SOL     OW18712   2.077   4.555   2.163
 5938SOL    HW118713   1.993   4.563   2.110
 5938SOL    HW218714   2.059   4.503   2.247
 5939SOL     OW18715   3.550   0.191   3.073
 5939SOL    HW118716   3.484   0.142   3.131
 5939SOL    HW218717   3.597   0.126   3.013
 5940SOL     OW18718   3.977   5.930   3.081
 5940SOL    HW118719   3.949   6.013   3.033
 5940SOL    HW218720   4.051   5.951   3.145
 5941SOL     OW18721   5.956   5.045   2.184
 5941SOL    HW118722   6.009   5.098   2.118
 5941SOL    HW218723   6.017   5.006   2.253
 5942SOL     OW18724   4.690   2.627   6.163
 5942SOL    HW118725   4.738   2.548   6.202
 5942SOL    HW218726   4.754   2.703   6.151
 5943SOL     OW18727   1.576   5.981   0.395
 5943SOL    HW118728   1.493   5.932   0.423
 5943SOL    HW218729   1.649   5.962   0.461
 5944SOL     OW18730   5.476   1.905   2.790
 5944SOL    HW118731   5.523   1.945   2.711
 5944SOL    HW218732   5.516   1.941   2.874
 5945SOL     OW18733   6.751   4.869   5.938
 5945SOL    HW118734   6.845   4.896   5.917
 5945SOL    HW218735   6.751   4.798   6.009
 5946SOL     OW18736   4.233   3.095   5.296
 5946SOL    HW118737   4.170   3.092   5.374
 5946SOL    HW218738   4.243   3.002   5.259
 5947SOL     OW18739   4.381   3.549   1.685
 5947SOL    HW118740   4.477   3.577   1.692
 5947SOL    HW218741   4.322   3.624   1.718
 5948SOL     OW18742   3.521   4.871   2.192
 5948SOL    HW118743   3.580   4.871   2.111
 5948SOL    HW218744   3.466   4.787   2.193
 5949SOL     OW18745   4.543   4.805   1.452
 5949SOL    HW118746   4.502   4.768   1.535
 5949SOL    HW218747   4.620   4.747   1.425
 5950SOL     OW18748   6.519   2.430   4.014
 5950SOL    HW118749   6.434   2.464   4.055
 5950SOL    HW218750   6.513   2.438   3.914
 5951SOL     OW18751   2.153   5.589   3.515
 5951SOL    HW118752   2.144   5.531   3.435
 5951SOL    HW218753   2.220   5.550   3.578
 5952SOL     OW18754   0.230   6.709   4.461
 5952SOL    HW118755   0.233   6.626   4.516
 5952SOL    HW218756   0.248   6.788   4.520
 5953SOL     OW18757   0.153   3.263   6.256
 5953SOL    HW118758   0.069   3.257   6.311
 5953SOL    HW218759   0.188   3.356   6.259
 5954SOL     OW18760   0.194   4.934   6.821
 5954SOL    HW118761   0.185   4.847   6.772
 5954SOL    HW218762   0.168   4.921   6.916
 5955SOL     OW18763   5.363   5.319   1.702
 5955SOL    HW118764   5.338   5.237   1.649
 5955SOL    HW218765   5.351   5.301   1.799
 5956SOL     OW18766   5.814   2.499   6.893
 5956SOL    HW118767   5.741   2.476   6.958
 5956SOL    HW218768   5.793   2.457   6.804
 5957SOL     OW18769   5.840   6.374   6.099
 5957SOL    HW118770   5.886   6.382   6.188
 5957SOL    HW218771   5.744   6.398   6.109
 5958SOL     OW18772   6.865   5.461   1.977
 5958SOL    HW118773   6.855   5.430   1.882
 5958SOL    HW218774   6.915   5.548   1.979
 5959SOL     OW18775   1.985   1.792   5.921
 5959SOL    HW118776   2.045   1.716   5.895
 5959SOL    HW218777   2.029   1.878   5.895
 5960SOL     OW18778   3.224   0.719   3.429
 5960SOL    HW118779   3.284   0.795   3.403
 5960SOL    HW218780   3.158   0.702   3.356
 5961SOL     OW18781   3.131   0.693   5.288
 5961SOL    HW118782   3.226   0.718   5.309
 5961SOL    HW218783   3.105   0.734   5.201
 5962SOL     OW18784   5.263   5.132   2.298
 5962SOL    HW118785   5.292   5.090   2.212
 5962SOL    HW218786   5.343   5.174   2.342
 5963SOL     OW18787   4.072   3.675   2.279
 5963SOL    HW118788   4.090   3.591   2.330
 5963SOL    HW218789   4.002   3.729   2.326
 5964SOL     OW18790   0.764   5.417   5.386
 5964SOL    HW118791   0.838   5.390   5.447
 5964SOL    HW218792   0.692   5.461   5.439
 5965SOL     OW18793   2.838   2.630   5.613
 5965SOL    HW118794   2.873   2.652   5.704
 5965SOL    HW218795   2.838   2.531   5.599
 5966SOL     OW18796   2.742   6.123   3.980
 5966SOL    HW118797   2.657   6.176   3.976
 5966SOL    HW218798   2.817   6.175   3.941
 5967SOL     OW18799   4.794   6.759   2.548
 5967SOL    HW118800   4.751   6.669   2.543
 5967SOL    HW218801   4.729   6.828   2.517
 5968SOL     OW18802   6.869   2.875   4.186
 5968SOL    HW118803   6.883   2.974   4.188
 5968SOL    HW218804   6.952   2.830   4.152
 5969SOL     OW18805   5.963   3.591   3.585
 5969SOL    HW118806   5.932   3.685   3.572
 5969SOL    HW218807   6.048   3.576   3.533
 5970SOL     OW18808   1.304   2.938   3.071
 5970SOL    HW118809   1.368   2.899   3.005
 5970SOL    HW218810   1.303   3.038   3.061
 5971SOL     OW18811   2.421   6.934   2.480
 5971SOL    HW118812   2.453   6.917   2.574
 5971SOL    HW218813   2.324   6.958   2.481
 5972SOL     OW18814   4.861   6.298   0.273
 5972SOL    HW118815   4.819   6.238   0.341
 5972SOL    HW218816   4.799   6.373   0.252
 5973SOL     OW18817   1.203   4.619   3.402
 5973SOL    HW118818   1.254   4.688   3.350
 5973SOL    HW218819   1.158   4.556   3.339
 5974SOL     OW18820   0.617   3.767   6.541
 5974SOL    HW118821   0.630   3.852   6.591
 5974SOL    HW218822   0.619   3.786   6.443
 5975SOL     OW18823   2.325   2.972   0.649
 5975SOL    HW118824   2.345   2.900   0.714
 5975SOL    HW218825   2.326   3.061   0.695
 5976SOL     OW18826   3.015   3.164   5.034
 5976SOL    HW118827   2.973   3.190   4.947
 5976SOL    HW218828   3.081   3.233   5.061
 5977SOL     OW18829   0.909   3.686   2.405
 5977SOL    HW118830   0.875   3.722   2.492
 5977SOL    HW218831   0.850   3.612   2.373
 5978SOL     OW18832   5.298   5.083   1.557
 5978SOL    HW118833   5.271   5.037   1.642
 5978SOL    HW218834   5.217   5.094   1.499
 5979SOL     OW18835   6.980   0.713   3.551
 5979SOL    HW118836   7.000   0.633   3.495
 5979SOL    HW218837   6.962   0.685   3.645
 5980SOL     OW18838   6.046   4.055   0.088
 5980SOL    HW118839   5.974   4.062   0.157
 5980SOL    HW218840   6.108   4.133   0.097
 5981SOL     OW18841   5.172   1.017   2.393
 5981SOL    HW118842   5.220   1.042   2.478
 5981SOL    HW218843   5.235   1.025   2.316
 5982SOL     OW18844   6.688   1.757   6.388
 5982SOL    HW118845   6.695   1.779   6.291
 5982SOL    HW218846   6.659   1.663   6.400
 5983SOL     OW18847   1.639   1.041   4.634
 5983SOL    HW118848   1.607   1.133   4.612
 5983SOL    HW218849   1.630   1.025   4.733
 5984SOL     OW18850   0.180   6.508   5.022
 5984SOL    HW118851   0.133   6.426   4.987
 5984SOL    HW218852   0.124   6.551   5.092
 5985SOL     OW18853   4.253   1.601   4.051
 5985SOL    HW118854   4.163   1.603   4.095
 5985SOL    HW218855   4.292   1.693   4.050
 5986SOL     OW18856   3.366   3.213   2.546
 5986SOL    HW118857   3.291   3.193   2.610
 5986SOL    HW218858   3.445   3.156   2.569
 5987SOL     OW18859   3.670   6.862   5.022
 5987SOL    HW118860   3.770   6.856   5.022
 5987SOL    HW218861   3.641   6.944   4.973
 5988SOL     OW18862   4.133   6.563   4.068
 5988SOL    HW118863   4.133   6.658   4.099
 5988SOL    HW218864   4.051   6.517   4.102
 5989SOL     OW18865   3.286   1.015   5.888
 5989SOL    HW118866   3.214   1.034   5.822
 5989SOL    HW218867   3.352   1.090   5.890
 5990SOL     OW18868   3.143   4.624   1.158
 5990SOL    HW118869   3.129   4.605   1.255
 5990SOL    HW218870   3.062   4.670   1.121
 5991SOL     OW18871   2.804   4.959   4.832
 5991SOL    HW118872   2.750   4.876   4.819
 5991SOL    HW218873   2.866   4.948   4.910
 5992SOL     OW18874   4.367   0.134   3.791
 5992SOL    HW118875   4.430   0.073   3.840
 5992SOL    HW218876   4.371   0.116   3.693
 5993SOL     OW18877   2.727   5.843   5.323
 5993SOL    HW118878   2.708   5.802   5.413
 5993SOL    HW218879   2.825   5.850   5.310
 5994SOL     OW18880   6.478   2.226   2.889
 5994SOL    HW118881   6.540   2.168   2.837
 5994SOL    HW218882   6.451   2.305   2.834
 5995SOL     OW18883   6.988   4.837   1.463
 5995SOL    HW118884   0.057   4.783   1.489
 5995SOL    HW218885   7.011   4.895   1.384
 5996SOL     OW18886   0.016   5.337   5.457
 5996SOL    HW118887   0.081   5.352   5.382
 5996SOL    HW218888   6.969   5.417   5.467
 5997SOL     OW18889   0.188   6.567   2.106
 5997SOL    HW118890   0.159   6.482   2.062
 5997SOL    HW218891   0.283   6.560   2.133
 5998SOL     OW18892   5.460   2.242   2.644
 5998SOL    HW118893   5.436   2.239   2.741
 5998SOL    HW218894   5.383   2.279   2.592
 5999SOL     OW18895   1.173   1.489   2.707
 5999SOL    HW118896   1.119   1.521   2.785
 5999SOL    HW218897   1.194   1.391   2.719
 6000SOL     OW18898   4.743   5.577   2.081
 6000SOL    HW118899   4.829   5.572   2.030
 6000SOL    HW218900   4.746   5.654   2.145
 6001SOL     OW18901   6.818   2.177   0.047
 6001SOL    HW118902   6.753   2.191   6.984
 6001SOL    HW218903   6.777   2.207   0.133
 6002SOL     OW18904   2.147   0.439   1.549
 6002SOL    HW118905   2.051   0.412   1.553
 6002SOL    HW218906   2.204   0.367   1.589
 6003SOL     OW18907   4.709   4.231   4.575
 6003SOL    HW118908   4.714   4.307   4.510
 6003SOL    HW218909   4.705   4.145   4.525
 6004SOL     OW18910   0.262   3.315   2.646
 6004SOL    HW118911   0.361   3.309   2.629
 6004SOL    HW218912   0.221   3.377   2.580
 6005SOL     OW18913   2.924   5.740   2.938
 6005SOL    HW118914   2.935   5.684   3.020
 6005SOL    HW218915   3.008   5.735   2.883
 6006SOL     OW18916   2.635   6.910   6.744
 6006SOL    HW118917   2.562   6.910   6.675
 6006SOL    HW218918   2.650   6.817   6.777
 6007SOL     OW18919   6.069   2.846   4.183
 6007SOL    HW118920   5.976   2.838   4.148
 6007SOL    HW218921   6.134   2.851   4.106
 6008SOL     OW18922   2.770   4.539   6.567
 6008SOL    HW118923   2.698   4.504   6.627
 6008SOL    HW218924   2.850   4.562   6.622
 6009SOL     OW18925   2.627   2.011   4.419
 6009SOL    HW118926   2.553   2.050   4.365
 6009SOL    HW218927   2.668   1.934   4.370
 6010SOL     OW18928   1.741   3.821   3.191
 6010SOL    HW118929   1.825   3.869   3.166
 6010SOL    HW218930   1.667   3.886   3.204
 6011SOL     OW18931   5.348   3.470   2.775
 6011SOL    HW118932   5.277   3.536   2.750
 6011SOL    HW218933   5.421   3.517   2.825
 6012SOL     OW18934   6.747   3.214   0.619
 6012SOL    HW118935   6.678   3.213   0.546
 6012SOL    HW218936   6.768   3.309   0.643
 6013SOL     OW18937   5.385   1.153   2.715
 6013SOL    HW118938   5.319   1.082   2.740
 6013SOL    HW218939   5.364   1.237   2.766
 6014SOL     OW18940   5.706   0.119   0.959
 6014SOL    HW118941   5.765   0.052   0.914
 6014SOL    HW218942   5.756   0.206   0.967
 6015SOL     OW18943   6.068   1.806   4.254
 6015SOL    HW118944   6.164   1.779   4.260
 6015SOL    HW218945   6.027   1.763   4.173
 6016SOL     OW18946   1.646   0.189   5.253
 6016SOL    HW118947   1.551   0.173   5.226
 6016SOL    HW218948   1.678   0.113   5.309
 6017SOL     OW18949   6.295   4.812   2.581
 6017SOL    HW118950   6.339   4.814   2.671
 6017SOL    HW218951   6.240   4.729   2.574
 6018SOL     OW18952   2.751   3.868   0.844
 6018SOL    HW118953   2.851   3.878   0.851
 6018SOL    HW218954   2.730   3.802   0.771
 6019SOL     OW18955   3.485   0.060   4.447
 6019SOL    HW118956   3.547   0.101   4.514
 6019SOL    HW218957   3.507   0.094   4.356
 6020SOL     OW18958   3.854   1.035   2.871
 6020SOL    HW118959   3.829   1.010   2.965
 6020SOL    HW218960   3.779   1.087   2.830
 6021SOL     OW18961   4.452   1.474   2.715
 6021SOL    HW118962   4.376   1.447   2.656
 6021SOL    HW218963   4.499   1.393   2.749
 6022SOL     OW18964   4.207   1.237   4.093
 6022SOL    HW118965   4.189   1.141   4.070
 6022SOL    HW218966   4.275   1.242   4.166
 6023SOL     OW18967   6.879   1.221   2.402
 6023SOL    HW118968   6.812   1.168   2.455
 6023SOL    HW218969   6.888   1.312   2.443
 6024SOL     OW18970   0.655   4.708   2.021
 6024SOL    HW118971   0.743   4.743   2.055
 6024SOL    HW218972   0.645   4.612   2.048
 6025SOL     OW18973   4.901   1.806   1.231
 6025SOL    HW118974   4.826   1.750   1.267
 6025SOL    HW218975   4.877   1.838   1.140
 6026SOL     OW18976   6.723   5.008   5.140
 6026SOL    HW118977   6.784   4.929   5.131
 6026SOL    HW218978   6.682   5.008   5.231
 6027SOL     OW18979   2.978   3.495   0.250
 6027SOL    HW118980   2.973   3.539   0.340
 6027SOL    HW218981   3.056   3.433   0.248
 6028SOL     OW18982   1.192   3.319   0.302
 6028SOL    HW118983   1.197   3.409   0.259
 6028SOL    HW218984   1.230   3.324   0.395
 6029SOL     OW18985   2.287   6.092   1.313
 6029SOL    HW118986   2.334   6.004   1.303
 6029SOL    HW218987   2.216   6.084   1.383
 6030SOL     OW18988   1.655   0.615   1.800
 6030SOL    HW118989   1.611   0.703   1.781
 6030SOL    HW218990   1.669   0.566   1.714
 6031SOL     OW18991   5.212   0.043   4.866
 6031SOL    HW118992   5.307   0.013   4.864
 6031SOL    HW218993   5.180   0.059   4.773
 6032SOL     OW18994   0.517   3.298   2.594
 6032SOL    HW118995   0.486   3.277   2.501
 6032SOL    HW218996   0.617   3.290   2.598
 6033SOL     OW18997   1.005   0.747   3.928
 6033SOL    HW118998   1.077   0.810   3.958
 6033SOL    HW218999   0.946   0.725   4.005
 6034SOL     OW19000   1.744   4.258   5.158
 6034SOL    HW119001   1.781   4.351   5.152
 6034SOL    HW219002   1.702   4.245   5.249
 6035SOL     OW19003   6.065   0.835   4.094
 6035SOL    HW119004   5.980   0.863   4.050
 6035SOL    HW219005   6.046   0.807   4.188
 6036SOL     OW19006   0.615   6.530   5.307
 6036SOL    HW119007   0.669   6.493   5.382
 6036SOL    HW219008   0.675   6.581   5.245
 6037SOL     OW19009   5.925   5.897   4.936
 6037SOL    HW119010   5.899   5.800   4.939
 6037SOL    HW219011   5.843   5.953   4.923
 6038SOL     OW19012   5.089   3.715   6.259
 6038SOL    HW119013   5.121   3.636   6.311
 6038SOL    HW219014   5.138   3.797   6.288
 6039SOL     OW19015   3.532   3.753   2.495
 6039SOL    HW119016   3.599   3.797   2.555
 6039SOL    HW219017   3.580   3.710   2.418
 6040SOL     OW19018   0.325   1.908   0.010
 6040SOL    HW119019   0.394   1.894   6.950
 6040SOL    HW219020   0.296   2.003   0.010
 6041SOL     OW19021   1.178   2.285   0.157
 6041SOL    HW119022   1.232   2.229   0.094
 6041SOL    HW219023   1.222   2.374   0.169
 6042SOL     OW19024   4.472   5.414   3.391
 6042SOL    HW119025   4.501   5.345   3.457
 6042SOL    HW219026   4.525   5.406   3.307
 6043SOL     OW19027   0.968   4.475   4.152
 6043SOL    HW119028   0.930   4.407   4.090
 6043SOL    HW219029   0.894   4.531   4.190
 6044SOL     OW19030   0.884   0.769   1.294
 6044SOL    HW119031   0.815   0.833   1.328
 6044SOL    HW219032   0.966   0.819   1.267
 6045SOL     OW19033   6.823   4.094   2.199
 6045SOL    HW119034   6.739   4.123   2.244
 6045SOL    HW219035   6.866   4.021   2.252
 6046SOL     OW19036   3.218   2.412   0.133
 6046SOL    HW119037   3.137   2.411   0.191
 6046SOL    HW219038   3.270   2.327   0.146
 6047SOL     OW19039   6.762   0.135   4.233
 6047SOL    HW119040   6.719   0.059   4.282
 6047SOL    HW219041   6.775   0.212   4.295
 6048SOL     OW19042   4.609   6.668   4.998
 6048SOL    HW119043   4.584   6.617   5.080
 6048SOL    HW219044   4.696   6.635   4.964
 6049SOL     OW19045   6.191   4.554   6.995
 6049SOL    HW119046   6.250   4.518   0.056
 6049SOL    HW219047   6.159   4.645   0.008
 6050SOL     OW19048   4.631   4.801   5.508
 6050SOL    HW119049   4.634   4.861   5.428
 6050SOL    HW219050   4.676   4.846   5.585
 6051SOL     OW19051   1.957   1.633   2.901
 6051SOL    HW119052   1.908   1.546   2.908
 6051SOL    HW219053   2.030   1.624   2.833
 6052SOL     OW19054   0.168   0.961   0.769
 6052SOL    HW119055   0.078   0.972   0.812
 6052SOL    HW219056   0.169   1.011   0.682
 6053SOL     OW19057   1.848   6.835   6.953
 6053SOL    HW119058   1.932   6.841   7.007
 6053SOL    HW219059   1.845   6.748   6.905
 6054SOL     OW19060   2.418   4.205   0.374
 6054SOL    HW119061   2.347   4.142   0.342
 6054SOL    HW219062   2.380   4.263   0.446
 6055SOL     OW19063   4.504   0.840   4.763
 6055SOL    HW119064   4.564   0.814   4.838
 6055SOL    HW219065   4.410   0.811   4.783
 6056SOL     OW19066   4.960   1.956   6.268
 6056SOL    HW119067   4.955   1.861   6.237
 6056SOL    HW219068   5.056   1.982   6.278
 6057SOL     OW19069   3.199   1.200   4.950
 6057SOL    HW119070   3.277   1.151   4.987
 6057SOL    HW219071   3.229   1.260   4.876
 6058SOL     OW19072   5.851   2.039   3.974
 6058SOL    HW119073   5.855   2.110   3.904
 6058SOL    HW219074   5.770   2.053   4.031
 6059SOL     OW19075   6.084   5.112   6.834
 6059SOL    HW119076   6.073   5.033   6.775
 6059SOL    HW219077   6.047   5.193   6.789
 6060SOL     OW19078   4.307   5.980   5.894
 6060SOL    HW119079   4.269   5.887   5.896
 6060SOL    HW219080   4.266   6.031   5.818
 6061SOL     OW19081   2.797   1.646   6.059
 6061SOL    HW119082   2.889   1.680   6.081
 6061SOL    HW219083   2.761   1.596   6.137
 6062SOL     OW19084   2.167   0.203   4.307
 6062SOL    HW119085   2.125   0.195   4.216
 6062SOL    HW219086   2.235   0.276   4.305
 6063SOL     OW19087   4.141   0.688   6.300
 6063SOL    HW119088   4.129   0.712   6.203
 6063SOL    HW219089   4.212   0.618   6.308
 6064SOL     OW19090   1.778   5.343   3.305
 6064SOL    HW119091   1.693   5.336   3.253
 6064SOL    HW219092   1.790   5.262   3.362
 6065SOL     OW19093   6.939   0.636   0.941
 6065SOL    HW119094   7.002   0.611   1.015
 6065SOL    HW219095   6.989   0.644   0.855
 6066SOL     OW19096   4.095   2.754   0.527
 6066SOL    HW119097   4.094   2.838   0.582
 6066SOL    HW219098   4.064   2.775   0.434
 6067SOL     OW19099   6.156   1.405   6.582
 6067SOL    HW119100   6.228   1.471   6.603
 6067SOL    HW219101   6.068   1.443   6.610
 6068SOL     OW19102   4.518   2.547   4.748
 6068SOL    HW119103   4.576   2.623   4.774
 6068SOL    HW219104   4.442   2.538   4.813
 6069SOL     OW19105   6.557   4.505   4.431
 6069SOL    HW119106   6.484   4.536   4.492
 6069SOL    HW219107   6.635   4.474   4.485
 6070SOL     OW19108   3.977   2.270   6.304
 6070SOL    HW119109   4.031   2.270   6.219
 6070SOL    HW219110   4.026   2.322   6.374
 6071SOL     OW19111   4.285   6.329   5.513
 6071SOL    HW119112   4.201   6.372   5.543
 6071SOL    HW219113   4.264   6.252   5.453
 6072SOL     OW19114   0.294   2.046   1.295
 6072SOL    HW119115   0.224   2.038   1.366
 6072SOL    HW219116   0.257   2.097   1.217
 6073SOL     OW19117   6.444   2.682   0.482
 6073SOL    HW119118   6.348   2.655   0.491
 6073SOL    HW219119   6.454   2.739   0.401
 6074SOL     OW19120   0.731   0.242   5.019
 6074SOL    HW119121   0.685   0.266   5.105
 6074SOL    HW219122   0.744   0.143   5.015
 6075SOL     OW19123   5.858   3.795   0.072
 6075SOL    HW119124   5.916   3.870   0.040
 6075SOL    HW219125   5.770   3.832   0.102
 6076SOL     OW19126   2.020   5.803   4.266
 6076SOL    HW119127   1.982   5.871   4.204
 6076SOL    HW219128   2.080   5.741   4.215
 6077SOL     OW19129   6.165   6.072   2.182
 6077SOL    HW119130   6.257   6.101   2.207
 6077SOL    HW219131   6.170   5.996   2.117
 6078SOL     OW19132   2.539   4.502   4.038
 6078SOL    HW119133   2.587   4.577   3.991
 6078SOL    HW219134   2.495   4.443   3.971
 6079SOL     OW19135   2.050   1.794   6.715
 6079SOL    HW119136   2.090   1.860   6.778
 6079SOL    HW219137   2.038   1.837   6.625
 6080SOL     OW19138   5.677   2.609   1.562
 6080SOL    HW119139   5.646   2.582   1.471
 6080SOL    HW219140   5.762   2.662   1.554
 6081SOL     OW19141   6.808   3.746   3.706
 6081SOL    HW119142   6.901   3.776   3.688
 6081SOL    HW219143   6.756   3.820   3.748
 6082SOL     OW19144   4.145   1.068   3.617
 6082SOL    HW119145   4.171   1.112   3.531
 6082SOL    HW219146   4.090   1.132   3.671
 6083SOL     OW19147   1.413   5.999   6.885
 6083SOL    HW119148   1.495   5.980   6.938
 6083SOL    HW219149   1.367   5.912   6.862
 6084SOL     OW19150   6.998   5.667   5.573
 6084SOL    HW119151   0.068   5.724   5.563
 6084SOL    HW219152   6.979   5.652   5.670
 6085SOL     OW19153   5.360   3.780   0.652
 6085SOL    HW119154   5.293   3.801   0.581
 6085SOL    HW219155   5.433   3.724   0.613
 6086SOL     OW19156   3.045   1.817   3.976
 6086SOL    HW119157   3.073   1.855   4.064
 6086SOL    HW219158   3.082   1.873   3.902
 6087SOL     OW19159   5.341   6.798   6.814
 6087SOL    HW119160   5.343   6.891   6.777
 6087SOL    HW219161   5.409   6.742   6.767
 6088SOL     OW19162   1.011   0.093   5.060
 6088SOL    HW119163   1.033   0.139   4.974
 6088SOL    HW219164   1.032   0.155   5.137
 6089SOL     OW19165   0.156   3.665   0.565
 6089SOL    HW119166   0.213   3.737   0.525
 6089SOL    HW219167   0.129   3.690   0.657
 6090SOL     OW19168   0.838   5.170   5.142
 6090SOL    HW119169   0.807   5.131   5.228
 6090SOL    HW219170   0.783   5.251   5.120
 6091SOL     OW19171   6.299   1.925   1.793
 6091SOL    HW119172   6.304   1.892   1.699
 6091SOL    HW219173   6.380   1.894   1.843
 6092SOL     OW19174   2.149   1.875   1.978
 6092SOL    HW119175   2.107   1.933   2.049
 6092SOL    HW219176   2.155   1.926   1.893
 6093SOL     OW19177   1.158   2.824   0.997
 6093SOL    HW119178   1.162   2.733   1.038
 6093SOL    HW219179   1.074   2.833   0.944
 6094SOL     OW19180   1.177   1.073   1.422
 6094SOL    HW119181   1.110   1.013   1.379
 6094SOL    HW219182   1.266   1.062   1.378
 6095SOL     OW19183   5.952   3.306   6.304
 6095SOL    HW119184   5.962   3.306   6.205
 6095SOL    HW219185   6.029   3.354   6.346
 6096SOL     OW19186   3.850   2.152   3.673
 6096SOL    HW119187   3.884   2.219   3.739
 6096SOL    HW219188   3.910   2.072   3.672
 6097SOL     OW19189   2.748   1.898   2.283
 6097SOL    HW119190   2.720   1.885   2.378
 6097SOL    HW219191   2.668   1.901   2.224
 6098SOL     OW19192   1.927   2.380   6.003
 6098SOL    HW119193   1.918   2.329   6.089
 6098SOL    HW219194   1.956   2.473   6.023
 6099SOL     OW19195   6.111   5.861   5.149
 6099SOL    HW119196   6.169   5.780   5.136
 6099SOL    HW219197   6.063   5.882   5.063
 6100SOL     OW19198   6.496   2.631   6.911
 6100SOL    HW119199   6.473   2.580   6.828
 6100SOL    HW219200   6.472   2.577   6.991
 6101SOL     OW19201   6.438   1.269   5.210
 6101SOL    HW119202   6.354   1.251   5.159
 6101SOL    HW219203   6.424   1.245   5.306
 6102SOL     OW19204   2.582   0.279   4.482
 6102SOL    HW119205   2.640   0.230   4.417
 6102SOL    HW219206   2.640   0.319   4.553
 6103SOL     OW19207   6.688   6.698   5.722
 6103SOL    HW119208   6.695   6.687   5.821
 6103SOL    HW219209   6.647   6.617   5.682
 6104SOL     OW19210   6.784   2.011   6.456
 6104SOL    HW119211   6.744   2.061   6.379
 6104SOL    HW219212   6.737   1.924   6.467
 6105SOL     OW19213   3.417   5.914   4.697
 6105SOL    HW119214   3.318   5.915   4.686
 6105SOL    HW219215   3.458   5.868   4.618
 6106SOL     OW19216   3.091   5.143   5.662
 6106SOL    HW119217   3.128   5.099   5.744
 6106SOL    HW219218   3.159   5.207   5.625
 6107SOL     OW19219   1.968   4.628   5.179
 6107SOL    HW119220   1.972   4.705   5.243
 6107SOL    HW219221   2.061   4.591   5.166
 6108SOL     OW19222   0.357   2.104   5.085
 6108SOL    HW119223   0.287   2.169   5.055
 6108SOL    HW219224   0.318   2.012   5.088
 6109SOL     OW19225   5.864   4.318   0.985
 6109SOL    HW119226   5.823   4.355   0.902
 6109SOL    HW219227   5.797   4.261   1.033
 6110SOL     OW19228   3.434   1.229   4.537
 6110SOL    HW119229   3.472   1.292   4.470
 6110SOL    HW219230   3.490   1.231   4.620
 6111SOL     OW19231   1.539   4.994   3.081
 6111SOL    HW119232   1.593   4.932   3.139
 6111SOL    HW219233   1.579   4.997   2.990
 6112SOL     OW19234   0.449   1.416   2.663
 6112SOL    HW119235   0.426   1.320   2.650
 6112SOL    HW219236   0.377   1.460   2.718
 6113SOL     OW19237   1.290   6.552   5.779
 6113SOL    HW119238   1.379   6.598   5.773
 6113SOL    HW219239   1.218   6.620   5.795
 6114SOL     OW19240   4.962   5.629   0.407
 6114SOL    HW119241   4.972   5.532   0.427
 6114SOL    HW219242   5.052   5.667   0.383
 6115SOL     OW19243   5.523   5.216   2.442
 6115SOL    HW119244   5.512   5.137   2.502
 6115SOL    HW219245   5.592   5.196   2.373
 6116SOL     OW19246   4.023   1.258   1.964
 6116SOL    HW119247   3.927   1.284   1.974
 6116SOL    HW219248   4.072   1.330   1.914
 6117SOL     OW19249   5.526   6.835   4.264
 6117SOL    HW119250   5.456   6.840   4.336
 6117SOL    HW219251   5.616   6.854   4.304
 6118SOL     OW19252   6.047   0.681   3.412
 6118SOL    HW119253   6.117   0.610   3.409
 6118SOL    HW219254   6.070   0.748   3.482
 6119SOL     OW19255   6.474   5.557   4.734
 6119SOL    HW119256   6.389   5.521   4.698
 6119SOL    HW219257   6.551   5.524   4.678
 6120SOL     OW19258   2.531   1.003   2.994
 6120SOL    HW119259   2.552   0.951   2.911
 6120SOL    HW219260   2.460   0.956   3.046
 6121SOL     OW19261   0.006   2.786   4.571
 6121SOL    HW119262   6.991   2.802   4.666
 6121SOL    HW219263   6.936   2.772   4.515
 6122SOL     OW19264   4.412   5.278   3.117
 6122SOL    HW119265   4.339   5.303   3.053
 6122SOL    HW219266   4.460   5.361   3.146
 6123SOL     OW19267   5.952   1.545   2.229
 6123SOL    HW119268   5.951   1.454   2.270
 6123SOL    HW219269   5.979   1.538   2.133
 6124SOL     OW19270   3.123   0.416   5.646
 6124SOL    HW119271   3.047   0.359   5.677
 6124SOL    HW219272   3.122   0.421   5.546
 6125SOL     OW19273   2.234   6.067   1.787
 6125SOL    HW119274   2.184   6.094   1.705
 6125SOL    HW219275   2.251   6.147   1.844
 6126SOL     OW19276   5.407   5.490   2.440
 6126SOL    HW119277   5.315   5.491   2.402
 6126SOL    HW219278   5.433   5.396   2.463
 6127SOL     OW19279   2.215   5.594   1.181
 6127SOL    HW119280   2.150   5.528   1.220
 6127SOL    HW219281   2.250   5.653   1.254
 6128SOL     OW19282   5.347   1.746   0.280
 6128SOL    HW119283   5.264   1.716   0.233
 6128SOL    HW219284   5.323   1.810   0.353
 6129SOL     OW19285   5.920   4.542   3.554
 6129SOL    HW119286   5.878   4.587   3.633
 6129SOL    HW219287   5.862   4.556   3.474
 6130SOL     OW19288   5.636   3.549   2.621
 6130SOL    HW119289   5.651   3.483   2.694
 6130SOL    HW219290   5.705   3.536   2.550
 6131SOL     OW19291   5.962   1.161   5.206
 6131SOL    HW119292   5.908   1.094   5.155
 6131SOL    HW219293   6.039   1.115   5.251
 6132SOL     OW19294   4.876   2.444   1.247
 6132SOL    HW119295   4.931   2.498   1.183
 6132SOL    HW219296   4.815   2.506   1.298
 6133SOL     OW19297   1.040   4.427   0.927
 6133SOL    HW119298   1.121   4.436   0.870
 6133SOL    HW219299   0.994   4.516   0.933
 6134SOL     OW19300   4.504   3.896   6.438
 6134SOL    HW119301   4.547   3.815   6.479
 6134SOL    HW219302   4.424   3.868   6.385
 6135SOL     OW19303   5.308   0.185   1.299
 6135SOL    HW119304   5.347   0.170   1.208
 6135SOL    HW219305   5.208   0.191   1.292
 6136SOL     OW19306   0.567   2.134   1.642
 6136SOL    HW119307   0.557   2.160   1.546
 6136SOL    HW219308   0.585   2.036   1.648
 6137SOL     OW19309   2.974   6.751   6.324
 6137SOL    HW119310   2.963   6.850   6.315
 6137SOL    HW219311   3.020   6.715   6.243
 6138SOL     OW19312   4.114   6.313   2.770
 6138SOL    HW119313   4.176   6.324   2.693
 6138SOL    HW219314   4.038   6.378   2.761
 6139SOL     OW19315   2.006   4.926   4.344
 6139SOL    HW119316   1.979   4.977   4.426
 6139SOL    HW219317   2.104   4.910   4.346
 6140SOL     OW19318   1.690   6.238   0.707
 6140SOL    HW119319   1.650   6.325   0.737
 6140SOL    HW219320   1.789   6.249   0.695
 6141SOL     OW19321   6.389   5.769   6.119
 6141SOL    HW119322   6.488   5.781   6.134
 6141SOL    HW219323   6.341   5.851   6.148
 6142SOL     OW19324   0.267   4.448   1.625
 6142SOL    HW119325   0.266   4.359   1.578
 6142SOL    HW219326   0.197   4.448   1.696
 6143SOL     OW19327   5.704   5.600   6.651
 6143SOL    HW119328   5.671   5.561   6.737
 6143SOL    HW219329   5.631   5.652   6.607
 6144SOL     OW19330   0.721   4.719   4.113
 6144SOL    HW119331   0.690   4.701   4.020
 6144SOL    HW219332   0.722   4.633   4.165
 6145SOL     OW19333   5.349   5.913   2.964
 6145SOL    HW119334   5.283   5.971   3.012
 6145SOL    HW219335   5.383   5.843   3.027
 6146SOL     OW19336   5.862   1.345   3.514
 6146SOL    HW119337   5.813   1.265   3.549
 6146SOL    HW219338   5.909   1.321   3.429
 6147SOL     OW19339   1.810   3.378   2.951
 6147SOL    HW119340   1.904   3.372   2.984
 6147SOL    HW219341   1.807   3.354   2.854
 6148SOL     OW19342   6.260   6.327   4.395
 6148SOL    HW119343   6.311   6.242   4.406
 6148SOL    HW219344   6.165   6.313   4.425
 6149SOL     OW19345   2.501   6.341   3.094
 6149SOL    HW119346   2.569   6.267   3.091
 6149SOL    HW219347   2.454   6.346   3.007
 6150SOL     OW19348   4.612   5.752   6.062
 6150SOL    HW119349   4.609   5.815   5.984
 6150SOL    HW219350   4.563   5.668   6.039
 6151SOL     OW19351   4.900   2.630   5.571
 6151SOL    HW119352   4.911   2.548   5.514
 6151SOL    HW219353   4.827   2.687   5.532
 6152SOL     OW19354   6.792   4.433   6.855
 6152SOL    HW119355   6.709   4.483   6.830
 6152SOL    HW219356   6.826   4.383   6.775
 6153SOL     OW19357   4.305   2.944   1.309
 6153SOL    HW119358   4.350   2.917   1.394
 6153SOL    HW219359   4.279   2.863   1.256
 6154SOL     OW19360   5.489   2.951   2.813
 6154SOL    HW119361   5.393   2.981   2.816
 6154SOL    HW219362   5.549   3.028   2.835
 6155SOL     OW19363   0.346   3.760   5.089
 6155SOL    HW119364   0.343   3.854   5.055
 6155SOL    HW219365   0.417   3.709   5.040
 6156SOL     OW19366   6.620   0.131   3.818
 6156SOL    HW119367   6.572   0.089   3.895
 6156SOL    HW219368   6.718   0.138   3.840
 6157SOL     OW19369   2.620   1.087   3.799
 6157SOL    HW119370   2.638   1.097   3.701
 6157SOL    HW219371   2.655   1.167   3.848
 6158SOL     OW19372   5.181   1.357   5.659
 6158SOL    HW119373   5.244   1.387   5.588
 6158SOL    HW219374   5.158   1.261   5.646
 6159SOL     OW19375   5.262   3.380   6.637
 6159SOL    HW119376   5.328   3.449   6.668
 6159SOL    HW219377   5.303   3.289   6.645
 6160SOL     OW19378   6.016   5.921   1.821
 6160SOL    HW119379   5.984   5.829   1.797
 6160SOL    HW219380   5.940   5.974   1.859
 6161SOL     OW19381   5.455   0.544   6.273
 6161SOL    HW119382   5.464   0.640   6.300
 6161SOL    HW219383   5.406   0.494   6.344
 6162SOL     OW19384   6.283   4.784   4.713
 6162SOL    HW119385   6.316   4.878   4.725
 6162SOL    HW219386   6.360   4.721   4.722
 6163SOL     OW19387   6.588   4.010   2.558
 6163SOL    HW119388   6.586   3.910   2.558
 6163SOL    HW219389   6.560   4.043   2.468
 6164SOL     OW19390   4.107   2.243   0.618
 6164SOL    HW119391   4.167   2.296   0.558
 6164SOL    HW219392   4.041   2.304   0.662
 6165SOL     OW19393   4.138   5.983   0.180
 6165SOL    HW119394   4.127   6.078   0.208
 6165SOL    HW219395   4.061   5.956   0.122
 6166SOL     OW19396   2.819   1.814   5.829
 6166SOL    HW119397   2.800   1.721   5.861
 6166SOL    HW219398   2.896   1.852   5.880
 6167SOL     OW19399   0.145   4.358   3.133
 6167SOL    HW119400   0.225   4.417   3.147
 6167SOL    HW219401   0.123   4.311   3.218
 6168SOL     OW19402   0.155   3.455   2.877
 6168SOL    HW119403   0.180   3.385   2.811
 6168SOL    HW219404   0.237   3.506   2.904
 6169SOL     OW19405   1.944   4.167   2.281
 6169SOL    HW119406   1.846   4.190   2.287
 6169SOL    HW219407   1.968   4.105   2.356
 6170SOL     OW19408   0.687   3.243   4.743
 6170SOL    HW119409   0.760   3.206   4.685
 6170SOL    HW219410   0.698   3.342   4.751
 6171SOL     OW19411   0.153   0.069   6.222
 6171SOL    HW119412   0.152   0.043   6.125
 6171SOL    HW219413   0.066   0.045   6.264
 6172SOL     OW19414   0.518   3.434   3.269
 6172SOL    HW119415   0.467   3.446   3.183
 6172SOL    HW219416   0.543   3.524   3.305
 6173SOL     OW19417   6.811   6.402   3.394
 6173SOL    HW119418   6.887   6.453   3.435
 6173SOL    HW219419   6.730   6.460   3.390
 6174SOL     OW19420   5.875   3.834   2.629
 6174SOL    HW119421   5.897   3.737   2.617
 6174SOL    HW219422   5.813   3.863   2.556
 6175SOL     OW19423   2.829   2.325   5.646
 6175SOL    HW119424   2.851   2.235   5.610
 6175SOL    HW219425   2.827   2.321   5.746
 6176SOL     OW19426   4.541   3.795   5.737
 6176SOL    HW119427   4.617   3.859   5.730
 6176SOL    HW219428   4.521   3.755   5.648
 6177SOL     OW19429   6.208   1.246   2.059
 6177SOL    HW119430   6.110   1.233   2.079
 6177SOL    HW219431   6.255   1.158   2.067
 6178SOL     OW19432   4.002   4.416   1.174
 6178SOL    HW119433   4.096   4.447   1.168
 6178SOL    HW219434   3.945   4.470   1.113
 6179SOL     OW19435   5.634   4.721   3.430
 6179SOL    HW119436   5.670   4.672   3.351
 6179SOL    HW219437   5.611   4.656   3.502
 6180SOL     OW19438   2.975   4.199   0.303
 6180SOL    HW119439   3.052   4.248   0.262
 6180SOL    HW219440   3.009   4.124   0.359
 6181SOL     OW19441   5.456   5.650   6.523
 6181SOL    HW119442   5.405   5.581   6.575
 6181SOL    HW219443   5.439   5.636   6.425
 6182SOL     OW19444   3.580   2.574   0.310
 6182SOL    HW119445   3.514   2.534   0.374
 6182SOL    HW219446   3.670   2.576   0.352
 6183SOL     OW19447   0.703   1.096   0.918
 6183SOL    HW119448   0.676   1.019   0.860
 6183SOL    HW219449   0.634   1.109   0.989
 6184SOL     OW19450   2.451   0.766   5.171
 6184SOL    HW119451   2.418   0.811   5.088
 6184SOL    HW219452   2.538   0.806   5.199
 6185SOL     OW19453   3.410   3.108   5.694
 6185SOL    HW119454   3.378   3.125   5.601
 6185SOL    HW219455   3.441   3.013   5.702
 6186SOL     OW19456   6.670   1.967   2.484
 6186SOL    HW119457   6.761   1.929   2.502
 6186SOL    HW219458   6.664   1.998   2.390
 6187SOL     OW19459   5.432   1.695   5.715
 6187SOL    HW119460   5.480   1.706   5.802
 6187SOL    HW219461   5.336   1.719   5.728
 6188SOL     OW19462   1.605   1.748   5.050
 6188SOL    HW119463   1.668   1.758   4.973
 6188SOL    HW219464   1.569   1.655   5.052
 6189SOL     OW19465   6.523   6.692   1.211
 6189SOL    HW119466   6.462   6.770   1.229
 6189SOL    HW219467   6.618   6.722   1.221
 6190SOL     OW19468   0.556   2.515   5.387
 6190SOL    HW119469   0.638   2.503   5.331
 6190SOL    HW219470   0.496   2.436   5.377
 6191SOL     OW19471   4.135   3.565   6.874
 6191SOL    HW119472   4.172   3.640   6.820
 6191SOL    HW219473   4.134   3.590   6.971
 6192SOL     OW19474   2.986   1.474   0.352
 6192SOL    HW119475   3.014   1.418   0.430
 6192SOL    HW219476   2.971   1.415   0.273
 6193SOL     OW19477   4.752   5.713   6.526
 6193SOL    HW119478   4.786   5.783   6.588
 6193SOL    HW219479   4.711   5.756   6.446
 6194SOL     OW19480   6.279   0.496   5.859
 6194SOL    HW119481   6.270   0.398   5.879
 6194SOL    HW219482   6.244   0.514   5.767
 6195SOL     OW19483   6.702   6.681   6.060
 6195SOL    HW119484   6.717   6.777   6.036
 6195SOL    HW219485   6.703   6.671   6.160
 6196SOL     OW19486   5.594   3.922   3.201
 6196SOL    HW119487   5.506   3.966   3.181
 6196SOL    HW219488   5.583   3.859   3.277
 6197SOL     OW19489   3.363   5.776   1.716
 6197SOL    HW119490   3.358   5.743   1.811
 6197SOL    HW219491   3.458   5.774   1.685
 6198SOL     OW19492   6.558   0.219   0.163
 6198SOL    HW119493   6.638   0.209   0.223
 6198SOL    HW219494   6.477   0.235   0.219
 6199SOL     OW19495   0.807   0.296   0.338
 6199SOL    HW119496   0.891   0.317   0.288
 6199SOL    HW219497   0.811   0.338   0.429
 6200SOL     OW19498   2.347   1.752   2.078
 6200SOL    HW119499   2.276   1.814   2.044
 6200SOL    HW219500   2.345   1.750   2.178
 6201SOL     OW19501   6.704   4.514   3.704
 6201SOL    HW119502   6.770   4.544   3.773
 6201SOL    HW219503   6.616   4.559   3.721
 6202SOL     OW19504   6.092   1.466   2.648
 6202SOL    HW119505   6.124   1.508   2.563
 6202SOL    HW219506   6.073   1.537   2.715
 6203SOL     OW19507   6.714   6.937   1.842
 6203SOL    HW119508   6.640   6.919   1.907
 6203SOL    HW219509   6.782   6.863   1.849
 6204SOL     OW19510   2.396   0.452   4.789
 6204SOL    HW119511   2.365   0.389   4.719
 6204SOL    HW219512   2.341   0.441   4.872
 6205SOL     OW19513   4.621   4.871   3.175
 6205SOL    HW119514   4.589   4.933   3.103
 6205SOL    HW219515   4.662   4.924   3.249
 6206SOL     OW19516   5.767   1.793   3.659
 6206SOL    HW119517   5.796   1.714   3.712
 6206SOL    HW219518   5.836   1.814   3.589
 6207SOL     OW19519   2.311   4.682   4.415
 6207SOL    HW119520   2.331   4.590   4.451
 6207SOL    HW219521   2.374   4.748   4.456
 6208SOL     OW19522   4.002   3.581   5.686
 6208SOL    HW119523   3.907   3.550   5.685
 6208SOL    HW219524   4.060   3.510   5.649
 6209SOL     OW19525   3.665   2.422   1.442
 6209SOL    HW119526   3.634   2.376   1.358
 6209SOL    HW219527   3.602   2.400   1.517
 6210SOL     OW19528   4.598   1.888   4.088
 6210SOL    HW119529   4.578   1.794   4.115
 6210SOL    HW219530   4.677   1.888   4.027
 6211SOL     OW19531   5.359   4.967   5.591
 6211SOL    HW119532   5.387   4.873   5.573
 6211SOL    HW219533   5.348   5.016   5.505
 6212SOL     OW19534   4.484   5.275   4.957
 6212SOL    HW119535   4.540   5.256   4.876
 6212SOL    HW219536   4.459   5.372   4.958
 6213SOL     OW19537   4.151   6.173   0.463
 6213SOL    HW119538   4.198   6.176   0.551
 6213SOL    HW219539   4.059   6.134   0.476
 6214SOL     OW19540   6.203   5.613   6.284
 6214SOL    HW119541   6.124   5.674   6.275
 6214SOL    HW219542   6.280   5.651   6.234
 6215SOL     OW19543   5.592   2.620   5.858
 6215SOL    HW119544   5.648   2.690   5.813
 6215SOL    HW219545   5.646   2.577   5.930
 6216SOL     OW19546   4.409   2.218   3.440
 6216SOL    HW119547   4.377   2.186   3.351
 6216SOL    HW219548   4.398   2.145   3.507
 6217SOL     OW19549   0.511   4.276   2.278
 6217SOL    HW119550   0.590   4.233   2.320
 6217SOL    HW219551   0.493   4.364   2.322
 6218SOL     OW19552   4.441   6.722   0.201
 6218SOL    HW119553   4.404   6.761   0.117
 6218SOL    HW219554   4.422   6.623   0.202
 6219SOL     OW19555   1.201   0.625   5.950
 6219SOL    HW119556   1.288   0.640   5.997
 6219SOL    HW219557   1.205   0.538   5.901
 6220SOL     OW19558   3.940   0.641   0.970
 6220SOL    HW119559   3.913   0.546   0.954
 6220SOL    HW219560   3.893   0.676   1.051
 6221SOL     OW19561   5.772   5.558   6.987
 6221SOL    HW119562   5.684   5.524   6.955
 6221SOL    HW219563   5.845   5.519   6.931
 6222SOL     OW19564   6.414   1.910   2.113
 6222SOL    HW119565   6.395   1.827   2.166
 6222SOL    HW219566   6.501   1.949   2.142
 6223SOL     OW19567   0.376   5.249   3.737
 6223SOL    HW119568   0.457   5.267   3.793
 6223SOL    HW219569   0.396   5.275   3.642
 6224SOL     OW19570   3.905   0.832   0.028
 6224SOL    HW119571   3.901   0.733   0.041
 6224SOL    HW219572   3.877   0.878   0.112
 6225SOL     OW19573   4.722   6.288   6.624
 6225SOL    HW119574   4.799   6.272   6.686
 6225SOL    HW219575   4.660   6.355   6.665
 6226SOL     OW19576   1.591   1.300   4.583
 6226SOL    HW119577   1.628   1.356   4.509
 6226SOL    HW219578   1.642   1.318   4.667
 6227SOL     OW19579   2.717   4.585   5.399
 6227SOL    HW119580   2.618   4.591   5.383
 6227SOL    HW219581   2.763   4.557   5.315
 6228SOL     OW19582   1.541   3.385   3.850
 6228SOL    HW119583   1.513   3.384   3.754
 6228SOL    HW219584   1.633   3.348   3.858
 6229SOL     OW19585   0.682   3.599   4.201
 6229SOL    HW119586   0.761   3.537   4.203
 6229SOL    HW219587   0.615   3.569   4.269
 6230SOL     OW19588   0.032   0.800   2.103
 6230SOL    HW119589   0.110   0.765   2.155
 6230SOL    HW219590   0.061   0.819   2.010
 6231SOL     OW19591   1.127   5.082   6.691
 6231SOL    HW119592   1.073   5.025   6.630
 6231SOL    HW219593   1.224   5.057   6.684
 6232SOL     OW19594   4.472   1.073   6.072
 6232SOL    HW119595   4.496   1.004   6.141
 6232SOL    HW219596   4.485   1.033   5.981
 6233SOL     OW19597   6.821   3.754   1.341
 6233SOL    HW119598   6.725   3.751   1.314
 6233SOL    HW219599   6.829   3.783   1.436
 6234SOL     OW19600   4.535   5.648   4.722
 6234SOL    HW119601   4.538   5.738   4.766
 6234SOL    HW219602   4.494   5.581   4.785
 6235SOL     OW19603   6.346   0.517   2.831
 6235SOL    HW119604   6.343   0.540   2.928
 6235SOL    HW219605   6.258   0.478   2.803
 6236SOL     OW19606   0.624   5.338   1.358
 6236SOL    HW119607   0.619   5.252   1.409
 6236SOL    HW219608   0.697   5.332   1.290
 6237SOL     OW19609   3.385   1.399   0.322
 6237SOL    HW119610   3.341   1.489   0.325
 6237SOL    HW219611   3.339   1.337   0.385
 6238SOL     OW19612   2.058   0.142   4.074
 6238SOL    HW119613   2.128   0.143   4.002
 6238SOL    HW219614   1.993   0.217   4.059
 6239SOL     OW19615   4.427   1.030   3.850
 6239SOL    HW119616   4.468   0.942   3.828
 6239SOL    HW219617   4.386   1.070   3.768
 6240SOL     OW19618   3.956   3.105   3.563
 6240SOL    HW119619   3.988   3.200   3.567
 6240SOL    HW219620   3.890   3.089   3.637
 6241SOL     OW19621   3.645   0.244   2.803
 6241SOL    HW119622   3.636   0.338   2.836
 6241SOL    HW219623   3.554   0.203   2.796
 6242SOL     OW19624   2.871   1.766   3.339
 6242SOL    HW119625   2.956   1.718   3.361
 6242SOL    HW219626   2.851   1.756   3.241
 6243SOL     OW19627   4.647   1.760   6.343
 6243SOL    HW119628   4.562   1.752   6.396
 6243SOL    HW219629   4.725   1.751   6.405
 6244SOL     OW19630   5.182   4.099   2.641
 6244SOL    HW119631   5.155   4.138   2.553
 6244SOL    HW219632   5.101   4.067   2.689
 6245SOL     OW19633   0.288   4.422   2.565
 6245SOL    HW119634   0.266   4.331   2.530
 6245SOL    HW219635   0.343   4.471   2.497
 6246SOL     OW19636   6.757   6.773   4.119
 6246SOL    HW119637   6.717   6.761   4.028
 6246SOL    HW219638   6.856   6.759   4.113
 6247SOL     OW19639   6.492   6.699   3.136
 6247SOL    HW119640   6.513   6.794   3.159
 6247SOL    HW219641   6.454   6.695   3.043
 6248SOL     OW19642   3.627   3.230   6.027
 6248SOL    HW119643   3.695   3.190   6.088
 6248SOL    HW219644   3.541   3.243   6.077
 6249SOL     OW19645   5.807   2.858   1.536
 6249SOL    HW119646   5.879   2.872   1.468
 6249SOL    HW219647   5.728   2.916   1.514
 6250SOL     OW19648   6.308   0.547   0.515
 6250SOL    HW119649   6.226   0.518   0.465
 6250SOL    HW219650   6.300   0.520   0.611
 6251SOL     OW19651   2.500   6.934   3.818
 6251SOL    HW119652   2.407   6.970   3.824
 6251SOL    HW219653   2.542   6.963   3.732
 6252SOL     OW19654   3.237   5.668   6.851
 6252SOL    HW119655   3.291   5.748   6.876
 6252SOL    HW219656   3.140   5.689   6.858
 6253SOL     OW19657   3.228   5.187   4.980
 6253SOL    HW119658   3.196   5.202   4.887
 6253SOL    HW219659   3.318   5.231   4.992
 6254SOL     OW19660   0.678   6.835   1.255
 6254SOL    HW119661   0.628   6.906   1.206
 6254SOL    HW219662   0.726   6.876   1.333
 6255SOL     OW19663   0.238   1.401   1.988
 6255SOL    HW119664   0.333   1.425   2.006
 6255SOL    HW219665   0.234   1.314   1.940
 6256SOL     OW19666   5.101   5.820   2.522
 6256SOL    HW119667   5.185   5.845   2.571
 6256SOL    HW219668   5.024   5.825   2.586
 6257SOL     OW19669   3.205   3.926   1.313
 6257SOL    HW119670   3.117   3.973   1.317
 6257SOL    HW219671   3.216   3.881   1.225
 6258SOL     OW19672   3.643   5.275   4.834
 6258SOL    HW119673   3.708   5.350   4.819
 6258SOL    HW219674   3.571   5.278   4.764
 6259SOL     OW19675   3.452   0.569   4.514
 6259SOL    HW119676   3.444   0.551   4.416
 6259SOL    HW219677   3.369   0.538   4.561
 6260SOL     OW19678   1.483   1.537   6.973
 6260SOL    HW119679   1.427   1.603   6.923
 6260SOL    HW219680   1.578   1.570   6.977
 6261SOL     OW19681   3.574   0.360   1.141
 6261SOL    HW119682   3.477   0.362   1.118
 6261SOL    HW219683   3.588   0.394   1.234
 6262SOL     OW19684   5.613   0.303   2.504
 6262SOL    HW119685   5.582   0.214   2.470
 6262SOL    HW219686   5.569   0.376   2.453
 6263SOL     OW19687   6.056   6.212   5.975
 6263SOL    HW119688   6.067   6.115   5.995
 6263SOL    HW219689   5.981   6.249   6.030
 6264SOL     OW19690   2.563   0.221   0.139
 6264SOL    HW119691   2.482   0.193   0.087
 6264SOL    HW219692   2.566   0.170   0.225
 6265SOL     OW19693   4.994   0.647   6.432
 6265SOL    HW119694   5.042   0.679   6.514
 6265SOL    HW219695   4.974   0.550   6.441
 6266SOL     OW19696   2.600   4.937   3.083
 6266SOL    HW119697   2.610   4.841   3.111
 6266SOL    HW219698   2.538   4.942   3.004
 6267SOL     OW19699   2.668   6.086   4.927
 6267SOL    HW119700   2.634   6.106   5.019
 6267SOL    HW219701   2.684   5.988   4.918
 6268SOL     OW19702   3.347   1.554   0.978
 6268SOL    HW119703   3.418   1.576   0.911
 6268SOL    HW219704   3.385   1.491   1.046
 6269SOL     OW19705   6.167   4.827   0.023
 6269SOL    HW119706   6.193   4.868   0.110
 6269SOL    HW219707   6.078   4.863   7.006
 6270SOL     OW19708   2.134   5.582   0.686
 6270SOL    HW119709   2.122   5.611   0.590
 6270SOL    HW219710   2.082   5.499   0.702
 6271SOL     OW19711   5.949   3.239   6.027
 6271SOL    HW119712   6.046   3.241   6.005
 6271SOL    HW219713   5.905   3.165   5.975
 6272SOL     OW19714   0.492   6.969   0.587
 6272SOL    HW119715   0.395   6.980   0.609
 6272SOL    HW219716   0.521   0.034   0.530
 6273SOL     OW19717   0.504   6.612   1.259
 6273SOL    HW119718   0.526   6.541   1.326
 6273SOL    HW219719   0.561   6.693   1.277
 6274SOL     OW19720   3.028   5.340   3.326
 6274SOL    HW119721   2.969   5.276   3.375
 6274SOL    HW219722   3.097   5.289   3.274
 6275SOL     OW19723   1.972   5.268   6.905
 6275SOL    HW119724   1.995   5.353   6.857
 6275SOL    HW219725   2.021   5.192   6.864
 6276SOL     OW19726   2.050   5.305   2.983
 6276SOL    HW119727   2.074   5.249   3.062
 6276SOL    HW219728   2.041   5.401   3.011
 6277SOL     OW19729   4.951   3.399   1.319
 6277SOL    HW119730   4.955   3.303   1.291
 6277SOL    HW219731   5.007   3.413   1.401
 6278SOL     OW19732   2.687   1.185   6.532
 6278SOL    HW119733   2.603   1.205   6.584
 6278SOL    HW219734   2.759   1.158   6.595
 6279SOL     OW19735   2.910   6.758   2.138
 6279SOL    HW119736   2.864   6.813   2.068
 6279SOL    HW219737   2.842   6.709   2.192
 6280SOL     OW19738   6.188   2.648   6.855
 6280SOL    HW119739   6.129   2.588   6.910
 6280SOL    HW219740   6.247   2.592   6.797
 6281SOL     OW19741   5.359   3.706   6.076
 6281SOL    HW119742   5.349   3.690   5.978
 6281SOL    HW219743   5.388   3.622   6.121
 6282SOL     OW19744   0.210   3.546   6.303
 6282SOL    HW119745   0.171   3.574   6.216
 6282SOL    HW219746   0.237   3.626   6.356
 6283SOL     OW19747   1.566   6.058   5.197
 6283SOL    HW119748   1.471   6.030   5.184
 6283SOL    HW219749   1.601   6.099   5.112
 6284SOL     OW19750   1.548   4.270   5.820
 6284SOL    HW119751   1.610   4.324   5.878
 6284SOL    HW219752   1.491   4.211   5.877
 6285SOL     OW19753   1.301   3.672   3.062
 6285SOL    HW119754   1.225   3.736   3.063
 6285SOL    HW219755   1.363   3.695   2.987
 6286SOL     OW19756   0.806   2.350   0.495
 6286SOL    HW119757   0.877   2.357   0.564
 6286SOL    HW219758   0.765   2.259   0.497
 6287SOL     OW19759   4.881   5.140   4.958
 6287SOL    HW119760   4.821   5.073   4.915
 6287SOL    HW219761   4.870   5.228   4.913
 6288SOL     OW19762   3.242   3.588   6.342
 6288SOL    HW119763   3.264   3.569   6.438
 6288SOL    HW219764   3.294   3.668   6.311
 6289SOL     OW19765   2.735   4.617   5.895
 6289SOL    HW119766   2.740   4.554   5.973
 6289SOL    HW219767   2.766   4.570   5.812
 6290SOL     OW19768   5.728   6.020   4.231
 6290SOL    HW119769   5.732   5.988   4.136
 6290SOL    HW219770   5.661   6.094   4.238
 6291SOL     OW19771   3.629   3.225   2.764
 6291SOL    HW119772   3.625   3.125   2.769
 6291SOL    HW219773   3.636   3.263   2.856
 6292SOL     OW19774   1.642   3.414   4.603
 6292SOL    HW119775   1.713   3.445   4.539
 6292SOL    HW219776   1.554   3.455   4.577
 6293SOL     OW19777   3.333   0.894   6.539
 6293SOL    HW119778   3.277   0.954   6.482
 6293SOL    HW219779   3.422   0.881   6.497
 6294SOL     OW19780   1.557   1.615   2.893
 6294SOL    HW119781   1.615   1.696   2.902
 6294SOL    HW219782   1.508   1.619   2.806
 6295SOL     OW19783   4.985   3.652   6.014
 6295SOL    HW119784   5.037   3.675   6.097
 6295SOL    HW219785   4.931   3.570   6.030
 6296SOL     OW19786   0.848   3.015   0.616
 6296SOL    HW119787   0.831   2.971   0.528
 6296SOL    HW219788   0.863   3.113   0.602
 6297SOL     OW19789   5.911   1.383   4.236
 6297SOL    HW119790   5.973   1.324   4.184
 6297SOL    HW219791   5.963   1.435   4.304
 6298SOL     OW19792   6.617   6.056   0.783
 6298SOL    HW119793   6.654   6.006   0.862
 6298SOL    HW219794   6.615   6.154   0.804
 6299SOL     OW19795   4.109   1.191   2.917
 6299SOL    HW119796   4.108   1.277   2.867
 6299SOL    HW219797   4.026   1.139   2.895
 6300SOL     OW19798   2.366   1.058   6.299
 6300SOL    HW119799   2.353   1.140   6.243
 6300SOL    HW219800   2.284   1.001   6.294
 6301SOL     OW19801   4.089   6.253   0.163
 6301SOL    HW119802   4.071   6.302   0.077
 6301SOL    HW219803   4.110   6.319   0.235
 6302SOL     OW19804   3.389   2.592   6.268
 6302SOL    HW119805   3.324   2.647   6.216
 6302SOL    HW219806   3.367   2.495   6.256
 6303SOL     OW19807   0.579   6.024   5.062
 6303SOL    HW119808   0.621   6.037   5.152
 6303SOL    HW219809   0.551   5.929   5.052
 6304SOL     OW19810   3.615   0.998   4.298
 6304SOL    HW119811   3.698   1.014   4.352
 6304SOL    HW219812   3.552   0.940   4.349
 6305SOL     OW19813   0.363   5.928   6.239
 6305SOL    HW119814   0.305   5.850   6.218
 6305SOL    HW219815   0.421   5.908   6.318
 6306SOL     OW19816   0.087   5.274   4.554
 6306SOL    HW119817   0.026   5.347   4.584
 6306SOL    HW219818   0.034   5.189   4.543
 6307SOL     OW19819   3.874   2.950   2.213
 6307SOL    HW119820   3.884   2.937   2.311
 6307SOL    HW219821   3.920   3.035   2.186
 6308SOL     OW19822   0.305   2.367   0.629
 6308SOL    HW119823   0.384   2.414   0.590
 6308SOL    HW219824   0.327   2.270   0.641
 6309SOL     OW19825   2.402   6.268   4.745
 6309SOL    HW119826   2.431   6.331   4.672
 6309SOL    HW219827   2.425   6.174   4.719
 6310SOL     OW19828   1.759   0.075   2.896
 6310SOL    HW119829   1.690   0.069   2.824
 6310SOL    HW219830   1.828   0.143   2.871
 6311SOL     OW19831   5.815   0.891   6.419
 6311SOL    HW119832   5.813   0.991   6.414
 6311SOL    HW219833   5.909   0.861   6.434
 6312SOL     OW19834   3.487   5.844   6.591
 6312SOL    HW119835   3.562   5.805   6.646
 6312SOL    HW219836   3.424   5.771   6.565
 6313SOL     OW19837   5.336   5.163   4.822
 6313SOL    HW119838   5.412   5.218   4.788
 6313SOL    HW219839   5.251   5.192   4.776
 6314SOL     OW19840   1.870   6.793   2.206
 6314SOL    HW119841   1.821   6.707   2.210
 6314SOL    HW219842   1.806   6.869   2.216
 6315SOL     OW19843   2.267   2.345   4.295
 6315SOL    HW119844   2.171   2.346   4.323
 6315SOL    HW219845   2.306   2.437   4.306
 6316SOL     OW19846   4.648   1.023   4.561
 6316SOL    HW119847   4.594   1.018   4.477
 6316SOL    HW219848   4.647   0.935   4.608
 6317SOL     OW19849   5.739   4.849   1.627
 6317SOL    HW119850   5.657   4.903   1.610
 6317SOL    HW219851   5.807   4.868   1.556
 6318SOL     OW19852   6.722   6.686   0.438
 6318SOL    HW119853   6.668   6.680   0.522
 6318SOL    HW219854   6.704   6.606   0.381
 6319SOL     OW19855   5.105   1.139   4.183
 6319SOL    HW119856   5.007   1.131   4.202
 6319SOL    HW219857   5.157   1.129   4.268
 6320SOL     OW19858   6.125   1.481   5.679
 6320SOL    HW119859   6.157   1.444   5.592
 6320SOL    HW219860   6.085   1.408   5.734
 6321SOL     OW19861   6.453   2.596   6.476
 6321SOL    HW119862   6.529   2.549   6.521
 6321SOL    HW219863   6.471   2.694   6.475
 6322SOL     OW19864   1.170   1.236   2.192
 6322SOL    HW119865   1.131   1.245   2.283
 6322SOL    HW219866   1.105   1.271   2.124
 6323SOL     OW19867   2.358   5.006   1.428
 6323SOL    HW119868   2.345   5.105   1.439
 6323SOL    HW219869   2.397   4.968   1.512
 6324SOL     OW19870   4.564   2.366   1.159
 6324SOL    HW119871   4.597   2.272   1.147
 6324SOL    HW219872   4.537   2.379   1.254
 6325SOL     OW19873   1.563   3.089   4.204
 6325SOL    HW119874   1.557   3.016   4.136
 6325SOL    HW219875   1.590   3.174   4.159
 6326SOL     OW19876   5.216   4.858   6.050
 6326SOL    HW119877   5.293   4.850   6.113
 6326SOL    HW219878   5.228   4.939   5.993
 6327SOL     OW19879   0.153   0.426   3.672
 6327SOL    HW119880   0.106   0.409   3.586
 6327SOL    HW219881   0.087   0.424   3.747
 6328SOL     OW19882   4.463   3.497   5.312
 6328SOL    HW119883   4.552   3.507   5.269
 6328SOL    HW219884   4.391   3.507   5.244
 6329SOL     OW19885   0.286   2.517   5.729
 6329SOL    HW119886   0.356   2.519   5.800
 6329SOL    HW219887   0.281   2.606   5.684
 6330SOL     OW19888   5.415   1.166   3.462
 6330SOL    HW119889   5.394   1.216   3.546
 6330SOL    HW219890   5.391   1.222   3.383
 6331SOL     OW19891   0.784   2.939   3.664
 6331SOL    HW119892   0.871   2.893   3.648
 6331SOL    HW219893   0.714   2.902   3.603
 6332SOL     OW19894   3.221   1.446   6.706
 6332SOL    HW119895   3.124   1.448   6.732
 6332SOL    HW219896   3.275   1.492   6.776
 6333SOL     OW19897   5.648   1.722   0.648
 6333SOL    HW119898   5.573   1.658   0.631
 6333SOL    HW219899   5.717   1.680   0.706
 6334SOL     OW19900   1.521   1.480   1.919
 6334SOL    HW119901   1.452   1.450   1.984
 6334SOL    HW219902   1.530   1.413   1.846
 6335SOL     OW19903   6.445   1.959   0.028
 6335SOL    HW119904   6.449   2.003   0.118
 6335SOL    HW219905   6.417   1.864   0.039
 6336SOL     OW19906   0.873   3.964   5.232
 6336SOL    HW119907   0.960   3.945   5.278
 6336SOL    HW219908   0.823   3.879   5.216
 6337SOL     OW19909   5.178   5.907   5.167
 6337SOL    HW119910   5.217   5.891   5.077
 6337SOL    HW219911   5.091   5.859   5.175
 6338SOL     OW19912   1.610   1.017   3.089
 6338SOL    HW119913   1.684   0.995   3.152
 6338SOL    HW219914   1.563   0.933   3.062
 6339SOL     OW19915   0.426   4.744   3.485
 6339SOL    HW119916   0.388   4.829   3.521
 6339SOL    HW219917   0.431   4.748   3.386
 6340SOL     OW19918   2.954   4.161   0.617
 6340SOL    HW119919   2.958   4.243   0.675
 6340SOL    HW219920   2.887   4.097   0.654
 6341SOL     OW19921   0.278   5.373   2.812
 6341SOL    HW119922   0.277   5.390   2.713
 6341SOL    HW219923   0.184   5.361   2.844
 6342SOL     OW19924   2.022   0.994   1.193
 6342SOL    HW119925   1.999   1.084   1.229
 6342SOL    HW219926   2.105   0.960   1.237
 6343SOL     OW19927   0.969   5.017   0.932
 6343SOL    HW119928   0.893   4.989   0.992
 6343SOL    HW219929   1.037   5.067   0.986
 6344SOL     OW19930   6.933   1.185   4.084
 6344SOL    HW119931   6.862   1.118   4.067
 6344SOL    HW219932   6.913   1.269   4.034
 6345SOL     OW19933   5.817   2.990   1.849
 6345SOL    HW119934   5.752   2.957   1.917
 6345SOL    HW219935   5.838   2.917   1.784
 6346SOL     OW19936   7.005   4.974   5.803
 6346SOL    HW119937   0.048   4.890   5.803
 6346SOL    HW219938   0.051   5.050   5.834
 6347SOL     OW19939   2.199   1.799   2.918
 6347SOL    HW119940   2.274   1.736   2.933
 6347SOL    HW219941   2.116   1.763   2.961
 6348SOL     OW19942   0.782   2.094   6.241
 6348SOL    HW119943   0.867   2.047   6.262
 6348SOL    HW219944   0.718   2.031   6.198
 6349SOL     OW19945   6.705   0.936   0.080
 6349SOL    HW119946   6.762   1.003   0.032
 6349SOL    HW219947   6.734   0.929   0.175
 6350SOL     OW19948   0.893   5.486   2.019
 6350SOL    HW119949   0.949   5.467   1.939
 6350SOL    HW219950   0.931   5.564   2.068
 6351SOL     OW19951   5.459   3.107   1.756
 6351SOL    HW119952   5.371   3.065   1.782
 6351SOL    HW219953   5.524   3.098   1.831
 6352SOL     OW19954   3.128   0.536   3.933
 6352SOL    HW119955   3.141   0.592   3.851
 6352SOL    HW219956   3.075   0.587   4.001
 6353SOL     OW19957   3.685   6.584   5.537
 6353SOL    HW119958   3.714   6.500   5.582
 6353SOL    HW219959   3.746   6.659   5.562
 6354SOL     OW19960   4.681   5.553   1.091
 6354SOL    HW119961   4.605   5.511   1.140
 6354SOL    HW219962   4.648   5.597   1.007
 6355SOL     OW19963   2.803   4.667   0.609
 6355SOL    HW119964   2.900   4.649   0.592
 6355SOL    HW219965   2.747   4.599   0.561
 6356SOL     OW19966   6.418   5.335   6.215
 6356SOL    HW119967   6.321   5.321   6.195
 6356SOL    HW219968   6.472   5.317   6.133
 6357SOL     OW19969   5.663   1.334   2.067
 6357SOL    HW119970   5.665   1.434   2.070
 6357SOL    HW219971   5.630   1.298   2.154
 6358SOL     OW19972   1.478   1.961   5.676
 6358SOL    HW119973   1.561   2.005   5.641
 6358SOL    HW219974   1.504   1.887   5.739
 6359SOL     OW19975   5.608   6.813   0.763
 6359SOL    HW119976   5.538   6.778   0.826
 6359SOL    HW219977   5.571   6.890   0.711
 6360SOL     OW19978   0.414   1.803   2.499
 6360SOL    HW119979   0.509   1.774   2.487
 6360SOL    HW219980   0.411   1.903   2.504
 6361SOL     OW19981   0.032   0.936   6.575
 6361SOL    HW119982   0.099   0.862   6.580
 6361SOL    HW219983   6.968   0.917   6.637
 6362SOL     OW19984   1.149   5.589   0.519
 6362SOL    HW119985   1.079   5.539   0.469
 6362SOL    HW219986   1.109   5.674   0.555
 6363SOL     OW19987   2.393   4.408   3.037
 6363SOL    HW119988   2.351   4.371   2.955
 6363SOL    HW219989   2.397   4.337   3.108
 6364SOL     OW19990   2.480   2.607   4.124
 6364SOL    HW119991   2.464   2.554   4.208
 6364SOL    HW219992   2.450   2.701   4.138
 6365SOL     OW19993   5.182   6.613   3.060
 6365SOL    HW119994   5.137   6.605   3.149
 6365SOL    HW219995   5.280   6.621   3.073
 6366SOL     OW19996   6.107   0.287   5.388
 6366SOL    HW119997   6.205   0.273   5.371
 6366SOL    HW219998   6.065   0.200   5.414
 6367SOL     OW19999   1.686   2.019   2.325
 6367SOL    HW120000   1.712   1.924   2.309
 6367SOL    HW220001   1.586   2.026   2.330
 6368SOL     OW20002   4.951   3.302   4.961
 6368SOL    HW120003   5.009   3.224   4.936
 6368SOL    HW220004   4.895   3.278   5.040
 6369SOL     OW20005   4.400   5.298   0.146
 6369SOL    HW120006   4.306   5.325   0.167
 6369SOL    HW220007   4.445   5.265   0.229
 6370SOL     OW20008   5.305   3.862   4.509
 6370SOL    HW120009   5.241   3.920   4.458
 6370SOL    HW220010   5.254   3.803   4.572
 6371SOL     OW20011   5.483   4.280   0.777
 6371SOL    HW120012   5.395   4.289   0.823
 6371SOL    HW220013   5.469   4.270   0.679
 6372SOL     OW20014   6.377   1.704   2.328
 6372SOL    HW120015   6.371   1.614   2.286
 6372SOL    HW220016   6.423   1.696   2.416
 6373SOL     OW20017   4.970   4.281   1.622
 6373SOL    HW120018   4.892   4.239   1.668
 6373SOL    HW220019   4.968   4.380   1.636
 6374SOL     OW20020   4.247   3.996   6.731
 6374SOL    HW120021   4.257   3.897   6.725
 6374SOL    HW220022   4.224   4.033   6.641
 6375SOL     OW20023   5.217   2.227   2.148
 6375SOL    HW120024   5.303   2.185   2.178
 6375SOL    HW220025   5.141   2.185   2.198
 6376SOL     OW20026   3.404   0.701   6.815
 6376SOL    HW120027   3.366   0.682   6.906
 6376SOL    HW220028   3.356   0.646   6.747
 6377SOL     OW20029   0.310   0.361   0.984
 6377SOL    HW120030   0.351   0.269   0.986
 6377SOL    HW220031   0.256   0.371   0.901
 6378SOL     OW20032   4.902   4.544   1.713
 6378SOL    HW120033   4.804   4.545   1.735
 6378SOL    HW220034   4.921   4.611   1.641
 6379SOL     OW20035   2.016   5.344   6.500
 6379SOL    HW120036   2.082   5.285   6.453
 6379SOL    HW220037   1.923   5.310   6.482
 6380SOL     OW20038   1.573   3.831   4.883
 6380SOL    HW120039   1.595   3.899   4.953
 6380SOL    HW220040   1.566   3.875   4.794
 6381SOL     OW20041   4.315   2.409   0.547
 6381SOL    HW120042   4.397   2.351   0.541
 6381SOL    HW220043   4.323   2.485   0.483
 6382SOL     OW20044   1.308   1.394   0.643
 6382SOL    HW120045   1.317   1.493   0.632
 6382SOL    HW220046   1.360   1.364   0.723
 6383SOL     OW20047   2.118   2.396   1.805
 6383SOL    HW120048   2.197   2.459   1.804
 6383SOL    HW220049   2.131   2.328   1.877
 6384SOL     OW20050   6.728   2.824   2.461
 6384SOL    HW120051   6.710   2.728   2.483
 6384SOL    HW220052   6.827   2.838   2.453
 6385SOL     OW20053   0.413   2.929   0.937
 6385SOL    HW120054   0.492   2.927   0.875
 6385SOL    HW220055   0.429   2.996   1.010
 6386SOL     OW20056   2.598   3.485   0.290
 6386SOL    HW120057   2.692   3.460   0.311
 6386SOL    HW220058   2.548   3.499   0.376
 6387SOL     OW20059   0.039   0.020   6.944
 6387SOL    HW120060   0.044   0.056   0.025
 6387SOL    HW220061   0.069   6.936   6.944
 6388SOL     OW20062   6.318   5.468   2.342
 6388SOL    HW120063   6.303   5.451   2.245
 6388SOL    HW220064   6.394   5.412   2.375
 6389SOL     OW20065   0.466   0.551   0.397
 6389SOL    HW120066   0.546   0.605   0.369
 6389SOL    HW220067   0.496   0.477   0.456
 6390SOL     OW20068   5.116   0.381   6.606
 6390SOL    HW120069   5.152   0.383   6.513
 6390SOL    HW220070   5.190   0.390   6.672
 6391SOL     OW20071   1.237   1.714   4.894
 6391SOL    HW120072   1.179   1.655   4.950
 6391SOL    HW220073   1.282   1.782   4.953
 6392SOL     OW20074   3.819   6.792   3.712
 6392SOL    HW120075   3.822   6.892   3.709
 6392SOL    HW220076   3.907   6.755   3.685
 6393SOL     OW20077   0.491   5.108   0.133
 6393SOL    HW120078   0.528   5.035   0.075
 6393SOL    HW220079   0.563   5.175   0.151
 6394SOL     OW20080   1.615   5.818   1.597
 6394SOL    HW120081   1.711   5.846   1.595
 6394SOL    HW220082   1.576   5.825   1.505
 6395SOL     OW20083   2.303   4.180   3.172
 6395SOL    HW120084   2.316   4.116   3.097
 6395SOL    HW220085   2.233   4.146   3.235
 6396SOL     OW20086   1.032   3.494   6.054
 6396SOL    HW120087   0.984   3.448   5.979
 6396SOL    HW220088   1.122   3.524   6.023
 6397SOL     OW20089   5.510   3.938   4.179
 6397SOL    HW120090   5.578   3.893   4.238
 6397SOL    HW220091   5.423   3.944   4.228
 6398SOL     OW20092   2.222   0.232   1.266
 6398SOL    HW120093   2.242   0.144   1.222
 6398SOL    HW220094   2.128   0.233   1.298
 6399SOL     OW20095   3.162   0.726   5.830
 6399SOL    HW120096   3.218   0.711   5.911
 6399SOL    HW220097   3.165   0.823   5.805
 6400SOL     OW20098   1.275   6.298   2.983
 6400SOL    HW120099   1.340   6.242   3.034
 6400SOL    HW220100   1.276   6.391   3.019
 6401SOL     OW20101   3.694   5.244   3.291
 6401SOL    HW120102   3.640   5.249   3.375
 6401SOL    HW220103   3.788   5.269   3.311
 6402SOL     OW20104   2.228   4.589   5.173
 6402SOL    HW120105   2.253   4.681   5.144
 6402SOL    HW220106   2.305   4.527   5.157
 6403SOL     OW20107   4.970   5.439   5.379
 6403SOL    HW120108   4.954   5.537   5.393
 6403SOL    HW220109   4.993   5.422   5.283
 6404SOL     OW20110   4.352   6.427   1.738
 6404SOL    HW120111   4.370   6.513   1.785
 6404SOL    HW220112   4.439   6.383   1.715
 6405SOL     OW20113   5.429   1.659   3.089
 6405SOL    HW120114   5.348   1.717   3.101
 6405SOL    HW220115   5.499   1.685   3.156
 6406SOL     OW20116   6.901   3.524   3.534
 6406SOL    HW120117   6.926   3.466   3.612
 6406SOL    HW220118   6.838   3.596   3.565
 6407SOL     OW20119   0.535   5.716   2.014
 6407SOL    HW120120   0.522   5.779   2.090
 6407SOL    HW220121   0.592   5.759   1.944
 6408SOL     OW20122   6.428   0.428   2.376
 6408SOL    HW120123   6.435   0.424   2.476
 6408SOL    HW220124   6.514   0.461   2.338
 6409SOL     OW20125   5.221   5.266   3.561
 6409SOL    HW120126   5.168   5.343   3.596
 6409SOL    HW220127   5.199   5.252   3.465
 6410SOL     OW20128   1.653   1.428   6.673
 6410SOL    HW120129   1.566   1.474   6.655
 6410SOL    HW220130   1.728   1.491   6.656
 6411SOL     OW20131   0.579   2.617   2.027
 6411SOL    HW120132   0.613   2.707   2.054
 6411SOL    HW220133   0.619   2.547   2.086
 6412SOL     OW20134   3.372   0.949   0.009
 6412SOL    HW120135   3.453   0.906   0.049
 6412SOL    HW220136   3.385   1.048   0.004
 6413SOL     OW20137   4.949   6.280   3.001
 6413SOL    HW120138   4.942   6.349   2.929
 6413SOL    HW220139   4.950   6.324   3.090
 6414SOL     OW20140   1.433   0.435   0.013
 6414SOL    HW120141   1.362   0.475   0.072
 6414SOL    HW220142   1.474   0.507   6.969
 6415SOL     OW20143   0.266   2.299   3.685
 6415SOL    HW120144   0.277   2.364   3.610
 6415SOL    HW220145   0.171   2.300   3.716
 6416SOL     OW20146   2.264   6.650   0.379
 6416SOL    HW120147   2.324   6.583   0.336
 6416SOL    HW220148   2.174   6.608   0.395
 6417SOL     OW20149   4.332   2.545   6.700
 6417SOL    HW120150   4.272   2.557   6.621
 6417SOL    HW220151   4.427   2.545   6.671
 6418SOL     OW20152   5.192   4.365   0.165
 6418SOL    HW120153   5.291   4.355   0.152
 6418SOL    HW220154   5.175   4.435   0.234
 6419SOL     OW20155   1.086   6.301   5.977
 6419SOL    HW120156   1.125   6.364   6.044
 6419SOL    HW220157   1.099   6.207   6.007
 6420SOL     OW20158   1.969   4.229   4.563
 6420SOL    HW120159   1.942   4.317   4.523
 6420SOL    HW220160   2.034   4.184   4.503
 6421SOL     OW20161   3.954   0.497   2.079
 6421SOL    HW120162   3.891   0.509   2.156
 6421SOL    HW220163   4.034   0.555   2.092
 6422SOL     OW20164   5.969   2.059   4.264
 6422SOL    HW120165   6.012   1.968   4.263
 6422SOL    HW220166   5.930   2.078   4.174
 6423SOL     OW20167   1.682   4.382   4.364
 6423SOL    HW120168   1.614   4.392   4.436
 6423SOL    HW220169   1.771   4.412   4.397
 6424SOL     OW20170   6.200   4.735   5.281
 6424SOL    HW120171   6.196   4.829   5.246
 6424SOL    HW220172   6.114   4.713   5.327
 6425SOL     OW20173   6.685   5.388   4.280
 6425SOL    HW120174   6.714   5.465   4.224
 6425SOL    HW220175   6.748   5.311   4.268
 6426SOL     OW20176   4.811   3.907   5.125
 6426SOL    HW120177   4.805   3.808   5.118
 6426SOL    HW220178   4.862   3.944   5.047
 6427SOL     OW20179   3.830   3.062   2.579
 6427SOL    HW120180   3.845   3.133   2.648
 6427SOL    HW220181   3.779   2.987   2.620
 6428SOL     OW20182   5.431   2.626   0.447
 6428SOL    HW120183   5.453   2.724   0.457
 6428SOL    HW220184   5.356   2.616   0.381
 6429SOL     OW20185   2.121   1.238   5.046
 6429SOL    HW120186   2.067   1.320   5.063
 6429SOL    HW220187   2.202   1.239   5.106
 6430SOL     OW20188   6.402   0.590   5.445
 6430SOL    HW120189   6.337   0.551   5.509
 6430SOL    HW220190   6.399   0.540   5.359
 6431SOL     OW20191   3.616   4.793   1.593
 6431SOL    HW120192   3.624   4.731   1.671
 6431SOL    HW220193   3.529   4.843   1.598
 6432SOL     OW20194   4.942   4.291   6.037
 6432SOL    HW120195   4.972   4.232   5.962
 6432SOL    HW220196   4.856   4.336   6.012
 6433SOL     OW20197   3.190   4.451   6.620
 6433SOL    HW120198   3.190   4.551   6.619
 6433SOL    HW220199   3.193   4.419   6.715
 6434SOL     OW20200   4.599   5.425   6.347
 6434SOL    HW120201   4.555   5.461   6.264
 6434SOL    HW220202   4.645   5.500   6.395
 6435SOL     OW20203   5.231   2.085   1.623
 6435SOL    HW120204   5.316   2.136   1.618
 6435SOL    HW220205   5.210   2.061   1.718
 6436SOL     OW20206   6.249   3.814   4.100
 6436SOL    HW120207   6.208   3.768   4.021
 6436SOL    HW220208   6.286   3.903   4.073
 6437SOL     OW20209   1.262   2.154   5.686
 6437SOL    HW120210   1.324   2.076   5.678
 6437SOL    HW220211   1.310   2.237   5.656
 6438SOL     OW20212   0.695   4.616   7.011
 6438SOL    HW120213   0.659   4.524   6.997
 6438SOL    HW220214   0.770   4.613   0.066
 6439SOL     OW20215   4.929   0.055   3.204
 6439SOL    HW120216   4.873   0.124   3.157
 6439SOL    HW220217   5.025   0.070   3.183
 6440SOL     OW20218   2.914   2.072   6.286
 6440SOL    HW120219   2.989   2.119   6.334
 6440SOL    HW220220   2.863   2.138   6.232
 6441SOL     OW20221   0.132   1.735   2.358
 6441SOL    HW120222   0.082   1.780   2.284
 6441SOL    HW220223   0.165   1.804   2.422
 6442SOL     OW20224   2.685   2.398   4.436
 6442SOL    HW120225   2.735   2.319   4.401
 6442SOL    HW220226   2.660   2.383   4.532
 6443SOL     OW20227   4.549   3.040   0.304
 6443SOL    HW120228   4.637   3.037   0.258
 6443SOL    HW220229   4.486   2.975   0.261
 6444SOL     OW20230   6.498   3.590   4.687
 6444SOL    HW120231   6.408   3.623   4.660
 6444SOL    HW220232   6.541   3.542   4.610
 6445SOL     OW20233   3.052   3.090   3.547
 6445SOL    HW120234   3.139   3.138   3.534
 6445SOL    HW220235   3.025   3.047   3.461
 6446SOL     OW20236   1.693   1.289   6.273
 6446SOL    HW120237   1.731   1.360   6.215
 6446SOL    HW220238   1.597   1.309   6.292
 6447SOL     OW20239   5.928   3.654   1.500
 6447SOL    HW120240   5.843   3.625   1.456
 6447SOL    HW220241   5.986   3.575   1.515
 6448SOL     OW20242   3.141   5.206   1.514
 6448SOL    HW120243   3.096   5.241   1.596
 6448SOL    HW220244   3.195   5.125   1.538
 6449SOL     OW20245   2.698   5.310   1.129
 6449SOL    HW120246   2.621   5.341   1.184
 6449SOL    HW220247   2.671   5.231   1.074
 6450SOL     OW20248   0.924   4.822   0.382
 6450SOL    HW120249   0.838   4.869   0.400
 6450SOL    HW220250   0.946   4.762   0.459
 6451SOL     OW20251   4.810   2.610   1.455
 6451SOL    HW120252   4.729   2.578   1.505
 6451SOL    HW220253   4.846   2.692   1.500
 6452SOL     OW20254   4.650   1.632   3.854
 6452SOL    HW120255   4.744   1.666   3.849
 6452SOL    HW220256   4.627   1.611   3.949
 6453SOL     OW20257   2.192   0.626   2.106
 6453SOL    HW120258   2.096   0.654   2.106
 6453SOL    HW220259   2.231   0.637   2.015
 6454SOL     OW20260   4.950   2.012   3.460
 6454SOL    HW120261   4.926   1.916   3.475
 6454SOL    HW220262   4.866   2.065   3.452
 6455SOL     OW20263   6.444   3.477   3.551
 6455SOL    HW120264   6.474   3.424   3.472
 6455SOL    HW220265   6.444   3.419   3.633
 6456SOL     OW20266   6.341   0.942   2.548
 6456SOL    HW120267   6.298   0.961   2.637
 6456SOL    HW220268   6.431   0.985   2.546
 6457SOL     OW20269   3.392   0.026   1.737
 6457SOL    HW120270   3.464   0.084   1.776
 6457SOL    HW220271   3.396   6.947   1.780
 6458SOL     OW20272   6.846   5.272   3.851
 6458SOL    HW120273   6.757   5.233   3.830
 6458SOL    HW220274   6.871   5.339   3.780
 6459SOL     OW20275   6.981   2.985   3.089
 6459SOL    HW120276   0.010   3.071   3.059
 6459SOL    HW220277   6.919   3.002   3.166
 6460SOL     OW20278   0.531   5.633   6.513
 6460SOL    HW120279   0.545   5.574   6.433
 6460SOL    HW220280   0.600   5.611   6.582
 6461SOL     OW20281   1.006   5.574   1.240
 6461SOL    HW120282   0.936   5.644   1.229
 6461SOL    HW220283   1.080   5.590   1.174
 6462SOL     OW20284   1.861   4.205   5.505
 6462SOL    HW120285   1.763   4.196   5.519
 6462SOL    HW220286   1.882   4.298   5.474
 6463SOL     OW20287   4.836   2.004   1.402
 6463SOL    HW120288   4.894   1.929   1.370
 6463SOL    HW220289   4.889   2.065   1.461
 6464SOL     OW20290   1.041   4.232   3.495
 6464SOL    HW120291   0.984   4.204   3.418
 6464SOL    HW220292   1.009   4.187   3.578
 6465SOL     OW20293   3.553   1.596   3.621
 6465SOL    HW120294   3.478   1.623   3.682
 6465SOL    HW220295   3.586   1.676   3.571
 6466SOL     OW20296   6.585   3.788   0.426
 6466SOL    HW120297   6.557   3.867   0.481
 6466SOL    HW220298   6.505   3.746   0.384
 6467SOL     OW20299   2.470   2.857   0.451
 6467SOL    HW120300   2.417   2.930   0.494
 6467SOL    HW220301   2.517   2.804   0.522
 6468SOL     OW20302   2.646   1.182   0.892
 6468SOL    HW120303   2.559   1.207   0.935
 6468SOL    HW220304   2.706   1.142   0.961
 6469SOL     OW20305   2.885   1.560   2.319
 6469SOL    HW120306   2.797   1.604   2.302
 6469SOL    HW220307   2.933   1.547   2.233
 6470SOL     OW20308   0.099   1.927   6.817
 6470SOL    HW120309   0.163   1.869   6.767
 6470SOL    HW220310   0.146   1.973   6.892
 6471SOL     OW20311   0.937   6.436   5.813
 6471SOL    HW120312   0.969   6.375   5.885
 6471SOL    HW220313   0.904   6.521   5.853
 6472SOL     OW20314   6.528   6.280   3.058
 6472SOL    HW120315   6.550   6.184   3.045
 6472SOL    HW220316   6.480   6.292   3.145
 6473SOL     OW20317   2.813   1.507   3.478
 6473SOL    HW120318   2.728   1.534   3.523
 6473SOL    HW220319   2.865   1.589   3.452
 6474SOL     OW20320   3.871   5.480   4.875
 6474SOL    HW120321   3.942   5.545   4.848
 6474SOL    HW220322   3.800   5.528   4.927
 6475SOL     OW20323   5.967   5.528   2.613
 6475SOL    HW120324   5.982   5.460   2.541
 6475SOL    HW220325   5.999   5.491   2.700
 6476SOL     OW20326   3.707   2.022   6.684
 6476SOL    HW120327   3.650   2.085   6.736
 6476SOL    HW220328   3.691   2.034   6.586
 6477SOL     OW20329   6.158   6.016   1.354
 6477SOL    HW120330   6.170   6.048   1.448
 6477SOL    HW220331   6.245   6.020   1.305
 6478SOL     OW20332   3.194   5.798   1.064
 6478SOL    HW120333   3.174   5.807   1.162
 6478SOL    HW220334   3.195   5.889   1.023
 6479SOL     OW20335   3.535   6.365   3.166
 6479SOL    HW120336   3.479   6.409   3.095
 6479SOL    HW220337   3.475   6.318   3.231
 6480SOL     OW20338   3.953   2.117   6.745
 6480SOL    HW120339   3.865   2.104   6.700
 6480SOL    HW220340   4.017   2.048   6.713
 6481SOL     OW20341   3.554   2.707   1.495
 6481SOL    HW120342   3.580   2.707   1.592
 6481SOL    HW220343   3.594   2.628   1.450
 6482SOL     OW20344   5.742   4.041   5.950
 6482SOL    HW120345   5.742   4.018   6.047
 6482SOL    HW220346   5.675   3.984   5.903
 6483SOL     OW20347   1.833   6.577   4.915
 6483SOL    HW120348   1.773   6.544   4.988
 6483SOL    HW220349   1.779   6.594   4.833
 6484SOL     OW20350   2.601   1.101   3.524
 6484SOL    HW120351   2.632   1.020   3.475
 6484SOL    HW220352   2.511   1.128   3.491
 6485SOL     OW20353   2.526   6.343   5.338
 6485SOL    HW120354   2.480   6.427   5.310
 6485SOL    HW220355   2.465   6.291   5.398
 6486SOL     OW20356   1.175   5.225   2.959
 6486SOL    HW120357   1.261   5.175   2.954
 6486SOL    HW220358   1.185   5.314   2.915
 6487SOL     OW20359   5.535   4.728   4.512
 6487SOL    HW120360   5.504   4.769   4.426
 6487SOL    HW220361   5.635   4.728   4.515
 6488SOL     OW20362   3.870   5.349   4.616
 6488SOL    HW120363   3.920   5.262   4.624
 6488SOL    HW220364   3.921   5.420   4.663
 6489SOL     OW20365   4.828   2.440   5.172
 6489SOL    HW120366   4.824   2.376   5.095
 6489SOL    HW220367   4.735   2.467   5.197
 6490SOL     OW20368   2.223   2.150   6.754
 6490SOL    HW120369   2.192   2.225   6.813
 6490SOL    HW220370   2.305   2.109   6.794
 6491SOL     OW20371   2.584   0.048   1.807
 6491SOL    HW120372   2.561   0.144   1.821
 6491SOL    HW220373   2.500   7.007   1.791
 6492SOL     OW20374   3.913   3.570   5.084
 6492SOL    HW120375   3.891   3.615   5.171
 6492SOL    HW220376   4.000   3.605   5.050
 6493SOL     OW20377   0.832   4.475   4.939
 6493SOL    HW120378   0.824   4.573   4.952
 6493SOL    HW220379   0.877   4.457   4.851
 6494SOL     OW20380   6.184   0.400   1.383
 6494SOL    HW120381   6.143   0.310   1.375
 6494SOL    HW220382   6.118   0.463   1.425
 6495SOL     OW20383   6.242   0.511   3.441
 6495SOL    HW120384   6.333   0.528   3.478
 6495SOL    HW220385   6.204   0.429   3.484
 6496SOL     OW20386   3.455   1.516   1.695
 6496SOL    HW120387   3.391   1.592   1.690
 6496SOL    HW220388   3.512   1.515   1.613
 6497SOL     OW20389   0.337   1.309   0.793
 6497SOL    HW120390   0.382   1.307   0.703
 6497SOL    HW220391   0.241   1.336   0.781
 6498SOL     OW20392   0.780   4.491   3.784
 6498SOL    HW120393   0.853   4.506   3.717
 6498SOL    HW220394   0.788   4.399   3.822
 6499SOL     OW20395   4.829   3.092   3.382
 6499SOL    HW120396   4.900   3.061   3.446
 6499SOL    HW220397   4.771   3.015   3.357
 6500SOL     OW20398   1.294   4.499   2.803
 6500SOL    HW120399   1.382   4.545   2.791
 6500SOL    HW220400   1.273   4.492   2.900
 6501SOL     OW20401   6.079   1.867   1.943
 6501SOL    HW120402   5.996   1.869   1.887
 6501SOL    HW220403   6.158   1.891   1.887
 6502SOL     OW20404   6.957   3.541   2.238
 6502SOL    HW120405   6.859   3.559   2.234
 6502SOL    HW220406   6.988   3.542   2.333
 6503SOL     OW20407   6.912   3.488   5.540
 6503SOL    HW120408   6.828   3.461   5.494
 6503SOL    HW220409   6.959   3.407   5.575
 6504SOL     OW20410   4.743   6.012   6.516
 6504SOL    HW120411   4.716   6.099   6.558
 6504SOL    HW220412   4.675   5.987   6.446
 6505SOL     OW20413   6.951   5.755   0.163
 6505SOL    HW120414   6.967   5.851   0.188
 6505SOL    HW220415   7.001   5.696   0.226
 6506SOL     OW20416   0.187   3.520   2.122
 6506SOL    HW120417   0.252   3.481   2.188
 6506SOL    HW220418   0.098   3.532   2.166
 6507SOL     OW20419   3.387   4.988   6.843
 6507SOL    HW120420   3.368   5.086   6.848
 6507SOL    HW220421   3.301   4.937   6.846
 6508SOL     OW20422   0.551   0.042   2.622
 6508SOL    HW120423   0.527   0.092   2.705
 6508SOL    HW220424   0.525   6.958   2.631
 6509SOL     OW20425   2.405   1.645   6.530
 6509SOL    HW120426   2.480   1.590   6.564
 6509SOL    HW220427   2.424   1.742   6.546
 6510SOL     OW20428   2.951   6.073   5.848
 6510SOL    HW120429   2.965   5.986   5.800
 6510SOL    HW220430   3.030   6.132   5.832
 6511SOL     OW20431   3.265   1.772   0.697
 6511SOL    HW120432   3.239   1.840   0.766
 6511SOL    HW220433   3.248   1.680   0.734
 6512SOL     OW20434   3.725   1.696   0.110
 6512SOL    HW120435   3.734   1.754   0.191
 6512SOL    HW220436   3.706   1.754   0.030
 6513SOL     OW20437   2.784   4.716   2.958
 6513SOL    HW120438   2.800   4.660   3.039
 6513SOL    HW220439   2.868   4.764   2.934
 6514SOL     OW20440   5.151   6.466   5.454
 6514SOL    HW120441   5.147   6.369   5.478
 6514SOL    HW220442   5.069   6.491   5.402
 6515SOL     OW20443   1.249   4.869   2.137
 6515SOL    HW120444   1.344   4.859   2.168
 6515SOL    HW220445   1.247   4.895   2.041
 6516SOL     OW20446   6.724   3.827   1.594
 6516SOL    HW120447   6.685   3.736   1.606
 6516SOL    HW220448   6.693   3.886   1.669
 6517SOL     OW20449   0.334   3.764   0.991
 6517SOL    HW120450   0.249   3.776   0.940
 6517SOL    HW220451   0.405   3.823   0.951
 6518SOL     OW20452   0.505   1.690   2.836
 6518SOL    HW120453   0.460   1.648   2.756
 6518SOL    HW220454   0.499   1.789   2.829
 6519SOL     OW20455   1.159   1.646   3.178
 6519SOL    HW120456   1.219   1.674   3.254
 6519SOL    HW220457   1.070   1.692   3.187
 6520SOL     OW20458   6.974   5.276   0.047
 6520SOL    HW120459   6.899   5.229   0.001
 6520SOL    HW220460   7.005   5.353   7.003
 6521SOL     OW20461   1.565   3.960   3.539
 6521SOL    HW120462   1.515   4.029   3.592
 6521SOL    HW220463   1.500   3.903   3.490
 6522SOL     OW20464   2.689   3.084   5.320
 6522SOL    HW120465   2.597   3.076   5.282
 6522SOL    HW220466   2.706   3.008   5.383
 6523SOL     OW20467   6.044   0.327   0.628
 6523SOL    HW120468   6.073   0.361   0.538
 6523SOL    HW220469   6.028   0.228   0.622
 6524SOL     OW20470   2.445   2.736   0.761
 6524SOL    HW120471   2.487   2.735   0.852
 6524SOL    HW220472   2.464   2.649   0.715
 6525SOL     OW20473   1.128   5.290   3.453
 6525SOL    HW120474   1.077   5.204   3.460
 6525SOL    HW220475   1.064   5.367   3.462
 6526SOL     OW20476   0.677   5.737   0.043
 6526SOL    HW120477   0.654   5.790   6.973
 6526SOL    HW220478   0.685   5.640   0.018
 6527SOL     OW20479   6.790   1.716   0.223
 6527SOL    HW120480   6.822   1.783   0.289
 6527SOL    HW220481   6.866   1.658   0.195
 6528SOL     OW20482   4.278   6.545   6.628
 6528SOL    HW120483   4.220   6.467   6.605
 6528SOL    HW220484   4.293   6.601   6.546
 6529SOL     OW20485   5.716   0.848   2.731
 6529SOL    HW120486   5.654   0.899   2.671
 6529SOL    HW220487   5.704   0.750   2.715
 6530SOL     OW20488   0.548   3.408   2.868
 6530SOL    HW120489   0.629   3.384   2.921
 6530SOL    HW220490   0.538   3.343   2.792
 6531SOL     OW20491   3.549   4.113   5.002
 6531SOL    HW120492   3.462   4.093   4.958
 6531SOL    HW220493   3.612   4.151   4.935
 6532SOL     OW20494   1.263   0.368   0.474
 6532SOL    HW120495   1.336   0.308   0.507
 6532SOL    HW220496   1.200   0.387   0.549
 6533SOL     OW20497   4.939   3.707   1.098
 6533SOL    HW120498   4.985   3.795   1.094
 6533SOL    HW220499   4.900   3.693   1.190
 6534SOL     OW20500   6.907   4.434   3.003
 6534SOL    HW120501   6.925   4.350   3.053
 6534SOL    HW220502   6.966   4.508   3.038
 6535SOL     OW20503   5.005   2.823   5.245
 6535SOL    HW120504   5.025   2.921   5.241
 6535SOL    HW220505   5.011   2.791   5.340
 6536SOL     OW20506   0.374   4.859   5.326
 6536SOL    HW120507   0.383   4.760   5.314
 6536SOL    HW220508   0.288   4.889   5.283
 6537SOL     OW20509   6.203   5.395   3.960
 6537SOL    HW120510   6.215   5.451   3.878
 6537SOL    HW220511   6.109   5.400   3.991
 6538SOL     OW20512   1.775   3.126   5.665
 6538SOL    HW120513   1.762   3.225   5.658
 6538SOL    HW220514   1.873   3.104   5.663
 6539SOL     OW20515   5.098   0.792   5.874
 6539SOL    HW120516   5.115   0.880   5.918
 6539SOL    HW220517   5.185   0.749   5.851
 6540SOL     OW20518   6.364   2.781   5.481
 6540SOL    HW120519   6.399   2.871   5.507
 6540SOL    HW220520   6.282   2.792   5.425
 6541SOL     OW20521   5.909   1.597   5.335
 6541SOL    HW120522   5.967   1.669   5.375
 6541SOL    HW220523   5.813   1.617   5.353
 6542SOL     OW20524   1.777   4.410   2.951
 6542SOL    HW120525   1.786   4.494   3.004
 6542SOL    HW220526   1.760   4.432   2.855
 6543SOL     OW20527   3.734   1.532   4.713
 6543SOL    HW120528   3.762   1.627   4.696
 6543SOL    HW220529   3.674   1.529   4.793
 6544SOL     OW20530   0.833   6.688   1.784
 6544SOL    HW120531   0.734   6.680   1.770
 6544SOL    HW220532   0.867   6.609   1.834
 6545SOL     OW20533   4.844   6.581   0.636
 6545SOL    HW120534   4.856   6.676   0.666
 6545SOL    HW220535   4.917   6.557   0.572
 6546SOL     OW20536   4.820   3.818   6.366
 6546SOL    HW120537   4.872   3.890   6.413
 6546SOL    HW220538   4.882   3.762   6.311
 6547SOL     OW20539   0.159   5.760   6.154
 6547SOL    HW120540   0.173   5.791   6.060
 6547SOL    HW220541   0.147   5.661   6.155
 6548SOL     OW20542   0.174   1.279   5.336
 6548SOL    HW120543   0.133   1.224   5.409
 6548SOL    HW220544   0.161   1.376   5.356
 6549SOL     OW20545   4.791   1.259   2.509
 6549SOL    HW120546   4.823   1.165   2.522
 6549SOL    HW220547   4.833   1.297   2.426
 6550SOL     OW20548   5.721   6.281   3.567
 6550SOL    HW120549   5.703   6.307   3.473
 6550SOL    HW220550   5.814   6.310   3.592
 6551SOL     OW20551   3.423   3.864   0.790
 6551SOL    HW120552   3.426   3.764   0.792
 6551SOL    HW220553   3.436   3.897   0.697
 6552SOL     OW20554   2.092   5.916   0.549
 6552SOL    HW120555   2.008   5.873   0.518
 6552SOL    HW220556   2.115   5.882   0.641
 6553SOL     OW20557   0.833   1.064   4.269
 6553SOL    HW120558   0.845   1.043   4.172
 6553SOL    HW220559   0.793   1.155   4.279
 6554SOL     OW20560   1.920   1.262   3.835
 6554SOL    HW120561   1.831   1.295   3.865
 6554SOL    HW220562   1.992   1.316   3.879
 6555SOL     OW20563   6.414   3.760   3.530
 6555SOL    HW120564   6.354   3.802   3.597
 6555SOL    HW220565   6.432   3.665   3.556
 6556SOL     OW20566   4.872   3.269   2.718
 6556SOL    HW120567   4.900   3.250   2.623
 6556SOL    HW220568   4.904   3.360   2.743
 6557SOL     OW20569   2.220   0.382   2.206
 6557SOL    HW120570   2.307   0.376   2.254
 6557SOL    HW220571   2.210   0.474   2.167
 6558SOL     OW20572   5.808   6.127   6.249
 6558SOL    HW120573   5.758   6.200   6.202
 6558SOL    HW220574   5.757   6.100   6.331
 6559SOL     OW20575   0.167   2.153   6.050
 6559SOL    HW120576   0.116   2.194   5.975
 6559SOL    HW220577   0.264   2.149   6.026
 6560SOL     OW20578   5.303   4.707   0.394
 6560SOL    HW120579   5.207   4.681   0.392
 6560SOL    HW220580   5.360   4.626   0.377
 6561SOL     OW20581   3.641   4.625   0.093
 6561SOL    HW120582   3.670   4.711   0.050
 6561SOL    HW220583   3.553   4.597   0.055
 6562SOL     OW20584   5.314   2.687   1.365
 6562SOL    HW120585   5.308   2.686   1.464
 6562SOL    HW220586   5.395   2.636   1.336
 6563SOL     OW20587   5.111   5.542   4.965
 6563SOL    HW120588   5.202   5.506   4.945
 6563SOL    HW220589   5.068   5.571   4.880
 6564SOL     OW20590   6.117   3.512   2.865
 6564SOL    HW120591   6.216   3.496   2.865
 6564SOL    HW220592   6.069   3.424   2.866
 6565SOL     OW20593   5.296   0.646   3.322
 6565SOL    HW120594   5.298   0.630   3.421
 6565SOL    HW220595   5.331   0.738   3.303
 6566SOL     OW20596   4.667   5.998   2.756
 6566SOL    HW120597   4.580   5.955   2.731
 6566SOL    HW220598   4.674   6.003   2.855
 6567SOL     OW20599   4.119   0.838   1.262
 6567SOL    HW120600   4.142   0.744   1.289
 6567SOL    HW220601   4.031   0.839   1.215
 6568SOL     OW20602   4.292   1.787   1.328
 6568SOL    HW120603   4.285   1.884   1.303
 6568SOL    HW220604   4.214   1.737   1.288
 6569SOL     OW20605   0.299   4.350   5.142
 6569SOL    HW120606   0.221   4.296   5.109
 6569SOL    HW220607   0.383   4.318   5.098
 6570SOL     OW20608   4.291   0.234   2.040
 6570SOL    HW120609   4.267   0.251   2.135
 6570SOL    HW220610   4.260   0.142   2.014
 6571SOL     OW20611   3.326   4.882   3.032
 6571SOL    HW120612   3.380   4.919   3.108
 6571SOL    HW220613   3.239   4.930   3.026
 6572SOL     OW20614   1.451   5.592   4.061
 6572SOL    HW120615   1.535   5.598   4.006
 6572SOL    HW220616   1.377   5.640   4.014
 6573SOL     OW20617   1.501   1.116   3.576
 6573SOL    HW120618   1.498   1.017   3.590
 6573SOL    HW220619   1.549   1.136   3.491
 6574SOL     OW20620   1.984   5.838   2.038
 6574SOL    HW120621   2.080   5.862   2.023
 6574SOL    HW220622   1.951   5.885   2.120
 6575SOL     OW20623   6.797   1.247   2.991
 6575SOL    HW120624   6.727   1.299   2.942
 6575SOL    HW220625   6.887   1.274   2.958
 6576SOL     OW20626   4.712   5.941   0.715
 6576SOL    HW120627   4.779   5.914   0.785
 6576SOL    HW220628   4.666   6.025   0.745
 6577SOL     OW20629   2.998   0.968   3.540
 6577SOL    HW120630   2.948   1.049   3.572
 6577SOL    HW220631   3.085   0.962   3.589
 6578SOL     OW20632   1.570   4.867   1.628
 6578SOL    HW120633   1.643   4.882   1.561
 6578SOL    HW220634   1.481   4.883   1.584
 6579SOL     OW20635   6.715   0.756   4.065
 6579SOL    HW120636   6.729   0.826   4.135
 6579SOL    HW220637   6.792   0.692   4.066
 6580SOL     OW20638   2.401   1.675   0.120
 6580SOL    HW120639   2.314   1.657   0.074
 6580SOL    HW220640   2.434   1.590   0.162
 6581SOL     OW20641   0.477   1.829   1.072
 6581SOL    HW120642   0.566   1.849   1.114
 6581SOL    HW220643   0.416   1.790   1.141
 6582SOL     OW20644   6.607   1.111   3.199
 6582SOL    HW120645   6.583   1.016   3.179
 6582SOL    HW220646   6.659   1.149   3.122
 6583SOL     OW20647   3.550   5.425   6.574
 6583SOL    HW120648   3.489   5.502   6.591
 6583SOL    HW220649   3.637   5.458   6.538
 6584SOL     OW20650   3.876   2.707   0.756
 6584SOL    HW120651   3.974   2.688   0.744
 6584SOL    HW220652   3.837   2.739   0.670
 6585SOL     OW20653   5.731   6.532   1.159
 6585SOL    HW120654   5.803   6.596   1.186
 6585SOL    HW220655   5.715   6.466   1.232
 6586SOL     OW20656   0.042   1.962   6.419
 6586SOL    HW120657   6.961   1.973   6.456
 6586SOL    HW220658   0.108   2.006   6.480
 6587SOL     OW20659   1.769   4.593   5.581
 6587SOL    HW120660   1.674   4.581   5.609
 6587SOL    HW220661   1.817   4.649   5.649
 6588SOL     OW20662   6.768   2.912   0.648
 6588SOL    HW120663   6.847   2.870   0.693
 6588SOL    HW220664   6.796   2.999   0.606
 6589SOL     OW20665   6.606   0.202   2.160
 6589SOL    HW120666   6.526   0.143   2.171
 6589SOL    HW220667   6.578   0.287   2.114
 6590SOL     OW20668   1.293   6.412   3.898
 6590SOL    HW120669   1.347   6.494   3.882
 6590SOL    HW220670   1.354   6.337   3.926
 6591SOL     OW20671   5.803   4.319   4.147
 6591SOL    HW120672   5.841   4.340   4.237
 6591SOL    HW220673   5.723   4.260   4.158
 6592SOL     OW20674   6.028   0.113   3.233
 6592SOL    HW120675   6.093   0.188   3.247
 6592SOL    HW220676   5.998   0.113   3.138
 6593SOL     OW20677   2.825   1.895   1.996
 6593SOL    HW120678   2.766   1.975   1.992
 6593SOL    HW220679   2.853   1.878   2.091
 6594SOL     OW20680   5.124   0.620   6.173
 6594SOL    HW120681   5.087   0.647   6.261
 6594SOL    HW220682   5.193   0.687   6.144
 6595SOL     OW20683   0.949   2.331   5.500
 6595SOL    HW120684   0.977   2.386   5.421
 6595SOL    HW220685   0.988   2.239   5.491
 6596SOL     OW20686   5.780   6.781   2.705
 6596SOL    HW120687   5.819   6.690   2.693
 6596SOL    HW220688   5.702   6.776   2.767
 6597SOL     OW20689   0.919   4.550   2.032
 6597SOL    HW120690   0.842   4.540   1.969
 6597SOL    HW220691   0.926   4.645   2.061
 6598SOL     OW20692   1.424   4.582   4.115
 6598SOL    HW120693   1.336   4.592   4.162
 6598SOL    HW220694   1.480   4.663   4.131
 6599SOL     OW20695   6.139   5.338   6.214
 6599SOL    HW120696   6.074   5.278   6.262
 6599SOL    HW220697   6.138   5.428   6.257
 6600SOL     OW20698   4.433   0.206   5.060
 6600SOL    HW120699   4.404   0.172   4.970
 6600SOL    HW220700   4.430   0.131   5.126
 6601SOL     OW20701   1.585   2.322   1.670
 6601SOL    HW120702   1.568   2.223   1.678
 6601SOL    HW220703   1.652   2.338   1.597
 6602SOL     OW20704   1.014   6.167   1.971
 6602SOL    HW120705   1.092   6.141   2.029
 6602SOL    HW220706   1.019   6.118   1.884
 6603SOL     OW20707   0.380   3.558   3.037
 6603SOL    HW120708   0.382   3.658   3.043
 6603SOL    HW220709   0.434   3.529   2.957
 6604SOL     OW20710   2.559   6.119   2.769
 6604SOL    HW120711   2.611   6.147   2.688
 6604SOL    HW220712   2.487   6.186   2.786
 6605SOL     OW20713   6.946   5.136   0.977
 6605SOL    HW120714   6.970   5.226   1.013
 6605SOL    HW220715   7.005   5.115   0.899
 6606SOL     OW20716   1.624   3.211   3.096
 6606SOL    HW120717   1.643   3.246   3.188
 6606SOL    HW220718   1.676   3.264   3.029
 6607SOL     OW20719   5.968   3.803   3.253
 6607SOL    HW120720   6.065   3.792   3.277
 6607SOL    HW220721   5.926   3.713   3.245
 6608SOL     OW20722   1.546   5.847   6.060
 6608SOL    HW120723   1.635   5.886   6.085
 6608SOL    HW220724   1.494   5.914   6.008
 6609SOL     OW20725   4.812   1.654   6.123
 6609SOL    HW120726   4.751   1.662   6.202
 6609SOL    HW220727   4.763   1.613   6.046
 6610SOL     OW20728   2.890   5.191   0.827
 6610SOL    HW120729   2.883   5.118   0.759
 6610SOL    HW220730   2.933   5.156   0.910
 6611SOL     OW20731   4.064   1.787   4.651
 6611SOL    HW120732   4.086   1.881   4.625
 6611SOL    HW220733   3.981   1.758   4.604
 6612SOL     OW20734   0.454   0.667   6.196
 6612SOL    HW120735   0.451   0.703   6.290
 6612SOL    HW220736   0.452   0.744   6.131
 6613SOL     OW20737   4.661   6.495   0.261
 6613SOL    HW120738   4.576   6.470   0.214
 6613SOL    HW220739   4.650   6.479   0.359
 6614SOL     OW20740   4.492   5.859   0.908
 6614SOL    HW120741   4.545   5.944   0.900
 6614SOL    HW220742   4.428   5.867   0.985
 6615SOL     OW20743   3.529   4.730   6.524
 6615SOL    HW120744   3.576   4.793   6.463
 6615SOL    HW220745   3.532   4.638   6.486
 6616SOL     OW20746   4.123   1.108   5.646
 6616SOL    HW120747   4.120   1.202   5.614
 6616SOL    HW220748   4.030   1.073   5.655
 6617SOL     OW20749   4.019   0.391   4.028
 6617SOL    HW120750   4.008   0.374   4.126
 6617SOL    HW220751   4.103   0.347   3.996
 6618SOL     OW20752   6.731   2.623   3.906
 6618SOL    HW120753   6.659   2.595   3.969
 6618SOL    HW220754   6.693   2.685   3.838
 6619SOL     OW20755   4.753   6.039   4.279
 6619SOL    HW120756   4.841   6.041   4.326
 6619SOL    HW220757   4.709   6.129   4.287
 6620SOL     OW20758   0.589   3.267   3.487
 6620SOL    HW120759   0.547   3.323   3.415
 6620SOL    HW220760   0.688   3.281   3.486
 6621SOL     OW20761   4.044   3.368   4.862
 6621SOL    HW120762   4.053   3.328   4.953
 6621SOL    HW220763   3.963   3.427   4.858
 6622SOL     OW20764   0.657   5.657   0.648
 6622SOL    HW120765   0.575   5.664   0.705
 6622SOL    HW220766   0.694   5.564   0.655
 6623SOL     OW20767   3.309   3.429   5.571
 6623SOL    HW120768   3.258   3.380   5.500
 6623SOL    HW220769   3.246   3.467   5.638
 6624SOL     OW20770   1.909   1.836   3.392
 6624SOL    HW120771   1.852   1.761   3.427
 6624SOL    HW220772   1.960   1.805   3.312
 6625SOL     OW20773   5.965   3.932   5.776
 6625SOL    HW120774   5.997   3.857   5.835
 6625SOL    HW220775   5.884   3.974   5.816
 6626SOL     OW20776   2.783   6.241   5.440
 6626SOL    HW120777   2.751   6.172   5.506
 6626SOL    HW220778   2.710   6.307   5.423
 6627SOL     OW20779   1.860   5.957   4.424
 6627SOL    HW120780   1.785   5.902   4.389
 6627SOL    HW220781   1.947   5.908   4.411
 6628SOL     OW20782   3.995   6.148   4.685
 6628SOL    HW120783   4.006   6.145   4.784
 6628SOL    HW220784   3.941   6.069   4.656
 6629SOL     OW20785   4.775   6.294   6.347
 6629SOL    HW120786   4.767   6.292   6.447
 6629SOL    HW220787   4.777   6.389   6.316
 6630SOL     OW20788   1.570   0.636   0.977
 6630SOL    HW120789   1.640   0.668   1.041
 6630SOL    HW220790   1.486   0.689   0.990
 6631SOL     OW20791   1.263   3.587   5.950
 6631SOL    HW120792   1.245   3.685   5.952
 6631SOL    HW220793   1.356   3.571   5.917
 6632SOL     OW20794   0.980   1.022   0.933
 6632SOL    HW120795   0.886   1.055   0.932
 6632SOL    HW220796   1.039   1.089   0.889
 6633SOL     OW20797   3.692   5.369   5.622
 6633SOL    HW120798   3.642   5.289   5.654
 6633SOL    HW220799   3.695   5.438   5.695
 6634SOL     OW20800   3.958   1.616   4.171
 6634SOL    HW120801   3.988   1.711   4.175
 6634SOL    HW220802   3.888   1.605   4.101
 6635SOL     OW20803   5.167   5.041   3.982
 6635SOL    HW120804   5.259   5.014   4.009
 6635SOL    HW220805   5.125   4.969   3.928
 6636SOL     OW20806   4.060   0.552   6.628
 6636SOL    HW120807   4.007   0.506   6.557
 6636SOL    HW220808   4.020   0.643   6.645
 6637SOL     OW20809   1.198   1.681   1.506
 6637SOL    HW120810   1.241   1.691   1.416
 6637SOL    HW220811   1.267   1.694   1.577
 6638SOL     OW20812   3.265   3.454   3.711
 6638SOL    HW120813   3.222   3.535   3.671
 6638SOL    HW220814   3.252   3.376   3.650
 6639SOL     OW20815   5.029   2.753   1.303
 6639SOL    HW120816   5.037   2.835   1.358
 6639SOL    HW220817   5.101   2.688   1.328
 6640SOL     OW20818   1.648   3.577   4.985
 6640SOL    HW120819   1.633   3.492   4.934
 6640SOL    HW220820   1.605   3.653   4.935
 6641SOL     OW20821   5.180   2.001   1.360
 6641SOL    HW120822   5.213   2.042   1.445
 6641SOL    HW220823   5.216   1.908   1.351
 6642SOL     OW20824   1.085   5.799   0.199
 6642SOL    HW120825   1.143   5.880   0.208
 6642SOL    HW220826   1.138   5.717   0.221
 6643SOL     OW20827   4.012   5.649   6.365
 6643SOL    HW120828   3.957   5.670   6.284
 6643SOL    HW220829   4.010   5.727   6.427
 6644SOL     OW20830   1.861   6.684   3.629
 6644SOL    HW120831   1.935   6.667   3.564
 6644SOL    HW220832   1.888   6.754   3.694
 6645SOL     OW20833   5.865   2.480   0.504
 6645SOL    HW120834   5.832   2.501   0.596
 6645SOL    HW220835   5.806   2.524   0.437
 6646SOL     OW20836   4.372   0.015   5.970
 6646SOL    HW120837   4.392   6.937   6.010
 6646SOL    HW220838   4.273   0.024   5.955
 6647SOL     OW20839   4.362   5.398   0.861
 6647SOL    HW120840   4.423   5.477   0.861
 6647SOL    HW220841   4.388   5.336   0.935
 6648SOL     OW20842   2.950   6.325   6.285
 6648SOL    HW120843   2.873   6.325   6.349
 6648SOL    HW220844   3.031   6.289   6.332
 6649SOL     OW20845   5.198   3.585   6.907
 6649SOL    HW120846   5.221   3.494   6.942
 6649SOL    HW220847   5.273   3.618   6.850
 6650SOL     OW20848   2.329   1.948   5.052
 6650SOL    HW120849   2.243   1.996   5.068
 6650SOL    HW220850   2.359   1.964   4.958
 6651SOL     OW20851   6.592   1.501   6.440
 6651SOL    HW120852   6.504   1.544   6.421
 6651SOL    HW220853   6.618   1.519   6.534
 6652SOL     OW20854   0.326   4.547   0.457
 6652SOL    HW120855   0.264   4.469   0.469
 6652SOL    HW220856   0.292   4.606   0.384
 6653SOL     OW20857   5.613   4.678   0.446
 6653SOL    HW120858   5.581   4.584   0.431
 6653SOL    HW220859   5.566   4.716   0.525
 6654SOL     OW20860   6.552   4.211   3.250
 6654SOL    HW120861   6.611   4.273   3.301
 6654SOL    HW220862   6.517   4.257   3.169
 6655SOL     OW20863   6.918   4.885   2.075
 6655SOL    HW120864   6.957   4.951   2.138
 6655SOL    HW220865   6.987   4.855   2.009
 6656SOL     OW20866   4.508   1.296   3.147
 6656SOL    HW120867   4.502   1.391   3.178
 6656SOL    HW220868   4.584   1.250   3.194
 6657SOL     OW20869   5.087   2.194   3.646
 6657SOL    HW120870   5.150   2.244   3.587
 6657SOL    HW220871   5.010   2.161   3.592
 6658SOL     OW20872   6.705   5.809   5.595
 6658SOL    HW120873   6.772   5.754   5.544
 6658SOL    HW220874   6.748   5.894   5.625
 6659SOL     OW20875   0.837   5.033   2.291
 6659SOL    HW120876   0.833   5.133   2.286
 6659SOL    HW220877   0.840   5.004   2.386
 6660SOL     OW20878   6.809   6.436   3.755
 6660SOL    HW120879   6.709   6.436   3.752
 6660SOL    HW220880   6.840   6.509   3.815
 6661SOL     OW20881   3.456   5.659   4.142
 6661SOL    HW120882   3.550   5.627   4.132
 6661SOL    HW220883   3.405   5.596   4.201
 6662SOL     OW20884   4.203   6.699   2.143
 6662SOL    HW120885   4.108   6.695   2.110
 6662SOL    HW220886   4.226   6.612   2.187
 6663SOL     OW20887   1.212   3.857   5.900
 6663SOL    HW120888   1.136   3.873   5.837
 6663SOL    HW220889   1.268   3.939   5.906
 6664SOL     OW20890   3.204   0.159   1.243
 6664SOL    HW120891   3.202   0.174   1.342
 6664SOL    HW220892   3.114   0.129   1.212
 6665SOL     OW20893   2.398   0.710   6.073
 6665SOL    HW120894   2.481   0.655   6.065
 6665SOL    HW220895   2.397   0.779   6.000
 6666SOL     OW20896   3.931   6.540   5.161
 6666SOL    HW120897   3.912   6.477   5.085
 6666SOL    HW220898   3.997   6.609   5.131
 6667SOL     OW20899   0.129   6.410   6.894
 6667SOL    HW120900   0.054   6.360   6.849
 6667SOL    HW220901   0.193   6.345   6.935
 6668SOL     OW20902   0.429   4.751   0.738
 6668SOL    HW120903   0.447   4.687   0.662
 6668SOL    HW220904   0.503   4.819   0.742
 6669SOL     OW20905   1.190   1.364   3.147
 6669SOL    HW120906   1.150   1.318   3.227
 6669SOL    HW220907   1.185   1.463   3.161
 6670SOL     OW20908   4.109   2.313   1.176
 6670SOL    HW120909   4.049   2.366   1.237
 6670SOL    HW220910   4.158   2.244   1.230
 6671SOL     OW20911   4.720   5.652   0.595
 6671SOL    HW120912   4.719   5.747   0.624
 6671SOL    HW220913   4.793   5.638   0.527
 6672SOL     OW20914   2.090   2.246   0.881
 6672SOL    HW120915   2.152   2.296   0.821
 6672SOL    HW220916   1.996   2.259   0.849
 6673SOL     OW20917   6.131   3.103   3.790
 6673SOL    HW120918   6.149   3.017   3.743
 6673SOL    HW220919   6.051   3.147   3.749
 6674SOL     OW20920   0.244   1.684   0.146
 6674SOL    HW120921   0.278   1.768   0.104
 6674SOL    HW220922   0.320   1.620   0.157
 6675SOL     OW20923   5.637   1.552   6.622
 6675SOL    HW120924   5.552   1.593   6.587
 6675SOL    HW220925   5.619   1.460   6.655
 6676SOL     OW20926   1.362   3.861   3.392
 6676SOL    HW120927   1.289   3.795   3.376
 6676SOL    HW220928   1.389   3.902   3.305
 6677SOL     OW20929   0.529   1.609   6.984
 6677SOL    HW120930   0.561   1.514   6.985
 6677SOL    HW220931   0.544   1.650   0.063
 6678SOL     OW20932   2.113   4.160   6.978
 6678SOL    HW120933   2.168   4.114   6.908
 6678SOL    HW220934   2.017   4.137   6.965
 6679SOL     OW20935   1.979   0.810   4.016
 6679SOL    HW120936   1.942   0.737   3.958
 6679SOL    HW220937   1.924   0.892   4.005
 6680SOL     OW20938   5.747   7.003   1.353
 6680SOL    HW120939   5.794   7.007   1.264
 6680SOL    HW220940   5.812   6.977   1.424
 6681SOL     OW20941   3.125   6.258   1.659
 6681SOL    HW120942   3.129   6.286   1.562
 6681SOL    HW220943   3.121   6.159   1.665
 6682SOL     OW20944   3.203   4.867   6.121
 6682SOL    HW120945   3.120   4.838   6.169
 6682SOL    HW220946   3.269   4.793   6.121
 6683SOL     OW20947   6.670   3.984   6.564
 6683SOL    HW120948   6.770   3.976   6.565
 6683SOL    HW220949   6.643   4.058   6.502
 6684SOL     OW20950   3.046   6.407   0.516
 6684SOL    HW120951   3.135   6.443   0.544
 6684SOL    HW220952   2.975   6.445   0.575
 6685SOL     OW20953   4.958   3.325   6.900
 6685SOL    HW120954   5.005   3.385   6.836
 6685SOL    HW220955   4.978   3.353   6.993
 6686SOL     OW20956   4.692   5.018   4.024
 6686SOL    HW120957   4.789   5.003   4.042
 6686SOL    HW220958   4.677   5.022   3.925
 6687SOL     OW20959   6.662   2.315   1.955
 6687SOL    HW120960   6.671   2.380   1.880
 6687SOL    HW220961   6.749   2.308   2.004
 6688SOL     OW20962   4.491   5.259   0.410
 6688SOL    HW120963   4.458   5.190   0.474
 6688SOL    HW220964   4.501   5.347   0.457
 6689SOL     OW20965   1.915   4.659   5.802
 6689SOL    HW120966   1.934   4.561   5.803
 6689SOL    HW220967   1.981   4.706   5.860
 6690SOL     OW20968   0.772   6.926   5.785
 6690SOL    HW120969   0.789   6.908   5.688
 6690SOL    HW220970   0.673   6.933   5.801
 6691SOL     OW20971   2.501   2.502   2.748
 6691SOL    HW120972   2.554   2.465   2.672
 6691SOL    HW220973   2.518   2.446   2.830
 6692SOL     OW20974   4.726   5.016   1.739
 6692SOL    HW120975   4.685   4.932   1.705
 6692SOL    HW220976   4.738   5.080   1.663
 6693SOL     OW20977   4.312   1.626   4.561
 6693SOL    HW120978   4.224   1.661   4.595
 6693SOL    HW220979   4.317   1.528   4.577
 6694SOL     OW20980   3.350   4.371   1.358
 6694SOL    HW120981   3.292   4.315   1.299
 6694SOL    HW220982   3.398   4.439   1.302
 6695SOL     OW20983   2.195   1.961   6.228
 6695SOL    HW120984   2.251   1.879   6.223
 6695SOL    HW220985   2.254   2.042   6.232
 6696SOL     OW20986   4.104   3.592   4.513
 6696SOL    HW120987   4.103   3.493   4.531
 6696SOL    HW220988   4.105   3.607   4.414
 6697SOL     OW20989   4.298   2.292   2.855
 6697SOL    HW120990   4.222   2.286   2.790
 6697SOL    HW220991   4.261   2.298   2.948
 6698SOL     OW20992   3.511   3.899   1.165
 6698SOL    HW120993   3.555   3.949   1.240
 6698SOL    HW220994   3.553   3.925   1.078
 6699SOL     OW20995   1.017   4.302   5.623
 6699SOL    HW120996   1.097   4.256   5.585
 6699SOL    HW220997   0.966   4.348   5.550
 6700SOL     OW20998   5.586   6.907   6.934
 6700SOL    HW120999   5.597   6.808   6.926
 6700SOL    HW221000   5.636   6.940   0.002
 6701SOL     OW21001   5.809   0.651   1.354
 6701SOL    HW121002   5.872   0.592   1.404
 6701SOL    HW221003   5.829   0.647   1.256
 6702SOL     OW21004   2.903   2.641   1.069
 6702SOL    HW121005   2.989   2.614   1.112
 6702SOL    HW221006   2.878   2.574   0.999
 6703SOL     OW21007   0.219   1.197   6.971
 6703SOL    HW121008   0.194   1.170   6.879
 6703SOL    HW221009   0.232   1.296   6.974
 6704SOL     OW21010   2.751   0.597   5.436
 6704SOL    HW121011   2.845   0.611   5.465
 6704SOL    HW221012   2.692   0.592   5.517
 6705SOL     OW21013   6.344   3.818   2.043
 6705SOL    HW121014   6.401   3.792   2.121
 6705SOL    HW221015   6.265   3.757   2.038
 6706SOL     OW21016   0.182   6.783   1.737
 6706SOL    HW121017   0.118   6.850   1.700
 6706SOL    HW221018   0.176   6.783   1.837
 6707SOL     OW21019   5.466   0.327   2.134
 6707SOL    HW121020   5.427   0.416   2.113
 6707SOL    HW221021   5.425   0.291   2.218
 6708SOL     OW21022   0.919   4.216   1.261
 6708SOL    HW121023   0.897   4.123   1.287
 6708SOL    HW221024   1.019   4.228   1.258
 6709SOL     OW21025   1.921   5.197   2.767
 6709SOL    HW121026   1.977   5.213   2.847
 6709SOL    HW221027   1.959   5.121   2.714
 6710SOL     OW21028   4.040   0.976   0.575
 6710SOL    HW121029   4.133   1.004   0.598
 6710SOL    HW221030   4.025   0.987   0.476
 6711SOL     OW21031   3.425   5.492   6.256
 6711SOL    HW121032   3.406   5.452   6.345
 6711SOL    HW221033   3.340   5.532   6.219
 6712SOL     OW21034   6.024   3.727   1.210
 6712SOL    HW121035   5.951   3.772   1.159
 6712SOL    HW221036   5.992   3.702   1.301
 6713SOL     OW21037   1.896   6.350   4.633
 6713SOL    HW121038   1.799   6.341   4.612
 6713SOL    HW221039   1.929   6.264   4.674
 6714SOL     OW21040   5.282   1.462   1.010
 6714SOL    HW121041   5.328   1.475   1.098
 6714SOL    HW221042   5.263   1.365   0.996
 6715SOL     OW21043   1.374   0.955   0.430
 6715SOL    HW121044   1.386   1.039   0.377
 6715SOL    HW221045   1.337   0.976   0.520
 6716SOL     OW21046   6.748   5.264   2.954
 6716SOL    HW121047   6.773   5.287   3.048
 6716SOL    HW221048   6.706   5.343   2.910
 6717SOL     OW21049   4.913   1.895   5.478
 6717SOL    HW121050   4.953   1.983   5.504
 6717SOL    HW221051   4.819   1.891   5.512
 6718SOL     OW21052   3.470   0.791   1.968
 6718SOL    HW121053   3.375   0.817   1.948
 6718SOL    HW221054   3.489   0.806   2.065
 6719SOL     OW21055   1.834   0.555   0.105
 6719SOL    HW121056   1.758   0.618   0.090
 6719SOL    HW221057   1.875   0.573   0.194
 6720SOL     OW21058   1.492   0.694   6.169
 6720SOL    HW121059   1.545   0.755   6.110
 6720SOL    HW221060   1.552   0.652   6.236
 6721SOL     OW21061   6.818   1.373   0.223
 6721SOL    HW121062   6.734   1.373   0.277
 6721SOL    HW221063   6.885   1.435   0.265
 6722SOL     OW21064   6.501   3.079   0.639
 6722SOL    HW121065   6.515   3.083   0.540
 6722SOL    HW221066   6.585   3.049   0.683
 6723SOL     OW21067   1.293   2.511   6.401
 6723SOL    HW121068   1.333   2.526   6.311
 6723SOL    HW221069   1.218   2.446   6.394
 6724SOL     OW21070   1.926   3.384   5.644
 6724SOL    HW121071   1.951   3.397   5.740
 6724SOL    HW221072   2.008   3.374   5.588
 6725SOL     OW21073   5.297   2.638   3.765
 6725SOL    HW121074   5.204   2.606   3.785
 6725SOL    HW221075   5.311   2.640   3.666
 6726SOL     OW21076   0.248   0.924   5.596
 6726SOL    HW121077   0.335   0.928   5.548
 6726SOL    HW221078   0.203   1.013   5.592
 6727SOL     OW21079   1.108   5.041   5.865
 6727SOL    HW121080   1.151   5.114   5.812
 6727SOL    HW221081   1.176   4.971   5.888
 6728SOL     OW21082   3.712   1.968   3.835
 6728SOL    HW121083   3.632   1.950   3.779
 6728SOL    HW221084   3.769   2.037   3.791
 6729SOL     OW21085   4.661   1.421   2.118
 6729SOL    HW121086   4.747   1.432   2.168
 6729SOL    HW221087   4.638   1.507   2.071
 6730SOL     OW21088   0.300   1.231   1.752
 6730SOL    HW121089   0.206   1.260   1.737
 6730SOL    HW221090   0.341   1.202   1.665
 6731SOL     OW21091   3.566   6.677   6.654
 6731SOL    HW121092   3.571   6.589   6.701
 6731SOL    HW221093   3.470   6.708   6.650
 6732SOL     OW21094   6.859   5.978   4.732
 6732SOL    HW121095   6.841   6.075   4.711
 6732SOL    HW221096   6.862   5.926   4.647
 6733SOL     OW21097   4.651   5.203   6.167
 6733SOL    HW121098   4.609   5.254   6.242
 6733SOL    HW221099   4.700   5.268   6.107
 6734SOL     OW21100   6.303   1.155   4.399
 6734SOL    HW121101   6.356   1.233   4.433
 6734SOL    HW221102   6.221   1.143   4.455
 6735SOL     OW21103   6.225   2.884   3.639
 6735SOL    HW121104   6.181   2.808   3.592
 6735SOL    HW221105   6.324   2.874   3.634
 6736SOL     OW21106   3.462   3.940   0.528
 6736SOL    HW121107   3.412   3.857   0.505
 6736SOL    HW221108   3.413   4.019   0.492
 6737SOL     OW21109   0.506   3.939   0.863
 6737SOL    HW121110   0.603   3.964   0.864
 6737SOL    HW221111   0.452   4.017   0.894
 6738SOL     OW21112   1.880   5.720   3.661
 6738SOL    HW121113   1.873   5.625   3.630
 6738SOL    HW221114   1.792   5.766   3.647
 6739SOL     OW21115   6.277   6.989   4.662
 6739SOL    HW121116   6.288   6.892   4.643
 6739SOL    HW221117   6.366   0.023   4.660
 6740SOL     OW21118   0.470   6.659   3.710
 6740SOL    HW121119   0.457   6.725   3.636
 6740SOL    HW221120   0.562   6.668   3.748
 6741SOL     OW21121   4.360   2.113   6.217
 6741SOL    HW121122   4.439   2.080   6.165
 6741SOL    HW221123   4.294   2.038   6.227
 6742SOL     OW21124   5.577   4.501   3.563
 6742SOL    HW121125   5.540   4.518   3.654
 6742SOL    HW221126   5.515   4.442   3.512
 6743SOL     OW21127   4.484   4.021   0.908
 6743SOL    HW121128   4.394   3.993   0.874
 6743SOL    HW221129   4.555   3.971   0.860
 6744SOL     OW21130   0.239   6.189   5.870
 6744SOL    HW121131   0.323   6.147   5.903
 6744SOL    HW221132   0.163   6.165   5.931
 6745SOL     OW21133   6.937   5.596   4.850
 6745SOL    HW121134   6.905   5.625   4.941
 6745SOL    HW221135   0.025   5.588   4.851
 6746SOL     OW21136   1.719   1.610   2.455
 6746SOL    HW121137   1.625   1.643   2.446
 6746SOL    HW221138   1.781   1.688   2.456
 6747SOL     OW21139   1.488   6.340   6.022
 6747SOL    HW121140   1.438   6.423   6.044
 6747SOL    HW221141   1.581   6.347   6.058
 6748SOL     OW21142   2.315   1.347   4.549
 6748SOL    HW121143   2.295   1.264   4.600
 6748SOL    HW221144   2.234   1.376   4.498
 6749SOL     OW21145   3.525   4.799   0.960
 6749SOL    HW121146   3.551   4.713   1.006
 6749SOL    HW221147   3.593   4.869   0.981
 6750SOL     OW21148   3.198   0.844   4.823
 6750SOL    HW121149   3.272   0.905   4.798
 6750SOL    HW221150   3.112   0.875   4.781
 6751SOL     OW21151   4.104   0.124   3.886
 6751SOL    HW121152   4.115   0.028   3.912
 6751SOL    HW221153   4.194   0.166   3.878
 6752SOL     OW21154   2.313   6.037   2.202
 6752SOL    HW121155   2.406   6.016   2.233
 6752SOL    HW221156   2.259   6.070   2.279
 6753SOL     OW21157   4.042   3.054   5.472
 6753SOL    HW121158   3.974   3.110   5.424
 6753SOL    HW221159   4.016   3.044   5.568
 6754SOL     OW21160   6.036   2.020   1.330
 6754SOL    HW121161   5.966   2.084   1.361
 6754SOL    HW221162   6.035   1.939   1.389
 6755SOL     OW21163   2.291   5.467   6.450
 6755SOL    HW121164   2.228   5.403   6.407
 6755SOL    HW221165   2.290   5.553   6.399
 6756SOL     OW21166   2.665   2.567   5.278
 6756SOL    HW121167   2.616   2.601   5.198
 6756SOL    HW221168   2.758   2.541   5.252
 6757SOL     OW21169   3.344   7.007   0.428
 6757SOL    HW121170   3.277   0.066   0.405
 6757SOL    HW221171   3.339   6.933   0.360
 6758SOL     OW21172   5.998   2.346   2.524
 6758SOL    HW121173   5.911   2.388   2.497
 6758SOL    HW221174   6.023   2.276   2.458
 6759SOL     OW21175   0.654   3.005   2.679
 6759SOL    HW121176   0.654   2.905   2.676
 6759SOL    HW221177   0.581   3.036   2.740
 6760SOL     OW21178   5.396   2.286   2.928
 6760SOL    HW121179   5.470   2.339   2.970
 6760SOL    HW221180   5.308   2.315   2.966
 6761SOL     OW21181   4.648   2.160   4.576
 6761SOL    HW121182   4.646   2.199   4.668
 6761SOL    HW221183   4.555   2.144   4.544
 6762SOL     OW21184   6.783   5.613   4.150
 6762SOL    HW121185   6.872   5.658   4.151
 6762SOL    HW221186   6.714   5.676   4.187
 6763SOL     OW21187   5.007   5.350   5.126
 6763SOL    HW121188   5.049   5.400   5.051
 6763SOL    HW221189   4.946   5.279   5.090
 6764SOL     OW21190   1.951   5.382   0.800
 6764SOL    HW121191   1.859   5.417   0.783
 6764SOL    HW221192   1.953   5.333   0.888
 6765SOL     OW21193   6.303   4.836   3.011
 6765SOL    HW121194   6.347   4.850   3.100
 6765SOL    HW221195   6.254   4.749   3.013
 6766SOL     OW21196   5.102   0.484   0.573
 6766SOL    HW121197   5.037   0.514   0.643
 6766SOL    HW221198   5.054   0.474   0.486
 6767SOL     OW21199   3.125   0.999   0.575
 6767SOL    HW121200   3.182   1.060   0.520
 6767SOL    HW221201   3.037   0.985   0.530
 6768SOL     OW21202   1.584   0.917   1.000
 6768SOL    HW121203   1.596   0.945   0.905
 6768SOL    HW221204   1.643   0.972   1.059
 6769SOL     OW21205   4.045   2.715   1.696
 6769SOL    HW121206   4.035   2.806   1.736
 6769SOL    HW221207   3.979   2.704   1.621
 6770SOL     OW21208   6.846   0.174   1.882
 6770SOL    HW121209   6.805   0.087   1.856
 6770SOL    HW221210   6.835   0.188   1.980
 6771SOL     OW21211   4.037   2.237   3.346
 6771SOL    HW121212   4.001   2.284   3.427
 6771SOL    HW221213   3.963   2.186   3.301
 6772SOL     OW21214   2.903   1.895   2.708
 6772SOL    HW121215   2.938   1.861   2.795
 6772SOL    HW221216   2.952   1.850   2.633
 6773SOL     OW21217   0.111   4.292   2.256
 6773SOL    HW121218   0.070   4.225   2.194
 6773SOL    HW221219   0.101   4.260   2.350
 6774SOL     OW21220   0.725   2.327   6.813
 6774SOL    HW121221   0.760   2.234   6.821
 6774SOL    HW221222   0.645   2.328   6.754
 6775SOL     OW21223   2.649   4.577   1.148
 6775SOL    HW121224   2.572   4.561   1.086
 6775SOL    HW221225   2.630   4.657   1.205
 6776SOL     OW21226   5.958   5.336   0.129
 6776SOL    HW121227   6.054   5.362   0.125
 6776SOL    HW221228   5.936   5.302   0.221
 6777SOL     OW21229   4.686   4.488   6.256
 6777SOL    HW121230   4.660   4.435   6.175
 6777SOL    HW221231   4.720   4.577   6.228
 6778SOL     OW21232   0.695   5.252   2.924
 6778SOL    HW121233   0.607   5.285   2.956
 6778SOL    HW221234   0.763   5.264   2.997
 6779SOL     OW21235   0.305   4.874   0.055
 6779SOL    HW121236   0.273   4.947   0.116
 6779SOL    HW221237   0.400   4.891   0.031
 6780SOL     OW21238   0.357   2.772   2.567
 6780SOL    HW121239   0.336   2.835   2.642
 6780SOL    HW221240   0.359   2.823   2.481
 6781SOL     OW21241   5.162   6.130   5.992
 6781SOL    HW121242   5.143   6.066   6.066
 6781SOL    HW221243   5.148   6.224   6.024
 6782SOL     OW21244   0.101   1.307   2.613
 6782SOL    HW121245   0.029   1.375   2.626
 6782SOL    HW221246   0.133   1.308   2.519
 6783SOL     OW21247   6.916   6.262   6.831
 6783SOL    HW121248   6.877   6.309   6.752
 6783SOL    HW221249   6.955   6.174   6.802
 6784SOL     OW21250   3.875   3.876   0.388
 6784SOL    HW121251   3.828   3.882   0.476
 6784SOL    HW221252   3.856   3.787   0.346
 6785SOL     OW21253   5.877   5.714   1.927
 6785SOL    HW121254   5.851   5.772   2.005
 6785SOL    HW221255   5.907   5.625   1.960
 6786SOL     OW21256   1.566   2.949   6.331
 6786SOL    HW121257   1.470   2.933   6.354
 6786SOL    HW221258   1.573   3.030   6.273
 6787SOL     OW21259   1.298   3.506   2.042
 6787SOL    HW121260   1.345   3.522   2.129
 6787SOL    HW221261   1.358   3.536   1.967
 6788SOL     OW21262   3.085   3.676   1.413
 6788SOL    HW121263   3.127   3.764   1.392
 6788SOL    HW221264   3.047   3.678   1.505
 6789SOL     OW21265   1.075   6.786   2.493
 6789SOL    HW121266   1.168   6.820   2.498
 6789SOL    HW221267   1.012   6.855   2.529
 6790SOL     OW21268   1.855   2.899   0.085
 6790SOL    HW121269   1.905   2.815   0.104
 6790SOL    HW221270   1.825   2.899   7.001
 6791SOL     OW21271   4.508   2.998   6.631
 6791SOL    HW121272   4.483   2.976   6.536
 6791SOL    HW221273   4.445   2.952   6.694
 6792SOL     OW21274   5.961   6.634   7.010
 6792SOL    HW121275   5.967   6.548   6.960
 6792SOL    HW221276   5.972   6.711   6.947
 6793SOL     OW21277   1.191   2.599   1.145
 6793SOL    HW121278   1.210   2.585   1.242
 6793SOL    HW221279   1.141   2.520   1.109
 6794SOL     OW21280   4.914   1.047   4.853
 6794SOL    HW121281   4.953   1.139   4.849
 6794SOL    HW221282   4.984   0.980   4.834
 6795SOL     OW21283   2.778   5.810   0.555
 6795SOL    HW121284   2.814   5.717   0.561
 6795SOL    HW221285   2.833   5.871   0.611
 6796SOL     OW21286   5.092   1.362   2.786
 6796SOL    HW121287   5.151   1.422   2.839
 6796SOL    HW221288   5.023   1.417   2.739
 6797SOL     OW21289   5.751   3.689   1.923
 6797SOL    HW121290   5.838   3.696   1.874
 6797SOL    HW221291   5.682   3.742   1.875
 6798SOL     OW21292   5.221   5.705   2.123
 6798SOL    HW121293   5.147   5.751   2.172
 6798SOL    HW221294   5.203   5.607   2.118
 6799SOL     OW21295   5.189   5.742   0.297
 6799SOL    HW121296   5.251   5.760   0.374
 6799SOL    HW221297   5.204   5.810   0.226
 6800SOL     OW21298   1.893   4.634   0.321
 6800SOL    HW121299   1.806   4.626   0.369
 6800SOL    HW221300   1.911   4.549   0.271
 6801SOL     OW21301   1.560   2.619   2.237
 6801SOL    HW121302   1.617   2.682   2.290
 6801SOL    HW221303   1.558   2.649   2.142
 6802SOL     OW21304   2.031   6.519   1.423
 6802SOL    HW121305   2.043   6.609   1.466
 6802SOL    HW221306   2.119   6.472   1.423
 6803SOL     OW21307   5.208   1.956   6.355
 6803SOL    HW121308   5.229   2.028   6.421
 6803SOL    HW221309   5.172   1.876   6.403
 6804SOL     OW21310   1.951   5.763   3.388
 6804SOL    HW121311   1.929   5.782   3.484
 6804SOL    HW221312   2.027   5.698   3.384
 6805SOL     OW21313   6.268   0.379   4.904
 6805SOL    HW121314   6.184   0.396   4.956
 6805SOL    HW221315   6.270   0.283   4.876
 6806SOL     OW21316   4.128   0.837   4.638
 6806SOL    HW121317   4.132   0.925   4.591
 6806SOL    HW221318   4.072   0.846   4.721
 6807SOL     OW21319   3.042   2.910   0.088
 6807SOL    HW121320   2.986   2.968   0.029
 6807SOL    HW221321   3.105   2.856   0.032
 6808SOL     OW21322   0.213   2.759   5.186
 6808SOL    HW121323   0.239   2.663   5.197
 6808SOL    HW221324   0.265   2.815   5.250
 6809SOL     OW21325   2.514   3.854   6.474
 6809SOL    HW121326   2.548   3.773   6.521
 6809SOL    HW221327   2.564   3.866   6.388
 6810SOL     OW21328   0.217   0.968   2.312
 6810SOL    HW121329   0.315   0.954   2.319
 6810SOL    HW221330   0.172   0.933   2.394
 6811SOL     OW21331   6.196   5.071   1.121
 6811SOL    HW121332   6.249   5.155   1.129
 6811SOL    HW221333   6.246   4.995   1.163
 6812SOL     OW21334   4.062   3.223   3.274
 6812SOL    HW121335   4.060   3.202   3.372
 6812SOL    HW221336   3.988   3.173   3.228
 6813SOL     OW21337   4.882   2.269   0.939
 6813SOL    HW121338   4.867   2.240   1.034
 6813SOL    HW221339   4.820   2.220   0.879
 6814SOL     OW21340   2.722   3.697   1.204
 6814SOL    HW121341   2.644   3.680   1.264
 6814SOL    HW221342   2.708   3.649   1.117
 6815SOL     OW21343   2.450   0.579   1.843
 6815SOL    HW121344   2.507   0.660   1.858
 6815SOL    HW221345   2.355   0.608   1.826
 6816SOL     OW21346   6.669   4.787   6.916
 6816SOL    HW121347   6.619   4.702   6.897
 6816SOL    HW221348   6.628   4.862   6.864
 6817SOL     OW21349   6.852   1.643   5.566
 6817SOL    HW121350   6.818   1.663   5.474
 6817SOL    HW221351   6.900   1.723   5.602
 6818SOL     OW21352   3.718   6.643   2.134
 6818SOL    HW121353   3.681   6.582   2.204
 6818SOL    HW221354   3.710   6.599   2.044
 6819SOL     OW21355   3.234   0.750   3.718
 6819SOL    HW121356   3.207   0.760   3.623
 6819SOL    HW221357   3.331   0.727   3.724
 6820SOL     OW21358   1.299   4.483   3.078
 6820SOL    HW121359   1.226   4.494   3.145
 6820SOL    HW221360   1.314   4.386   3.060
 6821SOL     OW21361   2.499   2.532   4.901
 6821SOL    HW121362   2.530   2.576   4.816
 6821SOL    HW221363   2.459   2.601   4.961
 6822SOL     OW21364   5.643   1.956   5.719
 6822SOL    HW121365   5.657   1.861   5.690
 6822SOL    HW221366   5.692   2.017   5.656
 6823SOL     OW21367   2.955   3.269   2.871
 6823SOL    HW121368   2.916   3.320   2.794
 6823SOL    HW221369   2.962   3.329   2.951
 6824SOL     OW21370   0.933   4.201   6.466
 6824SOL    HW121371   0.982   4.288   6.463
 6824SOL    HW221372   0.983   4.136   6.523
 6825SOL     OW21373   5.019   0.110   2.399
 6825SOL    HW121374   5.007   0.027   2.345
 6825SOL    HW221375   4.941   0.171   2.383
 6826SOL     OW21376   2.141   3.184   2.744
 6826SOL    HW121377   2.063   3.147   2.794
 6826SOL    HW221378   2.208   3.221   2.809
 6827SOL     OW21379   5.677   6.097   6.480
 6827SOL    HW121380   5.650   6.035   6.554
 6827SOL    HW221381   5.596   6.126   6.430
 6828SOL     OW21382   1.216   2.264   1.516
 6828SOL    HW121383   1.250   2.297   1.604
 6828SOL    HW221384   1.119   2.238   1.525
 6829SOL     OW21385   5.199   6.217   3.708
 6829SOL    HW121386   5.260   6.167   3.647
 6829SOL    HW221387   5.169   6.158   3.782
 6830SOL     OW21388   5.497   1.794   3.651
 6830SOL    HW121389   5.595   1.809   3.660
 6830SOL    HW221390   5.469   1.720   3.713
 6831SOL     OW21391   0.886   0.784   5.499
 6831SOL    HW121392   0.861   0.712   5.563
 6831SOL    HW221393   0.811   0.849   5.491
 6832SOL     OW21394   2.951   4.899   2.394
 6832SOL    HW121395   2.875   4.960   2.369
 6832SOL    HW221396   3.037   4.937   2.359
 6833SOL     OW21397   3.420   4.731   6.793
 6833SOL    HW121398   3.471   4.716   6.709
 6833SOL    HW221399   3.431   4.826   6.823
 6834SOL     OW21400   3.901   6.351   1.834
 6834SOL    HW121401   3.878   6.257   1.809
 6834SOL    HW221402   3.899   6.360   1.934
 6835SOL     OW21403   3.680   6.767   4.734
 6835SOL    HW121404   3.692   6.800   4.828
 6835SOL    HW221405   3.614   6.692   4.733
 6836SOL     OW21406   3.726   6.292   0.104
 6836SOL    HW121407   3.644   6.338   0.138
 6836SOL    HW221408   3.800   6.303   0.171
 6837SOL     OW21409   1.808   3.587   2.013
 6837SOL    HW121410   1.818   3.497   2.056
 6837SOL    HW221411   1.884   3.602   1.949
 6838SOL     OW21412   2.230   1.359   6.930
 6838SOL    HW121413   2.161   1.291   6.953
 6838SOL    HW221414   2.215   1.394   6.838
 6839SOL     OW21415   4.249   1.299   0.581
 6839SOL    HW121416   4.276   1.208   0.613
 6839SOL    HW221417   4.300   1.322   0.498
 6840SOL     OW21418   2.065   1.322   6.325
 6840SOL    HW121419   2.083   1.420   6.315
 6840SOL    HW221420   2.002   1.308   6.402
 6841SOL     OW21421   6.589   3.041   6.044
 6841SOL    HW121422   6.506   3.070   6.091
 6841SOL    HW221423   6.567   3.012   5.951
 6842SOL     OW21424   2.223   5.314   2.065
 6842SOL    HW121425   2.178   5.398   2.034
 6842SOL    HW221426   2.264   5.330   2.154
 6843SOL     OW21427   4.833   6.893   6.781
 6843SOL    HW121428   4.759   6.859   6.839
 6843SOL    HW221429   4.887   6.816   6.746
 6844SOL     OW21430   5.148   0.820   4.576
 6844SOL    HW121431   5.074   0.760   4.607
 6844SOL    HW221432   5.178   0.877   4.652
 6845SOL     OW21433   4.871   2.834   2.914
 6845SOL    HW121434   4.929   2.859   2.836
 6845SOL    HW221435   4.821   2.750   2.893
 6846SOL     OW21436   2.950   3.654   0.466
 6846SOL    HW121437   2.935   3.740   0.417
 6846SOL    HW221438   3.003   3.671   0.549
 6847SOL     OW21439   6.029   4.135   4.000
 6847SOL    HW121440   5.999   4.063   3.939
 6847SOL    HW221441   5.991   4.223   3.970
 6848SOL     OW21442   5.110   4.600   3.577
 6848SOL    HW121443   5.150   4.510   3.596
 6848SOL    HW221444   5.036   4.590   3.511
 6849SOL     OW21445   3.727   3.676   6.643
 6849SOL    HW121446   3.722   3.775   6.630
 6849SOL    HW221447   3.768   3.634   6.561
 6850SOL     OW21448   3.993   1.368   3.518
 6850SOL    HW121449   4.060   1.429   3.558
 6850SOL    HW221450   3.935   1.330   3.591
 6851SOL     OW21451   1.755   3.017   3.586
 6851SOL    HW121452   1.782   3.112   3.573
 6851SOL    HW221453   1.833   2.957   3.568
 6852SOL     OW21454   2.805   5.395   0.662
 6852SOL    HW121455   2.847   5.320   0.713
 6852SOL    HW221456   2.850   5.481   0.686
 6853SOL     OW21457   4.948   2.733   6.841
 6853SOL    HW121458   4.998   2.779   6.914
 6853SOL    HW221459   4.994   2.749   6.753
 6854SOL     OW21460   5.571   6.415   6.135
 6854SOL    HW121461   5.517   6.366   6.066
 6854SOL    HW221462   5.524   6.499   6.160
 6855SOL     OW21463   3.942   5.053   3.605
 6855SOL    HW121464   4.018   4.996   3.637
 6855SOL    HW221465   3.939   5.051   3.505
 6856SOL     OW21466   1.289   1.790   0.111
 6856SOL    HW121467   1.366   1.800   0.174
 6856SOL    HW221468   1.323   1.784   0.017
 6857SOL     OW21469   1.071   3.933   5.414
 6857SOL    HW121470   1.104   4.026   5.431
 6857SOL    HW221471   1.117   3.869   5.476
 6858SOL     OW21472   2.836   4.154   1.595
 6858SOL    HW121473   2.773   4.230   1.586
 6858SOL    HW221474   2.895   4.169   1.674
 6859SOL     OW21475   0.724   1.464   2.669
 6859SOL    HW121476   0.774   1.391   2.621
 6859SOL    HW221477   0.626   1.449   2.658
 6860SOL     OW21478   0.467   6.621   2.056
 6860SOL    HW121479   0.486   6.675   1.974
 6860SOL    HW221480   0.514   6.662   2.134
 6861SOL     OW21481   4.844   2.224   4.992
 6861SOL    HW121482   4.834   2.164   5.072
 6861SOL    HW221483   4.898   2.177   4.922
 6862SOL     OW21484   0.660   5.075   5.636
 6862SOL    HW121485   0.739   5.118   5.680
 6862SOL    HW221486   0.576   5.114   5.672
 6863SOL     OW21487   6.542   6.957   5.211
 6863SOL    HW121488   6.568   6.870   5.252
 6863SOL    HW221489   6.580   6.963   5.118
 6864SOL     OW21490   1.497   3.802   5.678
 6864SOL    HW121491   1.480   3.722   5.735
 6864SOL    HW221492   1.570   3.782   5.613
 6865SOL     OW21493   2.184   0.049   4.539
 6865SOL    HW121494   2.164   0.108   4.461
 6865SOL    HW221495   2.111   0.058   4.607
 6866SOL     OW21496   0.565   4.235   1.662
 6866SOL    HW121497   0.621   4.231   1.745
 6866SOL    HW221498   0.543   4.330   1.641
 6867SOL     OW21499   2.271   3.681   0.254
 6867SOL    HW121500   2.241   3.632   0.172
 6867SOL    HW221501   2.344   3.630   0.299
 6868SOL     OW21502   2.444   4.903   4.563
 6868SOL    HW121503   2.449   4.882   4.661
 6868SOL    HW221504   2.402   4.993   4.551
 6869SOL     OW21505   3.796   0.218   5.904
 6869SOL    HW121506   3.831   0.302   5.948
 6869SOL    HW221507   3.791   0.232   5.805
 6870SOL     OW21508   0.180   2.816   0.513
 6870SOL    HW121509   0.234   2.866   0.445
 6870SOL    HW221510   0.214   2.722   0.518
 6871SOL     OW21511   0.585   3.778   2.532
 6871SOL    HW121512   0.654   3.850   2.522
 6871SOL    HW221513   0.619   3.709   2.596
 6872SOL     OW21514   2.527   2.952   0.981
 6872SOL    HW121515   2.598   2.893   1.021
 6872SOL    HW221516   2.499   3.020   1.049
 6873SOL     OW21517   0.975   4.269   4.773
 6873SOL    HW121518   0.939   4.177   4.754
 6873SOL    HW221519   1.022   4.268   4.862
 6874SOL     OW21520   5.553   6.087   2.911
 6874SOL    HW121521   5.529   6.181   2.933
 6874SOL    HW221522   5.483   6.025   2.947
 6875SOL     OW21523   1.601   2.589   1.346
 6875SOL    HW121524   1.588   2.622   1.252
 6875SOL    HW221525   1.606   2.489   1.346
 6876SOL     OW21526   4.455   5.564   3.129
 6876SOL    HW121527   4.465   5.614   3.043
 6876SOL    HW221528   4.540   5.571   3.182
 6877SOL     OW21529   1.358   3.512   2.388
 6877SOL    HW121530   1.427   3.450   2.426
 6877SOL    HW221531   1.270   3.463   2.382
 6878SOL     OW21532   1.892   0.385   4.052
 6878SOL    HW121533   1.875   0.432   3.965
 6878SOL    HW221534   1.911   0.452   4.123
 6879SOL     OW21535   2.027   1.759   0.641
 6879SOL    HW121536   2.018   1.849   0.683
 6879SOL    HW221537   2.123   1.744   0.615
 6880SOL     OW21538   1.381   5.234   6.377
 6880SOL    HW121539   1.395   5.144   6.336
 6880SOL    HW221540   1.416   5.305   6.316
 6881SOL     OW21541   1.263   3.082   0.892
 6881SOL    HW121542   1.215   3.110   0.809
 6881SOL    HW221543   1.247   2.985   0.908
 6882SOL     OW21544   2.530   6.361   6.936
 6882SOL    HW121545   2.591   6.312   6.874
 6882SOL    HW221546   2.569   6.364   0.016
 6883SOL     OW21547   4.864   0.339   6.902
 6883SOL    HW121548   4.949   0.383   6.931
 6883SOL    HW221549   4.787   0.382   6.949
 6884SOL     OW21550   2.236   4.014   2.979
 6884SOL    HW121551   2.148   4.020   3.026
 6884SOL    HW221552   2.231   3.941   2.910
 6885SOL     OW21553   5.388   5.942   4.149
 6885SOL    HW121554   5.346   6.022   4.190
 6885SOL    HW221555   5.476   5.967   4.108
 6886SOL     OW21556   4.829   1.687   6.581
 6886SOL    HW121557   4.795   1.773   6.619
 6886SOL    HW221558   4.917   1.703   6.535
 6887SOL     OW21559   5.382   5.986   6.428
 6887SOL    HW121560   5.332   5.991   6.515
 6887SOL    HW221561   5.331   5.930   6.364
 6888SOL     OW21562   5.831   5.077   6.694
 6888SOL    HW121563   5.820   5.136   6.614
 6888SOL    HW221564   5.835   5.133   6.777
 6889SOL     OW21565   0.784   2.593   0.014
 6889SOL    HW121566   0.820   2.686   0.010
 6889SOL    HW221567   0.776   2.556   6.933
 6890SOL     OW21568   4.421   5.318   2.677
 6890SOL    HW121569   4.509   5.294   2.717
 6890SOL    HW221570   4.422   5.415   2.651
 6891SOL     OW21571   2.037   1.343   0.920
 6891SOL    HW121572   1.959   1.285   0.945
 6891SOL    HW221573   2.011   1.402   0.844
 6892SOL     OW21574   3.290   0.741   4.137
 6892SOL    HW121575   3.219   0.803   4.170
 6892SOL    HW221576   3.360   0.794   4.089
 6893SOL     OW21577   6.766   2.675   6.839
 6893SOL    HW121578   6.810   2.740   6.901
 6893SOL    HW221579   6.668   2.672   6.858
 6894SOL     OW21580   5.302   5.455   0.598
 6894SOL    HW121581   5.278   5.375   0.543
 6894SOL    HW221582   5.401   5.462   0.605
 6895SOL     OW21583   0.757   6.280   1.629
 6895SOL    HW121584   0.839   6.329   1.657
 6895SOL    HW221585   0.690   6.346   1.594
 6896SOL     OW21586   4.359   2.136   4.769
 6896SOL    HW121587   4.398   2.107   4.857
 6896SOL    HW221588   4.359   2.059   4.706
 6897SOL     OW21589   5.077   3.671   5.158
 6897SOL    HW121590   4.980   3.663   5.138
 6897SOL    HW221591   5.089   3.712   5.249
 6898SOL     OW21592   2.276   1.127   0.854
 6898SOL    HW121593   2.194   1.184   0.859
 6898SOL    HW221594   2.345   1.163   0.917
 6899SOL     OW21595   6.008   5.933   2.831
 6899SOL    HW121596   5.998   5.847   2.882
 6899SOL    HW221597   5.929   5.992   2.850
 6900SOL     OW21598   6.924   4.485   5.293
 6900SOL    HW121599   6.826   4.488   5.274
 6900SOL    HW221600   6.975   4.480   5.208
 6901SOL     OW21601   4.704   4.419   6.905
 6901SOL    HW121602   4.606   4.439   6.907
 6901SOL    HW221603   4.747   4.471   6.831
 6902SOL     OW21604   0.552   5.893   6.428
 6902SOL    HW121605   0.549   5.795   6.450
 6902SOL    HW221606   0.637   5.933   6.462
 6903SOL     OW21607   2.245   5.139   4.546
 6903SOL    HW121608   2.151   5.122   4.573
 6903SOL    HW221609   2.261   5.099   4.455
 6904SOL     OW21610   6.875   6.572   4.877
 6904SOL    HW121611   6.817   6.614   4.807
 6904SOL    HW221612   6.860   6.620   4.964
 6905SOL     OW21613   5.060   5.943   6.150
 6905SOL    HW121614   4.983   5.935   6.087
 6905SOL    HW221615   5.027   5.971   6.240
 6906SOL     OW21616   3.854   1.572   3.694
 6906SOL    HW121617   3.754   1.577   3.703
 6906SOL    HW221618   3.885   1.644   3.632
 6907SOL     OW21619   6.263   1.661   0.877
 6907SOL    HW121620   6.224   1.697   0.962
 6907SOL    HW221621   6.275   1.735   0.811
 6908SOL     OW21622   2.753   4.442   0.076
 6908SOL    HW121623   2.678   4.381   0.101
 6908SOL    HW221624   2.839   4.391   0.073
 6909SOL     OW21625   6.068   5.589   2.122
 6909SOL    HW121626   6.117   5.510   2.086
 6909SOL    HW221627   6.016   5.561   2.203
 6910SOL     OW21628   1.364   2.853   3.740
 6910SOL    HW121629   1.394   2.926   3.679
 6910SOL    HW221630   1.337   2.773   3.686
 6911SOL     OW21631   2.636   6.888   5.955
 6911SOL    HW121632   2.645   6.800   6.002
 6911SOL    HW221633   2.588   6.952   6.014
 6912SOL     OW21634   2.579   3.631   5.933
 6912SOL    HW121635   2.583   3.724   5.971
 6912SOL    HW221636   2.601   3.634   5.836
 6913SOL     OW21637   4.603   6.371   6.042
 6913SOL    HW121638   4.607   6.278   6.076
 6913SOL    HW221639   4.640   6.434   6.110
 6914SOL     OW21640   6.627   3.567   1.598
 6914SOL    HW121641   6.563   3.541   1.525
 6914SOL    HW221642   6.685   3.489   1.621
 6915SOL     OW21643   0.774   3.241   2.668
 6915SOL    HW121644   0.798   3.265   2.762
 6915SOL    HW221645   0.758   3.142   2.661
 6916SOL     OW21646   4.373   6.190   0.084
 6916SOL    HW121647   4.442   6.124   0.056
 6916SOL    HW221648   4.283   6.160   0.053
 6917SOL     OW21649   5.669   5.317   1.424
 6917SOL    HW121650   5.628   5.251   1.361
 6917SOL    HW221651   5.741   5.272   1.478
 6918SOL     OW21652   2.098   3.088   1.575
 6918SOL    HW121653   2.071   3.120   1.666
 6918SOL    HW221654   2.151   3.160   1.529
 6919SOL     OW21655   6.393   6.293   3.291
 6919SOL    HW121656   6.419   6.301   3.388
 6919SOL    HW221657   6.319   6.357   3.271
 6920SOL     OW21658   5.537   0.336   5.517
 6920SOL    HW121659   5.548   0.354   5.615
 6920SOL    HW221660   5.443   0.308   5.499
 6921SOL     OW21661   3.856   0.056   4.213
 6921SOL    HW121662   3.786   0.126   4.221
 6921SOL    HW221663   3.843   0.004   4.129
 6922SOL     OW21664   1.092   5.715   5.822
 6922SOL    HW121665   1.095   5.686   5.918
 6922SOL    HW221666   1.099   5.815   5.817
 6923SOL     OW21667   6.170   6.950   2.722
 6923SOL    HW121668   6.097   6.966   2.655
 6923SOL    HW221669   6.256   6.983   2.685
 6924SOL     OW21670   3.721   6.535   0.849
 6924SOL    HW121671   3.634   6.574   0.820
 6924SOL    HW221672   3.770   6.500   0.769
 6925SOL     OW21673   6.000   6.287   6.320
 6925SOL    HW121674   5.939   6.220   6.277
 6925SOL    HW221675   6.008   6.266   6.418
 6926SOL     OW21676   3.059   2.006   0.071
 6926SOL    HW121677   2.966   1.985   0.042
 6926SOL    HW221678   3.087   1.943   0.143
 6927SOL     OW21679   4.768   0.798   0.586
 6927SOL    HW121680   4.729   0.716   0.629
 6927SOL    HW221681   4.740   0.801   0.490
 6928SOL     OW21682   4.314   4.858   0.977
 6928SOL    HW121683   4.392   4.832   0.920
 6928SOL    HW221684   4.269   4.938   0.937
 6929SOL     OW21685   6.111   5.407   1.275
 6929SOL    HW121686   6.032   5.442   1.224
 6929SOL    HW221687   6.152   5.480   1.329
 6930SOL     OW21688   0.950   0.455   0.535
 6930SOL    HW121689   0.963   0.449   0.634
 6930SOL    HW221690   1.003   0.533   0.499
 6931SOL     OW21691   2.722   2.838   1.113
 6931SOL    HW121692   2.725   2.896   1.194
 6931SOL    HW221693   2.803   2.779   1.112
 6932SOL     OW21694   4.567   5.209   6.980
 6932SOL    HW121695   4.483   5.238   0.014
 6932SOL    HW221696   4.645   5.219   0.030
 6933SOL     OW21697   2.942   5.065   6.378
 6933SOL    HW121698   2.920   5.021   6.291
 6933SOL    HW221699   2.859   5.107   6.416
 6934SOL     OW21700   5.221   4.033   6.806
 6934SOL    HW121701   5.158   3.981   6.863
 6934SOL    HW221702   5.224   4.128   6.836
 6935SOL     OW21703   5.343   5.336   1.382
 6935SOL    HW121704   5.384   5.313   1.470
 6935SOL    HW221705   5.339   5.436   1.372
 6936SOL     OW21706   0.917   2.022   4.768
 6936SOL    HW121707   0.979   1.981   4.700
 6936SOL    HW221708   0.888   2.112   4.736
 6937SOL     OW21709   5.548   5.336   0.276
 6937SOL    HW121710   5.522   5.431   0.258
 6937SOL    HW221711   5.564   5.288   0.190
 6938SOL     OW21712   1.382   0.579   4.712
 6938SOL    HW121713   1.461   0.638   4.695
 6938SOL    HW221714   1.328   0.615   4.789
 6939SOL     OW21715   5.898   4.343   3.902
 6939SOL    HW121716   5.849   4.337   3.988
 6939SOL    HW221717   5.940   4.434   3.894
 6940SOL     OW21718   3.478   6.651   0.750
 6940SOL    HW121719   3.393   6.657   0.803
 6940SOL    HW221720   3.511   6.743   0.731
 6941SOL     OW21721   3.544   3.388   2.317
 6941SOL    HW121722   3.537   3.391   2.417
 6941SOL    HW221723   3.579   3.299   2.289
 6942SOL     OW21724   6.162   6.612   1.940
 6942SOL    HW121725   6.123   6.536   1.992
 6942SOL    HW221726   6.219   6.576   1.866
 6943SOL     OW21727   4.625   4.980   6.361
 6943SOL    HW121728   4.588   5.044   6.429
 6943SOL    HW221729   4.654   5.031   6.280
 6944SOL     OW21730   1.173   4.304   5.034
 6944SOL    HW121731   1.250   4.314   4.970
 6944SOL    HW221732   1.115   4.386   5.029
 6945SOL     OW21733   5.562   2.588   0.938
 6945SOL    HW121734   5.467   2.610   0.960
 6945SOL    HW221735   5.623   2.641   0.997
 6946SOL     OW21736   4.491   5.926   2.455
 6946SOL    HW121737   4.440   5.913   2.540
 6946SOL    HW221738   4.427   5.927   2.378
 6947SOL     OW21739   4.904   5.368   5.636
 6947SOL    HW121740   4.964   5.303   5.683
 6947SOL    HW221741   4.943   5.390   5.547
 6948SOL     OW21742   0.578   4.870   6.961
 6948SOL    HW121743   0.628   4.786   6.981
 6948SOL    HW221744   0.567   4.880   6.863
 6949SOL     OW21745   2.534   1.748   3.803
 6949SOL    HW121746   2.447   1.775   3.843
 6949SOL    HW221747   2.606   1.751   3.872
 6950SOL     OW21748   0.652   0.450   4.864
 6950SOL    HW121749   0.692   0.368   4.905
 6950SOL    HW221750   0.714   0.527   4.879
 6951SOL     OW21751   6.740   5.117   6.263
 6951SOL    HW121752   6.781   5.194   6.311
 6951SOL    HW221753   6.809   5.044   6.253
 6952SOL     OW21754   3.989   5.673   3.196
 6952SOL    HW121755   3.988   5.757   3.143
 6952SOL    HW221756   4.081   5.655   3.229
 6953SOL     OW21757   5.004   1.199   1.315
 6953SOL    HW121758   5.088   1.204   1.262
 6953SOL    HW221759   5.026   1.198   1.413
 6954SOL     OW21760   6.301   3.585   0.226
 6954SOL    HW121761   6.354   3.508   0.190
 6954SOL    HW221762   6.222   3.551   0.277
 6955SOL     OW21763   4.974   6.850   2.350
 6955SOL    HW121764   4.920   6.817   2.428
 6955SOL    HW221765   5.067   6.815   2.356
 6956SOL     OW21766   5.569   5.426   2.160
 6956SOL    HW121767   5.521   5.362   2.221
 6956SOL    HW221768   5.542   5.519   2.184
 6957SOL     OW21769   5.393   5.565   6.269
 6957SOL    HW121770   5.375   5.466   6.267
 6957SOL    HW221771   5.333   5.611   6.203
 6958SOL     OW21772   2.914   3.377   3.989
 6958SOL    HW121773   2.892   3.340   3.899
 6958SOL    HW221774   2.906   3.476   3.988
 6959SOL     OW21775   1.039   4.359   2.734
 6959SOL    HW121776   1.125   4.399   2.764
 6959SOL    HW221777   0.976   4.351   2.811
 6960SOL     OW21778   3.026   4.777   0.325
 6960SOL    HW121779   2.963   4.761   0.249
 6960SOL    HW221780   3.042   4.692   0.374
 6961SOL     OW21781   4.644   1.928   5.463
 6961SOL    HW121782   4.646   1.995   5.389
 6961SOL    HW221783   4.555   1.883   5.464
 6962SOL     OW21784   2.758   0.043   6.491
 6962SOL    HW121785   2.743   6.957   6.508
 6962SOL    HW221786   2.676   0.094   6.519
 6963SOL     OW21787   4.927   6.314   0.758
 6963SOL    HW121788   4.889   6.385   0.698
 6963SOL    HW221789   5.024   6.331   0.771
 6964SOL     OW21790   1.697   7.002   5.450
 6964SOL    HW121791   1.726   0.074   5.495
 6964SOL    HW221792   1.776   6.942   5.437
 6965SOL     OW21793   0.787   1.869   6.972
 6965SOL    HW121794   0.851   1.794   6.993
 6965SOL    HW221795   0.801   1.944   0.025
 6966SOL     OW21796   1.347   7.006   1.612
 6966SOL    HW121797   1.264   6.989   1.665
 6966SOL    HW221798   1.407   0.056   1.663
 6967SOL     OW21799   4.635   1.423   5.939
 6967SOL    HW121800   4.614   1.373   5.855
 6967SOL    HW221801   4.561   1.489   5.957
 6968SOL     OW21802   4.016   6.393   2.348
 6968SOL    HW121803   4.100   6.420   2.301
 6968SOL    HW221804   4.033   6.308   2.398
 6969SOL     OW21805   1.757   1.574   1.752
 6969SOL    HW121806   1.672   1.569   1.805
 6969SOL    HW221807   1.823   1.508   1.788
 6970SOL     OW21808   3.533   4.722   5.926
 6970SOL    HW121809   3.575   4.652   5.869
 6970SOL    HW221810   3.599   4.755   5.993
 6971SOL     OW21811   0.055   4.488   0.027
 6971SOL    HW121812   6.988   4.443   0.070
 6971SOL    HW221813   0.120   4.418   7.008
 6972SOL     OW21814   5.406   3.620   1.992
 6972SOL    HW121815   5.429   3.587   1.900
 6972SOL    HW221816   5.340   3.557   2.034
 6973SOL     OW21817   1.109   3.435   3.425
 6973SOL    HW121818   1.173   3.444   3.349
 6973SOL    HW221819   1.095   3.525   3.468
 6974SOL     OW21820   3.739   3.891   2.641
 6974SOL    HW121821   3.775   3.871   2.733
 6974SOL    HW221822   3.695   3.981   2.641
 6975SOL     OW21823   2.972   5.509   4.758
 6975SOL    HW121824   2.931   5.488   4.669
 6975SOL    HW221825   2.906   5.490   4.830
 6976SOL     OW21826   4.583   3.854   6.183
 6976SOL    HW121827   4.650   3.852   6.258
 6976SOL    HW221828   4.492   3.868   6.222
 6977SOL     OW21829   3.866   4.717   0.851
 6977SOL    HW121830   3.923   4.689   0.928
 6977SOL    HW221831   3.899   4.804   0.815
 6978SOL     OW21832   5.631   3.876   1.732
 6978SOL    HW121833   5.707   3.918   1.682
 6978SOL    HW221834   5.546   3.888   1.680
 6979SOL     OW21835   1.370   4.051   1.724
 6979SOL    HW121836   1.357   4.075   1.820
 6979SOL    HW221837   1.389   3.953   1.716
 6980SOL     OW21838   1.867   6.095   3.191
 6980SOL    HW121839   1.821   6.007   3.200
 6980SOL    HW221840   1.966   6.080   3.184
 6981SOL     OW21841   3.752   2.814   6.802
 6981SOL    HW121842   3.809   2.833   6.722
 6981SOL    HW221843   3.770   2.881   6.873
 6982SOL     OW21844   1.850   0.943   3.619
 6982SOL    HW121845   1.926   0.886   3.651
 6982SOL    HW221846   1.777   0.942   3.687
 6983SOL     OW21847   4.966   0.429   4.417
 6983SOL    HW121848   4.876   0.385   4.421
 6983SOL    HW221849   4.978   0.470   4.326
 6984SOL     OW21850   0.456   2.821   3.297
 6984SOL    HW121851   0.502   2.892   3.351
 6984SOL    HW221852   0.364   2.852   3.273
 6985SOL     OW21853   6.644   3.228   0.361
 6985SOL    HW121854   6.564   3.170   0.344
 6985SOL    HW221855   6.723   3.192   0.310
 6986SOL     OW21856   4.045   4.920   5.524
 6986SOL    HW121857   4.016   4.846   5.464
 6986SOL    HW221858   3.967   4.951   5.579
 6987SOL     OW21859   0.826   1.754   5.993
 6987SOL    HW121860   0.888   1.788   5.922
 6987SOL    HW221861   0.850   1.660   6.017
 6988SOL     OW21862   3.559   1.411   6.495
 6988SOL    HW121863   3.627   1.455   6.553
 6988SOL    HW221864   3.493   1.361   6.552
 6989SOL     OW21865   0.135   5.101   2.563
 6989SOL    HW121866   0.047   5.141   2.590
 6989SOL    HW221867   0.129   5.069   2.468
 6990SOL     OW21868   3.498   2.547   1.174
 6990SOL    HW121869   3.565   2.580   1.108
 6990SOL    HW221870   3.521   2.453   1.201
 6991SOL     OW21871   6.090   3.659   2.004
 6991SOL    HW121872   6.022   3.668   2.077
 6991SOL    HW221873   6.052   3.694   1.918
 6992SOL     OW21874   0.691   6.147   0.257
 6992SOL    HW121875   0.749   6.065   0.263
 6992SOL    HW221876   0.690   6.193   0.346
 6993SOL     OW21877   4.661   0.966   1.653
 6993SOL    HW121878   4.712   1.037   1.701
 6993SOL    HW221879   4.568   0.998   1.634
 6994SOL     OW21880   2.623   0.344   3.448
 6994SOL    HW121881   2.710   0.298   3.432
 6994SOL    HW221882   2.581   0.308   3.531
 6995SOL     OW21883   7.008   4.074   1.117
 6995SOL    HW121884   6.963   4.100   1.202
 6995SOL    HW221885   6.986   3.979   1.094
 6996SOL     OW21886   0.855   1.395   0.063
 6996SOL    HW121887   0.833   1.439   0.150
 6996SOL    HW221888   0.770   1.375   0.014
 6997SOL     OW21889   5.786   5.274   5.568
 6997SOL    HW121890   5.703   5.294   5.515
 6997SOL    HW221891   5.841   5.357   5.575
 6998SOL     OW21892   6.522   1.197   6.977
 6998SOL    HW121893   6.572   1.250   0.033
 6998SOL    HW221894   6.578   1.184   6.895
 6999SOL     OW21895   0.437   3.640   0.715
 6999SOL    HW121896   0.365   3.707   0.735
 6999SOL    HW221897   0.464   3.594   0.800
 7000SOL     OW21898   6.808   6.782   3.560
 7000SOL    HW121899   6.751   6.837   3.499
 7000SOL    HW221900   6.851   6.708   3.508
 7001SOL     OW21901   0.477   1.738   4.196
 7001SOL    HW121902   0.396   1.796   4.188
 7001SOL    HW221903   0.500   1.727   4.293
 7002SOL     OW21904   6.899   5.084   2.766
 7002SOL    HW121905   6.843   5.052   2.689
 7002SOL    HW221906   6.843   5.140   2.827
 7003SOL     OW21907   6.577   4.825   1.173
 7003SOL    HW121908   6.632   4.872   1.104
 7003SOL    HW221909   6.630   4.814   1.256
 7004SOL     OW21910   1.925   6.410   0.360
 7004SOL    HW121911   1.939   6.315   0.389
 7004SOL    HW221912   1.929   6.415   0.260
 7005SOL     OW21913   1.136   6.703   0.032
 7005SOL    HW121914   1.147   6.624   6.983
 7005SOL    HW221915   1.149   6.674   0.127
 7006SOL     OW21916   1.225   0.176   4.529
 7006SOL    HW121917   1.183   0.242   4.467
 7006SOL    HW221918   1.311   0.214   4.565
 7007SOL     OW21919   2.761   0.059   5.793
 7007SOL    HW121920   2.734   7.005   5.864
 7007SOL    HW221921   2.770   0.011   5.705
 7008SOL     OW21922   5.878   3.852   3.573
 7008SOL    HW121923   5.848   3.884   3.662
 7008SOL    HW221924   5.834   3.907   3.501
 7009SOL     OW21925   4.423   5.354   1.485
 7009SOL    HW121926   4.431   5.260   1.452
 7009SOL    HW221927   4.466   5.361   1.574
 7010SOL     OW21928   5.385   4.410   1.665
 7010SOL    HW121929   5.429   4.338   1.610
 7010SOL    HW221930   5.317   4.369   1.725
 7011SOL     OW21931   3.263   6.096   6.888
 7011SOL    HW121932   3.178   6.047   6.868
 7011SOL    HW221933   3.304   6.060   6.972
 7012SOL     OW21934   0.069   2.099   0.321
 7012SOL    HW121935   7.002   2.041   0.339
 7012SOL    HW221936   0.043   2.174   0.259
 7013SOL     OW21937   2.593   1.444   0.182
 7013SOL    HW121938   2.560   1.366   0.129
 7013SOL    HW221939   2.560   1.436   0.276
 7014SOL     OW21940   6.437   2.934   1.371
 7014SOL    HW121941   6.480   3.005   1.427
 7014SOL    HW221942   6.396   2.976   1.290
 7015SOL     OW21943   5.356   6.139   0.735
 7015SOL    HW121944   5.352   6.063   0.799
 7015SOL    HW221945   5.444   6.186   0.743
 7016SOL     OW21946   3.291   4.953   0.534
 7016SOL    HW121947   3.336   4.921   0.617
 7016SOL    HW221948   3.254   4.875   0.484
 7017SOL     OW21949   4.560   5.077   4.252
 7017SOL    HW121950   4.466   5.062   4.221
 7017SOL    HW221951   4.622   5.066   4.174
 7018SOL     OW21952   4.825   2.842   4.398
 7018SOL    HW121953   4.744   2.785   4.384
 7018SOL    HW221954   4.904   2.784   4.417
 7019SOL     OW21955   4.784   4.855   2.035
 7019SOL    HW121956   4.737   4.862   1.948
 7019SOL    HW221957   4.718   4.840   2.108
 7020SOL     OW21958   0.513   2.894   6.611
 7020SOL    HW121959   0.594   2.931   6.564
 7020SOL    HW221960   0.518   2.917   6.708
 7021SOL     OW21961   1.018   1.901   5.541
 7021SOL    HW121962   0.933   1.940   5.506
 7021SOL    HW221963   1.095   1.934   5.487
 7022SOL     OW21964   3.639   1.639   0.583
 7022SOL    HW121965   3.643   1.549   0.540
 7022SOL    HW221966   3.677   1.707   0.521
 7023SOL     OW21967   0.665   1.973   1.239
 7023SOL    HW121968   0.764   1.984   1.232
 7023SOL    HW221969   0.633   2.013   1.324
 7024SOL     OW21970   3.625   3.136   3.797
 7024SOL    HW121971   3.704   3.090   3.837
 7024SOL    HW221972   3.577   3.187   3.868
 7025SOL     OW21973   4.140   6.478   0.638
 7025SOL    HW121974   4.187   6.548   0.691
 7025SOL    HW221975   4.043   6.478   0.661
 7026SOL     OW21976   3.936   2.418   1.386
 7026SOL    HW121977   3.975   2.418   1.478
 7026SOL    HW221978   3.840   2.445   1.391
 7027SOL     OW21979   2.053   5.097   1.973
 7027SOL    HW121980   2.095   5.053   1.894
 7027SOL    HW221981   2.118   5.159   2.016
 7028SOL     OW21982   3.094   0.335   3.384
 7028SOL    HW121983   3.154   0.290   3.317
 7028SOL    HW221984   3.088   0.432   3.362
 7029SOL     OW21985   3.195   3.614   5.114
 7029SOL    HW121986   3.188   3.604   5.213
 7029SOL    HW221987   3.107   3.643   5.077
 7030SOL     OW21988   6.233   1.579   5.223
 7030SOL    HW121989   6.187   1.578   5.135
 7030SOL    HW221990   6.211   1.496   5.274
 7031SOL     OW21991   4.331   6.954   0.574
 7031SOL    HW121992   4.260   6.947   0.645
 7031SOL    HW221993   4.402   6.886   0.590
 7032SOL     OW21994   3.941   6.365   4.514
 7032SOL    HW121995   3.968   6.288   4.572
 7032SOL    HW221996   3.867   6.415   4.559
 7033SOL     OW21997   1.459   2.131   5.296
 7033SOL    HW121998   1.475   2.033   5.311
 7033SOL    HW221999   1.462   2.150   5.198
 7034SOL     OW22000   6.689   1.386   3.481
 7034SOL    HW122001   6.651   1.320   3.545
 7034SOL    HW222002   6.631   1.468   3.480
 7035SOL     OW22003   1.884   0.568   0.889
 7035SOL    HW122004   1.789   0.547   0.867
 7035SOL    HW222005   1.931   0.484   0.916
 7036SOL     OW22006   6.839   1.106   1.605
 7036SOL    HW122007   6.898   1.042   1.556
 7036SOL    HW222008   6.833   1.079   1.701
 7037SOL     OW22009   0.949   0.648   6.114
 7037SOL    HW122010   0.867   0.598   6.084
 7037SOL    HW222011   1.028   0.617   6.061
 7038SOL     OW22012   1.624   3.329   6.591
 7038SOL    HW122013   1.705   3.314   6.648
 7038SOL    HW222014   1.559   3.254   6.606
 7039SOL     OW22015   0.499   6.439   2.944
 7039SOL    HW122016   0.557   6.375   2.995
 7039SOL    HW222017   0.487   6.522   2.997
 7040SOL     OW22018   4.531   2.496   5.291
 7040SOL    HW122019   4.557   2.439   5.368
 7040SOL    HW222020   4.533   2.592   5.318
 7041SOL     OW22021   1.758   0.559   3.506
 7041SOL    HW122022   1.845   0.518   3.478
 7041SOL    HW222023   1.685   0.490   3.499
 7042SOL     OW22024   4.559   5.967   5.491
 7042SOL    HW122025   4.464   5.987   5.467
 7042SOL    HW222026   4.586   6.025   5.569
 7043SOL     OW22027   1.768   4.834   2.314
 7043SOL    HW122028   1.804   4.854   2.223
 7043SOL    HW222029   1.783   4.738   2.336
 7044SOL     OW22030   5.070   6.308   4.001
 7044SOL    HW122031   5.144   6.367   3.970
 7044SOL    HW222032   5.083   6.216   3.965
 7045SOL     OW22033   6.384   5.836   2.751
 7045SOL    HW122034   6.344   5.921   2.718
 7045SOL    HW222035   6.379   5.766   2.679
 7046SOL     OW22036   2.844   2.196   4.361
 7046SOL    HW122037   2.792   2.120   4.399
 7046SOL    HW222038   2.935   2.200   4.404
 7047SOL     OW22039   0.921   6.769   0.333
 7047SOL    HW122040   1.001   6.825   0.311
 7047SOL    HW222041   0.864   6.818   0.399
 7048SOL     OW22042   6.495   5.847   4.890
 7048SOL    HW122043   6.584   5.857   4.935
 7048SOL    HW222044   6.445   5.771   4.931
 7049SOL     OW22045   3.637   1.204   2.779
 7049SOL    HW122046   3.576   1.236   2.851
 7049SOL    HW222047   3.588   1.139   2.721
 7050SOL     OW22048   3.958   3.939   1.291
 7050SOL    HW122049   3.923   3.846   1.297
 7050SOL    HW222050   4.030   3.952   1.360
 7051SOL     OW22051   0.490   0.827   1.249
 7051SOL    HW122052   0.429   0.836   1.170
 7051SOL    HW222053   0.435   0.806   1.331
 7052SOL     OW22054   5.114   6.995   2.638
 7052SOL    HW122055   5.030   7.011   2.689
 7052SOL    HW222056   5.107   0.028   2.548
 7053SOL     OW22057   1.872   2.719   3.180
 7053SOL    HW122058   1.817   2.803   3.183
 7053SOL    HW222059   1.932   2.721   3.100
 7054SOL     OW22060   6.770   0.365   0.511
 7054SOL    HW122061   6.691   0.426   0.520
 7054SOL    HW222062   6.765   0.317   0.424
 7055SOL     OW22063   2.347   0.814   6.837
 7055SOL    HW122064   2.386   0.758   6.911
 7055SOL    HW222065   2.306   0.754   6.768
 7056SOL     OW22066   6.951   5.593   1.317
 7056SOL    HW122067   0.016   5.557   1.370
 7056SOL    HW222068   6.937   5.689   1.338
 7057SOL     OW22069   3.206   4.949   5.109
 7057SOL    HW122070   3.156   4.956   5.195
 7057SOL    HW222071   3.224   5.040   5.073
 7058SOL     OW22072   5.127   2.719   5.733
 7058SOL    HW122073   5.114   2.730   5.831
 7058SOL    HW222074   5.053   2.663   5.695
 7059SOL     OW22075   1.731   0.461   5.288
 7059SOL    HW122076   1.826   0.454   5.320
 7059SOL    HW222077   1.687   0.372   5.293
 7060SOL     OW22078   3.578   0.497   2.187
 7060SOL    HW122079   3.568   0.398   2.174
 7060SOL    HW222080   3.666   0.517   2.229
 7061SOL     OW22081   0.657   2.496   2.688
 7061SOL    HW122082   0.703   2.578   2.722
 7061SOL    HW222083   0.612   2.517   2.601
 7062SOL     OW22084   3.833   1.450   3.326
 7062SOL    HW122085   3.907   1.448   3.393
 7062SOL    HW222086   3.851   1.383   3.254
 7063SOL     OW22087   0.735   0.856   1.631
 7063SOL    HW122088   0.821   0.808   1.646
 7063SOL    HW222089   0.659   0.790   1.637
 7064SOL     OW22090   4.559   1.704   5.051
 7064SOL    HW122091   4.614   1.784   5.029
 7064SOL    HW222092   4.592   1.662   5.136
 7065SOL     OW22093   3.864   4.434   6.024
 7065SOL    HW122094   3.846   4.410   5.928
 7065SOL    HW222095   3.958   4.410   6.047
 7066SOL     OW22096   3.951   0.257   6.821
 7066SOL    HW122097   3.953   0.336   6.882
 7066SOL    HW222098   4.025   0.194   6.846
 7067SOL     OW22099   1.947   3.601   6.924
 7067SOL    HW122100   1.904   3.512   6.908
 7067SOL    HW222101   1.877   3.672   6.922
 7068SOL     OW22102   5.256   3.970   4.239
 7068SOL    HW122103   5.233   3.873   4.239
 7068SOL    HW222104   5.222   4.013   4.155
 7069SOL     OW22105   5.983   0.294   6.895
 7069SOL    HW122106   5.884   0.303   6.885
 7069SOL    HW222107   6.024   0.273   6.806
 7070SOL     OW22108   0.419   6.592   5.084
 7070SOL    HW122109   0.338   6.558   5.036
 7070SOL    HW222110   0.496   6.593   5.021
 7071SOL     OW22111   5.206   6.030   6.652
 7071SOL    HW122112   5.249   6.037   6.742
 7071SOL    HW222113   5.169   6.119   6.625
 7072SOL     OW22114   0.349   3.979   6.403
 7072SOL    HW122115   0.344   3.976   6.303
 7072SOL    HW222116   0.326   4.071   6.434
 7073SOL     OW22117   5.371   1.249   3.120
 7073SOL    HW122118   5.469   1.243   3.138
 7073SOL    HW222119   5.342   1.168   3.068
 7074SOL     OW22120   5.264   4.301   2.800
 7074SOL    HW122121   5.273   4.395   2.767
 7074SOL    HW222122   5.234   4.242   2.725
 7075SOL     OW22123   3.341   5.542   3.911
 7075SOL    HW122124   3.336   5.445   3.887
 7075SOL    HW222125   3.397   5.553   3.993
 7076SOL     OW22126   5.744   2.397   2.346
 7076SOL    HW122127   5.710   2.478   2.393
 7076SOL    HW222128   5.677   2.323   2.355
 7077SOL     OW22129   3.741   5.735   1.006
 7077SOL    HW122130   3.704   5.662   1.065
 7077SOL    HW222131   3.788   5.694   0.929
 7078SOL     OW22132   5.359   0.367   0.158
 7078SOL    HW122133   5.431   0.432   0.132
 7078SOL    HW222134   5.385   0.321   0.243
 7079SOL     OW22135   1.676   6.602   4.690
 7079SOL    HW122136   1.683   6.510   4.650
 7079SOL    HW222137   1.589   6.643   4.665
 7080SOL     OW22138   4.378   1.819   5.442
 7080SOL    HW122139   4.386   1.746   5.509
 7080SOL    HW222140   4.368   1.780   5.350
 7081SOL     OW22141   1.269   0.821   0.223
 7081SOL    HW122142   1.324   0.853   0.300
 7081SOL    HW222143   1.181   0.867   0.223
 7082SOL     OW22144   6.331   4.494   2.786
 7082SOL    HW122145   6.273   4.567   2.752
 7082SOL    HW222146   6.321   4.413   2.728
 7083SOL     OW22147   6.712   3.241   3.223
 7083SOL    HW122148   6.715   3.141   3.217
 7083SOL    HW222149   6.794   3.274   3.270
 7084SOL     OW22150   0.508   5.631   0.359
 7084SOL    HW122151   0.476   5.725   0.344
 7084SOL    HW222152   0.607   5.628   0.351
 7085SOL     OW22153   0.703   3.087   1.749
 7085SOL    HW122154   0.793   3.084   1.706
 7085SOL    HW222155   0.686   3.179   1.784
 7086SOL     OW22156   5.817   1.007   3.874
 7086SOL    HW122157   5.819   0.994   3.974
 7086SOL    HW222158   5.911   1.016   3.840
 7087SOL     OW22159   5.424   3.249   3.234
 7087SOL    HW122160   5.378   3.274   3.149
 7087SOL    HW222161   5.440   3.331   3.289
 7088SOL     OW22162   6.364   2.201   4.430
 7088SOL    HW122163   6.267   2.219   4.448
 7088SOL    HW222164   6.381   2.204   4.332
 7089SOL     OW22165   3.056   5.761   1.988
 7089SOL    HW122166   3.032   5.673   1.947
 7089SOL    HW222167   3.079   5.746   2.085
 7090SOL     OW22168   4.533   2.380   1.433
 7090SOL    HW122169   4.438   2.408   1.447
 7090SOL    HW222170   4.583   2.388   1.520
 7091SOL     OW22171   6.583   6.588   6.519
 7091SOL    HW122172   6.678   6.560   6.536
 7091SOL    HW222173   6.523   6.510   6.537
 7092SOL     OW22174   4.486   1.360   6.174
 7092SOL    HW122175   4.551   1.406   6.113
 7092SOL    HW222176   4.489   1.261   6.157
 7093SOL     OW22177   3.481   3.163   1.258
 7093SOL    HW122178   3.391   3.197   1.231
 7093SOL    HW222179   3.506   3.200   1.347
 7094SOL     OW22180   2.896   6.993   5.209
 7094SOL    HW122181   2.862   6.956   5.122
 7094SOL    HW222182   2.931   0.074   5.195
 7095SOL     OW22183   2.481   4.580   4.830
 7095SOL    HW122184   2.384   4.604   4.820
 7095SOL    HW222185   2.494   4.484   4.805
 7096SOL     OW22186   0.070   0.948   1.231
 7096SOL    HW122187   0.084   1.044   1.208
 7096SOL    HW222188   0.052   0.939   1.329
 7097SOL     OW22189   4.506   0.781   1.359
 7097SOL    HW122190   4.595   0.807   1.395
 7097SOL    HW222191   4.463   0.860   1.315
 7098SOL     OW22192   0.950   6.680   4.109
 7098SOL    HW122193   0.873   6.617   4.125
 7098SOL    HW222194   0.923   6.748   4.042
 7099SOL     OW22195   3.017   2.203   3.791
 7099SOL    HW122196   2.997   2.285   3.844
 7099SOL    HW222197   2.946   2.135   3.806
 7100SOL     OW22198   5.806   3.855   1.133
 7100SOL    HW122199   5.736   3.788   1.106
 7100SOL    HW222200   5.856   3.885   1.052
 7101SOL     OW22201   2.486   6.212   5.666
 7101SOL    HW122202   2.584   6.216   5.685
 7101SOL    HW222203   2.469   6.151   5.590
 7102SOL     OW22204   5.488   0.872   1.955
 7102SOL    HW122205   5.463   0.964   1.985
 7102SOL    HW222206   5.582   0.852   1.982
 7103SOL     OW22207   4.848   3.938   2.944
 7103SOL    HW122208   4.867   3.846   2.978
 7103SOL    HW222209   4.757   3.967   2.974
 7104SOL     OW22210   5.081   4.142   3.604
 7104SOL    HW122211   5.144   4.066   3.619
 7104SOL    HW222212   4.991   4.118   3.641
 7105SOL     OW22213   3.227   4.086   4.171
 7105SOL    HW122214   3.155   4.155   4.162
 7105SOL    HW222215   3.296   4.101   4.099
 7106SOL     OW22216   3.127   2.608   0.687
 7106SOL    HW122217   3.168   2.635   0.774
 7106SOL    HW222218   3.141   2.681   0.620
 7107SOL     OW22219   3.713   0.816   6.130
 7107SOL    HW122220   3.806   0.840   6.103
 7107SOL    HW222221   3.684   0.874   6.207
 7108SOL     OW22222   4.547   0.697   2.002
 7108SOL    HW122223   4.519   0.617   2.056
 7108SOL    HW222224   4.470   0.729   1.948
 7109SOL     OW22225   2.457   5.994   6.296
 7109SOL    HW122226   2.554   6.012   6.313
 7109SOL    HW222227   2.449   5.927   6.222
 7110SOL     OW22228   3.276   6.415   4.420
 7110SOL    HW122229   3.311   6.333   4.375
 7110SOL    HW222230   3.255   6.485   4.352
 7111SOL     OW22231   6.997   0.226   4.642
 7111SOL    HW122232   0.017   0.141   4.685
 7111SOL    HW222233   6.936   0.203   4.566
 7112SOL     OW22234   1.616   5.105   4.723
 7112SOL    HW122235   1.567   5.046   4.659
 7112SOL    HW222236   1.611   5.066   4.814
 7113SOL     OW22237   3.949   5.395   5.509
 7113SOL    HW122238   3.860   5.364   5.542
 7113SOL    HW222239   3.960   5.493   5.526
 7114SOL     OW22240   5.305   5.271   0.384
 7114SOL    HW122241   5.388   5.297   0.335
 7114SOL    HW222242   5.322   5.189   0.439
 7115SOL     OW22243   6.522   3.596   6.856
 7115SOL    HW122244   6.545   3.679   6.908
 7115SOL    HW222245   6.544   3.611   6.759
 7116SOL     OW22246   6.622   4.020   4.037
 7116SOL    HW122247   6.551   3.983   4.097
 7116SOL    HW222248   6.708   4.029   4.088
 7117SOL     OW22249   5.742   6.691   3.232
 7117SOL    HW122250   5.726   6.789   3.245
 7117SOL    HW222251   5.728   6.668   3.136
 7118SOL     OW22252   4.137   4.252   5.361
 7118SOL    HW122253   4.056   4.200   5.335
 7118SOL    HW222254   4.164   4.312   5.285
 7119SOL     OW22255   3.689   6.175   5.372
 7119SOL    HW122256   3.759   6.245   5.354
 7119SOL    HW222257   3.709   6.094   5.316
 7120SOL     OW22258   4.985   0.904   0.187
 7120SOL    HW122259   5.069   0.853   0.204
 7120SOL    HW222260   4.992   0.952   0.100
 7121SOL     OW22261   1.608   6.148   2.385
 7121SOL    HW122262   1.589   6.112   2.477
 7121SOL    HW222263   1.626   6.072   2.323
 7122SOL     OW22264   2.835   0.765   6.353
 7122SOL    HW122265   2.776   0.846   6.353
 7122SOL    HW222266   2.922   0.787   6.309
 7123SOL     OW22267   5.341   5.268   6.199
 7123SOL    HW122268   5.332   5.284   6.101
 7123SOL    HW222269   5.262   5.215   6.232
 7124SOL     OW22270   1.451   2.250   1.288
 7124SOL    HW122271   1.515   2.181   1.321
 7124SOL    HW222272   1.369   2.249   1.345
 7125SOL     OW22273   0.747   6.243   1.238
 7125SOL    HW122274   0.684   6.235   1.316
 7125SOL    HW222275   0.702   6.208   1.156
 7126SOL     OW22276   3.364   5.596   1.081
 7126SOL    HW122277   3.384   5.579   1.178
 7126SOL    HW222278   3.297   5.670   1.074
 7127SOL     OW22279   2.605   6.837   5.037
 7127SOL    HW122280   2.696   6.869   5.010
 7127SOL    HW222281   2.603   6.737   5.033
 7128SOL     OW22282   4.302   3.817   6.277
 7128SOL    HW122283   4.236   3.862   6.217
 7128SOL    HW222284   4.290   3.718   6.272
 7129SOL     OW22285   0.715   0.059   0.858
 7129SOL    HW122286   0.726   0.158   0.873
 7129SOL    HW222287   0.759   0.009   0.932
 7130SOL     OW22288   3.568   6.613   4.314
 7130SOL    HW122289   3.630   6.581   4.242
 7130SOL    HW222290   3.616   6.676   4.375
 7131SOL     OW22291   3.456   1.388   3.159
 7131SOL    HW122292   3.371   1.335   3.152
 7131SOL    HW222293   3.469   1.442   3.076
 7132SOL     OW22294   5.233   4.840   0.664
 7132SOL    HW122295   5.169   4.767   0.688
 7132SOL    HW222296   5.276   4.819   0.576
 7133SOL     OW22297   4.848   5.401   2.687
 7133SOL    HW122298   4.832   5.312   2.731
 7133SOL    HW222299   4.866   5.387   2.590
 7134SOL     OW22300   5.566   5.433   0.612
 7134SOL    HW122301   5.642   5.387   0.566
 7134SOL    HW222302   5.552   5.392   0.702
 7135SOL     OW22303   1.860   2.709   0.932
 7135SOL    HW122304   1.953   2.672   0.923
 7135SOL    HW222305   1.800   2.639   0.969
 7136SOL     OW22306   1.896   1.831   1.797
 7136SOL    HW122307   1.850   1.750   1.759
 7136SOL    HW222308   1.838   1.873   1.866
 7137SOL     OW22309   2.978   1.871   1.403
 7137SOL    HW122310   2.895   1.926   1.413
 7137SOL    HW222311   2.959   1.792   1.345
 7138SOL     OW22312   0.865   2.317   0.808
 7138SOL    HW122313   0.773   2.348   0.832
 7138SOL    HW222314   0.882   2.228   0.850
 7139SOL     OW22315   6.199   6.435   0.822
 7139SOL    HW122316   6.164   6.510   0.766
 7139SOL    HW222317   6.284   6.400   0.782
 7140SOL     OW22318   6.941   3.623   0.433
 7140SOL    HW122319   6.905   3.710   0.401
 7140SOL    HW222320   0.019   3.637   0.475
 7141SOL     OW22321   3.501   0.612   0.834
 7141SOL    HW122322   3.413   0.642   0.796
 7141SOL    HW222323   3.504   0.634   0.932
 7142SOL     OW22324   3.308   6.978   4.865
 7142SOL    HW122325   3.285   6.969   4.962
 7142SOL    HW222326   3.337   0.061   4.847
 7143SOL     OW22327   3.024   4.239   6.544
 7143SOL    HW122328   3.021   4.241   6.444
 7143SOL    HW222329   3.062   4.325   6.578
 7144SOL     OW22330   6.615   0.548   5.617
 7144SOL    HW122331   6.553   0.573   5.542
 7144SOL    HW222332   6.710   0.564   5.588
 7145SOL     OW22333   4.907   2.070   6.540
 7145SOL    HW122334   4.941   2.038   6.451
 7145SOL    HW222335   4.945   2.161   6.559
 7146SOL     OW22336   1.854   2.306   5.306
 7146SOL    HW122337   1.849   2.388   5.249
 7146SOL    HW222338   1.947   2.294   5.340
 7147SOL     OW22339   6.007   6.366   1.961
 7147SOL    HW122340   6.036   6.349   1.867
 7147SOL    HW222341   6.021   6.283   2.016
 7148SOL     OW22342   6.615   6.958   0.956
 7148SOL    HW122343   6.662   0.028   0.990
 7148SOL    HW222344   6.518   6.978   0.944
 7149SOL     OW22345   6.003   4.694   5.705
 7149SOL    HW122346   6.007   4.663   5.609
 7149SOL    HW222347   6.067   4.640   5.759
 7150SOL     OW22348   3.430   3.140   6.995
 7150SOL    HW122349   3.493   3.215   6.980
 7150SOL    HW222350   3.450   3.096   0.071
 7151SOL     OW22351   3.897   1.074   0.782
 7151SOL    HW122352   3.960   1.091   0.857
 7151SOL    HW222353   3.943   1.021   0.710
 7152SOL     OW22354   6.275   1.105   5.961
 7152SOL    HW122355   6.268   1.192   6.010
 7152SOL    HW222356   6.251   1.030   6.023
 7153SOL     OW22357   3.299   6.070   0.975
 7153SOL    HW122358   3.392   6.039   0.996
 7153SOL    HW222359   3.294   6.097   0.879
 7154SOL     OW22360   4.242   1.838   1.720
 7154SOL    HW122361   4.245   1.810   1.815
 7154SOL    HW222362   4.294   1.774   1.664
 7155SOL     OW22363   2.681   1.488   1.791
 7155SOL    HW122364   2.715   1.582   1.786
 7155SOL    HW222365   2.583   1.489   1.807
 7156SOL     OW22366   6.182   3.478   6.398
 7156SOL    HW122367   6.281   3.469   6.412
 7156SOL    HW222368   6.138   3.497   6.486
 7157SOL     OW22369   6.478   4.456   6.493
 7157SOL    HW122370   6.562   4.450   6.546
 7157SOL    HW222371   6.498   4.488   6.400
 7158SOL     OW22372   4.498   6.866   3.649
 7158SOL    HW122373   4.490   6.790   3.585
 7158SOL    HW222374   4.594   6.876   3.676
 7159SOL     OW22375   0.857   6.278   2.834
 7159SOL    HW122376   0.861   6.361   2.778
 7159SOL    HW222377   0.814   6.204   2.783
 7160SOL     OW22378   6.984   7.007   3.475
 7160SOL    HW122379   6.933   0.048   3.407
 7160SOL    HW222380   6.923   6.981   3.549
 7161SOL     OW22381   3.822   2.953   3.370
 7161SOL    HW122382   3.763   2.884   3.412
 7161SOL    HW222383   3.876   2.998   3.442
 7162SOL     OW22384   0.466   5.537   1.465
 7162SOL    HW122385   0.507   5.453   1.430
 7162SOL    HW222386   0.439   5.523   1.561
 7163SOL     OW22387   6.847   1.546   2.185
 7163SOL    HW122388   6.804   1.562   2.096
 7163SOL    HW222389   6.867   1.634   2.229
 7164SOL     OW22390   2.072   1.014   6.343
 7164SOL    HW122391   2.075   1.064   6.430
 7164SOL    HW222392   2.017   1.066   6.277
 7165SOL     OW22393   5.498   1.527   0.320
 7165SOL    HW122394   5.446   1.612   0.315
 7165SOL    HW222395   5.479   1.481   0.407
 7166SOL     OW22396   6.411   6.178   6.358
 7166SOL    HW122397   6.369   6.269   6.350
 7166SOL    HW222398   6.487   6.182   6.422
 7167SOL     OW22399   5.769   2.502   4.599
 7167SOL    HW122400   5.848   2.487   4.539
 7167SOL    HW222401   5.771   2.597   4.632
 7168SOL     OW22402   2.832   1.338   2.098
 7168SOL    HW122403   2.791   1.296   2.016
 7168SOL    HW222404   2.906   1.280   2.132
 7169SOL     OW22405   1.569   3.657   6.901
 7169SOL    HW122406   1.583   3.606   6.986
 7169SOL    HW222407   1.597   3.602   6.823
 7170SOL     OW22408   4.042   1.274   0.397
 7170SOL    HW122409   4.109   1.275   0.472
 7170SOL    HW222410   4.016   1.368   0.375
 7171SOL     OW22411   0.045   4.766   0.463
 7171SOL    HW122412   0.059   4.860   0.493
 7171SOL    HW222413   0.091   4.751   0.376
 7172SOL     OW22414   1.309   1.680   4.263
 7172SOL    HW122415   1.275   1.614   4.330
 7172SOL    HW222416   1.368   1.634   4.197
 7173SOL     OW22417   4.879   5.625   6.088
 7173SOL    HW122418   4.948   5.625   6.015
 7173SOL    HW222419   4.802   5.683   6.062
 7174SOL     OW22420   6.769   4.223   1.921
 7174SOL    HW122421   6.764   4.179   2.011
 7174SOL    HW222422   6.858   4.203   1.880
 7175SOL     OW22423   6.081   3.545   6.656
 7175SOL    HW122424   6.145   3.566   6.730
 7175SOL    HW222425   5.990   3.529   6.694
 7176SOL     OW22426   1.004   0.667   5.294
 7176SOL    HW122427   0.923   0.631   5.247
 7176SOL    HW222428   0.975   0.717   5.376
 7177SOL     OW22429   1.539   5.600   3.325
 7177SOL    HW122430   1.485   5.525   3.363
 7177SOL    HW222431   1.554   5.585   3.228
 7178SOL     OW22432   1.949   0.339   5.083
 7178SOL    HW122433   1.874   0.343   5.016
 7178SOL    HW222434   1.914   0.362   5.173
 7179SOL     OW22435   3.241   5.696   6.175
 7179SOL    HW122436   3.204   5.732   6.089
 7179SOL    HW222437   3.307   5.761   6.212
 7180SOL     OW22438   1.776   4.037   1.271
 7180SOL    HW122439   1.854   4.030   1.333
 7180SOL    HW222440   1.705   4.094   1.314
 7181SOL     OW22441   2.196   1.667   5.533
 7181SOL    HW122442   2.170   1.761   5.509
 7181SOL    HW222443   2.159   1.644   5.622
 7182SOL     OW22444   1.966   1.671   4.525
 7182SOL    HW122445   2.024   1.593   4.547
 7182SOL    HW222446   1.996   1.751   4.577
 7183SOL     OW22447   0.791   6.962   2.035
 7183SOL    HW122448   0.823   0.006   2.112
 7183SOL    HW222449   0.829   6.870   2.043
 7184SOL     OW22450   6.524   0.203   4.124
 7184SOL    HW122451   6.616   0.183   4.158
 7184SOL    HW222452   6.475   0.259   4.192
 7185SOL     OW22453   4.237   1.113   4.463
 7185SOL    HW122454   4.170   1.053   4.419
 7185SOL    HW222455   4.216   1.119   4.561
 7186SOL     OW22456   0.197   0.204   6.523
 7186SOL    HW122457   0.287   0.233   6.490
 7186SOL    HW222458   0.128   0.222   6.453
 7187SOL     OW22459   3.395   2.983   4.136
 7187SOL    HW122460   3.353   3.021   4.053
 7187SOL    HW222461   3.467   3.044   4.168
 7188SOL     OW22462   3.710   4.145   7.001
 7188SOL    HW122463   3.742   4.075   6.937
 7188SOL    HW222464   3.723   4.235   6.960
 7189SOL     OW22465   6.493   2.937   5.813
 7189SOL    HW122466   6.535   2.847   5.803
 7189SOL    HW222467   6.396   2.932   5.787
 7190SOL     OW22468   5.869   5.252   1.607
 7190SOL    HW122469   5.910   5.326   1.660
 7190SOL    HW222470   5.801   5.205   1.662
 7191SOL     OW22471   0.136   4.901   4.223
 7191SOL    HW122472   0.235   4.908   4.218
 7191SOL    HW222473   0.095   4.940   4.140
 7192SOL     OW22474   1.968   4.399   6.565
 7192SOL    HW122475   1.941   4.406   6.661
 7192SOL    HW222476   2.021   4.315   6.551
 7193SOL     OW22477   2.947   2.206   2.617
 7193SOL    HW122478   2.924   2.123   2.667
 7193SOL    HW222479   3.038   2.197   2.576
 7194SOL     OW22480   2.918   2.839   6.149
 7194SOL    HW122481   2.932   2.904   6.223
 7194SOL    HW222482   2.970   2.868   6.069
 7195SOL     OW22483   0.042   4.544   5.055
 7195SOL    HW122484   0.043   4.639   5.024
 7195SOL    HW222485   0.133   4.504   5.043
 7196SOL     OW22486   3.447   4.043   1.777
 7196SOL    HW122487   3.531   4.088   1.807
 7196SOL    HW222488   3.443   4.043   1.677
 7197SOL     OW22489   2.686   4.328   5.826
 7197SOL    HW122490   2.717   4.384   5.750
 7197SOL    HW222491   2.586   4.332   5.832
 7198SOL     OW22492   0.457   0.672   1.867
 7198SOL    HW122493   0.502   0.660   1.779
 7198SOL    HW222494   0.399   0.754   1.864
 7199SOL     OW22495   0.016   1.150   2.199
 7199SOL    HW122496   0.062   1.071   2.239
 7199SOL    HW222497   6.966   1.190   2.267
 7200SOL     OW22498   1.010   2.423   1.050
 7200SOL    HW122499   0.944   2.483   1.095
 7200SOL    HW222500   0.975   2.399   0.959
 7201SOL     OW22501   5.596   5.660   3.850
 7201SOL    HW122502   5.515   5.670   3.792
 7201SOL    HW222503   5.621   5.563   3.854
 7202SOL     OW22504   4.697   0.997   5.580
 7202SOL    HW122505   4.762   0.938   5.628
 7202SOL    HW222506   4.745   1.054   5.514
 7203SOL     OW22507   0.091   1.690   1.144
 7203SOL    HW122508   0.186   1.687   1.175
 7203SOL    HW222509   0.038   1.621   1.194
 7204SOL     OW22510   6.245   6.763   1.709
 7204SOL    HW122511   6.251   6.845   1.652
 7204SOL    HW222512   6.262   6.788   1.804
 7205SOL     OW22513   3.190   1.907   4.250
 7205SOL    HW122514   3.228   1.840   4.313
 7205SOL    HW222515   3.261   1.937   4.186
 7206SOL     OW22516   2.272   3.699   0.850
 7206SOL    HW122517   2.303   3.779   0.901
 7206SOL    HW222518   2.288   3.713   0.753
 7207SOL     OW22519   1.882   1.042   3.997
 7207SOL    HW122520   1.879   1.110   3.924
 7207SOL    HW222521   1.835   1.078   4.078
 7208SOL     OW22522   2.786   0.184   4.315
 7208SOL    HW122523   2.778   0.243   4.235
 7208SOL    HW222524   2.882   0.161   4.330
 7209SOL     OW22525   3.386   2.091   2.347
 7209SOL    HW122526   3.329   2.145   2.410
 7209SOL    HW222527   3.327   2.041   2.283
 7210SOL     OW22528   2.759   1.385   3.077
 7210SOL    HW122529   2.773   1.356   3.171
 7210SOL    HW222530   2.672   1.349   3.043
 7211SOL     OW22531   3.806   5.861   4.872
 7211SOL    HW122532   3.850   5.780   4.910
 7211SOL    HW222533   3.708   5.860   4.894
 7212SOL     OW22534   6.786   4.494   5.870
 7212SOL    HW122535   6.775   4.471   5.774
 7212SOL    HW222536   6.872   4.455   5.904
 7213SOL     OW22537   4.044   2.041   0.389
 7213SOL    HW122538   4.129   2.064   0.435
 7213SOL    HW222539   3.974   2.018   0.457
 7214SOL     OW22540   0.073   0.708   6.306
 7214SOL    HW122541   0.113   0.753   6.226
 7214SOL    HW222542   6.987   0.729   6.311
 7215SOL     OW22543   6.801   2.734   2.870
 7215SOL    HW122544   6.887   2.719   2.918
 7215SOL    HW222545   6.805   2.820   2.820
 7216SOL     OW22546   3.574   6.536   2.753
 7216SOL    HW122547   3.570   6.627   2.710
 7216SOL    HW222548   3.632   6.540   2.834
 7217SOL     OW22549   1.412   3.034   3.544
 7217SOL    HW122550   1.339   3.102   3.539
 7217SOL    HW222551   1.497   3.078   3.573
 7218SOL     OW22552   6.138   4.342   4.559
 7218SOL    HW122553   6.170   4.391   4.640
 7218SOL    HW222554   6.095   4.407   4.496
 7219SOL     OW22555   3.400   6.007   2.455
 7219SOL    HW122556   3.385   5.952   2.537
 7219SOL    HW222557   3.399   5.948   2.374
 7220SOL     OW22558   5.949   4.475   5.204
 7220SOL    HW122559   5.907   4.537   5.138
 7220SOL    HW222560   5.979   4.392   5.157
 7221SOL     OW22561   3.720   5.764   4.234
 7221SOL    HW122562   3.805   5.813   4.255
 7221SOL    HW222563   3.657   5.825   4.186
 7222SOL     OW22564   0.270   6.087   4.491
 7222SOL    HW122565   0.249   6.180   4.460
 7222SOL    HW222566   0.253   6.023   4.416
 7223SOL     OW22567   6.965   3.781   1.758
 7223SOL    HW122568   0.020   3.777   1.833
 7223SOL    HW222569   6.877   3.744   1.789
 7224SOL     OW22570   4.009   1.719   3.263
 7224SOL    HW122571   4.028   1.794   3.201
 7224SOL    HW222572   3.944   1.655   3.220
 7225SOL     OW22573   1.343   6.623   0.668
 7225SOL    HW122574   1.292   6.702   0.636
 7225SOL    HW222575   1.368   6.566   0.589
 7226SOL     OW22576   5.970   6.337   0.942
 7226SOL    HW122577   5.889   6.387   0.912
 7226SOL    HW222578   6.052   6.390   0.920
 7227SOL     OW22579   2.371   1.030   1.996
 7227SOL    HW122580   2.347   1.010   1.901
 7227SOL    HW222581   2.345   1.124   2.017
 7228SOL     OW22582   6.837   3.241   2.707
 7228SOL    HW122583   6.807   3.301   2.633
 7228SOL    HW222584   6.831   3.289   2.794
 7229SOL     OW22585   0.041   0.606   5.159
 7229SOL    HW122586   6.959   0.638   5.170
 7229SOL    HW222587   0.101   0.683   5.137
 7230SOL     OW22588   2.279   5.447   4.191
 7230SOL    HW122589   2.280   5.531   4.138
 7230SOL    HW222590   2.185   5.413   4.198
 7231SOL     OW22591   4.649   1.250   6.418
 7231SOL    HW122592   4.572   1.313   6.405
 7231SOL    HW222593   4.723   1.297   6.466
 7232SOL     OW22594   5.390   6.705   3.571
 7232SOL    HW122595   5.383   6.771   3.495
 7232SOL    HW222596   5.424   6.618   3.535
 7233SOL     OW22597   6.596   1.149   4.856
 7233SOL    HW122598   6.598   1.220   4.786
 7233SOL    HW222599   6.688   1.136   4.893
 7234SOL     OW22600   5.064   4.340   2.959
 7234SOL    HW122601   4.988   4.360   2.897
 7234SOL    HW222602   5.151   4.349   2.910
 7235SOL     OW22603   0.149   5.916   1.220
 7235SOL    HW122604   0.201   5.853   1.277
 7235SOL    HW222605   0.125   5.872   1.134
 7236SOL     OW22606   2.196   2.546   2.944
 7236SOL    HW122607   2.166   2.454   2.918
 7236SOL    HW222608   2.241   2.589   2.866
 7237SOL     OW22609   5.470   1.190   0.215
 7237SOL    HW122610   5.485   1.111   0.275
 7237SOL    HW222611   5.397   1.169   0.150
 7238SOL     OW22612   4.080   2.999   0.661
 7238SOL    HW122613   4.108   3.090   0.691
 7238SOL    HW222614   4.000   2.969   0.713
 7239SOL     OW22615   7.003   2.890   2.427
 7239SOL    HW122616   0.020   2.883   2.332
 7239SOL    HW222617   0.043   2.963   2.472
 7240SOL     OW22618   6.726   1.959   6.136
 7240SOL    HW122619   6.693   2.053   6.140
 7240SOL    HW222620   6.826   1.958   6.138
 7241SOL     OW22621   2.801   1.745   1.740
 7241SOL    HW122622   2.826   1.807   1.814
 7241SOL    HW222623   2.771   1.798   1.661
 7242SOL     OW22624   6.256   5.293   4.986
 7242SOL    HW122625   6.250   5.194   4.973
 7242SOL    HW222626   6.299   5.313   5.074
 7243SOL     OW22627   6.325   4.109   6.792
 7243SOL    HW122628   6.274   4.026   6.767
 7243SOL    HW222629   6.284   4.188   6.748
 7244SOL     OW22630   0.219   6.649   6.703
 7244SOL    HW122631   0.220   6.720   6.773
 7244SOL    HW222632   0.203   6.560   6.745
 7245SOL     OW22633   1.103   3.204   6.902
 7245SOL    HW122634   1.058   3.162   6.823
 7245SOL    HW222635   1.200   3.215   6.883
 7246SOL     OW22636   3.347   0.277   4.159
 7246SOL    HW122637   3.355   0.178   4.174
 7246SOL    HW222638   3.323   0.294   4.063
 7247SOL     OW22639   2.713   2.823   5.429
 7247SOL    HW122640   2.758   2.796   5.515
 7247SOL    HW222641   2.703   2.743   5.370
 7248SOL     OW22642   3.421   0.855   4.457
 7248SOL    HW122643   3.407   0.757   4.465
 7248SOL    HW222644   3.423   0.897   4.548
 7249SOL     OW22645   3.898   5.192   1.771
 7249SOL    HW122646   3.858   5.111   1.814
 7249SOL    HW222647   3.912   5.263   1.840
 7250SOL     OW22648   4.984   5.919   5.697
 7250SOL    HW122649   5.077   5.951   5.710
 7250SOL    HW222650   4.929   5.943   5.777
 7251SOL     OW22651   0.297   5.622   5.412
 7251SOL    HW122652   0.316   5.542   5.469
 7251SOL    HW222653   0.384   5.664   5.384
 7252SOL     OW22654   3.328   4.025   2.017
 7252SOL    HW122655   3.298   3.929   2.009
 7252SOL    HW222656   3.375   4.052   1.934
 7253SOL     OW22657   1.340   5.680   5.375
 7253SOL    HW122658   1.264   5.623   5.343
 7253SOL    HW222659   1.423   5.658   5.324
 7254SOL     OW22660   4.971   3.794   3.773
 7254SOL    HW122661   4.945   3.698   3.784
 7254SOL    HW222662   4.928   3.831   3.691
 7255SOL     OW22663   5.421   3.583   6.757
 7255SOL    HW122664   5.399   3.634   6.674
 7255SOL    HW222665   5.496   3.628   6.805
 7256SOL     OW22666   3.377   6.464   6.156
 7256SOL    HW122667   3.358   6.396   6.227
 7256SOL    HW222668   3.458   6.518   6.181
 7257SOL     OW22669   1.006   1.043   4.575
 7257SOL    HW122670   0.948   1.123   4.561
 7257SOL    HW222671   1.051   1.019   4.489
 7258SOL     OW22672   6.113   1.828   3.245
 7258SOL    HW122673   6.032   1.777   3.218
 7258SOL    HW222674   6.128   1.904   3.181
 7259SOL     OW22675   0.816   4.384   2.907
 7259SOL    HW122676   0.733   4.354   2.860
 7259SOL    HW222677   0.814   4.353   3.002
 7260SOL     OW22678   5.498   3.606   0.913
 7260SOL    HW122679   5.410   3.648   0.935
 7260SOL    HW222680   5.489   3.552   0.829
 7261SOL     OW22681   0.145   4.345   0.316
 7261SOL    HW122682   0.213   4.302   0.256
 7261SOL    HW222683   0.061   4.360   0.265
 7262SOL     OW22684   6.334   1.859   6.196
 7262SOL    HW122685   6.302   1.831   6.106
 7262SOL    HW222686   6.334   1.959   6.203
 7263SOL     OW22687   0.179   5.565   0.169
 7263SOL    HW122688   0.241   5.631   0.127
 7263SOL    HW222689   0.227   5.517   0.243
 7264SOL     OW22690   5.598   1.384   0.560
 7264SOL    HW122691   5.546   1.441   0.624
 7264SOL    HW222692   5.695   1.406   0.567
 7265SOL     OW22693   4.205   5.907   5.129
 7265SOL    HW122694   4.190   5.816   5.167
 7265SOL    HW222695   4.301   5.933   5.141
 7266SOL     OW22696   6.896   0.433   3.890
 7266SOL    HW122697   6.872   0.338   3.911
 7266SOL    HW222698   6.912   0.483   3.975
 7267SOL     OW22699   6.131   5.531   4.941
 7267SOL    HW122700   6.170   5.439   4.945
 7267SOL    HW222701   6.178   5.590   5.006
 7268SOL     OW22702   6.353   6.086   4.182
 7268SOL    HW122703   6.339   6.103   4.280
 7268SOL    HW222704   6.274   6.038   4.144
 7269SOL     OW22705   2.376   5.077   5.164
 7269SOL    HW122706   2.400   5.121   5.078
 7269SOL    HW222707   2.437   5.000   5.181
 7270SOL     OW22708   0.692   1.323   3.711
 7270SOL    HW122709   0.652   1.233   3.693
 7270SOL    HW222710   0.685   1.343   3.809
 7271SOL     OW22711   0.483   4.032   3.457
 7271SOL    HW122712   0.452   4.126   3.474
 7271SOL    HW222713   0.404   3.971   3.455
 7272SOL     OW22714   6.312   5.433   2.724
 7272SOL    HW122715   6.302   5.521   2.678
 7272SOL    HW222716   6.221   5.396   2.744
 7273SOL     OW22717   6.999   2.718   5.519
 7273SOL    HW122718   6.956   2.766   5.443
 7273SOL    HW222719   7.003   2.778   5.599
 7274SOL     OW22720   0.524   4.402   0.063
 7274SOL    HW122721   0.560   4.455   0.140
 7274SOL    HW222722   0.524   4.305   0.087
 7275SOL     OW22723   6.336   6.911   2.981
 7275SOL    HW122724   6.380   6.874   2.899
 7275SOL    HW222725   6.326   7.010   2.972
 7276SOL     OW22726   4.765   6.664   3.669
 7276SOL    HW122727   4.690   6.659   3.602
 7276SOL    HW222728   4.754   6.591   3.735
 7277SOL     OW22729   4.778   0.421   5.530
 7277SOL    HW122730   4.780   0.405   5.431
 7277SOL    HW222731   4.745   0.339   5.576
 7278SOL     OW22732   3.288   3.797   2.580
 7278SOL    HW122733   3.377   3.776   2.539
 7278SOL    HW222734   3.291   3.887   2.624
 7279SOL     OW22735   4.105   5.855   0.460
 7279SOL    HW122736   4.125   5.824   0.553
 7279SOL    HW222737   4.190   5.867   0.410
 7280SOL     OW22738   4.731   0.165   5.650
 7280SOL    HW122739   4.635   0.182   5.670
 7280SOL    HW222740   4.765   0.091   5.708
 7281SOL     OW22741   4.103   1.684   6.485
 7281SOL    HW122742   4.166   1.633   6.427
 7281SOL    HW222743   4.091   1.634   6.572
 7282SOL     OW22744   5.866   5.367   2.254
 7282SOL    HW122745   5.826   5.459   2.257
 7282SOL    HW222746   5.819   5.313   2.184
 7283SOL     OW22747   2.652   0.874   3.279
 7283SOL    HW122748   2.649   0.801   3.348
 7283SOL    HW222749   2.565   0.878   3.231
 7284SOL     OW22750   6.535   3.525   5.209
 7284SOL    HW122751   6.487   3.450   5.255
 7284SOL    HW222752   6.477   3.606   5.208
 7285SOL     OW22753   4.950   5.547   1.908
 7285SOL    HW122754   4.902   5.485   1.846
 7285SOL    HW222755   5.034   5.503   1.940
 7286SOL     OW22756   2.330   2.546   1.085
 7286SOL    HW122757   2.423   2.577   1.067
 7286SOL    HW222758   2.327   2.490   1.168
 7287SOL     OW22759   6.546   0.638   6.523
 7287SOL    HW122760   6.481   0.671   6.592
 7287SOL    HW222761   6.630   0.691   6.528
 7288SOL     OW22762   4.098   0.023   6.414
 7288SOL    HW122763   4.107   6.970   6.339
 7288SOL    HW222764   4.001   0.037   6.435
 7289SOL     OW22765   5.885   1.688   3.131
 7289SOL    HW122766   5.839   1.663   3.046
 7289SOL    HW222767   5.816   1.706   3.202
 7290SOL     OW22768   2.439   5.199   4.944
 7290SOL    HW122769   2.470   5.284   4.989
 7290SOL    HW222770   2.433   5.214   4.846
 7291SOL     OW22771   2.567   6.234   1.298
 7291SOL    HW122772   2.517   6.177   1.364
 7291SOL    HW222773   2.605   6.314   1.346
 7292SOL     OW22774   2.787   6.840   3.362
 7292SOL    HW122775   2.780   6.938   3.343
 7292SOL    HW222776   2.882   6.817   3.382
 7293SOL     OW22777   1.755   1.793   4.821
 7293SOL    HW122778   1.700   1.764   4.743
 7293SOL    HW222779   1.795   1.883   4.803
 7294SOL     OW22780   2.368   5.386   0.438
 7294SOL    HW122781   2.446   5.437   0.473
 7294SOL    HW222782   2.343   5.314   0.503
 7295SOL     OW22783   0.234   1.672   0.834
 7295SOL    HW122784   0.224   1.770   0.851
 7295SOL    HW222785   0.271   1.627   0.915
 7296SOL     OW22786   3.071   4.814   0.690
 7296SOL    HW122787   3.152   4.855   0.732
 7296SOL    HW222788   3.018   4.885   0.644
 7297SOL     OW22789   4.611   6.420   0.517
 7297SOL    HW122790   4.681   6.485   0.548
 7297SOL    HW222791   4.542   6.409   0.588
 7298SOL     OW22792   5.718   3.847   4.669
 7298SOL    HW122793   5.674   3.932   4.697
 7298SOL    HW222794   5.784   3.866   4.596
 7299SOL     OW22795   6.524   2.784   0.728
 7299SOL    HW122796   6.615   2.805   0.692
 7299SOL    HW222797   6.468   2.747   0.654
 7300SOL     OW22798   4.837   5.876   0.951
 7300SOL    HW122799   4.909   5.809   0.933
 7300SOL    HW222800   4.798   5.859   1.042
 7301SOL     OW22801   6.623   0.033   5.981
 7301SOL    HW122802   6.545   0.072   6.032
 7301SOL    HW222803   6.595   0.013   5.887
 7302SOL     OW22804   0.083   0.965   0.106
 7302SOL    HW122805   0.109   1.048   0.057
 7302SOL    HW222806   0.084   0.983   0.204
 7303SOL     OW22807   3.763   0.358   6.661
 7303SOL    HW122808   3.828   0.323   6.729
 7303SOL    HW222809   3.782   0.317   6.572
 7304SOL     OW22810   4.306   3.574   6.157
 7304SOL    HW122811   4.330   3.478   6.165
 7304SOL    HW222812   4.352   3.613   6.077
 7305SOL     OW22813   5.582   1.849   0.185
 7305SOL    HW122814   5.506   1.801   0.228
 7305SOL    HW222815   5.554   1.942   0.162
 7306SOL     OW22816   5.033   4.015   1.550
 7306SOL    HW122817   4.937   4.007   1.525
 7306SOL    HW222818   5.051   4.106   1.587
 7307SOL     OW22819   3.056   6.653   1.788
 7307SOL    HW122820   3.064   6.753   1.787
 7307SOL    HW222821   3.124   6.615   1.851
 7308SOL     OW22822   6.850   3.438   4.242
 7308SOL    HW122823   6.855   3.367   4.172
 7308SOL    HW222824   6.937   3.442   4.291
 7309SOL     OW22825   5.269   6.425   0.461
 7309SOL    HW122826   5.322   6.506   0.436
 7309SOL    HW222827   5.330   6.347   0.474
 7310SOL     OW22828   2.459   5.712   1.046
 7310SOL    HW122829   2.423   5.654   1.119
 7310SOL    HW222830   2.547   5.749   1.074
 7311SOL     OW22831   2.687   2.122   1.963
 7311SOL    HW122832   2.633   2.078   2.036
 7311SOL    HW222833   2.754   2.184   2.003
 7312SOL     OW22834   6.957   2.015   5.453
 7312SOL    HW122835   6.976   2.113   5.446
 7312SOL    HW222836   0.032   1.966   5.465
 7313SOL     OW22837   4.380   2.232   6.460
 7313SOL    HW122838   4.463   2.286   6.465
 7313SOL    HW222839   4.371   2.193   6.368
 7314SOL     OW22840   6.714   3.699   5.116
 7314SOL    HW122841   6.749   3.755   5.191
 7314SOL    HW222842   6.643   3.638   5.150
 7315SOL     OW22843   6.310   0.153   3.979
 7315SOL    HW122844   6.377   0.149   4.054
 7315SOL    HW222845   6.298   0.248   3.951
 7316SOL     OW22846   3.672   3.217   5.743
 7316SOL    HW122847   3.579   3.221   5.708
 7316SOL    HW222848   3.670   3.209   5.843
 7317SOL     OW22849   3.578   0.763   2.737
 7317SOL    HW122850   3.653   0.742   2.674
 7317SOL    HW222851   3.548   0.857   2.723
 7318SOL     OW22852   0.822   1.880   1.975
 7318SOL    HW122853   0.800   1.786   1.948
 7318SOL    HW222854   0.921   1.888   1.988
 7319SOL     OW22855   6.237   4.267   0.034
 7319SOL    HW122856   6.308   4.314   0.086
 7319SOL    HW222857   6.279   4.215   6.971
 7320SOL     OW22858   0.323   3.431   2.367
 7320SOL    HW122859   0.413   3.475   2.364
 7320SOL    HW222860   0.333   3.332   2.360
 7321SOL     OW22861   2.567   1.350   4.449
 7321SOL    HW122862   2.575   1.265   4.397
 7321SOL    HW222863   2.480   1.352   4.497
 7322SOL     OW22864   1.083   3.837   3.096
 7322SOL    HW122865   1.112   3.931   3.114
 7322SOL    HW222866   1.009   3.812   3.158
 7323SOL     OW22867   1.725   2.247   3.362
 7323SOL    HW122868   1.627   2.230   3.372
 7323SOL    HW222869   1.741   2.302   3.279
 7324SOL     OW22870   5.649   0.874   3.472
 7324SOL    HW122871   5.671   0.786   3.432
 7324SOL    HW222872   5.561   0.869   3.520
 7325SOL     OW22873   4.028   6.260   6.299
 7325SOL    HW122874   3.987   6.306   6.378
 7325SOL    HW222875   4.113   6.306   6.274
 7326SOL     OW22876   2.586   6.462   5.851
 7326SOL    HW122877   2.605   6.538   5.913
 7326SOL    HW222878   2.670   6.409   5.836
 7327SOL     OW22879   0.878   3.051   5.945
 7327SOL    HW122880   0.923   3.123   5.893
 7327SOL    HW222881   0.909   3.054   6.040
 7328SOL     OW22882   3.396   6.904   6.981
 7328SOL    HW122883   3.424   6.920   6.886
 7328SOL    HW222884   3.387   6.992   0.017
 7329SOL     OW22885   4.562   3.304   0.686
 7329SOL    HW122886   4.495   3.351   0.628
 7329SOL    HW222887   4.513   3.247   0.753
 7330SOL     OW22888   3.426   1.718   6.774
 7330SOL    HW122889   3.351   1.780   6.752
 7330SOL    HW222890   3.484   1.706   6.693
 7331SOL     OW22891   5.144   0.722   2.256
 7331SOL    HW122892   5.167   0.815   2.226
 7331SOL    HW222893   5.142   0.720   2.356
 7332SOL     OW22894   2.502   6.104   0.140
 7332SOL    HW122895   2.544   6.194   0.128
 7332SOL    HW222896   2.571   6.038   0.171
 7333SOL     OW22897   0.654   4.780   3.069
 7333SOL    HW122898   0.652   4.750   2.973
 7333SOL    HW222899   0.711   4.861   3.077
 7334SOL     OW22900   3.814   5.759   5.320
 7334SOL    HW122901   3.722   5.724   5.340
 7334SOL    HW222902   3.806   5.852   5.283
 7335SOL     OW22903   1.451   2.351   2.340
 7335SOL    HW122904   1.441   2.449   2.357
 7335SOL    HW222905   1.484   2.336   2.247
 7336SOL     OW22906   1.716   5.829   4.032
 7336SOL    HW122907   1.801   5.875   4.006
 7336SOL    HW222908   1.736   5.761   4.103
 7337SOL     OW22909   1.284   3.109   2.174
 7337SOL    HW122910   1.188   3.125   2.197
 7337SOL    HW222911   1.342   3.169   2.228
 7338SOL     OW22912   6.942   2.475   1.705
 7338SOL    HW122913   0.010   2.454   1.762
 7338SOL    HW222914   6.950   2.428   1.618
 7339SOL     OW22915   6.616   6.057   4.077
 7339SOL    HW122916   6.536   6.050   4.136
 7339SOL    HW222917   6.590   6.040   3.982
 7340SOL     OW22918   2.630   0.436   7.006
 7340SOL    HW122919   2.728   0.414   7.002
 7340SOL    HW222920   2.581   0.361   0.037
 7341SOL     OW22921   6.365   2.035   0.304
 7341SOL    HW122922   6.410   2.124   0.297
 7341SOL    HW222923   6.279   2.036   0.253
 7342SOL     OW22924   6.512   6.393   2.791
 7342SOL    HW122925   6.525   6.380   2.889
 7342SOL    HW222926   6.441   6.330   2.759
 7343SOL     OW22927   5.340   3.069   0.598
 7343SOL    HW122928   5.247   3.033   0.586
 7343SOL    HW222929   5.373   3.104   0.510
 7344SOL     OW22930   1.152   6.060   6.082
 7344SOL    HW122931   1.246   6.076   6.113
 7344SOL    HW222932   1.090   6.065   6.160
 7345SOL     OW22933   3.914   3.379   6.075
 7345SOL    HW122934   3.955   3.470   6.077
 7345SOL    HW222935   3.889   3.351   6.168
 7346SOL     OW22936   3.831   5.607   2.661
 7346SOL    HW122937   3.887   5.663   2.722
 7346SOL    HW222938   3.889   5.549   2.604
 7347SOL     OW22939   6.753   2.180   0.362
 7347SOL    HW122940   6.686   2.255   0.363
 7347SOL    HW222941   6.799   2.175   0.451
 7348SOL     OW22942   1.735   4.478   2.694
 7348SOL    HW122943   1.646   4.474   2.648
 7348SOL    HW222944   1.808   4.459   2.628
 7349SOL     OW22945   3.925   0.511   1.338
 7349SOL    HW122946   4.024   0.522   1.342
 7349SOL    HW222947   3.884   0.593   1.298
 7350SOL     OW22948   2.789   0.590   5.025
 7350SOL    HW122949   2.853   0.560   4.955
 7350SOL    HW222950   2.741   0.510   5.062
 7351SOL     OW22951   4.424   5.043   3.865
 7351SOL    HW122952   4.458   4.954   3.893
 7351SOL    HW222953   4.374   5.034   3.778
 7352SOL     OW22954   0.630   2.654   3.160
 7352SOL    HW122955   0.555   2.682   3.220
 7352SOL    HW222956   0.679   2.577   3.200
 7353SOL     OW22957   6.114   0.205   0.117
 7353SOL    HW122958   6.085   0.261   0.040
 7353SOL    HW222959   6.202   0.240   0.152
 7354SOL     OW22960   1.228   2.030   2.845
 7354SOL    HW122961   1.295   2.105   2.837
 7354SOL    HW222962   1.176   2.024   2.760
 7355SOL     OW22963   0.096   1.835   5.976
 7355SOL    HW122964   0.054   1.902   6.037
 7355SOL    HW222965   0.042   1.826   5.893
 7356SOL     OW22966   4.005   3.347   6.457
 7356SOL    HW122967   4.081   3.298   6.500
 7356SOL    HW222968   4.041   3.426   6.407
 7357SOL     OW22969   5.248   5.585   1.665
 7357SOL    HW122970   5.279   5.607   1.573
 7357SOL    HW222971   5.285   5.496   1.692
 7358SOL     OW22972   5.899   2.024   2.757
 7358SOL    HW122973   5.974   1.967   2.724
 7358SOL    HW222974   5.834   1.967   2.808
 7359SOL     OW22975   4.657   0.641   6.503
 7359SOL    HW122976   4.694   0.690   6.425
 7359SOL    HW222977   4.672   0.542   6.491
 7360SOL     OW22978   2.408   3.261   5.386
 7360SOL    HW122979   2.432   3.199   5.312
 7360SOL    HW222980   2.342   3.329   5.353
 7361SOL     OW22981   4.892   0.420   2.309
 7361SOL    HW122982   4.920   0.404   2.404
 7361SOL    HW222983   4.970   0.406   2.249
 7362SOL     OW22984   3.960   5.424   6.740
 7362SOL    HW122985   3.910   5.338   6.726
 7362SOL    HW222986   4.031   5.410   6.809
 7363SOL     OW22987   3.945   0.721   0.658
 7363SOL    HW122988   3.975   0.665   0.735
 7363SOL    HW222989   4.015   0.789   0.636
 7364SOL     OW22990   4.867   0.041   2.145
 7364SOL    HW122991   4.926   6.996   2.087
 7364SOL    HW222992   4.859   0.132   2.106
 7365SOL     OW22993   5.998   4.719   2.302
 7365SOL    HW122994   6.075   4.781   2.284
 7365SOL    HW222995   6.002   4.642   2.238
 7366SOL     OW22996   2.482   1.357   4.039
 7366SOL    HW122997   2.581   1.355   4.049
 7366SOL    HW222998   2.443   1.275   4.080
 7367SOL     OW22999   5.147   1.130   6.474
 7367SOL    HW123000   5.093   1.066   6.528
 7367SOL    HW223001   5.149   1.099   6.379
 7368SOL     OW23002   4.083   3.205   2.584
 7368SOL    HW123003   4.016   3.133   2.566
 7368SOL    HW223004   4.121   3.238   2.497
 7369SOL     OW23005   4.921   2.774   0.452
 7369SOL    HW123006   4.877   2.722   0.379
 7369SOL    HW223007   4.947   2.713   0.526
 7370SOL     OW23008   2.360   1.505   4.830
 7370SOL    HW123009   2.382   1.570   4.757
 7370SOL    HW223010   2.330   1.555   4.911
 7371SOL     OW23011   4.343   0.112   3.477
 7371SOL    HW123012   4.282   0.190   3.469
 7371SOL    HW223013   4.354   0.068   3.388
 7372SOL     OW23014   4.370   6.870   4.727
 7372SOL    HW123015   4.342   6.959   4.690
 7372SOL    HW223016   4.371   6.802   4.654
 7373SOL     OW23017   5.017   2.516   4.545
 7373SOL    HW123018   4.920   2.504   4.525
 7373SOL    HW223019   5.047   2.445   4.609
 7374SOL     OW23020   0.733   1.628   5.046
 7374SOL    HW123021   0.729   1.687   5.127
 7374SOL    HW223022   0.776   1.678   4.970
 7375SOL     OW23023   1.736   2.881   2.258
 7375SOL    HW123024   1.692   2.917   2.176
 7375SOL    HW223025   1.812   2.823   2.232
 7376SOL     OW23026   0.520   4.058   0.548
 7376SOL    HW123027   0.596   4.020   0.600
 7376SOL    HW223028   0.447   4.085   0.611
 7377SOL     OW23029   3.010   5.713   0.269
 7377SOL    HW123030   2.970   5.688   0.181
 7377SOL    HW223031   2.998   5.811   0.285
 7378SOL     OW23032   1.408   6.123   4.006
 7378SOL    HW123033   1.440   6.037   3.966
 7378SOL    HW223034   1.485   6.185   4.017
 7379SOL     OW23035   4.195   0.710   0.880
 7379SOL    HW123036   4.105   0.712   0.924
 7379SOL    HW223037   4.264   0.679   0.946
 7380SOL     OW23038   5.659   3.592   3.655
 7380SOL    HW123039   5.614   3.556   3.737
 7380SOL    HW223040   5.753   3.619   3.677
 7381SOL     OW23041   3.650   1.061   0.221
 7381SOL    HW123042   3.708   1.085   0.298
 7381SOL    HW223043   3.687   1.101   0.137
 7382SOL     OW23044   6.986   1.367   6.093
 7382SOL    HW123045   6.956   1.333   6.182
 7382SOL    HW223046   6.960   1.463   6.084
 7383SOL     OW23047   1.619   6.669   1.547
 7383SOL    HW123048   1.568   6.634   1.469
 7383SOL    HW223049   1.626   6.597   1.616
 7384SOL     OW23050   0.553   0.021   1.106
 7384SOL    HW123051   0.617   0.068   1.045
 7384SOL    HW223052   0.525   0.084   1.179
 7385SOL     OW23053   4.327   4.940   2.589
 7385SOL    HW123054   4.317   5.024   2.535
 7385SOL    HW223055   4.250   4.880   2.572
 7386SOL     OW23056   6.129   3.249   0.963
 7386SOL    HW123057   6.159   3.213   0.874
 7386SOL    HW223058   6.195   3.317   0.995
 7387SOL     OW23059   6.465   4.652   5.309
 7387SOL    HW123060   6.484   4.619   5.402
 7387SOL    HW223061   6.369   4.679   5.303
 7388SOL     OW23062   1.802   6.354   2.326
 7388SOL    HW123063   1.728   6.287   2.332
 7388SOL    HW223064   1.852   6.342   2.240
 7389SOL     OW23065   6.935   2.820   0.318
 7389SOL    HW123066   7.008   2.830   0.385
 7389SOL    HW223067   6.930   2.725   0.287
 7390SOL     OW23068   2.476   2.090   2.346
 7390SOL    HW123069   2.534   2.172   2.350
 7390SOL    HW223070   2.392   2.107   2.396
 7391SOL     OW23071   3.584   3.441   2.602
 7391SOL    HW123072   3.587   3.348   2.641
 7391SOL    HW223073   3.490   3.475   2.607
 7392SOL     OW23074   3.888   5.164   6.710
 7392SOL    HW123075   3.815   5.117   6.660
 7392SOL    HW223076   3.959   5.192   6.647
 7393SOL     OW23077   6.015   5.324   4.328
 7393SOL    HW123078   6.091   5.386   4.308
 7393SOL    HW223079   5.939   5.376   4.367
 7394SOL     OW23080   2.182   2.339   6.336
 7394SOL    HW123081   2.196   2.431   6.370
 7394SOL    HW223082   2.142   2.282   6.408
 7395SOL     OW23083   2.927   4.352   0.802
 7395SOL    HW123084   2.956   4.430   0.747
 7395SOL    HW223085   2.948   4.368   0.898
 7396SOL     OW23086   2.264   5.450   1.735
 7396SOL    HW123087   2.312   5.505   1.667
 7396SOL    HW223088   2.322   5.374   1.765
 7397SOL     OW23089   5.483   4.143   3.979
 7397SOL    HW123090   5.531   4.151   4.066
 7397SOL    HW223091   5.464   4.047   3.960
 7398SOL     OW23092   1.957   4.702   2.815
 7398SOL    HW123093   2.024   4.639   2.854
 7398SOL    HW223094   1.868   4.657   2.807
 7399SOL     OW23095   5.302   1.718   5.033
 7399SOL    HW123096   5.380   1.761   4.987
 7399SOL    HW223097   5.229   1.702   4.966
 7400SOL     OW23098   5.251   2.442   5.462
 7400SOL    HW123099   5.333   2.387   5.476
 7400SOL    HW223100   5.233   2.497   5.544
 7401SOL     OW23101   0.996   2.836   3.520
 7401SOL    HW123102   1.072   2.879   3.472
 7401SOL    HW223103   0.926   2.809   3.454
 7402SOL     OW23104   3.052   5.883   5.413
 7402SOL    HW123105   3.055   5.976   5.377
 7402SOL    HW223106   3.044   5.886   5.513
 7403SOL     OW23107   1.621   2.935   4.655
 7403SOL    HW123108   1.581   2.845   4.635
 7403SOL    HW223109   1.596   2.999   4.583
 7404SOL     OW23110   3.407   3.512   1.040
 7404SOL    HW123111   3.481   3.541   1.101
 7404SOL    HW223112   3.360   3.433   1.080
 7405SOL     OW23113   3.188   5.654   5.388
 7405SOL    HW123114   3.130   5.735   5.389
 7405SOL    HW223115   3.181   5.610   5.298
 7406SOL     OW23116   0.869   1.008   5.091
 7406SOL    HW123117   0.841   1.067   5.015
 7406SOL    HW223118   0.788   0.985   5.146
 7407SOL     OW23119   0.693   6.263   5.949
 7407SOL    HW123120   0.714   6.220   5.861
 7407SOL    HW223121   0.754   6.227   6.019
 7408SOL     OW23122   3.499   3.682   5.288
 7408SOL    HW123123   3.458   3.772   5.299
 7408SOL    HW223124   3.496   3.656   5.191
 7409SOL     OW23125   6.156   4.251   0.374
 7409SOL    HW123126   6.084   4.319   0.357
 7409SOL    HW223127   6.178   4.250   0.471
 7410SOL     OW23128   6.647   0.320   1.739
 7410SOL    HW123129   6.600   0.260   1.674
 7410SOL    HW223130   6.727   0.273   1.776
 7411SOL     OW23131   1.216   2.072   5.419
 7411SOL    HW123132   1.240   2.097   5.513
 7411SOL    HW223133   1.277   2.119   5.356
 7412SOL     OW23134   4.167   6.715   0.015
 7412SOL    HW123135   4.093   6.739   6.963
 7412SOL    HW223136   4.137   6.732   0.108
 7413SOL     OW23137   4.278   6.495   3.154
 7413SOL    HW123138   4.194   6.442   3.158
 7413SOL    HW223139   4.288   6.536   3.064
 7414SOL     OW23140   2.412   2.379   3.989
 7414SOL    HW123141   2.494   2.322   4.001
 7414SOL    HW223142   2.428   2.470   4.027
 7415SOL     OW23143   4.295   6.124   6.564
 7415SOL    HW123144   4.341   6.131   6.476
 7415SOL    HW223145   4.345   6.061   6.624
 7416SOL     OW23146   1.121   1.725   2.533
 7416SOL    HW123147   1.193   1.792   2.553
 7416SOL    HW223148   1.139   1.641   2.583
 7417SOL     OW23149   0.788   1.680   3.983
 7417SOL    HW123150   0.689   1.670   3.991
 7417SOL    HW223151   0.811   1.726   3.897
 7418SOL     OW23152   1.616   3.631   6.200
 7418SOL    HW123153   1.598   3.535   6.222
 7418SOL    HW223154   1.530   3.677   6.178
 7419SOL     OW23155   6.640   3.920   3.790
 7419SOL    HW123156   6.647   3.948   3.886
 7419SOL    HW223157   6.551   3.950   3.753
 7420SOL     OW23158   6.388   6.918   1.892
 7420SOL    HW123159   6.402   6.969   1.807
 7420SOL    HW223160   6.428   6.826   1.883
 7421SOL     OW23161   5.203   3.941   1.771
 7421SOL    HW123162   5.134   3.919   1.702
 7421SOL    HW223163   5.169   3.918   1.862
 7422SOL     OW23164   5.636   2.813   1.979
 7422SOL    HW123165   5.542   2.819   1.946
 7422SOL    HW223166   5.645   2.735   2.040
 7423SOL     OW23167   5.553   1.736   5.951
 7423SOL    HW123168   5.643   1.694   5.944
 7423SOL    HW223169   5.554   1.806   6.022
 7424SOL     OW23170   0.830   1.408   4.320
 7424SOL    HW123171   0.901   1.448   4.263
 7424SOL    HW223172   0.860   1.410   4.416
 7425SOL     OW23173   5.693   6.996   0.169
 7425SOL    HW123174   5.665   6.916   0.222
 7425SOL    HW223175   5.786   6.983   0.135
 7426SOL     OW23176   3.450   2.949   6.020
 7426SOL    HW123177   3.424   2.981   5.929
 7426SOL    HW223178   3.427   3.018   6.088
 7427SOL     OW23179   3.693   1.757   4.302
 7427SOL    HW123180   3.705   1.817   4.223
 7427SOL    HW223181   3.641   1.676   4.274
 7428SOL     OW23182   4.269   5.856   5.551
 7428SOL    HW123183   4.236   5.906   5.631
 7428SOL    HW223184   4.314   5.771   5.581
 7429SOL     OW23185   1.608   6.961   2.270
 7429SOL    HW123186   1.510   6.977   2.285
 7429SOL    HW223187   1.635   7.001   2.183
 7430SOL     OW23188   6.219   5.053   2.897
 7430SOL    HW123189   6.137   5.032   2.843
 7430SOL    HW223190   6.253   4.970   2.940
 7431SOL     OW23191   1.611   1.986   4.633
 7431SOL    HW123192   1.646   1.932   4.556
 7431SOL    HW223193   1.629   2.083   4.615
 7432SOL     OW23194   2.096   0.230   3.012
 7432SOL    HW123195   2.034   0.249   2.936
 7432SOL    HW223196   2.043   0.215   3.095
 7433SOL     OW23197   2.192   0.634   6.655
 7433SOL    HW123198   2.121   0.636   6.725
 7433SOL    HW223199   2.150   0.639   6.564
 7434SOL     OW23200   3.956   5.777   5.770
 7434SOL    HW123201   3.961   5.741   5.676
 7434SOL    HW223202   4.049   5.784   5.808
 7435SOL     OW23203   4.644   5.871   3.134
 7435SOL    HW123204   4.675   5.850   3.227
 7435SOL    HW223205   4.691   5.953   3.101
 7436SOL     OW23206   5.409   3.094   6.652
 7436SOL    HW123207   5.446   3.021   6.710
 7436SOL    HW223208   5.481   3.129   6.593
 7437SOL     OW23209   4.184   6.178   1.230
 7437SOL    HW123210   4.178   6.203   1.326
 7437SOL    HW223211   4.092   6.161   1.194
 7438SOL     OW23212   2.734   0.701   0.078
 7438SOL    HW123213   2.735   0.601   0.080
 7438SOL    HW223214   2.677   0.732   0.002
 7439SOL     OW23215   0.634   4.898   6.345
 7439SOL    HW123216   0.584   4.982   6.369
 7439SOL    HW223217   0.703   4.880   6.415
 7440SOL     OW23218   5.000   3.124   4.468
 7440SOL    HW123219   4.938   3.084   4.401
 7440SOL    HW223220   5.071   3.058   4.492
 7441SOL     OW23221   6.024   6.285   1.699
 7441SOL    HW123222   5.942   6.229   1.699
 7441SOL    HW223223   6.102   6.231   1.666
 7442SOL     OW23224   5.082   0.661   5.007
 7442SOL    HW123225   5.088   0.588   4.939
 7442SOL    HW223226   5.055   0.622   5.095
 7443SOL     OW23227   0.225   0.570   2.158
 7443SOL    HW123228   0.212   0.553   2.061
 7443SOL    HW223229   0.174   0.503   2.211
 7444SOL     OW23230   0.594   6.267   6.569
 7444SOL    HW123231   0.507   6.310   6.545
 7444SOL    HW223232   0.659   6.279   6.494
 7445SOL     OW23233   4.416   5.914   1.388
 7445SOL    HW123234   4.442   6.009   1.368
 7445SOL    HW223235   4.463   5.884   1.471
 7446SOL     OW23236   4.907   4.013   0.302
 7446SOL    HW123237   4.827   4.056   0.261
 7446SOL    HW223238   4.934   4.063   0.385
 7447SOL     OW23239   1.084   4.973   1.516
 7447SOL    HW123240   1.051   4.964   1.422
 7447SOL    HW223241   1.014   4.943   1.580
 7448SOL     OW23242   4.805   5.049   5.947
 7448SOL    HW123243   4.748   5.007   6.017
 7448SOL    HW223244   4.836   5.138   5.979
 7449SOL     OW23245   0.442   4.612   6.609
 7449SOL    HW123246   0.491   4.695   6.634
 7449SOL    HW223247   0.495   4.561   6.541
 7450SOL     OW23248   5.174   1.752   5.778
 7450SOL    HW123249   5.156   1.726   5.683
 7450SOL    HW223250   5.124   1.690   5.839
 7451SOL     OW23251   5.542   4.998   2.597
 7451SOL    HW123252   5.606   4.992   2.674
 7451SOL    HW223253   5.473   4.926   2.606
 7452SOL     OW23254   5.867   5.477   5.223
 7452SOL    HW123255   5.794   5.539   5.254
 7452SOL    HW223256   5.956   5.517   5.246
 7453SOL     OW23257   3.959   5.754   0.237
 7453SOL    HW123258   4.015   5.707   0.169
 7453SOL    HW223259   4.018   5.795   0.307
 7454SOL     OW23260   3.807   2.543   0.473
 7454SOL    HW123261   3.792   2.470   0.539
 7454SOL    HW223262   3.860   2.508   0.396
 7455SOL     OW23263   6.778   2.963   3.288
 7455SOL    HW123264   6.806   2.868   3.274
 7455SOL    HW223265   6.754   2.977   3.384
 7456SOL     OW23266   2.851   2.049   5.357
 7456SOL    HW123267   2.817   2.143   5.355
 7456SOL    HW223268   2.912   2.034   5.280
 7457SOL     OW23269   2.832   0.399   2.922
 7457SOL    HW123270   2.787   0.428   2.838
 7457SOL    HW223271   2.792   0.448   3.000
 7458SOL     OW23272   1.430   5.922   5.569
 7458SOL    HW123273   1.437   5.837   5.516
 7458SOL    HW223274   1.377   5.989   5.517
 7459SOL     OW23275   5.939   1.004   2.825
 7459SOL    HW123276   5.893   1.093   2.824
 7459SOL    HW223277   5.871   0.931   2.828
 7460SOL     OW23278   1.638   6.859   0.726
 7460SOL    HW123279   1.697   6.930   0.764
 7460SOL    HW223280   1.572   6.830   0.795
 7461SOL     OW23281   1.203   5.684   6.124
 7461SOL    HW123282   1.252   5.599   6.105
 7461SOL    HW223283   1.265   5.751   6.164
 7462SOL     OW23284   1.179   4.870   1.106
 7462SOL    HW123285   1.210   4.918   1.023
 7462SOL    HW223286   1.258   4.853   1.165
 7463SOL     OW23287   3.563   4.219   0.446
 7463SOL    HW123288   3.581   4.310   0.409
 7463SOL    HW223289   3.602   4.151   0.384
 7464SOL     OW23290   6.488   6.018   5.689
 7464SOL    HW123291   6.534   6.023   5.601
 7464SOL    HW223292   6.465   5.923   5.710
 7465SOL     OW23293   2.214   4.918   0.456
 7465SOL    HW123294   2.302   4.931   0.410
 7465SOL    HW223295   2.230   4.897   0.553
 7466SOL     OW23296   0.469   6.711   4.806
 7466SOL    HW123297   0.513   6.755   4.728
 7466SOL    HW223298   0.472   6.612   4.795
 7467SOL     OW23299   0.338   3.516   5.848
 7467SOL    HW123300   0.419   3.573   5.838
 7467SOL    HW223301   0.361   3.432   5.897
 7468SOL     OW23302   5.924   3.482   5.842
 7468SOL    HW123303   5.924   3.399   5.898
 7468SOL    HW223304   5.847   3.540   5.868
 7469SOL     OW23305   0.203   2.403   1.292
 7469SOL    HW123306   0.186   2.327   1.230
 7469SOL    HW223307   0.225   2.485   1.239
 7470SOL     OW23308   5.165   3.172   3.842
 7470SOL    HW123309   5.190   3.199   3.749
 7470SOL    HW223310   5.067   3.182   3.854
 7471SOL     OW23311   5.271   5.796   6.127
 7471SOL    HW123312   5.192   5.857   6.127
 7471SOL    HW223313   5.335   5.826   6.056
 7472SOL     OW23314   6.032   6.071   5.596
 7472SOL    HW123315   6.050   6.168   5.610
 7472SOL    HW223316   5.940   6.060   5.556
 7473SOL     OW23317   3.898   5.966   3.943
 7473SOL    HW123318   3.903   5.879   3.893
 7473SOL    HW223319   3.949   6.036   3.892
 7474SOL     OW23320   6.742   2.070   5.286
 7474SOL    HW123321   6.651   2.058   5.325
 7474SOL    HW223322   6.811   2.031   5.347
 7475SOL     OW23323   4.787   2.182   1.186
 7475SOL    HW123324   4.809   2.130   1.268
 7475SOL    HW223325   4.795   2.279   1.205
 7476SOL     OW23326   1.903   1.052   3.195
 7476SOL    HW123327   1.973   0.981   3.199
 7476SOL    HW223328   1.935   1.127   3.137
 7477SOL     OW23329   0.990   4.799   5.292
 7477SOL    HW123330   0.924   4.771   5.222
 7477SOL    HW223331   1.037   4.718   5.328
 7478SOL     OW23332   0.645   1.276   5.634
 7478SOL    HW123333   0.742   1.256   5.625
 7478SOL    HW223334   0.611   1.316   5.548
 7479SOL     OW23335   6.522   3.128   6.949
 7479SOL    HW123336   6.603   3.110   6.892
 7479SOL    HW223337   6.524   3.223   6.981
 7480SOL     OW23338   3.548   5.200   2.409
 7480SOL    HW123339   3.534   5.208   2.508
 7480SOL    HW223340   3.599   5.116   2.389
 7481SOL     OW23341   0.640   4.014   6.728
 7481SOL    HW123342   0.701   4.070   6.672
 7481SOL    HW223343   0.682   3.996   6.817
 7482SOL     OW23344   4.057   2.249   2.707
 7482SOL    HW123345   4.015   2.196   2.633
 7482SOL    HW223346   3.991   2.262   2.780
 7483SOL     OW23347   4.266   2.322   6.089
 7483SOL    HW123348   4.304   2.243   6.139
 7483SOL    HW223349   4.205   2.289   6.017
 7484SOL     OW23350   2.939   6.567   3.912
 7484SOL    HW123351   3.016   6.614   3.955
 7484SOL    HW223352   2.898   6.626   3.842
 7485SOL     OW23353   2.619   6.933   4.474
 7485SOL    HW123354   2.655   0.011   4.445
 7485SOL    HW223355   2.573   6.889   4.397
 7486SOL     OW23356   2.359   6.215   0.752
 7486SOL    HW123357   2.285   6.185   0.691
 7486SOL    HW223358   2.323   6.224   0.845
 7487SOL     OW23359   4.059   6.219   3.889
 7487SOL    HW123360   4.158   6.214   3.878
 7487SOL    HW223361   4.014   6.202   3.801
 7488SOL     OW23362   0.892   5.414   3.593
 7488SOL    HW123363   0.823   5.397   3.522
 7488SOL    HW223364   0.846   5.425   3.681
 7489SOL     OW23365   6.470   3.437   6.375
 7489SOL    HW123366   6.492   3.534   6.370
 7489SOL    HW223367   6.534   3.385   6.317
 7490SOL     OW23368   1.070   2.035   2.282
 7490SOL    HW123369   1.151   2.040   2.340
 7490SOL    HW223370   1.013   1.958   2.311
 7491SOL     OW23371   4.275   3.151   0.390
 7491SOL    HW123372   4.215   3.082   0.349
 7491SOL    HW223373   4.368   3.115   0.394
 7492SOL     OW23374   1.361   0.585   4.176
 7492SOL    HW123375   1.387   0.666   4.229
 7492SOL    HW223376   1.389   0.503   4.225
 7493SOL     OW23377   6.642   4.422   4.840
 7493SOL    HW123378   6.730   4.399   4.880
 7493SOL    HW223379   6.579   4.345   4.852
 7494SOL     OW23380   5.956   1.306   2.948
 7494SOL    HW123381   5.888   1.341   2.883
 7494SOL    HW223382   6.040   1.284   2.899
 7495SOL     OW23383   1.838   3.793   5.011
 7495SOL    HW123384   1.789   3.744   4.939
 7495SOL    HW223385   1.792   3.777   5.099
 7496SOL     OW23386   5.351   3.907   2.505
 7496SOL    HW123387   5.302   3.975   2.559
 7496SOL    HW223388   5.351   3.933   2.409
 7497SOL     OW23389   0.178   6.632   0.345
 7497SOL    HW123390   0.232   6.598   0.268
 7497SOL    HW223391   0.180   6.566   0.419
 7498SOL     OW23392   2.909   0.688   2.883
 7498SOL    HW123393   2.940   0.595   2.901
 7498SOL    HW223394   2.884   0.697   2.786
 7499SOL     OW23395   4.173   1.777   3.616
 7499SOL    HW123396   4.246   1.737   3.561
 7499SOL    HW223397   4.086   1.763   3.571
 7500SOL     OW23398   3.913   6.487   2.772
 7500SOL    HW123399   3.849   6.521   2.841
 7500SOL    HW223400   3.882   6.514   2.681
 7501SOL     OW23401   6.090   2.239   4.454
 7501SOL    HW123402   6.044   2.212   4.539
 7501SOL    HW223403   6.053   2.186   4.378
 7502SOL     OW23404   4.036   0.263   4.269
 7502SOL    HW123405   4.036   0.269   4.369
 7502SOL    HW223406   3.966   0.197   4.240
 7503SOL     OW23407   1.573   6.208   1.466
 7503SOL    HW123408   1.601   6.219   1.371
 7503SOL    HW223409   1.652   6.216   1.526
 7504SOL     OW23410   6.319   6.700   3.583
 7504SOL    HW123411   6.391   6.722   3.648
 7504SOL    HW223412   6.328   6.759   3.502
 7505SOL     OW23413   0.857   6.886   5.537
 7505SOL    HW123414   0.852   6.981   5.505
 7505SOL    HW223415   0.907   6.831   5.470
 7506SOL     OW23416   2.325   1.501   3.246
 7506SOL    HW123417   2.265   1.455   3.180
 7506SOL    HW223418   2.279   1.507   3.334
 7507SOL     OW23419   6.195   3.865   4.736
 7507SOL    HW123420   6.139   3.805   4.680
 7507SOL    HW223421   6.208   3.824   4.827
 7508SOL     OW23422   1.850   5.889   6.540
 7508SOL    HW123423   1.839   5.935   6.628
 7508SOL    HW223424   1.914   5.812   6.550
 7509SOL     OW23425   5.151   4.348   0.500
 7509SOL    HW123426   5.242   4.314   0.520
 7509SOL    HW223427   5.101   4.364   0.585
 7510SOL     OW23428   3.907   3.607   3.614
 7510SOL    HW123429   3.981   3.673   3.627
 7510SOL    HW223430   3.898   3.586   3.517
 7511SOL     OW23431   3.716   5.941   3.244
 7511SOL    HW123432   3.637   5.935   3.183
 7511SOL    HW223433   3.800   5.931   3.190
 7512SOL     OW23434   3.540   6.704   6.223
 7512SOL    HW123435   3.637   6.687   6.242
 7512SOL    HW223436   3.518   6.799   6.244
 7513SOL     OW23437   0.690   2.226   2.766
 7513SOL    HW123438   0.670   2.320   2.738
 7513SOL    HW223439   0.718   2.225   2.862
 7514SOL     OW23440   2.073   4.172   2.779
 7514SOL    HW123441   2.096   4.127   2.693
 7514SOL    HW223442   2.157   4.197   2.827
 7515SOL     OW23443   0.369   4.634   4.210
 7515SOL    HW123444   0.402   4.677   4.294
 7515SOL    HW223445   0.385   4.694   4.132
 7516SOL     OW23446   1.137   6.129   5.550
 7516SOL    HW123447   1.138   6.226   5.575
 7516SOL    HW223448   1.044   6.100   5.530
 7517SOL     OW23449   0.255   1.485   6.946
 7517SOL    HW123450   0.309   1.516   6.867
 7517SOL    HW223451   0.250   1.559   0.002
 7518SOL     OW23452   4.775   2.879   3.696
 7518SOL    HW123453   4.694   2.822   3.682
 7518SOL    HW223454   4.852   2.842   3.645
 7519SOL     OW23455   3.706   6.417   4.654
 7519SOL    HW123456   3.635   6.483   4.630
 7519SOL    HW223457   3.679   6.326   4.625
 7520SOL     OW23458   1.728   1.746   1.147
 7520SOL    HW123459   1.678   1.800   1.079
 7520SOL    HW223460   1.817   1.787   1.164
 7521SOL     OW23461   4.199   1.365   5.564
 7521SOL    HW123462   4.255   1.379   5.483
 7521SOL    HW223463   4.173   1.453   5.603
 7522SOL     OW23464   1.720   6.947   2.513
 7522SOL    HW123465   1.699   6.943   2.415
 7522SOL    HW223466   1.650   7.001   2.560
 7523SOL     OW23467   5.473   1.054   6.464
 7523SOL    HW123468   5.438   1.140   6.426
 7523SOL    HW223469   5.532   1.073   6.542
 7524SOL     OW23470   0.311   3.373   4.925
 7524SOL    HW123471   0.401   3.340   4.953
 7524SOL    HW223472   0.269   3.423   5.001
 7525SOL     OW23473   4.296   5.670   6.236
 7525SOL    HW123474   4.286   5.767   6.260
 7525SOL    HW223475   4.207   5.626   6.236
 7526SOL     OW23476   2.460   3.339   1.700
 7526SOL    HW123477   2.420   3.408   1.760
 7526SOL    HW223478   2.477   3.379   1.610
 7527SOL     OW23479   3.880   5.706   3.821
 7527SOL    HW123480   3.811   5.662   3.763
 7527SOL    HW223481   3.946   5.637   3.853
 7528SOL     OW23482   6.870   3.261   6.366
 7528SOL    HW123483   6.800   3.275   6.297
 7528SOL    HW223484   6.860   3.170   6.406
 7529SOL     OW23485   6.586   2.908   4.311
 7529SOL    HW123486   6.642   2.834   4.271
 7529SOL    HW223487   6.494   2.874   4.328
 7530SOL     OW23488   6.682   2.031   2.176
 7530SOL    HW123489   6.689   2.021   2.077
 7530SOL    HW223490   6.728   2.115   2.205
 7531SOL     OW23491   4.111   1.941   3.843
 7531SOL    HW123492   4.094   1.886   3.925
 7531SOL    HW223493   4.136   1.881   3.767
 7532SOL     OW23494   4.281   5.301   6.221
 7532SOL    HW123495   4.265   5.355   6.138
 7532SOL    HW223496   4.248   5.353   6.300
 7533SOL     OW23497   4.776   3.787   1.794
 7533SOL    HW123498   4.707   3.805   1.724
 7533SOL    HW223499   4.790   3.688   1.801
 7534SOL     OW23500   4.640   6.669   4.525
 7534SOL    HW123501   4.552   6.656   4.569
 7534SOL    HW223502   4.638   6.629   4.433
 7535SOL     OW23503   0.728   5.481   3.810
 7535SOL    HW123504   0.676   5.446   3.888
 7535SOL    HW223505   0.670   5.542   3.756
 7536SOL     OW23506   4.858   5.594   4.336
 7536SOL    HW123507   4.762   5.603   4.310
 7536SOL    HW223508   4.917   5.636   4.267
 7537SOL     OW23509   3.192   6.529   3.281
 7537SOL    HW123510   3.193   6.430   3.288
 7537SOL    HW223511   3.284   6.565   3.298
 7538SOL     OW23512   0.905   4.113   0.893
 7538SOL    HW123513   0.987   4.100   0.838
 7538SOL    HW223514   0.898   4.209   0.920
 7539SOL     OW23515   0.427   6.062   3.619
 7539SOL    HW123516   0.439   6.161   3.632
 7539SOL    HW223517   0.431   6.017   3.708
 7540SOL     OW23518   5.902   5.216   3.561
 7540SOL    HW123519   5.845   5.277   3.506
 7540SOL    HW223520   5.875   5.121   3.544
 7541SOL     OW23521   1.379   4.061   0.048
 7541SOL    HW123522   1.434   4.046   0.130
 7541SOL    HW223523   1.282   4.065   0.072
 7542SOL     OW23524   6.114   5.937   6.011
 7542SOL    HW123525   6.060   5.854   6.027
 7542SOL    HW223526   6.171   5.955   6.091
 7543SOL     OW23527   2.930   0.917   6.009
 7543SOL    HW123528   2.924   0.907   5.909
 7543SOL    HW223529   2.860   0.980   6.040
 7544SOL     OW23530   0.131   2.848   4.117
 7544SOL    HW123531   0.158   2.866   4.211
 7544SOL    HW223532   0.138   2.932   4.063
 7545SOL     OW23533   0.664   5.147   6.867
 7545SOL    HW123534   0.719   5.071   6.902
 7545SOL    HW223535   0.666   5.223   6.933
 7546SOL     OW23536   3.349   2.916   1.911
 7546SOL    HW123537   3.278   2.975   1.873
 7546SOL    HW223538   3.336   2.823   1.877
 7547SOL     OW23539   4.206   0.421   2.298
 7547SOL    HW123540   4.276   0.447   2.364
 7547SOL    HW223541   4.202   0.489   2.224
 7548SOL     OW23542   4.139   2.363   6.503
 7548SOL    HW123543   4.218   2.303   6.519
 7548SOL    HW223544   4.172   2.454   6.476
 7549SOL     OW23545   4.149   2.769   5.370
 7549SOL    HW123546   4.089   2.848   5.357
 7549SOL    HW223547   4.111   2.690   5.322
 7550SOL     OW23548   2.116   4.109   4.309
 7550SOL    HW123549   2.167   4.192   4.288
 7550SOL    HW223550   2.054   4.088   4.234
 7551SOL     OW23551   5.939   2.390   5.866
 7551SOL    HW123552   5.981   2.479   5.885
 7551SOL    HW223553   5.905   2.389   5.772
 7552SOL     OW23554   2.646   5.800   4.898
 7552SOL    HW123555   2.582   5.742   4.848
 7552SOL    HW223556   2.738   5.789   4.859
 7553SOL     OW23557   5.754   6.311   5.845
 7553SOL    HW123558   5.692   6.376   5.800
 7553SOL    HW223559   5.784   6.349   5.932
 7554SOL     OW23560   5.188   0.903   1.119
 7554SOL    HW123561   5.161   0.854   1.036
 7554SOL    HW223562   5.126   0.880   1.193
 7555SOL     OW23563   3.353   4.815   5.771
 7555SOL    HW123564   3.432   4.793   5.829
 7555SOL    HW223565   3.384   4.835   5.678
 7556SOL     OW23566   0.200   0.023   1.025
 7556SOL    HW123567   0.291   0.052   0.995
 7556SOL    HW223568   0.195   0.026   1.125
 7557SOL     OW23569   4.793   0.679   0.130
 7557SOL    HW123570   4.858   0.742   0.173
 7557SOL    HW223571   4.721   0.732   0.085
 7558SOL     OW23572   1.341   2.112   4.382
 7558SOL    HW123573   1.374   2.025   4.417
 7558SOL    HW223574   1.253   2.099   4.336
 7559SOL     OW23575   4.095   1.945   4.883
 7559SOL    HW123576   4.194   1.938   4.892
 7559SOL    HW223577   4.066   1.902   4.797
 7560SOL     OW23578   0.432   0.912   6.058
 7560SOL    HW123579   0.444   0.998   6.107
 7560SOL    HW223580   0.460   0.924   5.963
 7561SOL     OW23581   5.929   2.153   4.660
 7561SOL    HW123582   5.890   2.076   4.609
 7561SOL    HW223583   5.860   2.192   4.720
 7562SOL     OW23584   1.292   4.347   3.841
 7562SOL    HW123585   1.232   4.425   3.857
 7562SOL    HW223586   1.384   4.369   3.874
 7563SOL     OW23587   3.550   5.600   2.293
 7563SOL    HW123588   3.588   5.507   2.297
 7563SOL    HW223589   3.601   5.660   2.354
 7564SOL     OW23590   4.687   1.601   4.600
 7564SOL    HW123591   4.646   1.682   4.643
 7564SOL    HW223592   4.639   1.581   4.515
 7565SOL     OW23593   5.444   3.703   6.497
 7565SOL    HW123594   5.529   3.691   6.445
 7565SOL    HW223595   5.401   3.789   6.471
 7566SOL     OW23596   4.117   4.244   1.391
 7566SOL    HW123597   4.075   4.273   1.476
 7566SOL    HW223598   4.077   4.295   1.315
 7567SOL     OW23599   1.805   0.508   4.597
 7567SOL    HW123600   1.785   0.412   4.578
 7567SOL    HW223601   1.785   0.528   4.693
 7568SOL     OW23602   6.199   5.353   1.711
 7568SOL    HW123603   6.185   5.255   1.699
 7568SOL    HW223604   6.113   5.397   1.735
 7569SOL     OW23605   4.791   3.681   0.066
 7569SOL    HW123606   4.870   3.730   0.104
 7569SOL    HW223607   4.815   3.644   6.988
 7570SOL     OW23608   6.349   2.886   3.223
 7570SOL    HW123609   6.431   2.852   3.177
 7570SOL    HW223610   6.272   2.826   3.202
 7571SOL     OW23611   4.700   2.272   3.191
 7571SOL    HW123612   4.614   2.224   3.177
 7571SOL    HW223613   4.726   2.266   3.288
 7572SOL     OW23614   4.826   6.027   2.167
 7572SOL    HW123615   4.851   6.093   2.238
 7572SOL    HW223616   4.865   6.055   2.080
 7573SOL     OW23617   4.732   6.266   5.537
 7573SOL    HW123618   4.714   6.262   5.636
 7573SOL    HW223619   4.811   6.208   5.516
 7574SOL     OW23620   6.631   1.207   4.264
 7574SOL    HW123621   6.704   1.274   4.252
 7574SOL    HW223622   6.543   1.253   4.265
 7575SOL     OW23623   6.759   6.671   2.397
 7575SOL    HW123624   6.729   6.598   2.458
 7575SOL    HW223625   6.826   6.636   2.332
 7576SOL     OW23626   5.417   3.135   0.335
 7576SOL    HW123627   5.447   3.149   0.241
 7576SOL    HW223628   5.492   3.098   0.389
 7577SOL     OW23629   1.452   0.154   0.575
 7577SOL    HW123630   1.524   0.223   0.573
 7577SOL    HW223631   1.450   0.105   0.489
 7578SOL     OW23632   0.256   5.461   3.315
 7578SOL    HW123633   0.317   5.529   3.354
 7578SOL    HW223634   0.291   5.369   3.332
 7579SOL     OW23635   6.841   1.180   6.997
 7579SOL    HW123636   6.810   1.195   0.079
 7579SOL    HW223637   6.897   1.258   6.968
 7580SOL     OW23638   2.287   4.754   3.774
 7580SOL    HW123639   2.306   4.768   3.677
 7580SOL    HW223640   2.341   4.818   3.829
 7581SOL     OW23641   6.535   0.956   2.334
 7581SOL    HW123642   6.559   0.876   2.388
 7581SOL    HW223643   6.602   0.969   2.261
 7582SOL     OW23644   3.404   0.991   4.730
 7582SOL    HW123645   3.386   1.080   4.688
 7582SOL    HW223646   3.431   1.004   4.825
 7583SOL     OW23647   5.266   2.856   3.237
 7583SOL    HW123648   5.352   2.890   3.199
 7583SOL    HW223649   5.196   2.926   3.228
 7584SOL     OW23650   0.041   0.585   2.884
 7584SOL    HW123651   0.115   0.637   2.926
 7584SOL    HW223652   0.069   0.489   2.875
 7585SOL     OW23653   1.069   1.681   0.180
 7585SOL    HW123654   1.073   1.581   0.187
 7585SOL    HW223655   1.159   1.716   0.155
 7586SOL     OW23656   1.426   2.276   2.827
 7586SOL    HW123657   1.509   2.295   2.774
 7586SOL    HW223658   1.450   2.224   2.909
 7587SOL     OW23659   3.276   0.737   0.710
 7587SOL    HW123660   3.288   0.824   0.758
 7587SOL    HW223661   3.226   0.753   0.625
 7588SOL     OW23662   1.826   2.435   4.451
 7588SOL    HW123663   1.907   2.424   4.393
 7588SOL    HW223664   1.835   2.518   4.506
 7589SOL     OW23665   0.247   0.792   2.957
 7589SOL    HW123666   0.325   0.819   3.012
 7589SOL    HW223667   0.174   0.859   2.967
 7590SOL     OW23668   0.397   1.609   6.467
 7590SOL    HW123669   0.464   1.650   6.404
 7590SOL    HW223670   0.326   1.563   6.413
 7591SOL     OW23671   4.049   3.509   5.369
 7591SOL    HW123672   4.112   3.547   5.302
 7591SOL    HW223673   3.974   3.573   5.385
 7592SOL     OW23674   6.814   6.250   4.712
 7592SOL    HW123675   6.732   6.272   4.659
 7592SOL    HW223676   6.808   6.293   4.802
 7593SOL     OW23677   1.093   1.543   5.787
 7593SOL    HW123678   1.097   1.531   5.886
 7593SOL    HW223679   1.165   1.488   5.744
 7594SOL     OW23680   0.560   4.353   0.496
 7594SOL    HW123681   0.490   4.421   0.516
 7594SOL    HW223682   0.533   4.265   0.533
 7595SOL     OW23683   6.823   2.870   6.109
 7595SOL    HW123684   6.744   2.931   6.110
 7595SOL    HW223685   6.850   2.849   6.203
 7596SOL     OW23686   3.064   0.849   5.092
 7596SOL    HW123687   3.131   0.856   5.018
 7596SOL    HW223688   2.974   0.876   5.058
 7597SOL     OW23689   1.491   4.445   2.297
 7597SOL    HW123690   1.401   4.404   2.310
 7597SOL    HW223691   1.496   4.486   2.206
 7598SOL     OW23692   6.444   1.312   3.324
 7598SOL    HW123693   6.479   1.405   3.327
 7598SOL    HW223694   6.520   1.248   3.310
 7599SOL     OW23695   3.897   3.590   1.095
 7599SOL    HW123696   3.798   3.582   1.109
 7599SOL    HW223697   3.945   3.541   1.166
 7600SOL     OW23698   1.449   0.387   4.360
 7600SOL    HW123699   1.547   0.364   4.357
 7600SOL    HW223700   1.419   0.394   4.455
 7601SOL     OW23701   3.852   5.743   2.082
 7601SOL    HW123702   3.913   5.733   2.004
 7601SOL    HW223703   3.867   5.668   2.147
 7602SOL     OW23704   6.804   1.436   0.710
 7602SOL    HW123705   6.724   1.490   0.684
 7602SOL    HW223706   6.787   1.340   0.692
 7603SOL     OW23707   2.519   0.500   5.027
 7603SOL    HW123708   2.547   0.575   5.086
 7603SOL    HW223709   2.510   0.532   4.933
 7604SOL     OW23710   0.714   2.857   4.688
 7604SOL    HW123711   0.739   2.952   4.669
 7604SOL    HW223712   0.637   2.830   4.630
 7605SOL     OW23713   2.463   6.681   0.611
 7605SOL    HW123714   2.387   6.671   0.546
 7605SOL    HW223715   2.488   6.778   0.617
 7606SOL     OW23716   6.664   1.192   3.769
 7606SOL    HW123717   6.718   1.249   3.831
 7606SOL    HW223718   6.724   1.126   3.724
 7607SOL     OW23719   2.690   5.728   5.568
 7607SOL    HW123720   2.764   5.685   5.620
 7607SOL    HW223721   2.602   5.708   5.612
 7608SOL     OW23722   6.056   2.640   5.951
 7608SOL    HW123723   6.141   2.691   5.939
 7608SOL    HW223724   6.041   2.624   6.049
 7609SOL     OW23725   0.863   1.764   4.837
 7609SOL    HW123726   0.853   1.863   4.825
 7609SOL    HW223727   0.936   1.746   4.902
 7610SOL     OW23728   3.707   4.865   5.668
 7610SOL    HW123729   3.694   4.895   5.573
 7610SOL    HW223730   3.668   4.773   5.680
 7611SOL     OW23731   4.838   3.635   1.335
 7611SOL    HW123732   4.884   3.546   1.326
 7611SOL    HW223733   4.809   3.648   1.430
 7612SOL     OW23734   2.479   1.724   3.168
 7612SOL    HW123735   2.404   1.790   3.161
 7612SOL    HW223736   2.445   1.639   3.208
 7613SOL     OW23737   0.371   1.149   2.580
 7613SOL    HW123738   0.336   1.187   2.494
 7613SOL    HW223739   0.294   1.122   2.638
 7614SOL     OW23740   5.282   3.806   0.906
 7614SOL    HW123741   5.323   3.788   0.817
 7614SOL    HW223742   5.201   3.748   0.918
 7615SOL     OW23743   5.670   3.335   4.646
 7615SOL    HW123744   5.622   3.423   4.651
 7615SOL    HW223745   5.768   3.351   4.658
 7616SOL     OW23746   6.237   6.964   3.510
 7616SOL    HW123747   6.167   6.912   3.558
 7616SOL    HW223748   6.312   6.984   3.572
 7617SOL     OW23749   5.486   5.324   3.617
 7617SOL    HW123750   5.515   5.413   3.581
 7617SOL    HW223751   5.387   5.313   3.602
 7618SOL     OW23752   2.697   2.990   0.285
 7618SOL    HW123753   2.713   2.940   0.199
 7618SOL    HW223754   2.610   2.961   0.325
 7619SOL     OW23755   0.898   2.241   4.428
 7619SOL    HW123756   0.858   2.282   4.511
 7619SOL    HW223757   0.826   2.228   4.360
 7620SOL     OW23758   4.180   3.996   1.484
 7620SOL    HW123759   4.221   3.988   1.575
 7620SOL    HW223760   4.173   4.092   1.458
 7621SOL     OW23761   0.123   4.284   0.573
 7621SOL    HW123762   0.133   4.325   0.483
 7621SOL    HW223763   0.032   4.243   0.582
 7622SOL     OW23764   2.929   3.545   1.230
 7622SOL    HW123765   2.856   3.613   1.215
 7622SOL    HW223766   2.985   3.573   1.308
 7623SOL     OW23767   4.737   4.694   1.205
 7623SOL    HW123768   4.673   4.617   1.203
 7623SOL    HW223769   4.698   4.770   1.154
 7624SOL     OW23770   0.638   2.879   2.126
 7624SOL    HW123771   0.722   2.898   2.075
 7624SOL    HW223772   0.612   2.959   2.179
 7625SOL     OW23773   5.403   1.573   0.637
 7625SOL    HW123774   5.303   1.580   0.635
 7625SOL    HW223775   5.432   1.543   0.727
 7626SOL     OW23776   5.478   0.922   5.263
 7626SOL    HW123777   5.460   0.860   5.187
 7626SOL    HW223778   5.485   0.869   5.348
 7627SOL     OW23779   3.473   2.313   6.579
 7627SOL    HW123780   3.567   2.294   6.550
 7627SOL    HW223781   3.454   2.410   6.569
 7628SOL     OW23782   3.525   2.686   6.749
 7628SOL    HW123783   3.503   2.626   6.826
 7628SOL    HW223784   3.621   2.712   6.753
 7629SOL     OW23785   5.944   2.829   3.883
 7629SOL    HW123786   5.885   2.848   3.962
 7629SOL    HW223787   5.888   2.825   3.800
 7630SOL     OW23788   1.461   6.903   5.542
 7630SOL    HW123789   1.432   6.838   5.472
 7630SOL    HW223790   1.536   6.959   5.507
 7631SOL     OW23791   1.570   6.668   5.861
 7631SOL    HW123792   1.626   6.728   5.805
 7631SOL    HW223793   1.571   6.700   5.956
 7632SOL     OW23794   5.053   5.234   0.288
 7632SOL    HW123795   5.075   5.191   0.200
 7632SOL    HW223796   5.135   5.238   0.345
 7633SOL     OW23797   6.163   1.232   1.168
 7633SOL    HW123798   6.102   1.235   1.089
 7633SOL    HW223799   6.224   1.311   1.166
 7634SOL     OW23800   0.185   2.090   0.613
 7634SOL    HW123801   0.127   2.171   0.602
 7634SOL    HW223802   0.189   2.040   0.527
 7635SOL     OW23803   2.393   4.624   6.285
 7635SOL    HW123804   2.441   4.610   6.199
 7635SOL    HW223805   2.307   4.674   6.268
 7636SOL     OW23806   0.493   3.509   4.373
 7636SOL    HW123807   0.413   3.527   4.315
 7636SOL    HW223808   0.485   3.418   4.414
 7637SOL     OW23809   0.816   6.452   4.744
 7637SOL    HW123810   0.767   6.445   4.657
 7637SOL    HW223811   0.806   6.366   4.794
 7638SOL     OW23812   0.454   5.494   1.741
 7638SOL    HW123813   0.527   5.435   1.774
 7638SOL    HW223814   0.484   5.589   1.744
 7639SOL     OW23815   1.610   0.822   0.316
 7639SOL    HW123816   1.559   0.868   0.388
 7639SOL    HW223817   1.677   0.760   0.356
 7640SOL     OW23818   3.280   0.566   6.619
 7640SOL    HW123819   3.294   0.476   6.578
 7640SOL    HW223820   3.183   0.591   6.610
 7641SOL     OW23821   0.622   3.961   3.147
 7641SOL    HW123822   0.647   3.875   3.102
 7641SOL    HW223823   0.534   3.992   3.111
 7642SOL     OW23824   6.274   0.660   3.754
 7642SOL    HW123825   6.292   0.727   3.682
 7642SOL    HW223826   6.288   0.703   3.843
 7643SOL     OW23827   5.437   3.609   3.050
 7643SOL    HW123828   5.534   3.633   3.054
 7643SOL    HW223829   5.408   3.573   3.138
 7644SOL     OW23830   5.401   3.942   1.578
 7644SOL    HW123831   5.331   3.926   1.648
 7644SOL    HW223832   5.407   3.862   1.518
 7645SOL     OW23833   3.182   4.150   5.995
 7645SOL    HW123834   3.216   4.181   6.083
 7645SOL    HW223835   3.114   4.215   5.961
 7646SOL     OW23836   0.335   2.348   2.049
 7646SOL    HW123837   0.434   2.350   2.036
 7646SOL    HW223838   0.295   2.431   2.009
 7647SOL     OW23839   6.510   2.716   5.239
 7647SOL    HW123840   6.459   2.725   5.324
 7647SOL    HW223841   6.502   2.800   5.186
 7648SOL     OW23842   2.441   1.790   1.521
 7648SOL    HW123843   2.406   1.704   1.484
 7648SOL    HW223844   2.395   1.811   1.607
 7649SOL     OW23845   4.699   1.185   5.335
 7649SOL    HW123846   4.724   1.227   5.248
 7649SOL    HW223847   4.646   1.103   5.319
 7650SOL     OW23848   4.073   1.718   0.358
 7650SOL    HW123849   4.011   1.793   0.383
 7650SOL    HW223850   4.160   1.729   0.406
 7651SOL     OW23851   2.464   4.691   5.991
 7651SOL    HW123852   2.562   4.692   5.968
 7651SOL    HW223853   2.439   4.601   6.026
 7652SOL     OW23854   6.786   0.998   3.973
 7652SOL    HW123855   6.792   0.899   3.971
 7652SOL    HW223856   6.823   1.036   3.888
 7653SOL     OW23857   0.722   1.573   6.453
 7653SOL    HW123858   0.815   1.597   6.423
 7653SOL    HW223859   0.663   1.653   6.447
 7654SOL     OW23860   6.116   2.281   6.082
 7654SOL    HW123861   6.082   2.304   5.991
 7654SOL    HW223862   6.072   2.196   6.114
 7655SOL     OW23863   3.002   1.001   3.265
 7655SOL    HW123864   2.919   1.047   3.233
 7655SOL    HW223865   3.006   1.005   3.365
 7656SOL     OW23866   6.961   3.320   6.781
 7656SOL    HW123867   6.899   3.300   6.706
 7656SOL    HW223868   0.004   3.401   6.758
 7657SOL     OW23869   1.332   3.959   4.478
 7657SOL    HW123870   1.343   4.031   4.409
 7657SOL    HW223871   1.417   3.907   4.487
 7658SOL     OW23872   2.418   1.281   1.003
 7658SOL    HW123873   2.439   1.270   1.100
 7658SOL    HW223874   2.337   1.339   0.993
 7659SOL     OW23875   4.445   3.736   5.456
 7659SOL    HW123876   4.463   3.644   5.421
 7659SOL    HW223877   4.346   3.752   5.457
 7660SOL     OW23878   0.128   5.680   4.557
 7660SOL    HW123879   0.120   5.742   4.635
 7660SOL    HW223880   0.214   5.629   4.564
 7661SOL     OW23881   4.660   2.398   5.798
 7661SOL    HW123882   4.632   2.323   5.857
 7661SOL    HW223883   4.613   2.482   5.826
 7662SOL     OW23884   0.677   1.371   1.675
 7662SOL    HW123885   0.617   1.450   1.685
 7662SOL    HW223886   0.737   1.384   1.596
 7663SOL     OW23887   6.438   5.249   5.181
 7663SOL    HW123888   6.535   5.273   5.179
 7663SOL    HW223889   6.428   5.153   5.205
 7664SOL     OW23890   3.655   2.110   2.313
 7664SOL    HW123891   3.559   2.118   2.339
 7664SOL    HW223892   3.667   2.141   2.219
 7665SOL     OW23893   4.201   0.875   4.960
 7665SOL    HW123894   4.263   0.802   4.931
 7665SOL    HW223895   4.241   0.964   4.940
 7666SOL     OW23896   5.841   4.946   4.346
 7666SOL    HW123897   5.926   4.991   4.373
 7666SOL    HW223898   5.822   4.871   4.409
 7667SOL     OW23899   4.670   5.922   1.164
 7667SOL    HW123900   4.620   5.992   1.113
 7667SOL    HW223901   4.621   5.835   1.160
 7668SOL     OW23902   2.309   4.961   1.173
 7668SOL    HW123903   2.370   5.035   1.146
 7668SOL    HW223904   2.299   4.961   1.273
 7669SOL     OW23905   2.594   6.834   5.671
 7669SOL    HW123906   2.583   6.910   5.606
 7669SOL    HW223907   2.598   6.871   5.764
 7670SOL     OW23908   0.356   6.614   0.135
 7670SOL    HW123909   0.422   6.540   0.127
 7670SOL    HW223910   0.400   6.701   0.115
 7671SOL     OW23911   4.368   0.078   0.913
 7671SOL    HW123912   4.318   0.149   0.865
 7671SOL    HW223913   4.411   0.117   0.994
 7672SOL     OW23914   4.781   4.658   3.061
 7672SOL    HW123915   4.713   4.722   3.095
 7672SOL    HW223916   4.737   4.590   3.002
 7673SOL     OW23917   0.776   5.928   4.699
 7673SOL    HW123918   0.848   5.892   4.639
 7673SOL    HW223919   0.703   5.967   4.643
 7674SOL     OW23920   4.109   6.315   4.296
 7674SOL    HW123921   4.059   6.358   4.372
 7674SOL    HW223922   4.100   6.216   4.302
 7675SOL     OW23923   4.193   6.775   3.145
 7675SOL    HW123924   4.283   6.803   3.178
 7675SOL    HW223925   4.203   6.729   3.057
 7676SOL     OW23926   2.969   2.975   5.262
 7676SOL    HW123927   2.873   2.996   5.277
 7676SOL    HW223928   3.014   3.054   5.220
 7677SOL     OW23929   5.604   4.983   0.971
 7677SOL    HW123930   5.538   5.029   0.912
 7677SOL    HW223931   5.697   5.002   0.939
 7678SOL     OW23932   1.536   0.936   5.389
 7678SOL    HW123933   1.484   0.935   5.475
 7678SOL    HW223934   1.570   0.845   5.370
 7679SOL     OW23935   1.882   5.301   5.392
 7679SOL    HW123936   1.849   5.396   5.393
 7679SOL    HW223937   1.963   5.295   5.334
 7680SOL     OW23938   2.113   6.974   5.135
 7680SOL    HW123939   2.092   0.005   5.047
 7680SOL    HW223940   2.132   0.034   5.203
 7681SOL     OW23941   2.591   3.621   6.576
 7681SOL    HW123942   2.573   3.544   6.636
 7681SOL    HW223943   2.685   3.652   6.588
 7682SOL     OW23944   3.173   1.856   2.480
 7682SOL    HW123945   3.250   1.838   2.418
 7682SOL    HW223946   3.148   1.772   2.526
 7683SOL     OW23947   1.052   0.748   4.462
 7683SOL    HW123948   1.064   0.655   4.429
 7683SOL    HW223949   0.968   0.753   4.517
 7684SOL     OW23950   4.367   2.312   1.907
 7684SOL    HW123951   4.328   2.239   1.850
 7684SOL    HW223952   4.335   2.401   1.874
 7685SOL     OW23953   2.462   0.681   0.035
 7685SOL    HW123954   2.463   0.704   0.133
 7685SOL    HW223955   2.515   0.598   0.020
 7686SOL     OW23956   5.963   0.239   4.518
 7686SOL    HW123957   5.943   0.266   4.612
 7686SOL    HW223958   5.996   0.145   4.516
 7687SOL     OW23959   5.215   4.947   5.154
 7687SOL    HW123960   5.222   4.898   5.067
 7687SOL    HW223961   5.129   4.924   5.199
 7688SOL     OW23962   0.589   5.171   6.378
 7688SOL    HW123963   0.675   5.130   6.348
 7688SOL    HW223964   0.585   5.171   6.478
 7689SOL     OW23965   4.583   0.254   1.425
 7689SOL    HW123966   4.531   0.315   1.484
 7689SOL    HW223967   4.654   0.208   1.478
 7690SOL     OW23968   6.206   5.609   1.449
 7690SOL    HW123969   6.243   5.658   1.370
 7690SOL    HW223970   6.274   5.607   1.522
 7691SOL     OW23971   4.705   4.456   2.886
 7691SOL    HW123972   4.747   4.379   2.837
 7691SOL    HW223973   4.661   4.516   2.820
 7692SOL     OW23974   2.536   6.887   2.073
 7692SOL    HW123975   2.519   6.980   2.040
 7692SOL    HW223976   2.466   6.825   2.037
 7693SOL     OW23977   2.706   1.986   0.743
 7693SOL    HW123978   2.765   2.032   0.809
 7693SOL    HW223979   2.653   1.915   0.788
 7694SOL     OW23980   5.804   2.146   5.542
 7694SOL    HW123981   5.738   2.217   5.568
 7694SOL    HW223982   5.889   2.189   5.512
 7695SOL     OW23983   5.152   0.432   2.753
 7695SOL    HW123984   5.071   0.478   2.788
 7695SOL    HW223985   5.189   0.370   2.823
 7696SOL     OW23986   0.345   2.761   6.460
 7696SOL    HW123987   0.418   2.803   6.515
 7696SOL    HW223988   0.306   2.830   6.399
 7697SOL     OW23989   4.459   6.888   2.697
 7697SOL    HW123990   4.365   6.916   2.674
 7697SOL    HW223991   4.521   6.917   2.624
 7698SOL     OW23992   6.371   2.191   6.643
 7698SOL    HW123993   6.439   2.128   6.605
 7698SOL    HW223994   6.332   2.151   6.726
 7699SOL     OW23995   4.064   5.567   6.080
 7699SOL    HW123996   4.002   5.489   6.084
 7699SOL    HW223997   4.012   5.650   6.063
 7700SOL     OW23998   5.187   5.545   2.660
 7700SOL    HW123999   5.115   5.586   2.605
 7700SOL    HW224000   5.273   5.593   2.643
 7701SOL     OW24001   0.069   2.844   6.066
 7701SOL    HW124002   6.981   2.837   6.066
 7701SOL    HW224003   0.108   2.759   6.102
 7702SOL     OW24004   4.461   0.264   4.774
 7702SOL    HW124005   4.469   0.167   4.749
 7702SOL    HW224006   4.421   0.314   4.697
 7703SOL     OW24007   6.334   6.555   5.029
 7703SOL    HW124008   6.388   6.619   4.975
 7703SOL    HW224009   6.346   6.575   5.126
 7704SOL     OW24010   6.830   1.755   4.415
 7704SOL    HW124011   6.867   1.781   4.504
 7704SOL    HW224012   6.809   1.837   4.362
 7705SOL     OW24013   1.569   4.843   0.635
 7705SOL    HW124014   1.631   4.907   0.681
 7705SOL    HW224015   1.540   4.881   0.548
 7706SOL     OW24016   3.562   2.909   2.267
 7706SOL    HW124017   3.624   2.839   2.230
 7706SOL    HW224018   3.468   2.886   2.244
 7707SOL     OW24019   6.416   4.760   6.484
 7707SOL    HW124020   6.413   4.692   6.558
 7707SOL    HW224021   6.407   4.713   6.396
 7708SOL     OW24022   2.331   0.267   4.589
 7708SOL    HW124023   2.300   0.172   4.584
 7708SOL    HW224024   2.428   0.273   4.566
 7709SOL     OW24025   0.161   5.181   1.537
 7709SOL    HW124026   0.110   5.180   1.451
 7709SOL    HW224027   0.253   5.143   1.521
 7710SOL     OW24028   0.689   3.702   0.931
 7710SOL    HW124029   0.638   3.783   0.961
 7710SOL    HW224030   0.719   3.715   0.836
 7711SOL     OW24031   0.072   5.176   5.023
 7711SOL    HW124032   0.112   5.237   5.091
 7711SOL    HW224033   6.984   5.191   5.020
 7712SOL     OW24034   6.811   4.394   5.576
 7712SOL    HW124035   6.841   4.303   5.606
 7712SOL    HW224036   6.754   4.384   5.495
 7713SOL     OW24037   2.235   4.603   0.319
 7713SOL    HW124038   2.218   4.560   0.230
 7713SOL    HW224039   2.331   4.630   0.325
 7714SOL     OW24040   6.453   0.889   5.461
 7714SOL    HW124041   6.553   0.901   5.462
 7714SOL    HW224042   6.432   0.791   5.457
 7715SOL     OW24043   2.893   2.662   5.888
 7715SOL    HW124044   2.941   2.748   5.904
 7715SOL    HW224045   2.800   2.669   5.924
 7716SOL     OW24046   1.278   5.589   5.665
 7716SOL    HW124047   1.275   5.624   5.571
 7716SOL    HW224048   1.212   5.639   5.720
 7717SOL     OW24049   0.919   1.799   6.649
 7717SOL    HW124050   0.997   1.790   6.711
 7717SOL    HW224051   0.865   1.879   6.676
 7718SOL     OW24052   1.481   3.770   2.832
 7718SOL    HW124053   1.490   3.754   2.734
 7718SOL    HW224054   1.555   3.724   2.881
 7719SOL     OW24055   2.057   4.361   4.894
 7719SOL    HW124056   1.985   4.318   4.840
 7719SOL    HW224057   2.062   4.318   4.984
 7720SOL     OW24058   5.608   1.455   7.002
 7720SOL    HW124059   5.573   1.548   6.992
 7720SOL    HW224060   5.603   1.427   0.086
 7721SOL     OW24061   0.436   0.731   2.316
 7721SOL    HW124062   0.433   0.786   2.400
 7721SOL    HW224063   0.343   0.710   2.287
 7722SOL     OW24064   2.158   6.295   3.308
 7722SOL    HW124065   2.148   6.386   3.268
 7722SOL    HW224066   2.073   6.270   3.355
 7723SOL     OW24067   4.590   4.215   0.714
 7723SOL    HW124068   4.596   4.183   0.619
 7723SOL    HW224069   4.511   4.173   0.758
 7724SOL     OW24070   2.160   3.908   2.063
 7724SOL    HW124071   2.191   3.985   2.118
 7724SOL    HW224072   2.136   3.832   2.123
 7725SOL     OW24073   5.277   3.085   3.519
 7725SOL    HW124074   5.231   3.174   3.530
 7725SOL    HW224075   5.314   3.078   3.427
 7726SOL     OW24076   0.442   3.281   6.336
 7726SOL    HW124077   0.439   3.254   6.432
 7726SOL    HW224078   0.396   3.370   6.325
 7727SOL     OW24079   5.404   1.983   2.177
 7727SOL    HW124080   5.484   1.924   2.163
 7727SOL    HW224081   5.328   1.949   2.122
 7728SOL     OW24082   1.917   3.517   4.523
 7728SOL    HW124083   1.937   3.590   4.590
 7728SOL    HW224084   2.002   3.468   4.503
 7729SOL     OW24085   6.767   2.011   4.263
 7729SOL    HW124086   6.755   2.077   4.190
 7729SOL    HW224087   6.821   2.051   4.337
 7730SOL     OW24088   6.513   4.187   4.852
 7730SOL    HW124089   6.536   4.154   4.761
 7730SOL    HW224090   6.419   4.163   4.874
 7731SOL     OW24091   6.483   6.795   6.751
 7731SOL    HW124092   6.527   6.792   6.661
 7731SOL    HW224093   6.550   6.820   6.821
 7732SOL     OW24094   4.105   0.282   6.061
 7732SOL    HW124095   4.180   0.304   6.123
 7732SOL    HW224096   4.112   0.187   6.033
 7733SOL     OW24097   6.458   5.835   2.268
 7733SOL    HW124098   6.464   5.780   2.184
 7733SOL    HW224099   6.447   5.775   2.347
 7734SOL     OW24100   3.420   3.696   5.005
 7734SOL    HW124101   3.337   3.667   5.053
 7734SOL    HW224102   3.396   3.735   4.916
 7735SOL     OW24103   6.970   6.121   0.899
 7735SOL    HW124104   6.879   6.081   0.901
 7735SOL    HW224105   6.973   6.202   0.957
 7736SOL     OW24106   2.495   3.212   0.734
 7736SOL    HW124107   2.529   3.119   0.743
 7736SOL    HW224108   2.459   3.243   0.822
 7737SOL     OW24109   3.738   4.603   1.143
 7737SOL    HW124110   3.683   4.557   1.073
 7737SOL    HW224111   3.683   4.674   1.186
 7738SOL     OW24112   2.649   6.628   6.842
 7738SOL    HW124113   2.741   6.627   6.881
 7738SOL    HW224114   2.582   6.618   6.915
 7739SOL     OW24115   1.493   1.794   0.271
 7739SOL    HW124116   1.579   1.744   0.276
 7739SOL    HW224117   1.507   1.888   0.303
 7740SOL     OW24118   2.017   0.671   4.921
 7740SOL    HW124119   2.060   0.755   4.888
 7740SOL    HW224120   2.081   0.595   4.912
 7741SOL     OW24121   1.756   4.184   6.096
 7741SOL    HW124122   1.716   4.092   6.091
 7741SOL    HW224123   1.854   4.177   6.112
 7742SOL     OW24124   3.999   1.352   4.273
 7742SOL    HW124125   4.001   1.447   4.242
 7742SOL    HW224126   4.076   1.302   4.234
 7743SOL     OW24127   5.050   2.114   5.575
 7743SOL    HW124128   4.988   2.189   5.597
 7743SOL    HW224129   5.103   2.090   5.657
 7744SOL     OW24130   0.232   6.492   4.638
 7744SOL    HW124131   0.160   6.472   4.705
 7744SOL    HW224132   0.321   6.478   4.680
 7745SOL     OW24133   2.353   6.920   0.934
 7745SOL    HW124134   2.424   6.990   0.922
 7745SOL    HW224135   2.300   6.911   0.849
 7746SOL     OW24136   1.390   6.334   0.959
 7746SOL    HW124137   1.440   6.399   0.902
 7746SOL    HW224138   1.294   6.361   0.965
 7747SOL     OW24139   1.148   6.142   0.295
 7747SOL    HW124140   1.209   6.215   0.327
 7747SOL    HW224141   1.122   6.159   0.200
 7748SOL     OW24142   4.081   2.255   5.872
 7748SOL    HW124143   4.030   2.170   5.888
 7748SOL    HW224144   4.040   2.305   5.797
 7749SOL     OW24145   3.752   3.518   3.808
 7749SOL    HW124146   3.658   3.513   3.775
 7749SOL    HW224147   3.814   3.525   3.729
 7750SOL     OW24148   6.192   4.074   5.396
 7750SOL    HW124149   6.145   4.041   5.314
 7750SOL    HW224150   6.270   4.130   5.369
 7751SOL     OW24151   6.716   0.886   5.355
 7751SOL    HW124152   6.744   0.803   5.306
 7751SOL    HW224153   6.681   0.953   5.289
 7752SOL     OW24154   6.368   5.470   5.666
 7752SOL    HW124155   6.329   5.459   5.758
 7752SOL    HW224156   6.371   5.381   5.620
 7753SOL     OW24157   2.384   1.060   4.602
 7753SOL    HW124158   2.365   1.118   4.681
 7753SOL    HW224159   2.470   1.010   4.618
 7754SOL     OW24160   5.882   0.993   1.848
 7754SOL    HW124161   5.843   0.949   1.929
 7754SOL    HW224162   5.817   1.060   1.812
 7755SOL     OW24163   0.664   5.941   5.641
 7755SOL    HW124164   0.614   5.924   5.727
 7755SOL    HW224165   0.737   6.007   5.658
 7756SOL     OW24166   3.939   5.388   1.964
 7756SOL    HW124167   4.000   5.466   1.974
 7756SOL    HW224168   3.862   5.398   2.027
 7757SOL     OW24169   4.560   6.146   5.721
 7757SOL    HW124170   4.483   6.201   5.752
 7757SOL    HW224171   4.584   6.079   5.791
 7758SOL     OW24172   2.278   2.196   5.719
 7758SOL    HW124173   2.348   2.165   5.654
 7758SOL    HW224174   2.257   2.292   5.701
 7759SOL     OW24175   1.941   0.838   4.298
 7759SOL    HW124176   2.036   0.817   4.323
 7759SOL    HW224177   1.936   0.857   4.200
 7760SOL     OW24178   5.114   2.987   2.214
 7760SOL    HW124179   5.150   3.019   2.301
 7760SOL    HW224180   5.175   2.917   2.176
 7761SOL     OW24181   3.421   6.508   6.968
 7761SOL    HW124182   3.488   6.490   6.896
 7761SOL    HW224183   3.468   6.524   0.043
 7762SOL     OW24184   3.643   1.401   0.451
 7762SOL    HW124185   3.565   1.382   0.392
 7762SOL    HW224186   3.696   1.318   0.464
 7763SOL     OW24187   1.684   1.589   0.320
 7763SOL    HW124188   1.733   1.653   0.378
 7763SOL    HW224189   1.749   1.530   0.272
 7764SOL     OW24190   3.420   2.853   2.538
 7764SOL    HW124191   3.321   2.862   2.536
 7764SOL    HW224192   3.458   2.875   2.448
 7765SOL     OW24193   6.777   2.186   2.989
 7765SOL    HW124194   6.769   2.126   2.910
 7765SOL    HW224195   6.786   2.281   2.959
 7766SOL     OW24196   6.756   2.213   6.618
 7766SOL    HW124197   6.763   2.130   6.563
 7766SOL    HW224198   6.680   2.205   6.683
 7767SOL     OW24199   4.432   5.659   4.404
 7767SOL    HW124200   4.484   5.573   4.404
 7767SOL    HW224201   4.486   5.729   4.451
 7768SOL     OW24202   3.916   4.869   2.040
 7768SOL    HW124203   3.882   4.960   2.018
 7768SOL    HW224204   3.895   4.806   1.965
 7769SOL     OW24205   5.482   1.977   1.242
 7769SOL    HW124206   5.401   2.035   1.248
 7769SOL    HW224207   5.505   1.942   1.332
 7770SOL     OW24208   3.246   4.967   1.201
 7770SOL    HW124209   3.327   4.955   1.144
 7770SOL    HW224210   3.200   4.879   1.213
 7771SOL     OW24211   2.459   2.175   5.919
 7771SOL    HW124212   2.443   2.210   6.011
 7771SOL    HW224213   2.374   2.178   5.866
 7772SOL     OW24214   5.011   0.614   4.217
 7772SOL    HW124215   4.982   0.702   4.255
 7772SOL    HW224216   5.108   0.620   4.190
 7773SOL     OW24217   4.315   3.798   5.914
 7773SOL    HW124218   4.363   3.801   5.827
 7773SOL    HW224219   4.288   3.890   5.941
 7774SOL     OW24220   5.066   1.661   6.230
 7774SOL    HW124221   5.144   1.604   6.204
 7774SOL    HW224222   4.981   1.620   6.195
 7775SOL     OW24223   3.163   6.631   2.192
 7775SOL    HW124224   3.079   6.685   2.194
 7775SOL    HW224225   3.192   6.617   2.098
 7776SOL     OW24226   3.639   3.311   6.940
 7776SOL    HW124227   3.606   3.335   0.020
 7776SOL    HW224228   3.710   3.376   6.912
 7777SOL     OW24229   2.314   0.981   6.565
 7777SOL    HW124230   2.341   1.011   6.474
 7777SOL    HW224231   2.373   0.906   6.594
 7778SOL     OW24232   5.565   0.509   0.069
 7778SOL    HW124233   5.566   0.546   6.987
 7778SOL    HW224234   5.613   0.571   0.130
 7779SOL     OW24235   4.117   2.578   0.739
 7779SOL    HW124236   4.135   2.602   0.643
 7779SOL    HW224237   4.189   2.518   0.772
 7780SOL     OW24238   2.404   5.882   5.041
 7780SOL    HW124239   2.456   5.911   5.121
 7780SOL    HW224240   2.466   5.839   4.975
 7781SOL     OW24241   1.086   4.659   4.686
 7781SOL    HW124242   1.170   4.695   4.728
 7781SOL    HW224243   1.083   4.686   4.590
 7782SOL     OW24244   2.467   4.252   6.300
 7782SOL    HW124245   2.496   4.157   6.286
 7782SOL    HW224246   2.367   4.256   6.307
 7783SOL     OW24247   2.412   5.443   6.685
 7783SOL    HW124248   2.487   5.503   6.659
 7783SOL    HW224249   2.353   5.425   6.606
 7784SOL     OW24250   0.308   2.491   6.859
 7784SOL    HW124251   0.218   2.535   6.862
 7784SOL    HW224252   0.374   2.547   6.908
 7785SOL     OW24253   2.397   6.294   4.117
 7785SOL    HW124254   2.347   6.220   4.161
 7785SOL    HW224255   2.400   6.374   4.177
 7786SOL     OW24256   3.005   4.313   5.326
 7786SOL    HW124257   3.075   4.358   5.382
 7786SOL    HW224258   2.945   4.382   5.286
 7787SOL     OW24259   2.117   2.907   5.143
 7787SOL    HW124260   2.216   2.921   5.132
 7787SOL    HW224261   2.093   2.917   5.239
 7788SOL     OW24262   1.071   1.718   0.568
 7788SOL    HW124263   1.020   1.635   0.548
 7788SOL    HW224264   1.161   1.713   0.524
 7789SOL     OW24265   2.353   0.823   1.633
 7789SOL    HW124266   2.439   0.875   1.638
 7789SOL    HW224267   2.324   0.815   1.537
 7790SOL     OW24268   5.241   3.075   2.831
 7790SOL    HW124269   5.159   3.072   2.776
 7790SOL    HW224270   5.248   3.165   2.875
 7791SOL     OW24271   1.799   5.238   4.540
 7791SOL    HW124272   1.727   5.246   4.471
 7791SOL    HW224273   1.758   5.219   4.629
 7792SOL     OW24274   2.837   5.887   6.108
 7792SOL    HW124275   2.870   5.794   6.122
 7792SOL    HW224276   2.775   5.913   6.182
 7793SOL     OW24277   1.314   1.246   6.010
 7793SOL    HW124278   1.240   1.179   5.999
 7793SOL    HW224279   1.333   1.259   6.107
 7794SOL     OW24280   5.506   5.549   4.442
 7794SOL    HW124281   5.450   5.559   4.525
 7794SOL    HW224282   5.526   5.639   4.405
 7795SOL     OW24283   2.190   4.454   5.507
 7795SOL    HW124284   2.215   4.359   5.529
 7795SOL    HW224285   2.094   4.456   5.478
 7796SOL     OW24286   3.610   4.064   3.248
 7796SOL    HW124287   3.630   4.123   3.169
 7796SOL    HW224288   3.624   3.968   3.223
 7797SOL     OW24289   6.917   6.886   2.828
 7797SOL    HW124290   6.888   6.858   2.736
 7797SOL    HW224291   6.867   6.833   2.896
 7798SOL     OW24292   3.293   5.831   0.311
 7798SOL    HW124293   3.242   5.805   0.393
 7798SOL    HW224294   3.345   5.753   0.278
 7799SOL     OW24295   0.774   4.540   1.520
 7799SOL    HW124296   0.679   4.562   1.544
 7799SOL    HW224297   0.816   4.490   1.595
 7800SOL     OW24298   0.249   5.432   1.895
 7800SOL    HW124299   0.332   5.421   1.840
 7800SOL    HW224300   0.275   5.462   1.987
 7801SOL     OW24301   3.010   2.075   6.683
 7801SOL    HW124302   3.047   2.067   6.590
 7801SOL    HW224303   2.984   2.170   6.700
 7802SOL     OW24304   5.529   2.456   1.803
 7802SOL    HW124305   5.578   2.534   1.764
 7802SOL    HW224306   5.584   2.414   1.875
 7803SOL     OW24307   4.111   4.100   5.629
 7803SOL    HW124308   4.076   4.126   5.719
 7803SOL    HW224309   4.092   4.173   5.564
 7804SOL     OW24310   5.128   2.008   5.827
 7804SOL    HW124311   5.225   2.032   5.823
 7804SOL    HW224312   5.118   1.909   5.811
 7805SOL     OW24313   5.226   3.464   2.110
 7805SOL    HW124314   5.129   3.487   2.110
 7805SOL    HW224315   5.260   3.464   2.204
 7806SOL     OW24316   5.647   3.089   6.445
 7806SOL    HW124317   5.628   3.163   6.379
 7806SOL    HW224318   5.732   3.043   6.418
 7807SOL     OW24319   0.172   3.907   6.042
 7807SOL    HW124320   0.167   3.820   5.994
 7807SOL    HW224321   0.150   3.895   6.138
 7808SOL     OW24322   1.025   0.866   4.846
 7808SOL    HW124323   0.975   0.874   4.759
 7808SOL    HW224324   1.051   0.956   4.878
 7809SOL     OW24325   2.831   5.531   4.531
 7809SOL    HW124326   2.733   5.518   4.546
 7809SOL    HW224327   2.848   5.626   4.505
 7810SOL     OW24328   2.660   0.595   6.087
 7810SOL    HW124329   2.687   0.550   6.001
 7810SOL    HW224330   2.717   0.676   6.102
 7811SOL     OW24331   5.533   4.441   4.419
 7811SOL    HW124332   5.501   4.526   4.461
 7811SOL    HW224333   5.627   4.422   4.449
 7812SOL     OW24334   1.637   1.451   3.666
 7812SOL    HW124335   1.587   1.376   3.624
 7812SOL    HW224336   1.574   1.505   3.722
 7813SOL     OW24337   6.829   2.878   0.028
 7813SOL    HW124338   6.855   2.818   0.104
 7813SOL    HW224339   6.810   2.970   0.063
 7814SOL     OW24340   6.892   3.700   3.151
 7814SOL    HW124341   6.905   3.687   3.053
 7814SOL    HW224342   6.814   3.646   3.182
 7815SOL     OW24343   6.277   1.374   6.118
 7815SOL    HW124344   6.329   1.317   6.181
 7815SOL    HW224345   6.221   1.439   6.171
 7816SOL     OW24346   1.176   4.031   5.114
 7816SOL    HW124347   1.185   4.117   5.065
 7816SOL    HW224348   1.136   4.047   5.205
 7817SOL     OW24349   5.280   4.462   4.897
 7817SOL    HW124350   5.314   4.476   4.804
 7817SOL    HW224351   5.183   4.437   4.894
 7818SOL     OW24352   5.561   6.228   1.930
 7818SOL    HW124353   5.494   6.193   1.864
 7818SOL    HW224354   5.614   6.152   1.967
 7819SOL     OW24355   6.967   2.373   1.448
 7819SOL    HW124356   6.888   2.312   1.442
 7819SOL    HW224357   6.997   2.398   1.356
 7820SOL     OW24358   1.767   1.225   6.540
 7820SOL    HW124359   1.723   1.299   6.591
 7820SOL    HW224360   1.764   1.245   6.442
 7821SOL     OW24361   2.956   5.320   1.669
 7821SOL    HW124362   2.884   5.353   1.608
 7821SOL    HW224363   2.920   5.246   1.726
 7822SOL     OW24364   1.574   5.595   5.220
 7822SOL    HW124365   1.593   5.691   5.202
 7822SOL    HW224366   1.560   5.547   5.134
 7823SOL     OW24367   1.558   4.765   4.941
 7823SOL    HW124368   1.574   4.725   5.032
 7823SOL    HW224369   1.619   4.721   4.875
 7824SOL     OW24370   0.650   3.009   4.931
 7824SOL    HW124371   0.675   2.920   4.893
 7824SOL    HW224372   0.671   3.081   4.865
 7825SOL     OW24373   3.053   1.391   6.212
 7825SOL    HW124374   3.090   1.440   6.291
 7825SOL    HW224375   2.968   1.346   6.238
 7826SOL     OW24376   6.976   2.503   6.723
 7826SOL    HW124377   6.978   2.452   6.637
 7826SOL    HW224378   6.899   2.567   6.722
 7827SOL     OW24379   0.175   6.326   4.395
 7827SOL    HW124380   0.077   6.340   4.380
 7827SOL    HW224381   0.205   6.379   4.474
 7828SOL     OW24382   0.742   4.012   6.998
 7828SOL    HW124383   0.757   3.917   0.013
 7828SOL    HW224384   0.677   4.055   0.050
 7829SOL     OW24385   3.787   2.194   0.988
 7829SOL    HW124386   3.765   2.110   0.938
 7829SOL    HW224387   3.878   2.225   0.963
 7830SOL     OW24388   2.722   4.793   4.230
 7830SOL    HW124389   2.800   4.811   4.171
 7830SOL    HW224390   2.754   4.772   4.323
 7831SOL     OW24391   1.411   1.453   0.228
 7831SOL    HW124392   1.482   1.516   0.260
 7831SOL    HW224393   1.400   1.462   0.129
 7832SOL     OW24394   6.009   0.854   4.367
 7832SOL    HW124395   5.969   0.763   4.370
 7832SOL    HW224396   5.960   0.914   4.432
 7833SOL     OW24397   2.231   0.872   4.491
 7833SOL    HW124398   2.140   0.888   4.527
 7833SOL    HW224399   2.296   0.936   4.533
 7834SOL     OW24400   6.137   3.269   4.488
 7834SOL    HW124401   6.210   3.204   4.468
 7834SOL    HW224402   6.060   3.253   4.426
 7835SOL     OW24403   4.134   1.911   5.162
 7835SOL    HW124404   4.119   1.973   5.084
 7835SOL    HW224405   4.060   1.923   5.228
 7836SOL     OW24406   3.842   3.940   4.830
 7836SOL    HW124407   3.907   3.898   4.768
 7836SOL    HW224408   3.778   3.997   4.778
 7837SOL     OW24409   6.037   5.383   6.774
 7837SOL    HW124410   6.073   5.348   6.687
 7837SOL    HW224411   6.033   5.483   6.771
 7838SOL     OW24412   5.459   5.396   1.046
 7838SOL    HW124413   5.521   5.366   0.973
 7838SOL    HW224414   5.496   5.368   1.135
 7839SOL     OW24415   5.806   3.647   3.946
 7839SOL    HW124416   5.859   3.563   3.952
 7839SOL    HW224417   5.722   3.637   3.999
 7840SOL     OW24418   1.928   2.873   4.072
 7840SOL    HW124419   1.963   2.900   3.982
 7840SOL    HW224420   1.937   2.949   4.136
 7841SOL     OW24421   4.776   2.397   6.276
 7841SOL    HW124422   4.700   2.345   6.314
 7841SOL    HW224423   4.822   2.344   6.205
 7842SOL     OW24424   1.931   1.498   2.260
 7842SOL    HW124425   1.872   1.517   2.338
 7842SOL    HW224426   1.875   1.495   2.177
 7843SOL     OW24427   0.145   6.579   3.002
 7843SOL    HW124428   0.057   6.602   3.044
 7843SOL    HW224429   0.172   6.650   2.938
 7844SOL     OW24430   3.494   1.467   2.882
 7844SOL    HW124431   3.578   1.510   2.915
 7844SOL    HW224432   3.505   1.443   2.785
 7845SOL     OW24433   6.542   2.544   0.866
 7845SOL    HW124434   6.547   2.616   0.797
 7845SOL    HW224435   6.520   2.584   0.955
 7846SOL     OW24436   0.835   2.759   0.487
 7846SOL    HW124437   0.830   2.678   0.428
 7846SOL    HW224438   0.868   2.837   0.433
 7847SOL     OW24439   5.656   3.223   4.905
 7847SOL    HW124440   5.586   3.277   4.951
 7847SOL    HW224441   5.658   3.247   4.808
 7848SOL     OW24442   3.293   4.915   0.833
 7848SOL    HW124443   3.271   4.991   0.895
 7848SOL    HW224444   3.378   4.872   0.862
 7849SOL     OW24445   4.418   4.353   6.195
 7849SOL    HW124446   4.495   4.377   6.136
 7849SOL    HW224447   4.451   4.301   6.274
 7850SOL     OW24448   0.184   0.920   3.920
 7850SOL    HW124449   0.153   0.940   3.828
 7850SOL    HW224450   0.283   0.931   3.925
 7851SOL     OW24451   0.662   4.215   1.937
 7851SOL    HW124452   0.734   4.219   2.007
 7851SOL    HW224453   0.596   4.144   1.961
 7852SOL     OW24454   1.082   2.311   6.375
 7852SOL    HW124455   0.993   2.274   6.401
 7852SOL    HW224456   1.129   2.247   6.314
 7853SOL     OW24457   4.055   3.006   1.817
 7853SOL    HW124458   4.086   2.976   1.908
 7853SOL    HW224459   4.131   3.048   1.768
 7854SOL     OW24460   5.238   2.605   6.716
 7854SOL    HW124461   5.180   2.542   6.767
 7854SOL    HW224462   5.184   2.684   6.685
 7855SOL     OW24463   5.044   6.856   4.353
 7855SOL    HW124464   4.984   6.935   4.346
 7855SOL    HW224465   5.074   6.844   4.447
 7856SOL     OW24466   2.123   6.226   4.774
 7856SOL    HW124467   2.220   6.253   4.774
 7856SOL    HW224468   2.078   6.266   4.854
 7857SOL     OW24469   5.416   4.000   1.023
 7857SOL    HW124470   5.426   3.999   1.123
 7857SOL    HW224471   5.359   3.923   0.995
 7858SOL     OW24472   0.920   5.312   5.687
 7858SOL    HW124473   0.854   5.383   5.711
 7858SOL    HW224474   0.899   5.228   5.737
 7859SOL     OW24475   5.178   2.720   0.290
 7859SOL    HW124476   5.169   2.638   0.234
 7859SOL    HW224477   5.090   2.743   0.331
 7860SOL     OW24478   2.688   0.567   4.327
 7860SOL    HW124479   2.782   0.535   4.321
 7860SOL    HW224480   2.643   0.557   4.238
 7861SOL     OW24481   2.782   6.383   0.662
 7861SOL    HW124482   2.718   6.309   0.641
 7861SOL    HW224483   2.839   6.356   0.739
 7862SOL     OW24484   2.786   6.166   0.429
 7862SOL    HW124485   2.712   6.145   0.493
 7862SOL    HW224486   2.833   6.249   0.460
 7863SOL     OW24487   6.895   4.453   3.515
 7863SOL    HW124488   6.937   4.366   3.540
 7863SOL    HW224489   6.826   4.477   3.582
 7864SOL     OW24490   2.190   6.725   5.101
 7864SOL    HW124491   2.241   6.724   5.015
 7864SOL    HW224492   2.152   6.816   5.116
 7865SOL     OW24493   5.778   5.752   3.654
 7865SOL    HW124494   5.830   5.689   3.597
 7865SOL    HW224495   5.713   5.700   3.710
 7866SOL     OW24496   0.838   6.708   5.934
 7866SOL    HW124497   0.810   6.791   5.886
 7866SOL    HW224498   0.758   6.651   5.952
 7867SOL     OW24499   5.418   6.142   3.548
 7867SOL    HW124500   5.494   6.077   3.551
 7867SOL    HW224501   5.424   6.197   3.465
 7868SOL     OW24502   3.559   6.322   1.143
 7868SOL    HW124503   3.637   6.346   1.084
 7868SOL    HW224504   3.591   6.267   1.219
 7869SOL     OW24505   5.227   4.380   6.081
 7869SOL    HW124506   5.311   4.328   6.068
 7869SOL    HW224507   5.151   4.331   6.038
 7870SOL     OW24508   5.460   6.239   5.322
 7870SOL    HW124509   5.498   6.329   5.302
 7870SOL    HW224510   5.364   6.237   5.294
 7871SOL     OW24511   4.805   1.455   1.690
 7871SOL    HW124512   4.783   1.553   1.685
 7871SOL    HW224513   4.809   1.417   1.598
 7872SOL     OW24514   1.944   6.151   2.667
 7872SOL    HW124515   1.857   6.102   2.654
 7872SOL    HW224516   1.936   6.244   2.630
 7873SOL     OW24517   6.383   0.920   0.042
 7873SOL    HW124518   6.405   1.012   0.010
 7873SOL    HW224519   6.468   0.867   0.052
 7874SOL     OW24520   5.506   2.289   1.023
 7874SOL    HW124521   5.452   2.237   0.957
 7874SOL    HW224522   5.518   2.382   0.989
 7875SOL     OW24523   4.809   4.173   6.950
 7875SOL    HW124524   4.799   4.115   6.870
 7875SOL    HW224525   4.769   4.263   6.932
 7876SOL     OW24526   0.928   0.129   2.203
 7876SOL    HW124527   0.923   0.168   2.295
 7876SOL    HW224528   0.979   0.191   2.144
 7877SOL     OW24529   0.352   2.388   3.142
 7877SOL    HW124530   0.342   2.466   3.204
 7877SOL    HW224531   0.374   2.422   3.050
 7878SOL     OW24532   4.317   4.981   3.621
 7878SOL    HW124533   4.255   4.926   3.565
 7878SOL    HW224534   4.411   4.966   3.590
 7879SOL     OW24535   2.379   4.772   3.511
 7879SOL    HW124536   2.407   4.680   3.485
 7879SOL    HW224537   2.360   4.826   3.428
 7880SOL     OW24538   1.429   4.018   2.007
 7880SOL    HW124539   1.518   3.974   2.009
 7880SOL    HW224540   1.360   3.956   2.045
 7881SOL     OW24541   5.077   4.131   4.063
 7881SOL    HW124542   5.104   4.090   3.976
 7881SOL    HW224543   4.977   4.136   4.067
 7882SOL     OW24544   1.512   2.557   0.713
 7882SOL    HW124545   1.543   2.518   0.800
 7882SOL    HW224546   1.420   2.592   0.723
 7883SOL     OW24547   1.367   1.359   5.237
 7883SOL    HW124548   1.403   1.274   5.198
 7883SOL    HW224549   1.352   1.348   5.335
 7884SOL     OW24550   0.662   3.056   4.306
 7884SOL    HW124551   0.704   3.129   4.254
 7884SOL    HW224552   0.562   3.069   4.307
 7885SOL     OW24553   5.923   6.015   0.137
 7885SOL    HW124554   5.943   6.094   0.079
 7885SOL    HW224555   6.005   5.959   0.147
 7886SOL     OW24556   4.669   5.080   6.744
 7886SOL    HW124557   4.651   4.981   6.744
 7886SOL    HW224558   4.625   5.121   6.824
 7887SOL     OW24559   5.088   1.779   6.982
 7887SOL    HW124560   5.090   1.724   0.054
 7887SOL    HW224561   5.168   1.757   6.925
 7888SOL     OW24562   4.960   0.870   4.328
 7888SOL    HW124563   5.010   0.852   4.413
 7888SOL    HW224564   4.904   0.952   4.340
 7889SOL     OW24565   0.547   6.799   2.366
 7889SOL    HW124566   0.628   6.854   2.384
 7889SOL    HW224567   0.557   6.709   2.410
 7890SOL     OW24568   1.357   3.207   3.003
 7890SOL    HW124569   1.452   3.213   3.033
 7890SOL    HW224570   1.343   3.269   2.925
 7891SOL     OW24571   2.081   5.272   2.400
 7891SOL    HW124572   2.162   5.281   2.457
 7891SOL    HW224573   2.056   5.176   2.392
 7892SOL     OW24574   1.718   2.303   5.835
 7892SOL    HW124575   1.646   2.372   5.843
 7892SOL    HW224576   1.784   2.315   5.909
 7893SOL     OW24577   6.044   6.403   1.193
 7893SOL    HW124578   5.984   6.431   1.118
 7893SOL    HW224579   6.131   6.371   1.156
 7894SOL     OW24580   2.957   6.834   1.481
 7894SOL    HW124581   2.915   6.925   1.488
 7894SOL    HW224582   2.890   6.769   1.444
 7895SOL     OW24583   0.194   1.492   4.394
 7895SOL    HW124584   0.287   1.481   4.429
 7895SOL    HW224585   0.181   1.430   4.316
 7896SOL     OW24586   4.693   2.875   5.753
 7896SOL    HW124587   4.664   2.785   5.785
 7896SOL    HW224588   4.655   2.945   5.813
 7897SOL     OW24589   2.980   3.008   6.348
 7897SOL    HW124590   2.939   3.099   6.341
 7897SOL    HW224591   3.078   3.017   6.363
 7898SOL     OW24592   4.262   2.331   3.793
 7898SOL    HW124593   4.179   2.285   3.826
 7898SOL    HW224594   4.342   2.277   3.818
 7899SOL     OW24595   5.750   1.879   2.916
 7899SOL    HW124596   5.680   1.938   2.957
 7899SOL    HW224597   5.735   1.785   2.947
 7900SOL     OW24598   1.532   5.243   0.788
 7900SOL    HW124599   1.571   5.172   0.729
 7900SOL    HW224600   1.432   5.235   0.787
 7901SOL     OW24601   6.056   6.445   6.831
 7901SOL    HW124602   6.129   6.512   6.842
 7901SOL    HW224603   5.977   6.488   6.788
 7902SOL     OW24604   4.509   3.677   6.908
 7902SOL    HW124605   4.502   3.733   6.825
 7902SOL    HW224606   4.523   3.735   6.987
 7903SOL     OW24607   0.228   1.767   6.653
 7903SOL    HW124608   0.138   1.754   6.612
 7903SOL    HW224609   0.299   1.732   6.591
 7904SOL     OW24610   6.714   0.834   2.665
 7904SOL    HW124611   6.799   0.782   2.654
 7904SOL    HW224612   6.644   0.798   2.604
 7905SOL     OW24613   4.086   1.011   0.996
 7905SOL    HW124614   4.125   0.943   0.934
 7905SOL    HW224615   4.152   1.085   1.010
 7906SOL     OW24616   6.190   5.855   6.859
 7906SOL    HW124617   6.184   5.771   6.914
 7906SOL    HW224618   6.102   5.870   6.812
 7907SOL     OW24619   6.692   2.548   2.495
 7907SOL    HW124620   6.648   2.502   2.418
 7907SOL    HW224621   6.690   2.488   2.575
 7908SOL     OW24622   6.352   2.434   3.760
 7908SOL    HW124623   6.325   2.351   3.808
 7908SOL    HW224624   6.303   2.441   3.673
 7909SOL     OW24625   4.580   4.769   5.200
 7909SOL    HW124626   4.649   4.766   5.128
 7909SOL    HW224627   4.571   4.863   5.235
 7910SOL     OW24628   5.498   3.087   5.829
 7910SOL    HW124629   5.543   3.176   5.831
 7910SOL    HW224630   5.557   3.020   5.785
 7911SOL     OW24631   5.843   4.693   0.155
 7911SOL    HW124632   5.915   4.632   0.189
 7911SOL    HW224633   5.816   4.755   0.229
 7912SOL     OW24634   6.299   4.981   6.101
 7912SOL    HW124635   6.281   5.015   6.009
 7912SOL    HW224636   6.391   5.009   6.129
 7913SOL     OW24637   6.726   5.601   6.171
 7913SOL    HW124638   6.662   5.558   6.108
 7913SOL    HW224639   6.696   5.585   6.265
 7914SOL     OW24640   6.596   4.294   1.620
 7914SOL    HW124641   6.510   4.345   1.617
 7914SOL    HW224642   6.673   4.358   1.623
 7915SOL     OW24643   3.658   1.639   3.221
 7915SOL    HW124644   3.708   1.572   3.275
 7915SOL    HW224645   3.692   1.637   3.127
 7916SOL     OW24646   5.154   3.812   5.397
 7916SOL    HW124647   5.066   3.847   5.427
 7916SOL    HW224648   5.223   3.828   5.468
 7917SOL     OW24649   3.122   3.493   4.136
 7917SOL    HW124650   3.143   3.582   4.094
 7917SOL    HW224651   3.054   3.446   4.080
 7918SOL     OW24652   6.307   1.733   2.786
 7918SOL    HW124653   6.312   1.828   2.755
 7918SOL    HW224654   6.213   1.710   2.811
 7919SOL     OW24655   6.099   5.151   1.996
 7919SOL    HW124656   6.092   5.164   1.897
 7919SOL    HW224657   6.171   5.084   2.015
 7920SOL     OW24658   1.016   5.410   1.802
 7920SOL    HW124659   0.978   5.401   1.710
 7920SOL    HW224660   1.115   5.425   1.795
 7921SOL     OW24661   2.795   6.685   1.709
 7921SOL    HW124662   2.785   6.717   1.615
 7921SOL    HW224663   2.892   6.672   1.731
 7922SOL     OW24664   0.865   5.341   6.544
 7922SOL    HW124665   0.883   5.294   6.631
 7922SOL    HW224666   0.944   5.398   6.521
 7923SOL     OW24667   1.701   2.012   3.212
 7923SOL    HW124668   1.771   2.054   3.270
 7923SOL    HW224669   1.701   1.913   3.226
 7924SOL     OW24670   2.236   7.007   3.834
 7924SOL    HW124671   2.183   6.928   3.865
 7924SOL    HW224672   2.191   0.036   3.755
 7925SOL     OW24673   6.582   1.283   6.284
 7925SOL    HW124674   6.513   1.216   6.312
 7925SOL    HW224675   6.570   1.367   6.337
 7926SOL     OW24676   4.059   0.205   1.733
 7926SOL    HW124677   4.011   0.141   1.673
 7926SOL    HW224678   4.005   0.220   1.816
 7927SOL     OW24679   4.836   5.308   4.713
 7927SOL    HW124680   4.745   5.268   4.727
 7927SOL    HW224681   4.827   5.403   4.684
 7928SOL     OW24682   1.555   5.319   1.305
 7928SOL    HW124683   1.503   5.387   1.356
 7928SOL    HW224684   1.502   5.235   1.298
 7929SOL     OW24685   3.481   3.826   4.066
 7929SOL    HW124686   3.565   3.773   4.053
 7929SOL    HW224687   3.452   3.820   4.161
 7930SOL     OW24688   4.879   5.950   4.026
 7930SOL    HW124689   4.799   5.958   3.967
 7930SOL    HW224690   4.850   5.947   4.122
 7931SOL     OW24691   2.279   1.588   0.486
 7931SOL    HW124692   2.356   1.531   0.458
 7931SOL    HW224693   2.240   1.634   0.406
 7932SOL     OW24694   2.586   0.032   1.178
 7932SOL    HW124695   2.639   0.086   1.244
 7932SOL    HW224696   2.548   0.092   1.108
 7933SOL     OW24697   1.658   0.766   0.049
 7933SOL    HW124698   1.617   0.792   0.137
 7933SOL    HW224699   1.647   0.841   6.995
 7934SOL     OW24700   2.756   3.573   6.168
 7934SOL    HW124701   2.673   3.565   6.224
 7934SOL    HW224702   2.738   3.535   6.077
 7935SOL     OW24703   4.483   6.163   1.341
 7935SOL    HW124704   4.418   6.237   1.354
 7935SOL    HW224705   4.523   6.169   1.249
 7936SOL     OW24706   4.366   5.930   3.437
 7936SOL    HW124707   4.423   6.011   3.424
 7936SOL    HW224708   4.296   5.949   3.506
 7937SOL     OW24709   6.569   6.483   5.599
 7937SOL    HW124710   6.485   6.526   5.629
 7937SOL    HW224711   6.567   6.471   5.500
 7938SOL     OW24712   5.116   5.243   4.690
 7938SOL    HW124713   5.176   5.223   4.613
 7938SOL    HW224714   5.021   5.251   4.658
 7939SOL     OW24715   1.154   1.126   4.957
 7939SOL    HW124716   1.155   1.201   4.891
 7939SOL    HW224717   1.112   1.157   5.042
 7940SOL     OW24718   1.413   5.796   1.067
 7940SOL    HW124719   1.499   5.780   1.019
 7940SOL    HW224720   1.380   5.888   1.046
 7941SOL     OW24721   0.674   0.435   0.572
 7941SOL    HW124722   0.767   0.472   0.566
 7941SOL    HW224723   0.676   0.352   0.628
 7942SOL     OW24724   0.725   0.978   1.371
 7942SOL    HW124725   0.719   0.949   1.467
 7942SOL    HW224726   0.644   0.946   1.322
 7943SOL     OW24727   5.410   1.506   1.239
 7943SOL    HW124728   5.392   1.425   1.293
 7943SOL    HW224729   5.416   1.586   1.298
 7944SOL     OW24730   1.020   4.638   1.768
 7944SOL    HW124731   1.098   4.671   1.821
 7944SOL    HW224732   1.013   4.539   1.778
 7945SOL     OW24733   4.824   6.438   2.063
 7945SOL    HW124734   4.763   6.389   2.124
 7945SOL    HW224735   4.900   6.477   2.115
 7946SOL     OW24736   1.525   2.513   5.856
 7946SOL    HW124737   1.594   2.584   5.864
 7946SOL    HW224738   1.435   2.551   5.879
 7947SOL     OW24739   3.840   3.561   6.402
 7947SOL    HW124740   3.833   3.467   6.436
 7947SOL    HW224741   3.781   3.573   6.322
 7948SOL     OW24742   0.034   6.222   0.675
 7948SOL    HW124743   0.009   6.176   0.760
 7948SOL    HW224744   0.054   6.319   0.693
 7949SOL     OW24745   5.268   4.316   4.444
 7949SOL    HW124746   5.299   4.316   4.350
 7949SOL    HW224747   5.331   4.370   4.500
 7950SOL     OW24748   3.431   4.891   4.296
 7950SOL    HW124749   3.408   4.988   4.283
 7950SOL    HW224750   3.471   4.879   4.387
 7951SOL     OW24751   3.408   3.201   0.897
 7951SOL    HW124752   3.328   3.239   0.944
 7951SOL    HW224753   3.415   3.103   0.917
 7952SOL     OW24754   5.515   3.324   1.035
 7952SOL    HW124755   5.444   3.269   0.990
 7952SOL    HW224756   5.513   3.417   0.997
 7953SOL     OW24757   2.006   2.751   2.940
 7953SOL    HW124758   2.054   2.839   2.945
 7953SOL    HW224759   2.073   2.677   2.942
 7954SOL     OW24760   4.002   5.011   5.085
 7954SOL    HW124761   3.996   5.110   5.089
 7954SOL    HW224762   4.095   4.982   5.108
 7955SOL     OW24763   0.885   6.748   6.209
 7955SOL    HW124764   0.884   6.730   6.111
 7955SOL    HW224765   0.805   6.707   6.252
 7956SOL     OW24766   6.035   6.867   3.725
 7956SOL    HW124767   5.974   6.911   3.792
 7956SOL    HW224768   6.127   6.860   3.764
 7957SOL     OW24769   0.838   2.273   1.203
 7957SOL    HW124770   0.928   2.269   1.160
 7957SOL    HW224771   0.844   2.235   1.295
 7958SOL     OW24772   2.922   5.423   2.879
 7958SOL    HW124773   3.001   5.441   2.821
 7958SOL    HW224774   2.952   5.374   2.961
 7959SOL     OW24775   5.835   5.078   0.794
 7959SOL    HW124776   5.927   5.046   0.813
 7959SOL    HW224777   5.829   5.105   0.697
 7960SOL     OW24778   2.646   2.273   1.129
 7960SOL    HW124779   2.566   2.215   1.147
 7960SOL    HW224780   2.723   2.242   1.184
 7961SOL     OW24781   1.744   5.371   6.375
 7961SOL    HW124782   1.744   5.321   6.288
 7961SOL    HW224783   1.677   5.331   6.437
 7962SOL     OW24784   1.052   0.706   2.331
 7962SOL    HW124785   1.149   0.731   2.333
 7962SOL    HW224786   1.005   0.760   2.261
 7963SOL     OW24787   0.330   0.505   5.159
 7963SOL    HW124788   0.370   0.511   5.251
 7963SOL    HW224789   0.231   0.494   5.167
 7964SOL     OW24790   5.911   5.589   3.464
 7964SOL    HW124791   5.954   5.557   3.379
 7964SOL    HW224792   5.972   5.569   3.541
 7965SOL     OW24793   5.521   1.713   6.953
 7965SOL    HW124794   5.574   1.732   6.870
 7965SOL    HW224795   5.563   1.760   0.019
 7966SOL     OW24796   0.188   4.753   3.820
 7966SOL    HW124797   0.096   4.775   3.787
 7966SOL    HW224798   0.254   4.812   3.776
 7967SOL     OW24799   3.245   6.216   2.556
 7967SOL    HW124800   3.314   6.165   2.505
 7967SOL    HW224801   3.281   6.307   2.578
 7968SOL     OW24802   2.141   2.023   2.240
 7968SOL    HW124803   2.163   1.932   2.275
 7968SOL    HW224804   2.045   2.043   2.258
 7969SOL     OW24805   2.697   2.176   3.311
 7969SOL    HW124806   2.782   2.200   3.357
 7969SOL    HW224807   2.635   2.254   3.314
 7970SOL     OW24808   0.675   4.308   3.154
 7970SOL    HW124809   0.598   4.248   3.132
 7970SOL    HW224810   0.755   4.253   3.175
 7971SOL     OW24811   2.649   1.449   1.148
 7971SOL    HW124812   2.624   1.516   1.218
 7971SOL    HW224813   2.728   1.483   1.096
 7972SOL     OW24814   0.533   4.558   1.621
 7972SOL    HW124815   0.548   4.615   1.702
 7972SOL    HW224816   0.435   4.553   1.602
 7973SOL     OW24817   4.760   2.799   3.281
 7973SOL    HW124818   4.716   2.812   3.192
 7973SOL    HW224819   4.703   2.741   3.338
 7974SOL     OW24820   5.233   0.398   4.152
 7974SOL    HW124821   5.243   0.482   4.099
 7974SOL    HW224822   5.157   0.344   4.117
 7975SOL     OW24823   2.971   1.201   4.266
 7975SOL    HW124824   2.946   1.291   4.230
 7975SOL    HW224825   3.030   1.212   4.346
 7976SOL     OW24826   0.946   5.732   6.227
 7976SOL    HW124827   0.886   5.788   6.170
 7976SOL    HW224828   1.037   5.728   6.185
 7977SOL     OW24829   5.455   5.862   1.981
 7977SOL    HW124830   5.366   5.822   1.963
 7977SOL    HW224831   5.527   5.804   1.943
 7978SOL     OW24832   4.533   2.991   5.941
 7978SOL    HW124833   4.449   2.938   5.951
 7978SOL    HW224834   4.551   3.042   6.025
 7979SOL     OW24835   3.669   6.820   4.470
 7979SOL    HW124836   3.680   6.809   4.569
 7979SOL    HW224837   3.618   6.904   4.451
 7980SOL     OW24838   3.315   6.374   1.051
 7980SOL    HW124839   3.275   6.282   1.044
 7980SOL    HW224840   3.406   6.367   1.090
 7981SOL     OW24841   1.046   5.115   2.753
 7981SOL    HW124842   1.089   5.153   2.835
 7981SOL    HW224843   0.956   5.078   2.777
 7982SOL     OW24844   6.492   2.960   0.933
 7982SOL    HW124845   6.486   2.896   0.857
 7982SOL    HW224846   6.582   3.004   0.933
 7983SOL     OW24847   5.005   2.353   2.678
 7983SOL    HW124848   5.033   2.385   2.768
 7983SOL    HW224849   4.905   2.350   2.674
 7984SOL     OW24850   0.210   1.843   1.979
 7984SOL    HW124851   0.182   1.907   2.051
 7984SOL    HW224852   0.166   1.755   1.993
 7985SOL     OW24853   0.050   1.603   2.007
 7985SOL    HW124854   0.115   1.528   1.996
 7985SOL    HW224855   6.984   1.573   2.062
 7986SOL     OW24856   3.762   1.231   0.054
 7986SOL    HW124857   3.722   1.313   0.096
 7986SOL    HW224858   3.860   1.228   0.074
 7987SOL     OW24859   0.866   3.097   4.592
 7987SOL    HW124860   0.831   3.075   4.501
 7987SOL    HW224861   0.964   3.078   4.596
 7988SOL     OW24862   2.907   1.620   4.708
 7988SOL    HW124863   2.828   1.558   4.702
 7988SOL    HW224864   2.886   1.695   4.770
 7989SOL     OW24865   3.010   2.714   5.353
 7989SOL    HW124866   2.957   2.702   5.437
 7989SOL    HW224867   2.999   2.807   5.320
 7990SOL     OW24868   1.463   2.194   5.036
 7990SOL    HW124869   1.370   2.210   5.006
 7990SOL    HW224870   1.502   2.279   5.072
 7991SOL     OW24871   0.783   3.133   5.652
 7991SOL    HW124872   0.833   3.047   5.660
 7991SOL    HW224873   0.722   3.143   5.731
 7992SOL     OW24874   2.769   0.832   0.661
 7992SOL    HW124875   2.722   0.812   0.747
 7992SOL    HW224876   2.745   0.925   0.631
 7993SOL     OW24877   1.801   6.580   6.816
 7993SOL    HW124878   1.753   6.560   6.730
 7993SOL    HW224879   1.899   6.567   6.803
 7994SOL     OW24880   5.730   0.975   3.231
 7994SOL    HW124881   5.823   0.939   3.224
 7994SOL    HW224882   5.697   0.964   3.325
 7995SOL     OW24883   2.979   5.238   3.718
 7995SOL    HW124884   3.054   5.284   3.672
 7995SOL    HW224885   2.954   5.289   3.801
 7996SOL     OW24886   3.700   6.943   5.397
 7996SOL    HW124887   3.701   6.869   5.330
 7996SOL    HW224888   3.761   0.004   5.366
 7997SOL     OW24889   5.597   2.591   1.289
 7997SOL    HW124890   5.639   2.668   1.242
 7997SOL    HW224891   5.651   2.508   1.271
 7998SOL     OW24892   5.926   4.962   6.997
 7998SOL    HW124893   5.965   5.050   6.971
 7998SOL    HW224894   5.862   4.931   6.926
 7999SOL     OW24895   2.169   0.223   5.242
 7999SOL    HW124896   2.088   0.251   5.189
 7999SOL    HW224897   2.250   0.267   5.204
 8000SOL     OW24898   6.234   6.817   5.379
 8000SOL    HW124899   6.295   6.851   5.451
 8000SOL    HW224900   6.242   6.717   5.373
 8001SOL     OW24901   1.606   0.102   1.213
 8001SOL    HW124902   1.667   0.168   1.169
 8001SOL    HW224903   1.620   0.011   1.174
 8002SOL     OW24904   5.770   2.848   5.214
 8002SOL    HW124905   5.797   2.753   5.233
 8002SOL    HW224906   5.671   2.854   5.211
 8003SOL     OW24907   3.397   4.901   3.483
 8003SOL    HW124908   3.386   4.860   3.574
 8003SOL    HW224909   3.494   4.901   3.459
 8004SOL     OW24910   2.107   3.834   2.786
 8004SOL    HW124911   2.015   3.848   2.822
 8004SOL    HW224912   2.112   3.871   2.693
 8005SOL     OW24913   3.149   0.716   1.838
 8005SOL    HW124914   3.179   0.811   1.826
 8005SOL    HW224915   3.191   0.659   1.767
 8006SOL     OW24916   3.129   6.041   0.490
 8006SOL    HW124917   3.160   6.109   0.424
 8006SOL    HW224918   3.057   5.985   0.449
 8007SOL     OW24919   0.477   0.262   4.469
 8007SOL    HW124920   0.560   0.319   4.469
 8007SOL    HW224921   0.474   0.209   4.384
 8008SOL     OW24922   6.327   6.847   0.613
 8008SOL    HW124923   6.371   6.935   0.632
 8008SOL    HW224924   6.301   6.843   0.517
 8009SOL     OW24925   0.079   6.821   3.692
 8009SOL    HW124926   0.152   6.767   3.650
 8009SOL    HW224927   7.002   6.796   3.651
 8010SOL     OW24928   2.156   2.344   6.934
 8010SOL    HW124929   2.111   2.361   0.010
 8010SOL    HW224930   2.251   2.374   6.938
 8011SOL     OW24931   3.311   2.057   0.453
 8011SOL    HW124932   3.242   2.122   0.484
 8011SOL    HW224933   3.363   2.024   0.532
 8012SOL     OW24934   2.649   6.503   1.872
 8012SOL    HW124935   2.704   6.574   1.829
 8012SOL    HW224936   2.704   6.457   1.943
 8013SOL     OW24937   6.246   4.100   4.858
 8013SOL    HW124938   6.182   4.116   4.933
 8013SOL    HW224939   6.223   4.015   4.812
 8014SOL     OW24940   2.136   6.913   0.338
 8014SOL    HW124941   2.147   0.001   0.334
 8014SOL    HW224942   2.220   6.871   0.372
 8015SOL     OW24943   2.423   2.794   0.055
 8015SOL    HW124944   2.355   2.787   6.994
 8015SOL    HW224945   2.515   2.791   0.015
 8016SOL     OW24946   4.039   6.804   0.594
 8016SOL    HW124947   4.045   6.899   0.623
 8016SOL    HW224948   4.115   6.752   0.633
 8017SOL     OW24949   5.831   4.681   4.953
 8017SOL    HW124950   5.799   4.738   4.877
 8017SOL    HW224951   5.927   4.658   4.940
 8018SOL     OW24952   5.423   2.079   4.732
 8018SOL    HW124953   5.482   2.160   4.734
 8018SOL    HW224954   5.454   2.014   4.801
 8019SOL     OW24955   2.973   5.958   0.694
 8019SOL    HW124956   3.033   5.976   0.616
 8019SOL    HW224957   3.003   6.012   0.772
 8020SOL     OW24958   5.097   5.542   6.792
 8020SOL    HW124959   5.174   5.499   6.745
 8020SOL    HW224960   5.026   5.564   6.725
 8021SOL     OW24961   0.544   0.498   1.052
 8021SOL    HW124962   0.604   0.441   0.995
 8021SOL    HW224963   0.449   0.473   1.036
 8022SOL     OW24964   4.574   6.341   3.163
 8022SOL    HW124965   4.476   6.360   3.158
 8022SOL    HW224966   4.624   6.428   3.167
 8023SOL     OW24967   5.920   6.553   2.713
 8023SOL    HW124968   5.978   6.600   2.780
 8023SOL    HW224969   5.942   6.456   2.711
 8024SOL     OW24970   4.556   5.359   5.221
 8024SOL    HW124971   4.494   5.356   5.142
 8024SOL    HW224972   4.515   5.309   5.297
 8025SOL     OW24973   4.082   5.603   0.028
 8025SOL    HW124974   4.175   5.640   0.038
 8025SOL    HW224975   4.086   5.513   6.997
 8026SOL     OW24976   1.411   3.104   0.627
 8026SOL    HW124977   1.435   3.051   0.709
 8026SOL    HW224978   1.405   3.043   0.548
 8027SOL     OW24979   4.863   2.094   5.235
 8027SOL    HW124980   4.779   2.146   5.246
 8027SOL    HW224981   4.890   2.054   5.322
 8028SOL     OW24982   5.520   4.485   6.812
 8028SOL    HW124983   5.433   4.454   6.851
 8028SOL    HW224984   5.591   4.483   6.883
 8029SOL     OW24985   3.975   4.014   0.789
 8029SOL    HW124986   3.938   3.941   0.848
 8029SOL    HW224987   3.952   4.103   0.829
 8030SOL     OW24988   5.826   4.204   6.570
 8030SOL    HW124989   5.824   4.300   6.542
 8030SOL    HW224990   5.868   4.197   6.661
 8031SOL     OW24991   3.954   5.279   1.489
 8031SOL    HW124992   4.022   5.321   1.429
 8031SOL    HW224993   3.891   5.349   1.523
 8032SOL     OW24994   5.580   3.857   5.832
 8032SOL    HW124995   5.591   3.876   5.734
 8032SOL    HW224996   5.491   3.816   5.849
 8033SOL     OW24997   6.159   2.916   6.828
 8033SOL    HW124998   6.163   2.817   6.843
 8033SOL    HW224999   6.177   2.964   6.913
 8034SOL     OW25000   5.463   7.010   4.932
 8034SOL    HW125001   5.532   6.967   4.991
 8034SOL    HW225002   5.478   0.098   4.929
 8035SOL     OW25003   5.639   0.113   6.530
 8035SOL    HW125004   5.691   0.077   6.608
 8035SOL    HW225005   5.699   0.123   6.451
 8036SOL     OW25006   1.873   4.473   1.937
 8036SOL    HW125007   1.894   4.389   1.888
 8036SOL    HW225008   1.792   4.460   1.993
 8037SOL     OW25009   1.746   2.932   1.106
 8037SOL    HW125010   1.724   2.849   1.055
 8037SOL    HW225011   1.846   2.940   1.114
 8038SOL     OW25012   0.242   2.245   4.358
 8038SOL    HW125013   0.278   2.233   4.265
 8038SOL    HW225014   0.307   2.300   4.411
 8039SOL     OW25015   2.663   0.081   3.266
 8039SOL    HW125016   2.712   0.129   3.339
 8039SOL    HW225017   2.570   0.060   3.296
 8040SOL     OW25018   6.894   5.707   1.031
 8040SOL    HW125019   6.984   5.745   1.007
 8040SOL    HW225020   6.893   5.685   1.128
 8041SOL     OW25021   4.396   1.379   0.265
 8041SOL    HW125022   4.458   1.425   0.329
 8041SOL    HW225023   4.334   1.445   0.225
 8042SOL     OW25024   2.996   3.156   1.504
 8042SOL    HW125025   3.047   3.070   1.498
 8042SOL    HW225026   2.917   3.144   1.564
 8043SOL     OW25027   2.443   6.704   1.847
 8043SOL    HW125028   2.512   6.641   1.881
 8043SOL    HW225029   2.352   6.669   1.870
 8044SOL     OW25030   3.015   3.764   1.665
 8044SOL    HW125031   3.030   3.715   1.752
 8044SOL    HW225032   3.060   3.853   1.669
 8045SOL     OW25033   5.556   2.501   3.002
 8045SOL    HW125034   5.605   2.586   2.980
 8045SOL    HW225035   5.500   2.516   3.083
 8046SOL     OW25036   6.551   5.055   6.074
 8046SOL    HW125037   6.601   4.979   6.034
 8046SOL    HW225038   6.601   5.091   6.152
 8047SOL     OW25039   3.572   6.158   4.600
 8047SOL    HW125040   3.506   6.083   4.592
 8047SOL    HW225041   3.615   6.155   4.690
 8048SOL     OW25042   6.663   0.103   5.410
 8048SOL    HW125043   6.729   0.154   5.355
 8048SOL    HW225044   6.610   0.043   5.350
 8049SOL     OW25045   1.400   6.213   0.642
 8049SOL    HW125046   1.477   6.263   0.602
 8049SOL    HW225047   1.435   6.137   0.696
 8050SOL     OW25048   2.011   2.971   1.165
 8050SOL    HW125049   2.031   3.051   1.109
 8050SOL    HW225050   2.094   2.916   1.175
 8051SOL     OW25051   4.545   0.825   3.728
 8051SOL    HW125052   4.507   0.737   3.697
 8051SOL    HW225053   4.612   0.857   3.661
 8052SOL     OW25054   2.646   1.438   2.791
 8052SOL    HW125055   2.737   1.428   2.831
 8052SOL    HW225056   2.577   1.409   2.858
 8053SOL     OW25057   3.792   3.597   2.483
 8053SOL    HW125058   3.861   3.630   2.547
 8053SOL    HW225059   3.720   3.548   2.533
 8054SOL     OW25060   4.192   6.487   4.913
 8054SOL    HW125061   4.244   6.572   4.923
 8054SOL    HW225062   4.105   6.506   4.866
 8055SOL     OW25063   1.580   6.758   6.336
 8055SOL    HW125064   1.650   6.828   6.342
 8055SOL    HW225065   1.511   6.773   6.406
 8056SOL     OW25066   4.454   1.677   2.891
 8056SOL    HW125067   4.503   1.762   2.873
 8056SOL    HW225068   4.465   1.615   2.813
 8057SOL     OW25069   3.271   6.851   3.187
 8057SOL    HW125070   3.294   6.754   3.199
 8057SOL    HW225071   3.314   6.905   3.260
 8058SOL     OW25072   2.708   1.326   2.513
 8058SOL    HW125073   2.674   1.357   2.601
 8058SOL    HW225074   2.741   1.404   2.460
 8059SOL     OW25075   3.095   1.570   4.025
 8059SOL    HW125076   3.146   1.525   3.952
 8059SOL    HW225077   3.090   1.669   4.007
 8060SOL     OW25078   0.454   1.249   4.263
 8060SOL    HW125079   0.363   1.265   4.227
 8060SOL    HW225080   0.487   1.331   4.309
 8061SOL     OW25081   6.912   5.157   2.272
 8061SOL    HW125082   6.850   5.103   2.330
 8061SOL    HW225083   7.004   5.119   2.277
 8062SOL     OW25084   2.039   4.162   3.287
 8062SOL    HW125085   2.030   4.234   3.218
 8062SOL    HW225086   1.991   4.189   3.371
 8063SOL     OW25087   3.204   3.117   6.781
 8063SOL    HW125088   3.240   3.025   6.762
 8063SOL    HW225089   3.232   3.145   6.873
 8064SOL     OW25090   6.853   3.750   0.064
 8064SOL    HW125091   6.874   3.687   7.000
 8064SOL    HW225092   6.774   3.806   0.040
 8065SOL     OW25093   4.770   0.381   5.254
 8065SOL    HW125094   4.774   0.285   5.226
 8065SOL    HW225095   4.743   0.437   5.175
 8066SOL     OW25096   1.689   0.509   1.548
 8066SOL    HW125097   1.601   0.543   1.515
 8066SOL    HW225098   1.761   0.534   1.483
 8067SOL     OW25099   4.918   2.541   2.406
 8067SOL    HW125100   4.980   2.515   2.332
 8067SOL    HW225101   4.893   2.459   2.458
 8068SOL     OW25102   1.144   4.399   4.526
 8068SOL    HW125103   1.061   4.343   4.519
 8068SOL    HW225104   1.122   4.486   4.571
 8069SOL     OW25105   1.277   6.718   1.720
 8069SOL    HW125106   1.220   6.777   1.777
 8069SOL    HW225107   1.371   6.751   1.721
 8070SOL     OW25108   3.847   6.839   1.177
 8070SOL    HW125109   3.916   6.858   1.107
 8070SOL    HW225110   3.800   6.924   1.201
 8071SOL     OW25111   3.912   6.161   6.835
 8071SOL    HW125112   3.989   6.200   6.885
 8071SOL    HW225113   3.849   6.118   6.900
 8072SOL     OW25114   5.431   1.189   0.533
 8072SOL    HW125115   5.506   1.254   0.523
 8072SOL    HW225116   5.349   1.225   0.489
 8073SOL     OW25117   4.021   6.266   5.800
 8073SOL    HW125118   3.963   6.335   5.757
 8073SOL    HW225119   3.964   6.193   5.838
 8074SOL     OW25120   3.466   3.691   0.046
 8074SOL    HW125121   3.426   3.622   0.106
 8074SOL    HW225122   3.517   3.757   0.101
 8075SOL     OW25123   0.334   1.761   3.233
 8075SOL    HW125124   0.303   1.833   3.172
 8075SOL    HW225125   0.255   1.711   3.269
 8076SOL     OW25126   6.160   2.954   5.998
 8076SOL    HW125127   6.074   2.955   6.048
 8076SOL    HW225128   6.143   2.961   5.900
 8077SOL     OW25129   1.730   0.354   1.122
 8077SOL    HW125130   1.727   0.373   1.024
 8077SOL    HW225131   1.638   0.356   1.160
 8078SOL     OW25132   6.185   3.090   0.749
 8078SOL    HW125133   6.133   3.019   0.702
 8078SOL    HW225134   6.278   3.092   0.712
 8079SOL     OW25135   6.444   2.195   2.533
 8079SOL    HW125136   6.390   2.251   2.595
 8079SOL    HW225137   6.407   2.102   2.531
 8080SOL     OW25138   3.428   4.893   0.105
 8080SOL    HW125139   3.393   4.970   0.159
 8080SOL    HW225140   3.427   4.917   0.008
 8081SOL     OW25141   5.977   0.849   5.184
 8081SOL    HW125142   6.018   0.872   5.272
 8081SOL    HW225143   5.881   0.877   5.183
 8082SOL     OW25144   6.959   2.765   3.858
 8082SOL    HW125145   6.875   2.723   3.892
 8082SOL    HW225146   0.026   2.718   3.897
 8083SOL     OW25147   4.646   2.370   4.307
 8083SOL    HW125148   4.673   2.279   4.276
 8083SOL    HW225149   4.662   2.378   4.405
 8084SOL     OW25150   6.894   0.469   1.380
 8084SOL    HW125151   6.924   0.554   1.338
 8084SOL    HW225152   6.897   0.395   1.313
 8085SOL     OW25153   5.463   1.236   1.303
 8085SOL    HW125154   5.483   1.224   1.400
 8085SOL    HW225155   5.547   1.262   1.255
 8086SOL     OW25156   3.417   0.149   5.386
 8086SOL    HW125157   3.454   0.161   5.478
 8086SOL    HW225158   3.462   0.072   5.342
 8087SOL     OW25159   2.807   2.479   1.421
 8087SOL    HW125160   2.795   2.532   1.337
 8087SOL    HW225161   2.895   2.501   1.462
 8088SOL     OW25162   4.352   1.135   2.768
 8088SOL    HW125163   4.433   1.186   2.794
 8088SOL    HW225164   4.272   1.170   2.817
 8089SOL     OW25165   6.213   3.128   7.011
 8089SOL    HW125166   6.296   3.139   6.958
 8089SOL    HW225167   6.144   3.194   6.980
 8090SOL     OW25168   4.225   2.058   5.491
 8090SOL    HW125169   4.282   2.127   5.447
 8090SOL    HW225170   4.253   1.967   5.460
 8091SOL     OW25171   3.087   4.696   5.722
 8091SOL    HW125172   3.038   4.705   5.635
 8091SOL    HW225173   3.182   4.723   5.709
 8092SOL     OW25174   1.594   1.625   4.620
 8092SOL    HW125175   1.647   1.552   4.663
 8092SOL    HW225176   1.600   1.616   4.520
 8093SOL     OW25177   5.690   6.080   1.312
 8093SOL    HW125178   5.653   6.057   1.402
 8093SOL    HW225179   5.775   6.132   1.322
 8094SOL     OW25180   0.993   3.922   5.739
 8094SOL    HW125181   0.943   3.851   5.690
 8094SOL    HW225182   1.007   4.001   5.679
 8095SOL     OW25183   5.296   3.682   3.990
 8095SOL    HW125184   5.262   3.718   4.077
 8095SOL    HW225185   5.242   3.601   3.964
 8096SOL     OW25186   3.520   6.175   1.741
 8096SOL    HW125187   3.477   6.260   1.709
 8096SOL    HW225188   3.505   6.103   1.673
 8097SOL     OW25189   5.099   1.103   3.652
 8097SOL    HW125190   5.005   1.134   3.645
 8097SOL    HW225191   5.103   1.004   3.636
 8098SOL     OW25192   2.772   6.741   3.767
 8098SOL    HW125193   2.674   6.756   3.754
 8098SOL    HW225194   2.818   6.828   3.784
 8099SOL     OW25195   4.817   6.538   4.854
 8099SOL    HW125196   4.897   6.478   4.846
 8099SOL    HW225197   4.740   6.497   4.805
 8100SOL     OW25198   0.319   6.564   1.045
 8100SOL    HW125199   0.375   6.581   1.126
 8100SOL    HW225200   0.313   6.648   0.991
 8101SOL     OW25201   1.419   6.044   3.221
 8101SOL    HW125202   1.455   6.136   3.209
 8101SOL    HW225203   1.475   5.979   3.168
 8102SOL     OW25204   6.922   5.985   5.886
 8102SOL    HW125205   6.930   6.045   5.966
 8102SOL    HW225206   7.007   5.933   5.875
 8103SOL     OW25207   3.294   1.244   2.536
 8103SOL    HW125208   3.387   1.218   2.510
 8103SOL    HW225209   3.297   1.326   2.592
 8104SOL     OW25210   2.671   6.752   6.451
 8104SOL    HW125211   2.637   6.672   6.501
 8104SOL    HW225212   2.706   6.724   6.362
 8105SOL     OW25213   2.320   2.249   3.305
 8105SOL    HW125214   2.310   2.250   3.206
 8105SOL    HW225215   2.265   2.175   3.344
 8106SOL     OW25216   1.312   4.203   4.359
 8106SOL    HW125217   1.245   4.255   4.412
 8106SOL    HW225218   1.364   4.266   4.301
 8107SOL     OW25219   2.060   6.297   6.259
 8107SOL    HW125220   2.050   6.287   6.358
 8107SOL    HW225221   1.987   6.245   6.214
 8108SOL     OW25222   0.720   2.897   3.959
 8108SOL    HW125223   0.635   2.888   4.012
 8108SOL    HW225224   0.701   2.943   3.873
 8109SOL     OW25225   1.629   5.278   4.991
 8109SOL    HW125226   1.633   5.178   4.998
 8109SOL    HW225227   1.715   5.317   5.023
 8110SOL     OW25228   2.151   5.231   0.669
 8110SOL    HW125229   2.057   5.232   0.703
 8110SOL    HW225230   2.197   5.147   0.700
 8111SOL     OW25231   2.662   5.396   4.055
 8111SOL    HW125232   2.592   5.340   4.099
 8111SOL    HW225233   2.684   5.474   4.113
 8112SOL     OW25234   2.962   0.900   4.723
 8112SOL    HW125235   2.922   0.841   4.793
 8112SOL    HW225236   2.954   0.856   4.634
 8113SOL     OW25237   3.595   2.447   6.039
 8113SOL    HW125238   3.500   2.463   6.065
 8113SOL    HW225239   3.651   2.437   6.121
 8114SOL     OW25240   2.568   3.070   1.703
 8114SOL    HW125241   2.531   3.156   1.739
 8114SOL    HW225242   2.495   3.002   1.698
 8115SOL     OW25243   3.635   0.932   1.122
 8115SOL    HW125244   3.589   0.962   1.038
 8115SOL    HW225245   3.694   1.006   1.156
 8116SOL     OW25246   6.061   0.591   5.381
 8116SOL    HW125247   6.073   0.493   5.362
 8116SOL    HW225248   6.089   0.644   5.301
 8117SOL     OW25249   1.620   1.703   5.687
 8117SOL    HW125250   1.527   1.688   5.654
 8117SOL    HW225251   1.676   1.739   5.612
 8118SOL     OW25252   0.984   3.621   4.861
 8118SOL    HW125253   1.062   3.683   4.861
 8118SOL    HW225254   0.962   3.595   4.955
 8119SOL     OW25255   0.810   6.328   2.303
 8119SOL    HW125256   0.888   6.302   2.360
 8119SOL    HW225257   0.841   6.381   2.225
 8120SOL     OW25258   4.329   3.983   1.723
 8120SOL    HW125259   4.409   3.934   1.689
 8120SOL    HW225260   4.359   4.055   1.786
 8121SOL     OW25261   5.846   0.570   2.806
 8121SOL    HW125262   5.765   0.513   2.821
 8121SOL    HW225263   5.905   0.527   2.739
 8122SOL     OW25264   6.788   6.290   2.475
 8122SOL    HW125265   6.729   6.209   2.465
 8122SOL    HW225266   6.747   6.351   2.543
 8123SOL     OW25267   1.146   6.473   6.871
 8123SOL    HW125268   1.219   6.493   6.806
 8123SOL    HW225269   1.059   6.467   6.823
 8124SOL     OW25270   0.547   5.699   2.534
 8124SOL    HW125271   0.519   5.777   2.591
 8124SOL    HW225272   0.643   5.712   2.506
 8125SOL     OW25273   5.411   5.088   3.245
 8125SOL    HW125274   5.483   5.103   3.178
 8125SOL    HW225275   5.381   5.176   3.282
 8126SOL     OW25276   5.473   4.792   2.195
 8126SOL    HW125277   5.412   4.727   2.149
 8126SOL    HW225278   5.546   4.741   2.241
 8127SOL     OW25279   2.449   4.776   0.323
 8127SOL    HW125280   2.533   4.830   0.327
 8127SOL    HW225281   2.397   4.802   0.241
 8128SOL     OW25282   4.002   2.302   5.298
 8128SOL    HW125283   4.033   2.253   5.216
 8128SOL    HW225284   4.026   2.399   5.289
 8129SOL     OW25285   4.884   0.310   6.496
 8129SOL    HW125286   4.953   0.359   6.549
 8129SOL    HW225287   4.802   0.297   6.552
 8130SOL     OW25288   2.129   6.406   7.004
 8130SOL    HW125289   2.128   6.462   0.075
 8130SOL    HW225290   2.167   6.316   0.013
 8131SOL     OW25291   2.131   1.300   0.528
 8131SOL    HW125292   2.152   1.349   0.613
 8131SOL    HW225293   2.075   1.359   0.469
 8132SOL     OW25294   6.381   4.880   3.793
 8132SOL    HW125295   6.339   4.807   3.847
 8132SOL    HW225296   6.337   4.967   3.814
 8133SOL     OW25297   0.892   5.681   1.756
 8133SOL    HW125298   0.890   5.617   1.679
 8133SOL    HW225299   0.985   5.715   1.768
 8134SOL     OW25300   2.086   2.347   2.619
 8134SOL    HW125301   2.136   2.285   2.558
 8134SOL    HW225302   2.022   2.402   2.567
 8135SOL     OW25303   4.448   5.756   2.064
 8135SOL    HW125304   4.394   5.797   2.138
 8135SOL    HW225305   4.513   5.824   2.029
 8136SOL     OW25306   4.463   5.477   1.223
 8136SOL    HW125307   4.394   5.548   1.209
 8136SOL    HW225308   4.483   5.469   1.320
 8137SOL     OW25309   2.304   3.995   5.386
 8137SOL    HW125310   2.224   3.935   5.381
 8137SOL    HW225311   2.368   3.972   5.312
 8138SOL     OW25312   4.821   1.151   3.599
 8138SOL    HW125313   4.829   1.197   3.510
 8138SOL    HW225314   4.763   1.070   3.588
 8139SOL     OW25315   1.952   2.605   3.795
 8139SOL    HW125316   1.873   2.619   3.736
 8139SOL    HW225317   1.949   2.514   3.835
 8140SOL     OW25318   4.224   0.275   0.795
 8140SOL    HW125319   4.280   0.353   0.824
 8140SOL    HW225320   4.128   0.299   0.803
 8141SOL     OW25321   4.575   1.141   4.987
 8141SOL    HW125322   4.611   1.101   4.903
 8141SOL    HW225323   4.647   1.191   5.034
 8142SOL     OW25324   1.920   5.952   0.827
 8142SOL    HW125325   1.940   6.050   0.831
 8142SOL    HW225326   2.005   5.900   0.836
 8143SOL     OW25327   6.385   4.765   0.287
 8143SOL    HW125328   6.472   4.759   0.239
 8143SOL    HW225329   6.384   4.845   0.346
 8144SOL     OW25330   6.881   4.952   6.635
 8144SOL    HW125331   6.820   4.918   6.563
 8144SOL    HW225332   6.924   4.874   6.682
 8145SOL     OW25333   5.452   5.740   6.820
 8145SOL    HW125334   5.474   5.643   6.830
 8145SOL    HW225335   5.378   5.750   6.753
 8146SOL     OW25336   6.075   0.531   4.454
 8146SOL    HW125337   6.023   0.567   4.376
 8146SOL    HW225338   6.046   0.437   4.472
 8147SOL     OW25339   1.643   0.756   5.962
 8147SOL    HW125340   1.698   0.673   5.969
 8147SOL    HW225341   1.572   0.743   5.892
 8148SOL     OW25342   4.528   4.740   0.093
 8148SOL    HW125343   4.516   4.683   0.011
 8148SOL    HW225344   4.479   4.826   0.080
 8149SOL     OW25345   1.147   5.879   5.233
 8149SOL    HW125346   1.209   5.942   5.186
 8149SOL    HW225347   1.199   5.827   5.302
 8150SOL     OW25348   0.442   3.119   1.127
 8150SOL    HW125349   0.486   3.110   1.217
 8150SOL    HW225350   0.415   3.214   1.113
 8151SOL     OW25351   6.422   5.541   3.328
 8151SOL    HW125352   6.455   5.452   3.359
 8151SOL    HW225353   6.466   5.564   3.241
 8152SOL     OW25354   4.921   1.531   3.679
 8152SOL    HW125355   4.991   1.569   3.741
 8152SOL    HW225356   4.962   1.513   3.590
 8153SOL     OW25357   0.442   1.181   2.963
 8153SOL    HW125358   0.375   1.244   3.003
 8153SOL    HW225359   0.402   1.090   2.955
 8154SOL     OW25360   1.804   0.597   3.205
 8154SOL    HW125361   1.772   0.513   3.249
 8154SOL    HW225362   1.738   0.627   3.137
 8155SOL     OW25363   1.771   5.555   2.354
 8155SOL    HW125364   1.806   5.479   2.299
 8155SOL    HW225365   1.725   5.518   2.435
 8156SOL     OW25366   6.822   5.347   1.407
 8156SOL    HW125367   6.895   5.341   1.475
 8156SOL    HW225368   6.824   5.438   1.365
 8157SOL     OW25369   0.178   3.114   5.531
 8157SOL    HW125370   0.240   3.166   5.590
 8157SOL    HW225371   0.217   3.107   5.439
 8158SOL     OW25372   5.731   5.294   6.538
 8158SOL    HW125373   5.781   5.374   6.572
 8158SOL    HW225374   5.697   5.313   6.446
 8159SOL     OW25375   3.282   6.269   5.571
 8159SOL    HW125376   3.190   6.247   5.541
 8159SOL    HW225377   3.291   6.368   5.582
 8160SOL     OW25378   4.970   1.145   3.302
 8160SOL    HW125379   5.051   1.203   3.292
 8160SOL    HW225380   4.997   1.049   3.292
 8161SOL     OW25381   5.594   3.049   1.523
 8161SOL    HW125382   5.584   3.125   1.460
 8161SOL    HW225383   5.564   3.077   1.614
 8162SOL     OW25384   7.009   5.468   6.140
 8162SOL    HW125385   0.033   5.484   6.232
 8162SOL    HW225386   6.949   5.388   6.141
 8163SOL     OW25387   4.366   4.711   5.449
 8163SOL    HW125388   4.329   4.635   5.503
 8163SOL    HW225389   4.440   4.754   5.500
 8164SOL     OW25390   4.734   1.683   0.560
 8164SOL    HW125391   4.777   1.726   0.481
 8164SOL    HW225392   4.726   1.750   0.634
 8165SOL     OW25393   6.810   1.448   6.644
 8165SOL    HW125394   6.883   1.512   6.619
 8165SOL    HW225395   6.808   1.373   6.579
 8166SOL     OW25396   1.974   2.006   4.890
 8166SOL    HW125397   1.976   1.950   4.973
 8166SOL    HW225398   1.895   2.068   4.893
 8167SOL     OW25399   0.974   2.671   4.470
 8167SOL    HW125400   0.878   2.654   4.450
 8167SOL    HW225401   1.030   2.632   4.396
 8168SOL     OW25402   2.691   1.057   2.115
 8168SOL    HW125403   2.746   1.060   2.198
 8168SOL    HW225404   2.603   1.102   2.133
 8169SOL     OW25405   5.434   2.357   0.603
 8169SOL    HW125406   5.514   2.301   0.581
 8169SOL    HW225407   5.450   2.451   0.573
 8170SOL     OW25408   6.192   4.984   2.391
 8170SOL    HW125409   6.226   4.932   2.469
 8170SOL    HW225410   6.196   5.082   2.413
 8171SOL     OW25411   1.987   0.967   0.920
 8171SOL    HW125412   2.040   0.981   1.004
 8171SOL    HW225413   1.897   1.009   0.930
 8172SOL     OW25414   0.690   2.712   1.047
 8172SOL    HW125415   0.604   2.700   1.098
 8172SOL    HW225416   0.766   2.682   1.103
 8173SOL     OW25417   5.990   1.253   2.306
 8173SOL    HW125418   5.960   1.244   2.211
 8173SOL    HW225419   6.048   1.175   2.330
 8174SOL     OW25420   2.605   5.133   2.682
 8174SOL    HW125421   2.573   5.065   2.747
 8174SOL    HW225422   2.580   5.225   2.715
 8175SOL     OW25423   0.527   1.530   4.917
 8175SOL    HW125424   0.608   1.538   4.975
 8175SOL    HW225425   0.463   1.465   4.959
 8176SOL     OW25426   2.632   4.214   0.531
 8176SOL    HW125427   2.571   4.191   0.455
 8176SOL    HW225428   2.706   4.273   0.498
 8177SOL     OW25429   3.810   1.028   3.154
 8177SOL    HW125430   3.778   1.101   3.214
 8177SOL    HW225431   3.871   0.967   3.205
 8178SOL     OW25432   2.340   6.605   1.259
 8178SOL    HW125433   2.267   6.674   1.259
 8178SOL    HW225434   2.382   6.600   1.169
 8179SOL     OW25435   5.703   1.160   3.618
 8179SOL    HW125436   5.707   1.064   3.646
 8179SOL    HW225437   5.618   1.175   3.566
 8180SOL     OW25438   4.875   6.531   6.965
 8180SOL    HW125439   4.839   6.586   0.028
 8180SOL    HW225440   4.955   6.480   6.997
 8181SOL     OW25441   0.810   1.068   0.491
 8181SOL    HW125442   0.727   1.013   0.506
 8181SOL    HW225443   0.806   1.109   0.400
 8182SOL     OW25444   2.902   3.472   4.905
 8182SOL    HW125445   2.811   3.447   4.939
 8182SOL    HW225446   2.924   3.564   4.936
 8183SOL     OW25447   0.327   0.218   4.943
 8183SOL    HW125448   0.317   0.211   5.043
 8183SOL    HW225449   0.347   0.313   4.918
 8184SOL     OW25450   6.987   6.009   6.714
 8184SOL    HW125451   6.945   5.943   6.651
 8184SOL    HW225452   0.052   6.055   6.669
 8185SOL     OW25453   0.850   6.349   6.966
 8185SOL    HW125454   0.794   6.402   0.018
 8185SOL    HW225455   0.936   6.324   7.010
 8186SOL     OW25456   1.189   5.538   6.754
 8186SOL    HW125457   1.224   5.554   6.662
 8186SOL    HW225458   1.129   5.614   6.781
 8187SOL     OW25459   0.504   0.798   5.772
 8187SOL    HW125460   0.500   0.785   5.673
 8187SOL    HW225461   0.465   0.718   5.818
 8188SOL     OW25462   2.364   2.604   3.398
 8188SOL    HW125463   2.453   2.560   3.390
 8188SOL    HW225464   2.293   2.534   3.405
 8189SOL     OW25465   5.459   4.821   3.815
 8189SOL    HW125466   5.503   4.731   3.820
 8189SOL    HW225467   5.388   4.819   3.744
 8190SOL     OW25468   6.185   3.522   3.469
 8190SOL    HW125469   6.281   3.512   3.495
 8190SOL    HW225470   6.154   3.441   3.420
 8191SOL     OW25471   3.438   5.572   0.804
 8191SOL    HW125472   3.443   5.474   0.784
 8191SOL    HW225473   3.421   5.585   0.902
 8192SOL     OW25474   1.119   4.896   3.691
 8192SOL    HW125475   1.205   4.853   3.717
 8192SOL    HW225476   1.043   4.846   3.732
 8193SOL     OW25477   0.685   4.392   4.705
 8193SOL    HW125478   0.692   4.390   4.804
 8193SOL    HW225479   0.765   4.347   4.665
 8194SOL     OW25480   5.031   6.228   1.634
 8194SOL    HW125481   4.955   6.177   1.675
 8194SOL    HW225482   5.086   6.271   1.706
 8195SOL     OW25483   5.509   6.338   3.046
 8195SOL    HW125484   5.425   6.363   2.997
 8195SOL    HW225485   5.488   6.321   3.142
 8196SOL     OW25486   5.185   0.721   0.490
 8196SOL    HW125487   5.156   0.632   0.524
 8196SOL    HW225488   5.128   0.793   0.529
 8197SOL     OW25489   4.644   1.625   2.591
 8197SOL    HW125490   4.566   1.597   2.647
 8197SOL    HW225491   4.630   1.593   2.497
 8198SOL     OW25492   1.367   0.416   2.764
 8198SOL    HW125493   1.405   0.343   2.822
 8198SOL    HW225494   1.268   0.418   2.774
 8199SOL     OW25495   5.263   2.959   5.943
 8199SOL    HW125496   5.335   2.997   5.885
 8199SOL    HW225497   5.275   2.860   5.949
 8200SOL     OW25498   4.228   2.723   1.141
 8200SOL    HW125499   4.304   2.662   1.120
 8200SOL    HW225500   4.209   2.781   1.061
 8201SOL     OW25501   6.637   6.716   5.383
 8201SOL    HW125502   6.605   6.630   5.343
 8201SOL    HW225503   6.711   6.698   5.447
 8202SOL     OW25504   0.589   6.241   1.860
 8202SOL    HW125505   0.622   6.208   1.948
 8202SOL    HW225506   0.665   6.251   1.796
 8203SOL     OW25507   1.048   3.492   1.314
 8203SOL    HW125508   1.067   3.488   1.412
 8203SOL    HW225509   0.973   3.430   1.292
 8204SOL     OW25510   3.437   2.944   0.927
 8204SOL    HW125511   3.403   2.881   0.997
 8204SOL    HW225512   3.475   2.892   0.851
 8205SOL     OW25513   1.326   3.782   0.996
 8205SOL    HW125514   1.323   3.682   0.983
 8205SOL    HW225515   1.421   3.809   1.014
 8206SOL     OW25516   3.670   0.645   6.925
 8206SOL    HW125517   3.685   0.732   6.972
 8206SOL    HW225518   3.599   0.657   6.856
 8207SOL     OW25519   3.898   2.996   4.873
 8207SOL    HW125520   3.987   2.961   4.905
 8207SOL    HW225521   3.890   2.979   4.775
 8208SOL     OW25522   2.079   0.747   0.760
 8208SOL    HW125523   2.045   0.826   0.811
 8208SOL    HW225524   2.040   0.664   0.798
 8209SOL     OW25525   6.410   1.172   5.453
 8209SOL    HW125526   6.399   1.204   5.547
 8209SOL    HW225527   6.447   1.079   5.454
 8210SOL     OW25528   1.433   2.918   6.875
 8210SOL    HW125529   1.429   2.927   6.974
 8210SOL    HW225530   1.459   3.005   6.834
 8211SOL     OW25531   3.292   4.564   0.902
 8211SOL    HW125532   3.330   4.533   0.989
 8211SOL    HW225533   3.247   4.652   0.914
 8212SOL     OW25534   1.508   2.571   3.383
 8212SOL    HW125535   1.595   2.537   3.418
 8212SOL    HW225536   1.517   2.669   3.361
 8213SOL     OW25537   0.145   5.441   1.420
 8213SOL    HW125538   0.216   5.442   1.350
 8213SOL    HW225539   0.158   5.361   1.479
 8214SOL     OW25540   5.161   4.467   3.290
 8214SOL    HW125541   5.117   4.545   3.245
 8214SOL    HW225542   5.091   4.414   3.338
 8215SOL     OW25543   3.319   5.305   4.522
 8215SOL    HW125544   3.330   5.224   4.580
 8215SOL    HW225545   3.222   5.326   4.512
 8216SOL     OW25546   4.403   4.589   3.756
 8216SOL    HW125547   4.330   4.575   3.823
 8216SOL    HW225548   4.463   4.509   3.754
 8217SOL     OW25549   2.380   6.251   0.374
 8217SOL    HW125550   2.308   6.222   0.437
 8217SOL    HW225551   2.470   6.231   0.413
 8218SOL     OW25552   0.614   1.365   6.906
 8218SOL    HW125553   0.560   1.281   6.894
 8218SOL    HW225554   0.673   1.378   6.826
 8219SOL     OW25555   6.091   1.954   6.347
 8219SOL    HW125556   6.184   1.939   6.312
 8219SOL    HW225557   6.096   1.977   6.444
 8220SOL     OW25558   3.471   3.257   3.052
 8220SOL    HW125559   3.462   3.334   2.988
 8220SOL    HW225560   3.528   3.285   3.129
 8221SOL     OW25561   5.132   5.704   3.492
 8221SOL    HW125562   5.199   5.664   3.429
 8221SOL    HW225563   5.076   5.771   3.442
 8222SOL     OW25564   5.497   1.570   2.234
 8222SOL    HW125565   5.461   1.540   2.322
 8222SOL    HW225566   5.588   1.610   2.247
 8223SOL     OW25567   0.423   4.820   5.979
 8223SOL    HW125568   0.405   4.731   5.936
 8223SOL    HW225569   0.340   4.851   6.026
 8224SOL     OW25570   1.183   2.789   3.953
 8224SOL    HW125571   1.181   2.690   3.942
 8224SOL    HW225572   1.249   2.829   3.889
 8225SOL     OW25573   4.580   1.554   7.006
 8225SOL    HW125574   4.676   1.583   6.997
 8225SOL    HW225575   4.576   1.470   0.048
 8226SOL     OW25576   5.119   0.817   0.844
 8226SOL    HW125577   5.105   0.882   0.770
 8226SOL    HW225578   5.031   0.792   0.884
 8227SOL     OW25579   6.511   2.826   3.430
 8227SOL    HW125580   6.584   2.783   3.377
 8227SOL    HW225581   6.436   2.851   3.369
 8228SOL     OW25582   6.512   2.959   5.117
 8228SOL    HW125583   6.449   3.022   5.162
 8228SOL    HW225584   6.601   3.002   5.108
 8229SOL     OW25585   3.611   5.170   0.069
 8229SOL    HW125586   3.606   5.071   0.061
 8229SOL    HW225587   3.641   5.195   0.161
 8230SOL     OW25588   5.614   0.436   4.603
 8230SOL    HW125589   5.519   0.467   4.605
 8230SOL    HW225590   5.619   0.340   4.629
 8231SOL     OW25591   5.325   5.714   0.533
 8231SOL    HW125592   5.292   5.729   0.627
 8231SOL    HW225593   5.332   5.616   0.516
 8232SOL     OW25594   3.903   1.778   6.740
 8232SOL    HW125595   3.921   1.828   6.655
 8232SOL    HW225596   3.831   1.824   6.791
 8233SOL     OW25597   0.552   5.323   6.085
 8233SOL    HW125598   0.453   5.337   6.080
 8233SOL    HW225599   0.574   5.278   6.171
 8234SOL     OW25600   3.110   2.506   6.900
 8234SOL    HW125601   3.135   2.482   6.994
 8234SOL    HW225602   3.126   2.603   6.885
 8235SOL     OW25603   4.398   3.571   1.375
 8235SOL    HW125604   4.383   3.563   1.473
 8235SOL    HW225605   4.327   3.629   1.335
 8236SOL     OW25606   6.479   2.871   0.043
 8236SOL    HW125607   6.500   2.818   6.972
 8236SOL    HW225608   6.489   2.969   0.023
 8237SOL     OW25609   3.832   6.006   5.582
 8237SOL    HW125610   3.812   6.053   5.495
 8237SOL    HW225611   3.820   5.908   5.570
 8238SOL     OW25612   1.691   2.916   6.563
 8238SOL    HW125613   1.630   2.942   6.489
 8238SOL    HW225614   1.702   2.817   6.564
 8239SOL     OW25615   0.035   1.310   5.740
 8239SOL    HW125616   0.050   1.404   5.772
 8239SOL    HW225617   6.967   1.308   5.679
 8240SOL     OW25618   3.705   4.108   2.979
 8240SOL    HW125619   3.721   4.206   2.970
 8240SOL    HW225620   3.696   4.068   2.888
 8241SOL     OW25621   3.559   6.784   0.230
 8241SOL    HW125622   3.462   6.794   0.209
 8241SOL    HW225623   3.612   6.783   0.144
 8242SOL     OW25624   0.891   4.707   5.581
 8242SOL    HW125625   0.882   4.687   5.484
 8242SOL    HW225626   0.811   4.759   5.612
 8243SOL     OW25627   0.565   3.221   5.526
 8243SOL    HW125628   0.625   3.186   5.598
 8243SOL    HW225629   0.535   3.145   5.467
 8244SOL     OW25630   0.634   6.397   3.907
 8244SOL    HW125631   0.651   6.300   3.893
 8244SOL    HW225632   0.643   6.419   4.004
 8245SOL     OW25633   4.259   2.056   1.238
 8245SOL    HW125634   4.265   2.114   1.319
 8245SOL    HW225635   4.321   2.090   1.168
 8246SOL     OW25636   5.550   3.227   6.217
 8246SOL    HW125637   5.461   3.207   6.176
 8246SOL    HW225638   5.572   3.324   6.205
 8247SOL     OW25639   0.669   0.122   1.554
 8247SOL    HW125640   0.669   0.173   1.639
 8247SOL    HW225641   0.754   0.068   1.548
 8248SOL     OW25642   5.467   4.366   3.793
 8248SOL    HW125643   5.475   4.293   3.860
 8248SOL    HW225644   5.385   4.352   3.738
 8249SOL     OW25645   1.547   4.613   3.859
 8249SOL    HW125646   1.601   4.697   3.865
 8249SOL    HW225647   1.509   4.592   3.950
 8250SOL     OW25648   4.081   3.596   2.924
 8250SOL    HW125649   4.098   3.596   2.825
 8250SOL    HW225650   4.045   3.685   2.952
 8251SOL     OW25651   5.645   1.598   4.982
 8251SOL    HW125652   5.602   1.512   5.009
 8251SOL    HW225653   5.704   1.582   4.903
 8252SOL     OW25654   1.898   2.596   5.698
 8252SOL    HW125655   1.956   2.522   5.733
 8252SOL    HW225656   1.956   2.666   5.655
 8253SOL     OW25657   3.313   2.864   5.219
 8253SOL    HW125658   3.305   2.767   5.242
 8253SOL    HW225659   3.248   2.887   5.146
 8254SOL     OW25660   4.090   4.815   3.808
 8254SOL    HW125661   4.166   4.805   3.872
 8254SOL    HW225662   4.007   4.837   3.858
 8255SOL     OW25663   4.360   5.751   4.148
 8255SOL    HW125664   4.262   5.729   4.149
 8255SOL    HW225665   4.398   5.735   4.239
 8256SOL     OW25666   5.997   1.577   4.457
 8256SOL    HW125667   6.044   1.663   4.435
 8256SOL    HW225668   6.045   1.531   4.532
 8257SOL     OW25669   5.408   4.865   3.377
 8257SOL    HW125670   5.430   4.949   3.328
 8257SOL    HW225671   5.491   4.812   3.394
 8258SOL     OW25672   3.908   1.509   0.320
 8258SOL    HW125673   3.808   1.509   0.324
 8258SOL    HW225674   3.943   1.592   0.363
 8259SOL     OW25675   3.640   2.099   3.407
 8259SOL    HW125676   3.542   2.117   3.407
 8259SOL    HW225677   3.681   2.139   3.489
 8260SOL     OW25678   2.911   6.678   0.619
 8260SOL    HW125679   2.823   6.665   0.572
 8260SOL    HW225680   2.896   6.684   0.717
 8261SOL     OW25681   5.424   1.244   1.661
 8261SOL    HW125682   5.387   1.151   1.671
 8261SOL    HW225683   5.523   1.242   1.679
 8262SOL     OW25684   0.996   3.070   1.782
 8262SOL    HW125685   0.968   3.152   1.832
 8262SOL    HW225686   1.062   3.095   1.712
 8263SOL     OW25687   6.389   1.379   1.138
 8263SOL    HW125688   6.467   1.404   1.081
 8263SOL    HW225689   6.420   1.331   1.219
 8264SOL     OW25690   1.526   5.482   2.722
 8264SOL    HW125691   1.584   5.467   2.801
 8264SOL    HW225692   1.582   5.486   2.639
 8265SOL     OW25693   1.735   0.336   1.954
 8265SOL    HW125694   1.771   0.350   2.046
 8265SOL    HW225695   1.675   0.412   1.929
 8266SOL     OW25696   3.316   6.665   2.422
 8266SOL    HW125697   3.253   6.636   2.350
 8266SOL    HW225698   3.333   6.763   2.414
 8267SOL     OW25699   1.554   3.321   1.337
 8267SOL    HW125700   1.549   3.246   1.272
 8267SOL    HW225701   1.519   3.405   1.294
 8268SOL     OW25702   2.075   6.756   5.898
 8268SOL    HW125703   2.156   6.725   5.949
 8268SOL    HW225704   2.028   6.827   5.950
 8269SOL     OW25705   5.686   1.346   1.176
 8269SOL    HW125706   5.754   1.281   1.142
 8269SOL    HW225707   5.731   1.433   1.198
 8270SOL     OW25708   3.331   6.288   3.888
 8270SOL    HW125709   3.406   6.319   3.945
 8270SOL    HW225710   3.249   6.342   3.908
 8271SOL     OW25711   0.114   1.556   3.215
 8271SOL    HW125712   0.083   1.560   3.310
 8271SOL    HW225713   0.173   1.476   3.202
 8272SOL     OW25714   4.075   1.056   2.528
 8272SOL    HW125715   4.013   1.007   2.468
 8272SOL    HW225716   4.052   1.154   2.528
 8273SOL     OW25717   3.079   6.950   0.862
 8273SOL    HW125718   3.175   6.950   0.833
 8273SOL    HW225719   3.038   6.861   0.843
 8274SOL     OW25720   4.825   5.294   2.997
 8274SOL    HW125721   4.790   5.241   2.919
 8274SOL    HW225722   4.902   5.350   2.968
 8275SOL     OW25723   4.802   2.139   6.144
 8275SOL    HW125724   4.854   2.071   6.197
 8275SOL    HW225725   4.858   2.171   6.067
 8276SOL     OW25726   1.081   2.078   4.332
 8276SOL    HW125727   1.020   2.136   4.386
 8276SOL    HW225728   1.026   2.018   4.273
 8277SOL     OW25729   6.872   0.037   6.469
 8277SOL    HW125730   6.943   6.982   6.494
 8277SOL    HW225731   6.789   6.999   6.443
 8278SOL     OW25732   2.583   1.897   0.228
 8278SOL    HW125733   2.526   1.840   0.168
 8278SOL    HW225734   2.639   1.839   0.286
 8279SOL     OW25735   0.616   6.362   4.536
 8279SOL    HW125736   0.705   6.365   4.492
 8279SOL    HW225737   0.547   6.335   4.469
 8280SOL     OW25738   3.286   2.721   6.061
 8280SOL    HW125739   3.351   2.796   6.058
 8280SOL    HW225740   3.318   2.646   6.003
 8281SOL     OW25741   0.295   6.127   1.614
 8281SOL    HW125742   0.377   6.108   1.669
 8281SOL    HW225743   0.230   6.052   1.625
 8282SOL     OW25744   5.253   2.758   6.389
 8282SOL    HW125745   5.325   2.826   6.376
 8282SOL    HW225746   5.292   2.673   6.425
 8283SOL     OW25747   1.376   3.760   6.180
 8283SOL    HW125748   1.285   3.779   6.144
 8283SOL    HW225749   1.431   3.844   6.178
 8284SOL     OW25750   6.695   4.437   2.283
 8284SOL    HW125751   6.774   4.464   2.229
 8284SOL    HW225752   6.620   4.502   2.268
 8285SOL     OW25753   4.070   3.317   5.134
 8285SOL    HW125754   4.016   3.400   5.148
 8285SOL    HW225755   4.098   3.280   5.223
 8286SOL     OW25756   6.545   2.346   6.150
 8286SOL    HW125757   6.476   2.350   6.078
 8286SOL    HW225758   6.615   2.415   6.133
 8287SOL     OW25759   0.988   5.748   4.539
 8287SOL    HW125760   1.006   5.796   4.453
 8287SOL    HW225761   1.069   5.755   4.598
 8288SOL     OW25762   2.146   2.916   2.604
 8288SOL    HW125763   2.201   2.933   2.686
 8288SOL    HW225764   2.049   2.927   2.627
 8289SOL     OW25765   0.975   0.468   0.813
 8289SOL    HW125766   1.069   0.434   0.810
 8289SOL    HW225767   0.977   0.568   0.819
 8290SOL     OW25768   6.253   1.912   0.708
 8290SOL    HW125769   6.255   1.985   0.776
 8290SOL    HW225770   6.191   1.936   0.634
 8291SOL     OW25771   4.048   6.846   6.212
 8291SOL    HW125772   4.059   6.775   6.143
 8291SOL    HW225773   3.971   6.905   6.188
 8292SOL     OW25774   3.228   6.357   6.815
 8292SOL    HW125775   3.256   6.263   6.837
 8292SOL    HW225776   3.281   6.421   6.871
 8293SOL     OW25777   4.363   6.501   6.008
 8293SOL    HW125778   4.355   6.480   5.910
 8293SOL    HW225779   4.455   6.479   6.040
 8294SOL     OW25780   6.052   2.466   6.598
 8294SOL    HW125781   6.073   2.487   6.694
 8294SOL    HW225782   5.965   2.508   6.573
 8295SOL     OW25783   5.338   4.263   1.333
 8295SOL    HW125784   5.378   4.337   1.279
 8295SOL    HW225785   5.408   4.223   1.392
 8296SOL     OW25786   1.413   5.752   0.075
 8296SOL    HW125787   1.418   5.689   7.010
 8296SOL    HW225788   1.472   5.831   0.057
 8297SOL     OW25789   6.179   2.369   3.503
 8297SOL    HW125790   6.176   2.270   3.489
 8297SOL    HW225791   6.110   2.396   3.570
 8298SOL     OW25792   4.847   1.129   1.755
 8298SOL    HW125793   4.858   1.086   1.845
 8298SOL    HW225794   4.832   1.228   1.767
 8299SOL     OW25795   6.488   3.290   1.767
 8299SOL    HW125796   6.467   3.193   1.752
 8299SOL    HW225797   6.407   3.344   1.748
 8300SOL     OW25798   0.527   4.664   5.038
 8300SOL    HW125799   0.464   4.656   4.961
 8300SOL    HW225800   0.569   4.575   5.056
 8301SOL     OW25801   4.434   2.831   1.526
 8301SOL    HW125802   4.369   2.866   1.593
 8301SOL    HW225803   4.526   2.829   1.567
 8302SOL     OW25804   6.354   6.397   6.635
 8302SOL    HW125805   6.355   6.477   6.695
 8302SOL    HW225806   6.308   6.321   6.683
 8303SOL     OW25807   0.509   0.130   4.730
 8303SOL    HW125808   0.448   0.183   4.790
 8303SOL    HW225809   0.527   0.181   4.646
 8304SOL     OW25810   0.726   3.904   6.338
 8304SOL    HW125811   0.819   3.934   6.358
 8304SOL    HW225812   0.715   3.895   6.239
 8305SOL     OW25813   3.600   5.192   4.003
 8305SOL    HW125814   3.592   5.100   4.041
 8305SOL    HW225815   3.537   5.202   3.926
 8306SOL     OW25816   0.857   3.320   5.067
 8306SOL    HW125817   0.815   3.341   5.156
 8306SOL    HW225818   0.799   3.255   5.018
 8307SOL     OW25819   3.504   5.485   0.354
 8307SOL    HW125820   3.572   5.515   0.287
 8307SOL    HW225821   3.499   5.552   0.429
 8308SOL     OW25822   4.183   6.559   1.562
 8308SOL    HW125823   4.244   6.534   1.637
 8308SOL    HW225824   4.147   6.651   1.578
 8309SOL     OW25825   5.811   5.875   2.429
 8309SOL    HW125826   5.809   5.835   2.521
 8309SOL    HW225827   5.746   5.951   2.424
 8310SOL     OW25828   0.703   4.963   0.452
 8310SOL    HW125829   0.704   4.985   0.550
 8310SOL    HW225830   0.608   4.950   0.422
 8311SOL     OW25831   6.820   0.700   6.594
 8311SOL    HW125832   6.794   0.752   6.675
 8311SOL    HW225833   6.891   0.634   6.618
 8312SOL     OW25834   5.476   6.544   1.862
 8312SOL    HW125835   5.442   6.528   1.770
 8312SOL    HW225836   5.545   6.475   1.886
 8313SOL     OW25837   3.917   1.326   3.076
 8313SOL    HW125838   3.997   1.272   3.047
 8313SOL    HW225839   3.835   1.269   3.070
 8314SOL     OW25840   5.819   0.010   1.860
 8314SOL    HW125841   5.877   6.946   1.891
 8314SOL    HW225842   5.764   0.043   1.936
 8315SOL     OW25843   4.872   3.455   0.676
 8315SOL    HW125844   4.883   3.356   0.683
 8315SOL    HW225845   4.834   3.491   0.761
 8316SOL     OW25846   1.315   4.484   0.897
 8316SOL    HW125847   1.322   4.496   0.996
 8316SOL    HW225848   1.348   4.565   0.850
 8317SOL     OW25849   1.936   4.426   2.526
 8317SOL    HW125850   2.025   4.464   2.502
 8317SOL    HW225851   1.941   4.326   2.524
 8318SOL     OW25852   3.881   1.336   4.868
 8318SOL    HW125853   3.962   1.385   4.901
 8318SOL    HW225854   3.827   1.396   4.809
 8319SOL     OW25855   3.450   1.028   5.471
 8319SOL    HW125856   3.353   1.045   5.454
 8319SOL    HW225857   3.501   1.034   5.385
 8320SOL     OW25858   2.889   4.746   1.142
 8320SOL    HW125859   2.905   4.763   1.239
 8320SOL    HW225860   2.817   4.677   1.132
 8321SOL     OW25861   0.696   0.700   0.368
 8321SOL    HW125862   0.649   0.785   0.347
 8321SOL    HW225863   0.770   0.685   0.301
 8322SOL     OW25864   0.241   0.122   0.330
 8322SOL    HW125865   0.182   0.042   0.333
 8322SOL    HW225866   0.322   0.102   0.275
 8323SOL     OW25867   0.664   0.817   2.814
 8323SOL    HW125868   0.618   0.769   2.889
 8323SOL    HW225869   0.693   0.908   2.846
 8324SOL     OW25870   6.095   0.885   2.186
 8324SOL    HW125871   6.093   0.937   2.272
 8324SOL    HW225872   6.014   0.908   2.132
 8325SOL     OW25873   3.599   2.829   4.047
 8325SOL    HW125874   3.577   2.732   4.055
 8325SOL    HW225875   3.520   2.884   4.073
 8326SOL     OW25876   4.319   3.204   5.787
 8326SOL    HW125877   4.235   3.242   5.746
 8326SOL    HW225878   4.385   3.278   5.800
 8327SOL     OW25879   5.729   2.591   6.397
 8327SOL    HW125880   5.745   2.619   6.492
 8327SOL    HW225881   5.697   2.670   6.345
 8328SOL     OW25882   2.327   2.903   6.338
 8328SOL    HW125883   2.420   2.914   6.372
 8328SOL    HW225884   2.267   2.878   6.413
 8329SOL     OW25885   0.011   3.055   5.182
 8329SOL    HW125886   0.013   3.128   5.113
 8329SOL    HW225887   6.986   2.972   5.142
 8330SOL     OW25888   1.534   6.484   0.503
 8330SOL    HW125889   1.549   6.538   0.587
 8330SOL    HW225890   1.595   6.518   0.431
 8331SOL     OW25891   3.023   0.797   1.333
 8331SOL    HW125892   2.969   0.718   1.306
 8331SOL    HW225893   3.114   0.768   1.363
 8332SOL     OW25894   4.520   5.138   1.860
 8332SOL    HW125895   4.482   5.087   1.937
 8332SOL    HW225896   4.599   5.090   1.824
 8333SOL     OW25897   0.815   5.909   0.198
 8333SOL    HW125898   0.912   5.889   0.186
 8333SOL    HW225899   0.761   5.843   0.146
 8334SOL     OW25900   6.614   1.638   3.720
 8334SOL    HW125901   6.537   1.616   3.780
 8334SOL    HW225902   6.605   1.733   3.688
 8335SOL     OW25903   6.165   5.889   5.745
 8335SOL    HW125904   6.152   5.918   5.840
 8335SOL    HW225905   6.121   5.956   5.684
 8336SOL     OW25906   0.454   1.773   2.064
 8336SOL    HW125907   0.511   1.830   2.123
 8336SOL    HW225908   0.371   1.822   2.039
 8337SOL     OW25909   0.545   5.970   2.212
 8337SOL    HW125910   0.612   6.013   2.150
 8337SOL    HW225911   0.546   6.018   2.300
 8338SOL     OW25912   2.040   5.044   1.127
 8338SOL    HW125913   2.003   5.044   1.220
 8338SOL    HW225914   2.138   5.023   1.130
 8339SOL     OW25915   5.678   1.356   2.793
 8339SOL    HW125916   5.583   1.326   2.803
 8339SOL    HW225917   5.708   1.344   2.699
 8340SOL     OW25918   4.945   4.167   0.519
 8340SOL    HW125919   4.919   4.181   0.615
 8340SOL    HW225920   5.027   4.220   0.499
 8341SOL     OW25921   1.708   6.849   1.158
 8341SOL    HW125922   1.752   6.863   1.247
 8341SOL    HW225923   1.777   6.852   1.086
 8342SOL     OW25924   3.662   0.819   0.658
 8342SOL    HW125925   3.623   0.735   0.696
 8342SOL    HW225926   3.761   0.820   0.671
 8343SOL     OW25927   1.320   5.624   6.480
 8343SOL    HW125928   1.332   5.708   6.532
 8343SOL    HW225929   1.372   5.629   6.395
 8344SOL     OW25930   4.241   6.379   6.233
 8344SOL    HW125931   4.267   6.431   6.152
 8344SOL    HW225932   4.314   6.385   6.301
 8345SOL     OW25933   5.981   1.341   3.240
 8345SOL    HW125934   6.027   1.254   3.257
 8345SOL    HW225935   5.953   1.347   3.145
 8346SOL     OW25936   2.548   4.856   0.876
 8346SOL    HW125937   2.556   4.890   0.969
 8346SOL    HW225938   2.601   4.914   0.814
 8347SOL     OW25939   2.697   6.717   5.300
 8347SOL    HW125940   2.729   6.812   5.304
 8347SOL    HW225941   2.662   6.697   5.209
 8348SOL     OW25942   1.179   0.485   1.104
 8348SOL    HW125943   1.086   0.521   1.117
 8348SOL    HW225944   1.236   0.515   1.180
 8349SOL     OW25945   6.226   3.415   0.482
 8349SOL    HW125946   6.309   3.425   0.537
 8349SOL    HW225947   6.166   3.493   0.499
 8350SOL     OW25948   6.146   1.043   5.400
 8350SOL    HW125949   6.099   1.014   5.484
 8350SOL    HW225950   6.232   1.089   5.424
 8351SOL     OW25951   3.088   6.114   3.930
 8351SOL    HW125952   3.117   6.157   3.845
 8351SOL    HW225953   3.108   6.016   3.927
 8352SOL     OW25954   6.617   6.798   2.163
 8352SOL    HW125955   6.641   6.746   2.245
 8352SOL    HW225956   6.532   6.848   2.179
 8353SOL     OW25957   6.295   3.497   1.701
 8353SOL    HW125958   6.198   3.494   1.725
 8353SOL    HW225959   6.333   3.586   1.725
 8354SOL     OW25960   3.034   1.313   6.908
 8354SOL    HW125961   2.980   1.392   6.877
 8354SOL    HW225962   3.016   1.235   6.849
 8355SOL     OW25963   3.345   0.113   0.119
 8355SOL    HW125964   3.380   0.196   0.075
 8355SOL    HW225965   3.257   0.133   0.162
 8356SOL     OW25966   1.612   5.963   0.104
 8356SOL    HW125967   1.706   5.929   0.103
 8356SOL    HW225968   1.586   5.986   0.198
 8357SOL     OW25969   4.094   5.744   4.746
 8357SOL    HW125970   4.072   5.728   4.650
 8357SOL    HW225971   4.127   5.838   4.758
 8358SOL     OW25972   2.110   2.777   5.607
 8358SOL    HW125973   2.101   2.840   5.530
 8358SOL    HW225974   2.107   2.828   5.693
 8359SOL     OW25975   4.332   5.311   4.308
 8359SOL    HW125976   4.239   5.339   4.283
 8359SOL    HW225977   4.346   5.216   4.278
 8360SOL     OW25978   4.601   6.981   3.008
 8360SOL    HW125979   4.567   0.063   3.007
 8360SOL    HW225980   4.560   6.929   2.933
 8361SOL     OW25981   1.526   1.275   2.867
 8361SOL    HW125982   1.524   1.323   2.954
 8361SOL    HW225983   1.563   1.335   2.796
 8362SOL     OW25984   2.259   2.246   0.320
 8362SOL    HW125985   2.276   2.157   0.363
 8362SOL    HW225986   2.345   2.285   0.289
 8363SOL     OW25987   0.479   2.793   0.516
 8363SOL    HW125988   0.451   2.810   0.611
 8363SOL    HW225989   0.536   2.868   0.484
 8364SOL     OW25990   5.984   3.507   3.149
 8364SOL    HW125991   6.036   3.511   3.064
 8364SOL    HW225992   6.039   3.462   3.220
 8365SOL     OW25993   1.417   3.220   0.202
 8365SOL    HW125994   1.387   3.126   0.220
 8365SOL    HW225995   1.339   3.281   0.208
 8366SOL     OW25996   4.640   6.284   2.712
 8366SOL    HW125997   4.618   6.239   2.626
 8366SOL    HW225998   4.655   6.216   2.783
 8367SOL     OW25999   4.842   6.233   3.744
 8367SOL    HW126000   4.884   6.184   3.821
 8367SOL    HW226001   4.841   6.173   3.664
 8368SOL     OW26002   2.349   5.456   5.992
 8368SOL    HW126003   2.285   5.513   5.940
 8368SOL    HW226004   2.357   5.366   5.949
 8369SOL     OW26005   2.498   1.292   6.940
 8369SOL    HW126006   2.408   1.335   6.942
 8369SOL    HW226007   2.489   1.194   6.956
 8370SOL     OW26008   1.210   1.866   6.441
 8370SOL    HW126009   1.210   1.935   6.513
 8370SOL    HW226010   1.122   1.865   6.394
 8371SOL     OW26011   1.387   2.835   0.472
 8371SOL    HW126012   1.399   2.741   0.439
 8371SOL    HW226013   1.347   2.834   0.563
 8372SOL     OW26014   6.808   0.508   2.502
 8372SOL    HW126015   6.753   0.487   2.583
 8372SOL    HW226016   6.872   0.582   2.524
 8373SOL     OW26017   1.096   5.981   5.774
 8373SOL    HW126018   1.141   6.026   5.697
 8373SOL    HW226019   1.152   5.993   5.856
 8374SOL     OW26020   6.710   0.742   6.857
 8374SOL    HW126021   6.770   0.663   6.867
 8374SOL    HW226022   6.735   0.812   6.924
 8375SOL     OW26023   3.180   6.953   6.098
 8375SOL    HW126024   3.101   6.991   6.146
 8375SOL    HW226025   3.152   6.872   6.047
 8376SOL     OW26026   2.980   0.320   3.874
 8376SOL    HW126027   3.042   0.250   3.839
 8376SOL    HW226028   3.029   0.407   3.883
 8377SOL     OW26029   6.511   5.079   1.609
 8377SOL    HW126030   6.436   5.018   1.633
 8377SOL    HW226031   6.476   5.173   1.603
 8378SOL     OW26032   5.539   3.206   2.950
 8378SOL    HW126033   5.554   3.292   2.901
 8378SOL    HW226034   5.567   3.217   3.045
 8379SOL     OW26035   6.427   3.489   1.438
 8379SOL    HW126036   6.383   3.413   1.390
 8379SOL    HW226037   6.389   3.497   1.530
 8380SOL     OW26038   5.402   1.640   2.748
 8380SOL    HW126039   5.430   1.731   2.778
 8380SOL    HW226040   5.331   1.605   2.809
 8381SOL     OW26041   1.101   5.450   4.561
 8381SOL    HW126042   1.075   5.461   4.465
 8381SOL    HW226043   1.024   5.476   4.619
 8382SOL     OW26044   1.303   2.645   2.677
 8382SOL    HW126045   1.265   2.735   2.695
 8382SOL    HW226046   1.342   2.642   2.585
 8383SOL     OW26047   2.723   2.181   6.759
 8383SOL    HW126048   2.797   2.234   6.800
 8383SOL    HW226049   2.719   2.198   6.661
 8384SOL     OW26050   0.010   6.428   1.959
 8384SOL    HW126051   6.989   6.335   1.944
 8384SOL    HW226052   0.038   6.468   1.872
 8385SOL     OW26053   4.732   2.284   2.547
 8385SOL    HW126054   4.798   2.211   2.528
 8385SOL    HW226055   4.657   2.248   2.602
 8386SOL     OW26056   0.711   4.042   2.673
 8386SOL    HW126057   0.716   4.078   2.580
 8386SOL    HW226058   0.675   4.113   2.734
 8387SOL     OW26059   0.877   1.924   1.665
 8387SOL    HW126060   0.864   1.877   1.752
 8387SOL    HW226061   0.908   1.859   1.596
 8388SOL     OW26062   2.788   6.876   1.938
 8388SOL    HW126063   2.694   6.865   1.972
 8388SOL    HW226064   2.786   6.901   1.842
 8389SOL     OW26065   5.176   3.204   2.043
 8389SOL    HW126066   5.153   3.155   2.127
 8389SOL    HW226067   5.201   3.298   2.064
 8390SOL     OW26068   4.638   1.847   5.819
 8390SOL    HW126069   4.623   1.945   5.823
 8390SOL    HW226070   4.552   1.800   5.802
 8391SOL     OW26071   6.159   0.746   0.819
 8391SOL    HW126072   6.188   0.658   0.780
 8391SOL    HW226073   6.209   0.762   0.905
 8392SOL     OW26074   5.897   3.220   4.324
 8392SOL    HW126075   5.944   3.151   4.269
 8392SOL    HW226076   5.826   3.176   4.380
 8393SOL     OW26077   4.801   0.108   1.576
 8393SOL    HW126078   4.885   0.097   1.523
 8393SOL    HW226079   4.794   0.032   1.642
 8394SOL     OW26080   6.271   3.804   2.416
 8394SOL    HW126081   6.256   3.722   2.360
 8394SOL    HW226082   6.283   3.777   2.512
 8395SOL     OW26083   2.641   1.036   4.968
 8395SOL    HW126084   2.653   1.123   5.016
 8395SOL    HW226085   2.551   0.999   4.988
 8396SOL     OW26086   4.216   5.467   4.781
 8396SOL    HW126087   4.196   5.563   4.802
 8396SOL    HW226088   4.211   5.454   4.682
 8397SOL     OW26089   6.316   0.908   3.560
 8397SOL    HW126090   6.408   0.904   3.601
 8397SOL    HW226091   6.311   0.984   3.496
 8398SOL     OW26092   5.471   2.312   5.915
 8398SOL    HW126093   5.526   2.254   5.976
 8398SOL    HW226094   5.423   2.380   5.969
 8399SOL     OW26095   0.137   5.752   0.642
 8399SOL    HW126096   0.220   5.695   0.642
 8399SOL    HW226097   0.158   5.840   0.600
 8400SOL     OW26098   1.119   2.218   4.049
 8400SOL    HW126099   1.124   2.177   4.140
 8400SOL    HW226100   1.153   2.312   4.053
 8401SOL     OW26101   2.874   0.629   5.858
 8401SOL    HW126102   2.885   0.571   5.939
 8401SOL    HW226103   2.959   0.676   5.839
 8402SOL     OW26104   4.186   0.952   5.895
 8402SOL    HW126105   4.199   0.989   5.803
 8402SOL    HW226106   4.208   1.022   5.963
 8403SOL     OW26107   6.144   4.680   4.909
 8403SOL    HW126108   6.172   4.728   4.826
 8403SOL    HW226109   6.215   4.688   4.978
 8404SOL     OW26110   2.005   1.902   6.470
 8404SOL    HW126111   2.049   1.921   6.382
 8404SOL    HW226112   1.907   1.887   6.455
 8405SOL     OW26113   3.686   0.951   5.262
 8405SOL    HW126114   3.766   0.921   5.210
 8405SOL    HW226115   3.687   1.051   5.269
 8406SOL     OW26116   5.159   0.731   6.631
 8406SOL    HW126117   5.257   0.716   6.617
 8406SOL    HW226118   5.130   0.683   6.715
 8407SOL     OW26119   3.634   6.676   3.882
 8407SOL    HW126120   3.659   6.677   3.979
 8407SOL    HW226121   3.699   6.730   3.829
 8408SOL     OW26122   5.093   0.468   1.378
 8408SOL    HW126123   5.140   0.499   1.295
 8408SOL    HW226124   5.095   0.368   1.382
 8409SOL     OW26125   4.585   2.477   2.365
 8409SOL    HW126126   4.609   2.573   2.383
 8409SOL    HW226127   4.613   2.421   2.443
 8410SOL     OW26128   7.004   1.989   1.767
 8410SOL    HW126129   6.956   2.050   1.831
 8410SOL    HW226130   6.989   1.894   1.795
 8411SOL     OW26131   1.468   5.971   0.779
 8411SOL    HW126132   1.441   5.995   0.873
 8411SOL    HW226133   1.568   5.972   0.772
 8412SOL     OW26134   2.740   2.822   0.073
 8412SOL    HW126135   2.759   2.835   6.987
 8412SOL    HW226136   2.797   2.748   0.108
 8413SOL     OW26137   4.229   5.118   5.496
 8413SOL    HW126138   4.189   5.027   5.497
 8413SOL    HW226139   4.220   5.160   5.586
 8414SOL     OW26140   1.093   1.257   2.847
 8414SOL    HW126141   1.042   1.341   2.865
 8414SOL    HW226142   1.109   1.208   2.933
 8415SOL     OW26143   2.719   0.392   4.727
 8415SOL    HW126144   2.741   0.484   4.693
 8415SOL    HW226145   2.627   0.393   4.767
 8416SOL     OW26146   6.445   1.796   5.172
 8416SOL    HW126147   6.362   1.740   5.172
 8416SOL    HW226148   6.455   1.840   5.261
 8417SOL     OW26149   1.180   3.802   4.907
 8417SOL    HW126150   1.158   3.874   4.973
 8417SOL    HW226151   1.279   3.796   4.897
 8418SOL     OW26152   0.723   5.835   2.777
 8418SOL    HW126153   0.630   5.806   2.802
 8418SOL    HW226154   0.789   5.767   2.809
 8419SOL     OW26155   5.360   0.936   4.071
 8419SOL    HW126156   5.269   0.946   4.030
 8419SOL    HW226157   5.429   0.959   4.003
 8420SOL     OW26158   3.236   0.008   2.370
 8420SOL    HW126159   3.137   0.009   2.384
 8420SOL    HW226160   3.256   6.988   2.277
 8421SOL     OW26161   3.978   6.040   6.171
 8421SOL    HW126162   3.996   6.128   6.215
 8421SOL    HW226163   3.924   6.056   6.088
 8422SOL     OW26164   4.589   2.593   3.349
 8422SOL    HW126165   4.562   2.570   3.256
 8422SOL    HW226166   4.556   2.523   3.412
 8423SOL     OW26167   5.573   4.547   6.147
 8423SOL    HW126168   5.558   4.461   6.195
 8423SOL    HW226169   5.628   4.531   6.065
 8424SOL     OW26170   2.146   0.116   3.619
 8424SOL    HW126171   2.140   0.214   3.641
 8424SOL    HW226172   2.057   0.083   3.587
 8425SOL     OW26173   3.290   3.677   3.321
 8425SOL    HW126174   3.346   3.597   3.299
 8425SOL    HW226175   3.328   3.757   3.276
 8426SOL     OW26176   3.691   2.914   1.993
 8426SOL    HW126177   3.613   2.977   1.998
 8426SOL    HW226178   3.755   2.934   2.067
 8427SOL     OW26179   2.936   3.732   3.665
 8427SOL    HW126180   2.982   3.677   3.595
 8427SOL    HW226181   2.848   3.763   3.630
 8428SOL     OW26182   6.967   0.933   0.936
 8428SOL    HW126183   6.957   0.953   1.033
 8428SOL    HW226184   7.000   0.839   0.924
 8429SOL     OW26185   1.582   5.786   6.517
 8429SOL    HW126186   1.565   5.747   6.426
 8429SOL    HW226187   1.679   5.806   6.527
 8430SOL     OW26188   4.395   6.403   4.726
 8430SOL    HW126189   4.388   6.304   4.721
 8430SOL    HW226190   4.352   6.436   4.809
 8431SOL     OW26191   3.114   3.795   5.777
 8431SOL    HW126192   3.146   3.759   5.689
 8431SOL    HW226193   3.115   3.722   5.845
 8432SOL     OW26194   6.423   5.910   6.737
 8432SOL    HW126195   6.473   5.824   6.742
 8432SOL    HW226196   6.329   5.896   6.768
 8433SOL     OW26197   5.253   2.503   0.768
 8433SOL    HW126198   5.321   2.454   0.713
 8433SOL    HW226199   5.245   2.458   0.858
 8434SOL     OW26200   2.187   5.224   5.352
 8434SOL    HW126201   2.192   5.125   5.338
 8434SOL    HW226202   2.239   5.270   5.280
 8435SOL     OW26203   4.936   1.305   3.011
 8435SOL    HW126204   4.989   1.325   3.093
 8435SOL    HW226205   4.982   1.346   2.931
 8436SOL     OW26206   2.211   6.616   2.750
 8436SOL    HW126207   2.151   6.638   2.827
 8436SOL    HW226208   2.306   6.617   2.780
 8437SOL     OW26209   2.129   3.042   2.082
 8437SOL    HW126210   2.122   3.043   2.182
 8437SOL    HW226211   2.106   3.132   2.046
 8438SOL     OW26212   1.477   4.490   2.557
 8438SOL    HW126213   1.468   4.451   2.465
 8438SOL    HW226214   1.420   4.438   2.620
 8439SOL     OW26215   5.892   5.980   3.627
 8439SOL    HW126216   5.825   5.905   3.629
 8439SOL    HW226217   5.910   6.010   3.721
 8440SOL     OW26218   1.556   1.213   3.319
 8440SOL    HW126219   1.555   1.165   3.231
 8440SOL    HW226220   1.649   1.211   3.357
 8441SOL     OW26221   5.805   0.359   5.465
 8441SOL    HW126222   5.710   0.328   5.477
 8441SOL    HW226223   5.814   0.452   5.499
 8442SOL     OW26224   3.710   1.543   5.618
 8442SOL    HW126225   3.751   1.458   5.652
 8442SOL    HW226226   3.780   1.596   5.570
 8443SOL     OW26227   1.676   4.733   3.434
 8443SOL    HW126228   1.763   4.739   3.385
 8443SOL    HW226229   1.602   4.716   3.369
 8444SOL     OW26230   4.866   5.582   3.382
 8444SOL    HW126231   4.944   5.577   3.444
 8444SOL    HW226232   4.781   5.581   3.436
 8445SOL     OW26233   4.208   6.035   6.881
 8445SOL    HW126234   4.307   6.034   6.895
 8445SOL    HW226235   4.167   5.957   6.928
 8446SOL     OW26236   0.546   6.118   5.423
 8446SOL    HW126237   0.493   6.145   5.343
 8446SOL    HW226238   0.546   6.193   5.490
 8447SOL     OW26239   4.246   1.466   3.006
 8447SOL    HW126240   4.219   1.454   3.101
 8447SOL    HW226241   4.346   1.471   3.000
 8448SOL     OW26242   4.699   6.600   3.244
 8448SOL    HW126243   4.705   6.700   3.254
 8448SOL    HW226244   4.723   6.575   3.150
 8449SOL     OW26245   1.833   2.380   2.895
 8449SOL    HW126246   1.910   2.317   2.891
 8449SOL    HW226247   1.857   2.466   2.849
 8450SOL     OW26248   6.859   0.566   0.343
 8450SOL    HW126249   6.829   0.503   0.415
 8450SOL    HW226250   6.936   0.526   0.294
 8451SOL     OW26251   4.978   2.194   1.571
 8451SOL    HW126252   4.973   2.288   1.539
 8451SOL    HW226253   5.068   2.177   1.612
 8452SOL     OW26254   5.237   1.801   5.300
 8452SOL    HW126255   5.215   1.898   5.302
 8452SOL    HW226256   5.217   1.764   5.209
 8453SOL     OW26257   0.448   6.026   0.325
 8453SOL    HW126258   0.498   6.076   0.255
 8453SOL    HW226259   0.509   6.006   0.402
 8454SOL     OW26260   0.792   4.380   0.326
 8454SOL    HW126261   0.832   4.288   0.326
 8454SOL    HW226262   0.716   4.382   0.392
 8455SOL     OW26263   0.936   0.574   2.823
 8455SOL    HW126264   0.874   0.506   2.863
 8455SOL    HW226265   0.904   0.599   2.732
 8456SOL     OW26266   5.727   1.298   3.847
 8456SOL    HW126267   5.755   1.237   3.921
 8456SOL    HW226268   5.707   1.244   3.766
 8457SOL     OW26269   6.036   6.016   4.332
 8457SOL    HW126270   6.094   5.975   4.262
 8457SOL    HW226271   5.940   6.011   4.304
 8458SOL     OW26272   0.194   0.220   6.806
 8458SOL    HW126273   0.124   0.157   6.840
 8458SOL    HW226274   0.194   0.221   6.706
 8459SOL     OW26275   1.636   5.548   3.054
 8459SOL    HW126276   1.594   5.457   3.060
 8459SOL    HW226277   1.708   5.546   2.984
 8460SOL     OW26278   3.150   4.099   4.841
 8460SOL    HW126279   3.063   4.063   4.807
 8460SOL    HW226280   3.140   4.126   4.937
 8461SOL     OW26281   6.105   3.717   3.894
 8461SOL    HW126282   6.007   3.732   3.905
 8461SOL    HW226283   6.122   3.621   3.872
 8462SOL     OW26284   2.211   2.554   1.541
 8462SOL    HW126285   2.208   2.651   1.520
 8462SOL    HW226286   2.211   2.541   1.640
 8463SOL     OW26287   5.513   0.959   2.556
 8463SOL    HW126288   5.444   0.895   2.592
 8463SOL    HW226289   5.486   1.052   2.577
 8464SOL     OW26290   5.812   2.758   4.701
 8464SOL    HW126291   5.862   2.841   4.725
 8464SOL    HW226292   5.797   2.756   4.602
 8465SOL     OW26293   1.469   2.567   0.449
 8465SOL    HW126294   1.493   2.573   0.546
 8465SOL    HW226295   1.551   2.579   0.394
 8466SOL     OW26296   0.969   6.258   3.347
 8466SOL    HW126297   0.973   6.232   3.251
 8466SOL    HW226298   1.009   6.349   3.359
 8467SOL     OW26299   3.003   5.612   0.943
 8467SOL    HW126300   2.992   5.533   1.004
 8467SOL    HW226301   3.046   5.687   0.993
 8468SOL     OW26302   4.452   1.821   6.632
 8468SOL    HW126303   4.400   1.905   6.618
 8468SOL    HW226304   4.550   1.842   6.639
 8469SOL     OW26305   3.463   2.446   6.878
 8469SOL    HW126306   3.476   2.449   6.977
 8469SOL    HW226307   3.385   2.388   6.856
 8470SOL     OW26308   2.758   3.109   6.595
 8470SOL    HW126309   2.688   3.111   6.667
 8470SOL    HW226310   2.832   3.172   6.619
 8471SOL     OW26311   3.601   0.906   4.049
 8471SOL    HW126312   3.619   0.949   4.137
 8471SOL    HW226313   3.627   0.970   3.976
 8472SOL     OW26314   1.397   6.493   4.520
 8472SOL    HW126315   1.434   6.583   4.544
 8472SOL    HW226316   1.300   6.501   4.498
 8473SOL     OW26317   6.540   5.237   6.972
 8473SOL    HW126318   6.576   5.143   6.967
 8473SOL    HW226319   6.449   5.240   6.930
 8474SOL     OW26320   3.629   3.851   1.570
 8474SOL    HW126321   3.536   3.866   1.536
 8474SOL    HW226322   3.634   3.881   1.666
 8475SOL     OW26323   5.701   1.614   2.955
 8475SOL    HW126324   5.611   1.614   2.997
 8475SOL    HW226325   5.709   1.535   2.894
 8476SOL     OW26326   4.462   0.462   2.100
 8476SOL    HW126327   4.409   0.408   2.035
 8476SOL    HW226328   4.506   0.400   2.166
 8477SOL     OW26329   2.883   1.021   1.410
 8477SOL    HW126330   2.815   0.986   1.474
 8477SOL    HW226331   2.944   0.947   1.382
 8478SOL     OW26332   1.161   0.148   5.580
 8478SOL    HW126333   1.150   0.057   5.539
 8478SOL    HW226334   1.209   0.139   5.667
 8479SOL     OW26335   5.830   1.032   1.163
 8479SOL    HW126336   5.891   0.982   1.102
 8479SOL    HW226337   5.760   0.970   1.198
 8480SOL     OW26338   2.472   1.286   1.276
 8480SOL    HW126339   2.505   1.193   1.292
 8480SOL    HW226340   2.540   1.337   1.224
 8481SOL     OW26341   3.845   0.591   4.356
 8481SOL    HW126342   3.856   0.605   4.257
 8481SOL    HW226343   3.766   0.643   4.389
 8482SOL     OW26344   1.857   6.875   1.910
 8482SOL    HW126345   1.783   6.867   1.844
 8482SOL    HW226346   1.863   6.791   1.963
 8483SOL     OW26347   4.058   6.177   0.913
 8483SOL    HW126348   4.002   6.174   0.995
 8483SOL    HW226349   4.000   6.161   0.833
 8484SOL     OW26350   0.660   5.153   4.406
 8484SOL    HW126351   0.690   5.106   4.323
 8484SOL    HW226352   0.696   5.105   4.486
 8485SOL     OW26353   2.135   3.077   6.852
 8485SOL    HW126354   2.138   3.121   6.942
 8485SOL    HW226355   2.050   3.102   6.806
 8486SOL     OW26356   5.385   0.941   2.229
 8486SOL    HW126357   5.433   1.024   2.202
 8486SOL    HW226358   5.451   0.870   2.252
 8487SOL     OW26359   4.667   0.071   0.624
 8487SOL    HW126360   4.644   0.167   0.638
 8487SOL    HW226361   4.640   0.044   0.532
 8488SOL     OW26362   4.872   3.070   4.235
 8488SOL    HW126363   4.879   3.021   4.148
 8488SOL    HW226364   4.824   3.014   4.302
 8489SOL     OW26365   4.603   4.769   1.802
 8489SOL    HW126366   4.625   4.672   1.797
 8489SOL    HW226367   4.505   4.781   1.818
 8490SOL     OW26368   4.636   5.135   2.272
 8490SOL    HW126369   4.652   5.038   2.258
 8490SOL    HW226370   4.546   5.148   2.314
 8491SOL     OW26371   2.401   0.673   2.371
 8491SOL    HW126372   2.367   0.588   2.330
 8491SOL    HW226373   2.350   0.750   2.334
 8492SOL     OW26374   6.124   3.247   4.892
 8492SOL    HW126375   6.210   3.220   4.849
 8492SOL    HW226376   6.059   3.276   4.822
 8493SOL     OW26377   4.374   1.626   6.818
 8493SOL    HW126378   4.431   1.614   6.899
 8493SOL    HW226379   4.419   1.688   6.754
 8494SOL     OW26380   3.688   5.280   6.168
 8494SOL    HW126381   3.643   5.362   6.206
 8494SOL    HW226382   3.623   5.230   6.111
 8495SOL     OW26383   6.880   2.797   1.184
 8495SOL    HW126384   6.895   2.795   1.283
 8495SOL    HW226385   6.878   2.703   1.149
 8496SOL     OW26386   0.164   2.619   3.975
 8496SOL    HW126387   0.155   2.702   4.030
 8496SOL    HW226388   0.248   2.624   3.920
 8497SOL     OW26389   5.817   5.648   2.979
 8497SOL    HW126390   5.838   5.740   3.012
 8497SOL    HW226391   5.775   5.595   3.053
 8498SOL     OW26392   0.510   0.877   0.763
 8498SOL    HW126393   0.465   0.900   0.677
 8498SOL    HW226394   0.531   0.780   0.764
 8499SOL     OW26395   3.271   4.183   6.295
 8499SOL    HW126396   3.349   4.215   6.349
 8499SOL    HW226397   3.197   4.250   6.300
 8500SOL     OW26398   2.812   6.462   6.077
 8500SOL    HW126399   2.769   6.389   6.023
 8500SOL    HW226400   2.853   6.422   6.159
 8501SOL     OW26401   1.599   3.616   6.605
 8501SOL    HW126402   1.509   3.643   6.571
 8501SOL    HW226403   1.615   3.520   6.583
 8502SOL     OW26404   6.213   0.045   1.583
 8502SOL    HW126405   6.172   0.066   1.672
 8502SOL    HW226406   6.154   0.082   1.511
 8503SOL     OW26407   2.664   4.706   3.267
 8503SOL    HW126408   2.747   4.744   3.307
 8503SOL    HW226409   2.636   4.626   3.320
 8504SOL     OW26410   1.552   5.282   3.154
 8504SOL    HW126411   1.514   5.198   3.115
 8504SOL    HW226412   1.506   5.303   3.240
 8505SOL     OW26413   4.839   3.335   3.550
 8505SOL    HW126414   4.846   3.269   3.624
 8505SOL    HW226415   4.776   3.302   3.480
 8506SOL     OW26416   1.598   6.564   0.235
 8506SOL    HW126417   1.695   6.542   0.244
 8506SOL    HW226418   1.570   6.553   0.139
 8507SOL     OW26419   1.409   0.917   5.622
 8507SOL    HW126420   1.334   0.856   5.595
 8507SOL    HW226421   1.409   0.927   5.721
 8508SOL     OW26422   0.555   1.951   5.758
 8508SOL    HW126423   0.626   2.018   5.779
 8508SOL    HW226424   0.517   1.916   5.843
 8509SOL     OW26425   6.520   2.000   4.583
 8509SOL    HW126426   6.486   2.037   4.670
 8509SOL    HW226427   6.479   2.052   4.507
 8510SOL     OW26428   5.554   6.008   2.313
 8510SOL    HW126429   5.540   5.937   2.245
 8510SOL    HW226430   5.508   5.983   2.398
 8511SOL     OW26431   6.463   4.817   1.806
 8511SOL    HW126432   6.549   4.861   1.828
 8511SOL    HW226433   6.458   4.800   1.707
 8512SOL     OW26434   5.592   2.360   0.114
 8512SOL    HW126435   5.622   2.427   0.181
 8512SOL    HW226436   5.492   2.365   0.104
 8513SOL     OW26437   6.309   4.901   1.273
 8513SOL    HW126438   6.396   4.892   1.225
 8513SOL    HW226439   6.279   4.811   1.304
 8514SOL     OW26440   2.688   2.064   4.996
 8514SOL    HW126441   2.772   2.113   5.017
 8514SOL    HW226442   2.609   2.119   5.022
 8515SOL     OW26443   1.012   0.781   0.810
 8515SOL    HW126444   0.923   0.777   0.765
 8515SOL    HW226445   1.016   0.861   0.870
 8516SOL     OW26446   6.242   2.636   2.218
 8516SOL    HW126447   6.192   2.668   2.138
 8516SOL    HW226448   6.280   2.545   2.200
 8517SOL     OW26449   1.351   2.790   5.383
 8517SOL    HW126450   1.327   2.821   5.291
 8517SOL    HW226451   1.349   2.690   5.385
 8518SOL     OW26452   5.271   4.754   6.395
 8518SOL    HW126453   5.370   4.757   6.378
 8518SOL    HW226454   5.235   4.666   6.364
 8519SOL     OW26455   1.620   3.841   0.977
 8519SOL    HW126456   1.716   3.820   0.960
 8519SOL    HW226457   1.611   3.936   1.006
 8520SOL     OW26458   4.107   3.644   4.907
 8520SOL    HW126459   4.119   3.552   4.869
 8520SOL    HW226460   4.077   3.706   4.834
 8521SOL     OW26461   1.767   5.938   5.571
 8521SOL    HW126462   1.760   5.861   5.633
 8521SOL    HW226463   1.684   5.945   5.516
 8522SOL     OW26464   1.139   6.247   0.575
 8522SOL    HW126465   1.237   6.232   0.587
 8522SOL    HW226466   1.110   6.206   0.489
 8523SOL     OW26467   2.545   0.292   6.452
 8523SOL    HW126468   2.580   0.295   6.359
 8523SOL    HW226469   2.452   0.329   6.454
 8524SOL     OW26470   1.533   5.647   4.615
 8524SOL    HW126471   1.476   5.568   4.634
 8524SOL    HW226472   1.553   5.695   4.700
 8525SOL     OW26473   0.310   4.767   1.684
 8525SOL    HW126474   0.290   4.745   1.588
 8525SOL    HW226475   0.229   4.751   1.740
 8526SOL     OW26476   2.678   6.645   0.465
 8526SOL    HW126477   2.655   6.714   0.396
 8526SOL    HW226478   2.596   6.622   0.517
 8527SOL     OW26479   3.480   0.221   6.215
 8527SOL    HW126480   3.415   0.290   6.183
 8527SOL    HW226481   3.433   0.134   6.230
 8528SOL     OW26482   5.246   2.267   0.041
 8528SOL    HW126483   5.225   2.250   6.956
 8528SOL    HW226484   5.210   2.191   0.096
 8529SOL     OW26485   1.130   6.246   6.623
 8529SOL    HW126486   1.063   6.303   6.671
 8529SOL    HW226487   1.087   6.198   6.548
 8530SOL     OW26488   2.909   3.722   4.168
 8530SOL    HW126489   2.996   3.758   4.200
 8530SOL    HW226490   2.883   3.643   4.224
 8531SOL     OW26491   6.657   5.765   3.140
 8531SOL    HW126492   6.739   5.733   3.092
 8531SOL    HW226493   6.585   5.697   3.132
 8532SOL     OW26494   3.261   6.025   4.273
 8532SOL    HW126495   3.174   6.066   4.244
 8532SOL    HW226496   3.329   6.097   4.284
 8533SOL     OW26497   1.162   6.467   6.186
 8533SOL    HW126498   1.197   6.457   6.279
 8533SOL    HW226499   1.172   6.563   6.157
 8534SOL     OW26500   4.285   2.320   4.101
 8534SOL    HW126501   4.236   2.320   4.014
 8534SOL    HW226502   4.370   2.372   4.091
 8535SOL     OW26503   6.025   1.071   3.363
 8535SOL    HW126504   6.006   1.023   3.449
 8535SOL    HW226505   6.026   1.005   3.288
 8536SOL     OW26506   0.081   0.807   4.375
 8536SOL    HW126507   0.088   0.864   4.293
 8536SOL    HW226508   6.998   0.808   4.409
 8537SOL     OW26509   0.081   1.010   2.966
 8537SOL    HW126510   0.077   1.030   3.064
 8537SOL    HW226511   7.007   0.966   2.937
 8538SOL     OW26512   1.300   2.591   0.205
 8538SOL    HW126513   1.353   2.551   0.280
 8538SOL    HW226514   1.332   2.684   0.188
 8539SOL     OW26515   6.570   2.745   3.033
 8539SOL    HW126516   6.636   2.763   2.960
 8539SOL    HW226517   6.528   2.656   3.019
 8540SOL     OW26518   4.252   6.977   0.230
 8540SOL    HW126519   4.162   6.935   0.241
 8540SOL    HW226520   4.317   6.934   0.293
 8541SOL     OW26521   2.136   2.389   3.573
 8541SOL    HW126522   2.174   2.372   3.664
 8541SOL    HW226523   2.184   2.333   3.505
 8542SOL     OW26524   3.836   3.922   6.528
 8542SOL    HW126525   3.919   3.870   6.508
 8542SOL    HW226526   3.828   3.998   6.463
 8543SOL     OW26527   1.793   2.385   6.882
 8543SOL    HW126528   1.780   2.301   6.934
 8543SOL    HW226529   1.770   2.464   6.939
 8544SOL     OW26530   5.643   2.341   4.292
 8544SOL    HW126531   5.604   2.370   4.380
 8544SOL    HW226532   5.646   2.241   4.288
 8545SOL     OW26533   5.092   6.649   5.049
 8545SOL    HW126534   5.067   6.744   5.068
 8545SOL    HW226535   5.188   6.645   5.022
 8546SOL     OW26536   4.927   1.444   4.586
 8546SOL    HW126537   4.867   1.518   4.553
 8546SOL    HW226538   5.022   1.473   4.578
 8547SOL     OW26539   0.997   4.873   3.323
 8547SOL    HW126540   1.002   4.947   3.389
 8547SOL    HW226541   0.983   4.786   3.371
 8548SOL     OW26542   5.687   1.227   5.011
 8548SOL    HW126543   5.703   1.244   4.914
 8548SOL    HW226544   5.602   1.272   5.039
 8549SOL     OW26545   6.608   3.465   4.468
 8549SOL    HW126546   6.543   3.391   4.449
 8549SOL    HW226547   6.648   3.497   4.382
 8550SOL     OW26548   1.279   4.584   6.462
 8550SOL    HW126549   1.235   4.665   6.425
 8550SOL    HW226550   1.374   4.580   6.430
 8551SOL     OW26551   3.236   4.165   6.970
 8551SOL    HW126552   3.233   4.162   6.870
 8551SOL    HW226553   3.278   4.081   7.005
 8552SOL     OW26554   2.144   6.621   4.111
 8552SOL    HW126555   2.218   6.663   4.058
 8552SOL    HW226556   2.150   6.521   4.105
 8553SOL     OW26557   5.102   6.814   0.895
 8553SOL    HW126558   5.156   6.733   0.916
 8553SOL    HW226559   5.105   6.833   0.797
 8554SOL     OW26560   7.003   3.982   0.020
 8554SOL    HW126561   6.922   4.039   0.006
 8554SOL    HW226562   6.976   3.893   0.057
 8555SOL     OW26563   1.494   6.611   3.926
 8555SOL    HW126564   1.421   6.668   3.964
 8555SOL    HW226565   1.570   6.607   3.991
 8556SOL     OW26566   6.248   0.402   3.757
 8556SOL    HW126567   6.330   0.354   3.727
 8556SOL    HW226568   6.258   0.500   3.741
 8557SOL     OW26569   6.980   0.229   1.288
 8557SOL    HW126570   6.964   0.166   1.363
 8557SOL    HW226571   0.055   0.277   1.302
 8558SOL     OW26572   1.254   5.163   1.935
 8558SOL    HW126573   1.313   5.095   1.893
 8558SOL    HW226574   1.164   5.123   1.953
 8559SOL     OW26575   1.360   0.068   1.326
 8559SOL    HW126576   1.371   0.030   1.419
 8559SOL    HW226577   1.449   0.072   1.282
 8560SOL     OW26578   6.420   1.816   0.455
 8560SOL    HW126579   6.422   1.901   0.403
 8560SOL    HW226580   6.392   1.836   0.549
 8561SOL     OW26581   4.568   6.325   3.669
 8561SOL    HW126582   4.665   6.313   3.691
 8561SOL    HW226583   4.557   6.403   3.609
 8562SOL     OW26584   3.548   6.410   3.974
 8562SOL    HW126585   3.568   6.398   4.071
 8562SOL    HW226586   3.572   6.504   3.947
 8563SOL     OW26587   2.941   2.399   6.723
 8563SOL    HW126588   2.871   2.469   6.709
 8563SOL    HW226589   3.009   2.431   6.789
 8564SOL     OW26590   1.093   6.807   3.654
 8564SOL    HW126591   1.137   6.839   3.738
 8564SOL    HW226592   1.158   6.750   3.603
 8565SOL     OW26593   3.601   6.690   1.058
 8565SOL    HW126594   3.625   6.630   0.981
 8565SOL    HW226595   3.684   6.726   1.099
 8566SOL     OW26596   1.691   2.426   3.554
 8566SOL    HW126597   1.695   2.341   3.501
 8566SOL    HW226598   1.775   2.478   3.537
 8567SOL     OW26599   5.094   1.249   1.570
 8567SOL    HW126600   5.193   1.245   1.561
 8567SOL    HW226601   5.069   1.318   1.639
 8568SOL     OW26602   5.762   1.118   0.192
 8568SOL    HW126603   5.826   1.194   0.181
 8568SOL    HW226604   5.678   1.151   0.235
 8569SOL     OW26605   4.295   1.360   4.592
 8569SOL    HW126606   4.373   1.317   4.637
 8569SOL    HW226607   4.213   1.305   4.609
 8570SOL     OW26608   0.506   4.131   0.114
 8570SOL    HW126609   0.529   4.076   0.194
 8570SOL    HW226610   0.423   4.095   0.072
 8571SOL     OW26611   0.154   4.384   4.732
 8571SOL    HW126612   0.226   4.451   4.750
 8571SOL    HW226613   0.152   4.317   4.806
 8572SOL     OW26614   2.555   4.879   5.220
 8572SOL    HW126615   2.522   4.852   5.310
 8572SOL    HW226616   2.581   4.798   5.168
 8573SOL     OW26617   3.324   5.702   5.661
 8573SOL    HW126618   3.376   5.782   5.633
 8573SOL    HW226619   3.290   5.654   5.580
 8574SOL     OW26620   0.824   3.754   5.568
 8574SOL    HW126621   0.906   3.779   5.516
 8574SOL    HW226622   0.837   3.663   5.608
 8575SOL     OW26623   3.364   2.434   0.453
 8575SOL    HW126624   3.301   2.509   0.471
 8575SOL    HW226625   3.313   2.348   0.447
 8576SOL     OW26626   1.648   0.178   1.511
 8576SOL    HW126627   1.747   0.193   1.520
 8576SOL    HW226628   1.628   0.148   1.418
 8577SOL     OW26629   6.313   6.053   3.182
 8577SOL    HW126630   6.387   6.019   3.124
 8577SOL    HW226631   6.346   6.133   3.233
 8578SOL     OW26632   4.406   6.827   3.311
 8578SOL    HW126633   4.504   6.842   3.328
 8578SOL    HW226634   4.378   6.740   3.352
 8579SOL     OW26635   1.431   5.374   3.428
 8579SOL    HW126636   1.333   5.360   3.443
 8579SOL    HW226637   1.483   5.305   3.478
 8580SOL     OW26638   1.779   5.301   0.537
 8580SOL    HW126639   1.731   5.385   0.512
 8580SOL    HW226640   1.875   5.321   0.556
 8581SOL     OW26641   3.357   1.817   1.287
 8581SOL    HW126642   3.409   1.843   1.206
 8581SOL    HW226643   3.301   1.895   1.318
 8582SOL     OW26644   4.008   4.323   1.620
 8582SOL    HW126645   3.976   4.400   1.676
 8582SOL    HW226646   4.103   4.304   1.641
 8583SOL     OW26647   6.131   0.157   6.144
 8583SOL    HW126648   6.144   0.225   6.216
 8583SOL    HW226649   6.116   0.067   6.186
 8584SOL     OW26650   6.789   5.967   0.283
 8584SOL    HW126651   6.791   6.013   0.371
 8584SOL    HW226652   6.825   6.027   0.212
 8585SOL     OW26653   6.966   0.744   0.046
 8585SOL    HW126654   0.007   0.827   0.067
 8585SOL    HW226655   6.875   0.752   0.086
 8586SOL     OW26656   3.900   5.450   3.055
 8586SOL    HW126657   3.913   5.373   3.117
 8586SOL    HW226658   3.933   5.534   3.099
 8587SOL     OW26659   0.090   2.058   2.162
 8587SOL    HW126660   0.168   2.071   2.224
 8587SOL    HW226661   0.086   2.134   2.097
 8588SOL     OW26662   4.844   2.554   0.061
 8588SOL    HW126663   4.808   2.483   0.122
 8588SOL    HW226664   4.781   2.568   6.997
 8589SOL     OW26665   3.414   2.033   4.567
 8589SOL    HW126666   3.337   2.096   4.578
 8589SOL    HW226667   3.379   1.941   4.550
 8590SOL     OW26668   5.836   5.012   5.352
 8590SOL    HW126669   5.874   5.035   5.441
 8590SOL    HW226670   5.882   5.065   5.281
 8591SOL     OW26671   1.341   3.398   6.876
 8591SOL    HW126672   1.373   3.430   6.966
 8591SOL    HW226673   1.284   3.469   6.834
 8592SOL     OW26674   5.923   4.332   0.095
 8592SOL    HW126675   5.935   4.384   0.180
 8592SOL    HW226676   6.012   4.317   0.052
 8593SOL     OW26677   1.185   0.691   2.838
 8593SOL    HW126678   1.193   0.788   2.859
 8593SOL    HW226679   1.093   0.660   2.860
 8594SOL     OW26680   3.414   3.775   4.335
 8594SOL    HW126681   3.471   3.792   4.416
 8594SOL    HW226682   3.318   3.774   4.362
 8595SOL     OW26683   1.641   1.855   2.640
 8595SOL    HW126684   1.741   1.854   2.632
 8595SOL    HW226685   1.615   1.839   2.735
 8596SOL     OW26686   6.449   5.355   1.606
 8596SOL    HW126687   6.356   5.360   1.642
 8596SOL    HW226688   6.481   5.447   1.583
 8597SOL     OW26689   2.854   1.371   0.765
 8597SOL    HW126690   2.791   1.297   0.788
 8597SOL    HW226691   2.861   1.434   0.842
 8598SOL     OW26692   5.643   5.304   0.859
 8598SOL    HW126693   5.719   5.369   0.853
 8598SOL    HW226694   5.678   5.211   0.846
 8599SOL     OW26695   1.690   2.938   3.094
 8599SOL    HW126696   1.629   2.894   3.028
 8599SOL    HW226697   1.692   3.037   3.078
 8600SOL     OW26698   6.335   4.556   6.716
 8600SOL    HW126699   6.240   4.563   6.744
 8600SOL    HW226700   6.344   4.487   6.644
 8601SOL     OW26701   0.313   6.947   4.595
 8601SOL    HW126702   0.396   6.988   4.634
 8601SOL    HW226703   0.261   0.006   4.547
 8602SOL     OW26704   2.689   5.608   2.024
 8602SOL    HW126705   2.700   5.690   1.968
 8602SOL    HW226706   2.600   5.610   2.070
 8603SOL     OW26707   4.012   3.268   0.350
 8603SOL    HW126708   4.111   3.266   0.364
 8603SOL    HW226709   3.967   3.280   0.439
 8604SOL     OW26710   5.364   2.760   3.492
 8604SOL    HW126711   5.324   2.808   3.414
 8604SOL    HW226712   5.455   2.799   3.512
 8605SOL     OW26713   2.341   6.302   2.773
 8605SOL    HW126714   2.340   6.398   2.803
 8605SOL    HW226715   2.297   6.295   2.683
 8606SOL     OW26716   3.925   4.606   5.415
 8606SOL    HW126717   3.940   4.562   5.503
 8606SOL    HW226718   3.828   4.599   5.390
 8607SOL     OW26719   4.508   5.763   1.648
 8607SOL    HW126720   4.590   5.771   1.590
 8607SOL    HW226721   4.519   5.687   1.711
 8608SOL     OW26722   4.543   5.604   1.850
 8608SOL    HW126723   4.638   5.580   1.867
 8608SOL    HW226724   4.503   5.646   1.931
 8609SOL     OW26725   3.349   0.757   5.453
 8609SOL    HW126726   3.385   0.840   5.495
 8609SOL    HW226727   3.415   0.683   5.464
 8610SOL     OW26728   0.713   6.123   4.023
 8610SOL    HW126729   0.751   6.032   4.004
 8610SOL    HW226730   0.627   6.113   4.073
 8611SOL     OW26731   1.608   2.167   4.181
 8611SOL    HW126732   1.619   2.265   4.197
 8611SOL    HW226733   1.526   2.135   4.229
 8612SOL     OW26734   4.237   2.866   5.679
 8612SOL    HW126735   4.151   2.915   5.693
 8612SOL    HW226736   4.310   2.931   5.659
 8613SOL     OW26737   1.774   1.167   0.957
 8613SOL    HW126738   1.746   1.230   1.030
 8613SOL    HW226739   1.696   1.149   0.896
 8614SOL     OW26740   0.974   2.006   3.342
 8614SOL    HW126741   0.890   2.049   3.376
 8614SOL    HW226742   1.029   2.073   3.292
 8615SOL     OW26743   4.383   2.224   5.139
 8615SOL    HW126744   4.303   2.164   5.145
 8615SOL    HW226745   4.355   2.313   5.103
 8616SOL     OW26746   1.270   4.812   0.472
 8616SOL    HW126747   1.286   4.764   0.558
 8616SOL    HW226748   1.310   4.904   0.476
 8617SOL     OW26749   6.243   2.760   0.972
 8617SOL    HW126750   6.331   2.782   1.014
 8617SOL    HW226751   6.257   2.693   0.899
 8618SOL     OW26752   4.678   6.864   3.318
 8618SOL    HW126753   4.731   6.903   3.243
 8618SOL    HW226754   4.704   6.907   3.404
 8619SOL     OW26755   4.347   4.938   0.034
 8619SOL    HW126756   4.359   5.017   0.094
 8619SOL    HW226757   4.315   4.970   6.956
 8620SOL     OW26758   6.437   6.631   2.866
 8620SOL    HW126759   6.337   6.620   2.866
 8620SOL    HW226760   6.479   6.554   2.819
 8621SOL     OW26761   5.763   0.633   3.350
 8621SOL    HW126762   5.753   0.625   3.251
 8621SOL    HW226763   5.860   0.647   3.372
 8622SOL     OW26764   4.805   5.191   0.155
 8622SOL    HW126765   4.878   5.195   0.224
 8622SOL    HW226766   4.842   5.221   0.067
 8623SOL     OW26767   0.106   3.860   2.998
 8623SOL    HW126768   0.034   3.928   2.982
 8623SOL    HW226769   0.071   3.769   2.976
 8624SOL     OW26770   0.422   4.218   3.075
 8624SOL    HW126771   0.408   4.278   3.154
 8624SOL    HW226772   0.335   4.208   3.025
 8625SOL     OW26773   3.648   0.603   4.761
 8625SOL    HW126774   3.610   0.576   4.673
 8625SOL    HW226775   3.588   0.569   4.834
 8626SOL     OW26776   3.147   3.872   3.755
 8626SOL    HW126777   3.064   3.822   3.729
 8626SOL    HW226778   3.220   3.850   3.689
 8627SOL     OW26779   1.616   0.383   0.295
 8627SOL    HW126780   1.591   0.289   0.271
 8627SOL    HW226781   1.564   0.447   0.238
 8628SOL     OW26782   5.375   0.789   6.870
 8628SOL    HW126783   5.297   0.728   6.880
 8628SOL    HW226784   5.458   0.735   6.854
 8629SOL     OW26785   1.500   3.856   3.996
 8629SOL    HW126786   1.532   3.949   3.979
 8629SOL    HW226787   1.530   3.827   4.087
 8630SOL     OW26788   5.611   4.607   3.828
 8630SOL    HW126789   5.687   4.617   3.893
 8630SOL    HW226790   5.588   4.510   3.818
 8631SOL     OW26791   3.750   5.644   5.054
 8631SOL    HW126792   3.650   5.641   5.044
 8631SOL    HW226793   3.773   5.663   5.149
 8632SOL     OW26794   3.994   0.360   3.314
 8632SOL    HW126795   3.983   0.450   3.356
 8632SOL    HW226796   3.925   0.348   3.242
 8633SOL     OW26797   5.990   1.246   4.007
 8633SOL    HW126798   5.994   1.169   3.944
 8633SOL    HW226799   6.037   1.325   3.966
 8634SOL     OW26800   6.871   5.149   1.856
 8634SOL    HW126801   6.872   5.110   1.948
 8634SOL    HW226802   6.962   5.183   1.833
 8635SOL     OW26803   6.134   3.683   5.322
 8635SOL    HW126804   6.097   3.626   5.248
 8635SOL    HW226805   6.058   3.728   5.370
 8636SOL     OW26806   6.837   5.423   0.668
 8636SOL    HW126807   6.836   5.441   0.766
 8636SOL    HW226808   6.786   5.339   0.648
 8637SOL     OW26809   2.208   0.449   1.013
 8637SOL    HW126810   2.240   0.539   0.983
 8637SOL    HW226811   2.224   0.439   1.111
 8638SOL     OW26812   3.385   5.069   0.317
 8638SOL    HW126813   3.364   5.034   0.408
 8638SOL    HW226814   3.329   5.150   0.299
 8639SOL     OW26815   6.461   3.879   1.453
 8639SOL    HW126816   6.405   3.917   1.527
 8639SOL    HW226817   6.551   3.854   1.490
 8640SOL     OW26818   4.740   5.274   0.891
 8640SOL    HW126819   4.779   5.204   0.951
 8640SOL    HW226820   4.810   5.343   0.871
 8641SOL     OW26821   6.070   4.080   3.052
 8641SOL    HW126822   6.118   4.135   3.120
 8641SOL    HW226823   6.133   4.013   3.013
 8642SOL     OW26824   4.324   1.302   1.710
 8642SOL    HW126825   4.296   1.207   1.724
 8642SOL    HW226826   4.404   1.322   1.766
 8643SOL     OW26827   4.787   0.479   5.869
 8643SOL    HW126828   4.787   0.379   5.867
 8643SOL    HW226829   4.694   0.513   5.854
 8644SOL     OW26830   5.926   2.930   4.973
 8644SOL    HW126831   5.932   3.020   5.015
 8644SOL    HW226832   5.889   2.865   5.040
 8645SOL     OW26833   5.853   4.651   1.409
 8645SOL    HW126834   5.858   4.674   1.312
 8645SOL    HW226835   5.927   4.697   1.458
 8646SOL     OW26836   5.554   0.994   0.381
 8646SOL    HW126837   5.551   0.907   0.429
 8646SOL    HW226838   5.529   1.068   0.445
 8647SOL     OW26839   4.448   4.904   0.389
 8647SOL    HW126840   4.357   4.943   0.374
 8647SOL    HW226841   4.439   4.824   0.449
 8648SOL     OW26842   5.464   1.268   3.944
 8648SOL    HW126843   5.557   1.302   3.953
 8648SOL    HW226844   5.400   1.335   3.982
 8649SOL     OW26845   6.682   4.148   5.339
 8649SOL    HW126846   6.730   4.123   5.256
 8649SOL    HW226847   6.583   4.149   5.322
 8650SOL     OW26848   2.047   4.972   3.415
 8650SOL    HW126849   2.141   4.971   3.449
 8650SOL    HW226850   2.007   4.881   3.424
 8651SOL     OW26851   3.411   1.238   0.046
 8651SOL    HW126852   3.416   1.338   0.048
 8651SOL    HW226853   3.482   1.200   0.106
 8652SOL     OW26854   1.975   3.558   3.553
 8652SOL    HW126855   2.036   3.504   3.495
 8652SOL    HW226856   2.016   3.647   3.570
 8653SOL     OW26857   0.040   2.603   6.960
 8653SOL    HW126858   0.076   2.696   6.956
 8653SOL    HW226859   0.002   2.578   6.871
 8654SOL     OW26860   0.653   0.062   3.369
 8654SOL    HW126861   0.680   0.071   3.465
 8654SOL    HW226862   0.693   0.136   3.316
 8655SOL     OW26863   6.137   6.207   4.737
 8655SOL    HW126864   6.060   6.241   4.791
 8655SOL    HW226865   6.126   6.109   4.721
 8656SOL     OW26866   6.291   1.018   1.065
 8656SOL    HW126867   6.272   0.953   1.138
 8656SOL    HW226868   6.255   1.108   1.090
 8657SOL     OW26869   4.453   4.222   6.808
 8657SOL    HW126870   4.458   4.311   6.855
 8657SOL    HW226871   4.358   4.203   6.783
 8658SOL     OW26872   5.956   5.629   6.691
 8658SOL    HW126873   5.866   5.612   6.650
 8658SOL    HW226874   6.012   5.681   6.627
 8659SOL     OW26875   5.293   0.694   4.179
 8659SOL    HW126876   5.308   0.780   4.130
 8659SOL    HW226877   5.380   0.657   4.210
 8660SOL     OW26878   5.708   3.843   0.753
 8660SOL    HW126879   5.708   3.940   0.775
 8660SOL    HW226880   5.615   3.813   0.733
 8661SOL     OW26881   7.000   3.975   1.564
 8661SOL    HW126882   0.087   3.957   1.559
 8661SOL    HW226883   6.956   3.904   1.619
 8662SOL     OW26884   6.801   6.762   1.004
 8662SOL    HW126885   6.815   6.770   1.103
 8662SOL    HW226886   6.730   6.827   0.976
 8663SOL     OW26887   2.571   5.526   0.557
 8663SOL    HW126888   2.544   5.576   0.640
 8663SOL    HW226889   2.661   5.484   0.572
 8664SOL     OW26890   4.476   5.924   6.928
 8664SOL    HW126891   4.552   5.988   6.918
 8664SOL    HW226892   4.459   5.880   6.840
 8665SOL     OW26893   4.943   5.702   5.513
 8665SOL    HW126894   4.935   5.771   5.585
 8665SOL    HW226895   5.039   5.693   5.486
 8666SOL     OW26896   5.384   2.670   4.611
 8666SOL    HW126897   5.435   2.732   4.671
 8666SOL    HW226898   5.286   2.684   4.625
 8667SOL     OW26899   4.922   1.429   4.095
 8667SOL    HW126900   4.860   1.420   4.173
 8667SOL    HW226901   4.948   1.338   4.062
 8668SOL     OW26902   4.412   2.023   4.491
 8668SOL    HW126903   4.352   2.080   4.435
 8668SOL    HW226904   4.426   1.935   4.446
 8669SOL     OW26905   4.101   0.232   5.681
 8669SOL    HW126906   4.133   0.318   5.720
 8669SOL    HW226907   4.003   0.237   5.663
 8670SOL     OW26908   3.335   5.522   4.349
 8670SOL    HW126909   3.337   5.473   4.435
 8670SOL    HW226910   3.251   5.500   4.299
 8671SOL     OW26911   5.854   6.644   3.700
 8671SOL    HW126912   5.935   6.700   3.680
 8671SOL    HW226913   5.880   6.570   3.763
 8672SOL     OW26914   3.567   5.164   4.375
 8672SOL    HW126915   3.554   5.263   4.369
 8672SOL    HW226916   3.662   5.142   4.352
 8673SOL     OW26917   6.270   2.252   0.788
 8673SOL    HW126918   6.216   2.319   0.840
 8673SOL    HW226919   6.338   2.210   0.849
 8674SOL     OW26920   6.846   0.150   2.937
 8674SOL    HW126921   6.871   0.056   2.962
 8674SOL    HW226922   6.778   0.147   2.863
 8675SOL     OW26923   2.043   1.131   2.864
 8675SOL    HW126924   2.064   1.076   2.945
 8675SOL    HW226925   1.990   1.076   2.799
 8676SOL     OW26926   4.315   0.153   2.884
 8676SOL    HW126927   4.267   0.106   2.958
 8676SOL    HW226928   4.299   0.105   2.798
 8677SOL     OW26929   2.497   4.414   6.068
 8677SOL    HW126930   2.449   4.372   6.145
 8677SOL    HW226931   2.587   4.371   6.058
 8678SOL     OW26932   1.026   0.300   6.746
 8678SOL    HW126933   1.064   0.389   6.772
 8678SOL    HW226934   1.022   0.294   6.646
 8679SOL     OW26935   6.210   2.149   5.556
 8679SOL    HW126936   6.190   2.247   5.549
 8679SOL    HW226937   6.173   2.103   5.475
 8680SOL     OW26938   1.266   3.589   0.207
 8680SOL    HW126939   1.360   3.570   0.182
 8680SOL    HW226940   1.217   3.628   0.129
 8681SOL     OW26941   4.029   4.052   0.516
 8681SOL    HW126942   3.992   4.049   0.609
 8681SOL    HW226943   4.002   3.970   0.467
 8682SOL     OW26944   2.676   6.133   3.048
 8682SOL    HW126945   2.646   6.089   2.964
 8682SOL    HW226946   2.775   6.123   3.058
 8683SOL     OW26947   0.148   3.279   0.984
 8683SOL    HW126948   0.134   3.235   1.073
 8683SOL    HW226949   0.086   3.238   0.917
 8684SOL     OW26950   5.972   3.405   4.693
 8684SOL    HW126951   6.044   3.402   4.624
 8684SOL    HW226952   5.957   3.500   4.721
 8685SOL     OW26953   0.609   2.305   6.530
 8685SOL    HW126954   0.610   2.272   6.436
 8685SOL    HW226955   0.542   2.379   6.538
 8686SOL     OW26956   0.007   2.020   2.869
 8686SOL    HW126957   0.057   2.103   2.844
 8686SOL    HW226958   0.073   1.948   2.892
 8687SOL     OW26959   3.763   6.871   2.501
 8687SOL    HW126960   3.832   6.878   2.573
 8687SOL    HW226961   3.708   6.954   2.500
 8688SOL     OW26962   2.566   0.352   1.571
 8688SOL    HW126963   2.495   0.350   1.641
 8688SOL    HW226964   2.622   0.434   1.582
 8689SOL     OW26965   4.775   5.819   0.246
 8689SOL    HW126966   4.696   5.771   0.208
 8689SOL    HW226967   4.843   5.752   0.275
 8690SOL     OW26968   0.636   1.385   3.259
 8690SOL    HW126969   0.606   1.467   3.209
 8690SOL    HW226970   0.630   1.402   3.357
 8691SOL     OW26971   5.107   2.156   6.818
 8691SOL    HW126972   5.028   2.128   6.763
 8691SOL    HW226973   5.173   2.082   6.822
 8692SOL     OW26974   2.564   2.168   3.720
 8692SOL    HW126975   2.475   2.134   3.751
 8692SOL    HW226976   2.554   2.211   3.630
 8693SOL     OW26977   5.664   1.855   1.090
 8693SOL    HW126978   5.641   1.852   0.993
 8693SOL    HW226979   5.589   1.896   1.141
 8694SOL     OW26980   4.706   6.846   6.024
 8694SOL    HW126981   4.726   6.860   6.121
 8694SOL    HW226982   4.607   6.833   6.012
 8695SOL     OW26983   4.934   3.943   6.046
 8695SOL    HW126984   4.945   3.843   6.046
 8695SOL    HW226985   5.024   3.986   6.043
 8696SOL     OW26986   2.261   6.205   1.013
 8696SOL    HW126987   2.319   6.124   1.014
 8696SOL    HW226988   2.257   6.245   1.104
 8697SOL     OW26989   6.474   4.034   0.500
 8697SOL    HW126990   6.510   4.127   0.503
 8697SOL    HW226991   6.403   4.028   0.429
 8698SOL     OW26992   5.383   6.205   4.400
 8698SOL    HW126993   5.420   6.234   4.312
 8698SOL    HW226994   5.292   6.244   4.413
 8699SOL     OW26995   1.386   1.598   5.603
 8699SOL    HW126996   1.415   1.601   5.507
 8699SOL    HW226997   1.368   1.503   5.629
 8700SOL     OW26998   2.984   1.143   5.107
 8700SOL    HW126999   3.057   1.162   5.041
 8700SOL    HW227000   2.902   1.193   5.080
 8701SOL     OW27001   0.737   1.161   4.872
 8701SOL    HW127002   0.713   1.223   4.947
 8701SOL    HW227003   0.811   1.202   4.818
 8702SOL     OW27004   5.580   5.201   0.042
 8702SOL    HW127005   5.517   5.140   7.005
 8702SOL    HW227006   5.664   5.210   7.001
 8703SOL     OW27007   2.739   5.795   0.915
 8703SOL    HW127008   2.835   5.774   0.896
 8703SOL    HW227009   2.694   5.824   0.831
 8704SOL     OW27010   0.155   4.764   2.246
 8704SOL    HW127011   0.095   4.686   2.227
 8704SOL    HW227012   0.251   4.735   2.238
 8705SOL     OW27013   4.907   0.467   6.138
 8705SOL    HW127014   4.981   0.533   6.130
 8705SOL    HW227015   4.856   0.463   6.052
 8706SOL     OW27016   5.156   2.027   0.162
 8706SOL    HW127017   5.149   1.936   0.122
 8706SOL    HW227018   5.222   2.026   0.237
 8707SOL     OW27019   4.856   2.839   6.187
 8707SOL    HW127020   4.797   2.868   6.262
 8707SOL    HW227021   4.889   2.919   6.138
 8708SOL     OW27022   3.999   1.256   1.355
 8708SOL    HW127023   4.049   1.183   1.401
 8708SOL    HW227024   3.935   1.298   1.419
 8709SOL     OW27025   6.806   4.344   0.468
 8709SOL    HW127026   6.815   4.441   0.491
 8709SOL    HW227027   6.852   4.289   0.537
 8710SOL     OW27028   2.055   3.557   2.795
 8710SOL    HW127029   2.101   3.644   2.778
 8710SOL    HW227030   2.062   3.499   2.714
 8711SOL     OW27031   6.675   0.819   3.414
 8711SOL    HW127032   6.763   0.839   3.371
 8711SOL    HW227033   6.670   0.863   3.503
 8712SOL     OW27034   3.586   1.265   4.777
 8712SOL    HW127035   3.577   1.336   4.847
 8712SOL    HW227036   3.672   1.215   4.792
 8713SOL     OW27037   6.641   4.820   3.813
 8713SOL    HW127038   6.551   4.863   3.823
 8713SOL    HW227039   6.654   4.752   3.885
 8714SOL     OW27040   1.489   0.606   5.559
 8714SOL    HW127041   1.501   0.604   5.460
 8714SOL    HW227042   1.393   0.625   5.580
 8715SOL     OW27043   6.597   2.063   1.654
 8715SOL    HW127044   6.673   2.081   1.592
 8715SOL    HW227045   6.587   1.964   1.667
 8716SOL     OW27046   1.080   1.336   1.391
 8716SOL    HW127047   1.120   1.373   1.475
 8716SOL    HW227048   1.126   1.251   1.367
 8717SOL     OW27049   4.203   3.727   1.757
 8717SOL    HW127050   4.228   3.822   1.741
 8717SOL    HW227051   4.130   3.722   1.825
 8718SOL     OW27052   6.891   2.843   4.991
 8718SOL    HW127053   6.964   2.778   4.972
 8718SOL    HW227054   6.912   2.931   4.948
 8719SOL     OW27055   1.119   0.416   5.377
 8719SOL    HW127056   1.214   0.392   5.357
 8719SOL    HW227057   1.074   0.448   5.293
 8720SOL     OW27058   5.612   4.234   5.652
 8720SOL    HW127059   5.657   4.301   5.710
 8720SOL    HW227060   5.660   4.227   5.564
 8721SOL     OW27061   7.003   2.445   4.678
 8721SOL    HW127062   6.953   2.367   4.715
 8721SOL    HW227063   6.989   2.525   4.737
 8722SOL     OW27064   3.788   2.453   0.761
 8722SOL    HW127065   3.844   2.535   0.768
 8722SOL    HW227066   3.753   2.428   0.852
 8723SOL     OW27067   6.841   5.454   0.927
 8723SOL    HW127068   6.809   5.547   0.945
 8723SOL    HW227069   6.928   5.439   0.974
 8724SOL     OW27070   5.551   0.315   5.801
 8724SOL    HW127071   5.480   0.250   5.775
 8724SOL    HW227072   5.524   0.361   5.885
 8725SOL     OW27073   1.965   6.865   0.522
 8725SOL    HW127074   1.941   6.768   0.524
 8725SOL    HW227075   2.031   6.882   0.449
 8726SOL     OW27076   5.613   0.394   1.646
 8726SOL    HW127077   5.698   0.344   1.661
 8726SOL    HW227078   5.631   0.492   1.642
 8727SOL     OW27079   6.840   6.484   1.479
 8727SOL    HW127080   6.814   6.498   1.575
 8727SOL    HW227081   6.815   6.564   1.425
 8728SOL     OW27082   2.717   6.627   4.741
 8728SOL    HW127083   2.765   6.605   4.826
 8728SOL    HW227084   2.770   6.694   4.689
 8729SOL     OW27085   4.358   5.560   3.634
 8729SOL    HW127086   4.356   5.524   3.727
 8729SOL    HW227087   4.323   5.492   3.570
 8730SOL     OW27088   0.090   5.976   1.841
 8730SOL    HW127089   0.116   5.899   1.899
 8730SOL    HW227090   0.131   6.060   1.878
 8731SOL     OW27091   1.261   1.981   3.111
 8731SOL    HW127092   1.265   1.950   3.016
 8731SOL    HW227093   1.190   2.051   3.120
 8732SOL     OW27094   5.684   3.529   1.350
 8732SOL    HW127095   5.651   3.436   1.370
 8732SOL    HW227096   5.732   3.528   1.262
 8733SOL     OW27097   1.158   6.459   1.660
 8733SOL    HW127098   1.203   6.540   1.699
 8733SOL    HW227099   1.221   6.412   1.599
 8734SOL     OW27100   6.756   5.932   0.997
 8734SOL    HW127101   6.819   5.857   0.976
 8734SOL    HW227102   6.785   5.977   1.081
 8735SOL     OW27103   6.971   1.722   6.573
 8735SOL    HW127104   6.958   1.800   6.634
 8735SOL    HW227105   6.906   1.727   6.497
 8736SOL     OW27106   0.854   4.751   6.799
 8736SOL    HW127107   0.940   4.746   6.849
 8736SOL    HW227108   0.785   4.695   6.846
 8737SOL     OW27109   3.648   5.933   6.363
 8737SOL    HW127110   3.600   5.885   6.437
 8737SOL    HW227111   3.601   5.916   6.276
 8738SOL     OW27112   1.605   3.668   3.767
 8738SOL    HW127113   1.534   3.600   3.783
 8738SOL    HW227114   1.598   3.741   3.835
 8739SOL     OW27115   0.074   3.589   5.347
 8739SOL    HW127116   7.010   3.562   5.407
 8739SOL    HW227117   0.160   3.588   5.398
 8740SOL     OW27118   3.058   6.996   0.155
 8740SOL    HW127119   2.959   6.981   0.151
 8740SOL    HW227120   3.093   7.010   0.063
 8741SOL     OW27121   1.673   3.406   2.691
 8741SOL    HW127122   1.580   3.368   2.692
 8741SOL    HW227123   1.669   3.502   2.662
 8742SOL     OW27124   4.691   6.682   1.619
 8742SOL    HW127125   4.632   6.609   1.584
 8742SOL    HW227126   4.641   6.734   1.688
 8743SOL     OW27127   2.894   5.484   2.153
 8743SOL    HW127128   2.816   5.524   2.105
 8743SOL    HW227129   2.941   5.420   2.093
 8744SOL     OW27130   4.078   2.846   6.267
 8744SOL    HW127131   4.081   2.890   6.357
 8744SOL    HW227132   4.155   2.877   6.212
 8745SOL     OW27133   6.408   2.547   5.587
 8745SOL    HW127134   6.397   2.632   5.537
 8745SOL    HW227135   6.504   2.535   5.612
 8746SOL     OW27136   4.977   5.077   5.374
 8746SOL    HW127137   4.974   4.994   5.319
 8746SOL    HW227138   4.902   5.138   5.346
 8747SOL     OW27139   1.543   2.679   4.232
 8747SOL    HW127140   1.604   2.698   4.155
 8747SOL    HW227141   1.460   2.733   4.222
 8748SOL     OW27142   1.204   0.788   6.844
 8748SOL    HW127143   1.188   0.865   6.905
 8748SOL    HW227144   1.166   0.809   6.754
 8749SOL     OW27145   4.055   0.622   3.407
 8749SOL    HW127146   4.085   0.703   3.357
 8749SOL    HW227147   4.079   0.631   3.504
 8750SOL     OW27148   1.901   1.912   5.147
 8750SOL    HW127149   1.849   1.986   5.189
 8750SOL    HW227150   1.839   1.847   5.105
 8751SOL     OW27151   1.172   0.319   2.480
 8751SOL    HW127152   1.249   0.257   2.464
 8751SOL    HW227153   1.206   0.407   2.512
 8752SOL     OW27154   1.995   3.018   6.195
 8752SOL    HW127155   2.074   2.957   6.187
 8752SOL    HW227156   1.913   2.971   6.160
 8753SOL     OW27157   5.203   1.470   4.621
 8753SOL    HW127158   5.216   1.381   4.577
 8753SOL    HW227159   5.241   1.468   4.713
 8754SOL     OW27160   1.716   2.070   5.995
 8754SOL    HW127161   1.740   1.977   5.969
 8754SOL    HW227162   1.721   2.130   5.915
 8755SOL     OW27163   2.341   1.174   0.401
 8755SOL    HW127164   2.319   1.122   0.318
 8755SOL    HW227165   2.261   1.227   0.428
 8756SOL     OW27166   2.205   2.972   3.971
 8756SOL    HW127167   2.150   2.911   3.913
 8756SOL    HW227168   2.267   2.917   4.027
 8757SOL     OW27169   4.667   6.351   4.700
 8757SOL    HW127170   4.723   6.352   4.617
 8757SOL    HW227171   4.577   6.389   4.680
 8758SOL     OW27172   6.658   6.594   1.695
 8758SOL    HW127173   6.626   6.641   1.777
 8758SOL    HW227174   6.579   6.571   1.637
 8759SOL     OW27175   4.963   0.635   5.509
 8759SOL    HW127176   5.025   0.615   5.432
 8759SOL    HW227177   4.892   0.565   5.513
 8760SOL     OW27178   1.837   1.595   4.266
 8760SOL    HW127179   1.924   1.634   4.296
 8760SOL    HW227180   1.805   1.643   4.185
 8761SOL     OW27181   4.437   6.969   0.017
 8761SOL    HW127182   4.375   6.973   0.096
 8761SOL    HW227183   4.468   0.049   7.006
 8762SOL     OW27184   1.394   3.929   1.354
 8762SOL    HW127185   1.346   3.891   1.433
 8762SOL    HW227186   1.446   3.857   1.309
 8763SOL     OW27187   0.195   6.437   6.021
 8763SOL    HW127188   0.104   6.471   6.043
 8763SOL    HW227189   0.191   6.338   6.005
 8764SOL     OW27190   4.466   1.769   4.366
 8764SOL    HW127191   4.531   1.712   4.316
 8764SOL    HW227192   4.412   1.713   4.429
 8765SOL     OW27193   5.923   0.234   4.258
 8765SOL    HW127194   5.828   0.204   4.249
 8765SOL    HW227195   5.945   0.246   4.355
 8766SOL     OW27196   1.996   4.926   2.611
 8766SOL    HW127197   1.995   4.856   2.682
 8766SOL    HW227198   2.084   4.923   2.563
 8767SOL     OW27199   4.239   0.809   3.560
 8767SOL    HW127200   4.269   0.834   3.467
 8767SOL    HW227201   4.194   0.887   3.603
 8768SOL     OW27202   1.961   2.790   0.398
 8768SOL    HW127203   2.027   2.807   0.325
 8768SOL    HW227204   1.912   2.874   0.420
 8769SOL     OW27205   1.964   6.977   6.058
 8769SOL    HW127206   2.004   0.057   6.049
 8769SOL    HW227207   1.889   6.967   5.993
 8770SOL     OW27208   5.266   3.166   1.421
 8770SOL    HW127209   5.189   3.167   1.485
 8770SOL    HW227210   5.278   3.256   1.381
 8771SOL     OW27211   1.374   1.309   6.290
 8771SOL    HW127212   1.409   1.402   6.288
 8771SOL    HW227213   1.291   1.306   6.347
 8772SOL     OW27214   5.780   1.167   6.421
 8772SOL    HW127215   5.749   1.260   6.403
 8772SOL    HW227216   5.855   1.169   6.487
 8773SOL     OW27217   2.556   2.366   3.011
 8773SOL    HW127218   2.592   2.390   3.101
 8773SOL    HW227219   2.469   2.317   3.021
 8774SOL     OW27220   1.094   1.438   1.128
 8774SOL    HW127221   1.096   1.412   1.225
 8774SOL    HW227222   1.029   1.380   1.079
 8775SOL     OW27223   6.401   0.085   3.330
 8775SOL    HW127224   6.323   0.033   3.365
 8775SOL    HW227225   6.465   0.103   3.405
 8776SOL     OW27226   3.506   2.992   5.001
 8776SOL    HW127227   3.485   3.086   4.971
 8776SOL    HW227228   3.428   2.956   5.053
 8777SOL     OW27229   6.614   6.324   1.800
 8777SOL    HW127230   6.675   6.246   1.783
 8777SOL    HW227231   6.661   6.409   1.776
 8778SOL     OW27232   0.457   2.036   3.806
 8778SOL    HW127233   0.403   1.969   3.856
 8778SOL    HW227234   0.438   2.030   3.709
 8779SOL     OW27235   0.993   4.718   0.634
 8779SOL    HW127236   0.906   4.732   0.681
 8779SOL    HW227237   1.065   4.768   0.683
 8780SOL     OW27238   1.086   5.515   4.278
 8780SOL    HW127239   1.051   5.590   4.221
 8780SOL    HW227240   1.010   5.457   4.307
 8781SOL     OW27241   0.812   2.223   3.016
 8781SOL    HW127242   0.761   2.163   3.078
 8781SOL    HW227243   0.818   2.315   3.055
 8782SOL     OW27244   4.278   1.157   3.118
 8782SOL    HW127245   4.202   1.192   3.062
 8782SOL    HW227246   4.358   1.215   3.104
 8783SOL     OW27247   6.003   4.017   4.253
 8783SOL    HW127248   6.097   3.984   4.260
 8783SOL    HW227249   5.994   4.076   4.174
 8784SOL     OW27250   5.377   5.013   5.853
 8784SOL    HW127251   5.388   5.019   5.754
 8784SOL    HW227252   5.418   5.093   5.896
 8785SOL     OW27253   5.997   4.465   6.700
 8785SOL    HW127254   5.967   4.396   6.766
 8785SOL    HW227255   5.960   4.554   6.725
 8786SOL     OW27256   1.718   0.129   0.153
 8786SOL    HW127257   1.795   0.182   0.188
 8786SOL    HW227258   1.733   0.032   0.169
 8787SOL     OW27259   1.543   3.694   1.264
 8787SOL    HW127260   1.458   3.643   1.246
 8787SOL    HW227261   1.585   3.722   1.178
 8788SOL     OW27262   0.833   1.510   5.362
 8788SOL    HW127263   0.907   1.575   5.380
 8788SOL    HW227264   0.871   1.419   5.346
 8789SOL     OW27265   0.039   0.481   6.579
 8789SOL    HW127266   0.013   0.446   6.669
 8789SOL    HW227267   0.033   0.407   6.511
 8790SOL     OW27268   6.056   1.888   6.931
 8790SOL    HW127269   5.963   1.898   6.966
 8790SOL    HW227270   6.054   1.834   6.847
 8791SOL     OW27271   4.735   6.453   5.805
 8791SOL    HW127272   4.670   6.427   5.876
 8791SOL    HW227273   4.685   6.493   5.728
 8792SOL     OW27274   4.882   6.911   2.776
 8792SOL    HW127275   4.890   6.835   2.712
 8792SOL    HW227276   4.845   6.878   2.863
 8793SOL     OW27277   1.697   5.965   3.642
 8793SOL    HW127278   1.617   5.995   3.590
 8793SOL    HW227279   1.774   6.026   3.622
 8794SOL     OW27280   1.688   0.284   2.464
 8794SOL    HW127281   1.665   0.364   2.520
 8794SOL    HW227282   1.709   0.207   2.524
 8795SOL     OW27283   2.027   6.026   5.530
 8795SOL    HW127284   2.046   6.072   5.443
 8795SOL    HW227285   1.931   5.998   5.532
 8796SOL     OW27286   4.556   2.354   5.525
 8796SOL    HW127287   4.612   2.391   5.599
 8796SOL    HW227288   4.471   2.317   5.564
 8797SOL     OW27289   0.394   6.889   6.947
 8797SOL    HW127290   0.484   6.890   6.990
 8797SOL    HW227291   0.400   6.928   6.855
 8798SOL     OW27292   5.000   3.518   5.567
 8798SOL    HW127293   5.001   3.595   5.630
 8798SOL    HW227294   4.986   3.551   5.474
 8799SOL     OW27295   2.862   5.122   3.366
 8799SOL    HW127296   2.934   5.056   3.388
 8799SOL    HW227297   2.859   5.138   3.268
 8800SOL     OW27298   4.239   4.992   6.801
 8800SOL    HW127299   4.250   4.992   6.701
 8800SOL    HW227300   4.141   4.988   6.824
 8801SOL     OW27301   2.829   1.343   4.910
 8801SOL    HW127302   2.874   1.281   4.846
 8801SOL    HW227303   2.899   1.396   4.959
 8802SOL     OW27304   3.067   6.107   2.351
 8802SOL    HW127305   3.005   6.034   2.379
 8802SOL    HW227306   3.144   6.113   2.415
 8803SOL     OW27307   2.932   5.293   6.907
 8803SOL    HW127308   3.027   5.323   6.900
 8803SOL    HW227309   2.884   5.348   6.976
 8804SOL     OW27310   4.866   0.802   0.921
 8804SOL    HW127311   4.816   0.768   1.001
 8804SOL    HW227312   4.814   0.877   0.879
 8805SOL     OW27313   0.449   0.413   2.853
 8805SOL    HW127314   0.351   0.427   2.868
 8805SOL    HW227315   0.464   0.322   2.814
 8806SOL     OW27316   1.550   4.742   6.666
 8806SOL    HW127317   1.650   4.735   6.669
 8806SOL    HW227318   1.509   4.658   6.702
 8807SOL     OW27319   0.525   6.227   6.281
 8807SOL    HW127320   0.451   6.287   6.312
 8807SOL    HW227321   0.498   6.132   6.291
 8808SOL     OW27322   4.986   1.300   0.674
 8808SOL    HW127323   5.033   1.267   0.756
 8808SOL    HW227324   4.968   1.223   0.613
 8809SOL     OW27325   5.733   3.580   1.076
 8809SOL    HW127326   5.817   3.558   1.027
 8809SOL    HW227327   5.657   3.584   1.011
 8810SOL     OW27328   3.748   1.268   4.194
 8810SOL    HW127329   3.752   1.176   4.233
 8810SOL    HW227330   3.839   1.310   4.198
 8811SOL     OW27331   1.383   1.667   2.711
 8811SOL    HW127332   1.361   1.729   2.635
 8811SOL    HW227333   1.308   1.601   2.723
 8812SOL     OW27334   1.770   0.925   0.639
 8812SOL    HW127335   1.727   1.001   0.590
 8812SOL    HW227336   1.869   0.942   0.646
 8813SOL     OW27337   2.160   6.719   1.956
 8813SOL    HW127338   2.151   6.810   1.996
 8813SOL    HW227339   2.200   6.657   2.023
 8814SOL     OW27340   6.164   0.910   6.116
 8814SOL    HW127341   6.188   0.813   6.123
 8814SOL    HW227342   6.140   0.945   6.206
 8815SOL     OW27343   0.161   6.201   2.728
 8815SOL    HW127344   0.206   6.132   2.671
 8815SOL    HW227345   0.079   6.234   2.681
 8816SOL     OW27346   1.367   6.065   1.023
 8816SOL    HW127347   1.362   6.072   1.123
 8816SOL    HW227348   1.354   6.155   0.982
 8817SOL     OW27349   1.305   5.130   5.171
 8817SOL    HW127350   1.355   5.187   5.236
 8817SOL    HW227351   1.241   5.187   5.118
 8818SOL     OW27352   0.239   5.337   4.316
 8818SOL    HW127353   0.176   5.308   4.388
 8818SOL    HW227354   0.193   5.330   4.227
 8819SOL     OW27355   4.390   6.469   4.271
 8819SOL    HW127356   4.293   6.463   4.248
 8819SOL    HW227357   4.421   6.564   4.263
 8820SOL     OW27358   1.260   1.991   3.845
 8820SOL    HW127359   1.294   2.081   3.872
 8820SOL    HW227360   1.310   1.958   3.765
 8821SOL     OW27361   2.480   0.699   6.604
 8821SOL    HW127362   2.481   0.707   6.505
 8821SOL    HW227363   2.402   0.643   6.633
 8822SOL     OW27364   0.482   2.215   3.522
 8822SOL    HW127365   0.393   2.220   3.475
 8822SOL    HW227366   0.468   2.231   3.620
 8823SOL     OW27367   1.576   6.232   1.167
 8823SOL    HW127368   1.648   6.167   1.143
 8823SOL    HW227369   1.512   6.241   1.091
 8824SOL     OW27370   3.469   3.615   0.813
 8824SOL    HW127371   3.567   3.635   0.803
 8824SOL    HW227372   3.453   3.567   0.899
 8825SOL     OW27373   0.846   1.574   2.170
 8825SOL    HW127374   0.790   1.571   2.087
 8825SOL    HW227375   0.868   1.481   2.199
 8826SOL     OW27376   4.825   1.419   6.564
 8826SOL    HW127377   4.822   1.518   6.549
 8826SOL    HW227378   4.745   1.391   6.617
 8827SOL     OW27379   1.358   1.447   3.473
 8827SOL    HW127380   1.417   1.376   3.434
 8827SOL    HW227381   1.381   1.536   3.434
 8828SOL     OW27382   3.401   0.079   2.824
 8828SOL    HW127383   3.373   0.047   2.734
 8828SOL    HW227384   3.463   0.013   2.866
 8829SOL     OW27385   0.593   1.757   0.242
 8829SOL    HW127386   0.573   1.774   0.339
 8829SOL    HW227387   0.611   1.844   0.197
 8830SOL     OW27388   0.816   1.872   0.797
 8830SOL    HW127389   0.834   1.776   0.816
 8830SOL    HW227390   0.882   1.906   0.730
 8831SOL     OW27391   6.778   0.977   2.913
 8831SOL    HW127392   6.756   0.944   2.821
 8831SOL    HW227393   6.755   1.074   2.920
 8832SOL     OW27394   6.229   0.684   2.517
 8832SOL    HW127395   6.263   0.776   2.535
 8832SOL    HW227396   6.199   0.677   2.422
 8833SOL     OW27397   2.089   5.102   4.114
 8833SOL    HW127398   2.070   5.094   4.016
 8833SOL    HW227399   2.085   5.198   4.142
 8834SOL     OW27400   5.970   3.544   5.018
 8834SOL    HW127401   5.892   3.494   5.055
 8834SOL    HW227402   6.055   3.495   5.039
 8835SOL     OW27403   6.851   6.933   6.038
 8835SOL    HW127404   6.765   6.982   6.023
 8835SOL    HW227405   6.887   6.902   5.950
 8836SOL     OW27406   4.266   1.262   6.985
 8836SOL    HW127407   4.227   1.347   0.008
 8836SOL    HW227408   4.234   1.246   6.892
 8837SOL     OW27409   0.038   1.281   1.738
 8837SOL    HW127410   0.005   1.226   1.815
 8837SOL    HW227411   6.973   1.328   1.695
 8838SOL     OW27412   2.539   5.043   3.367
 8838SOL    HW127413   2.607   4.987   3.319
 8838SOL    HW227414   2.447   5.010   3.345
 8839SOL     OW27415   6.750   6.750   3.829
 8839SOL    HW127416   6.839   6.718   3.859
 8839SOL    HW227417   6.752   6.766   3.730
 8840SOL     OW27418   5.939   2.405   1.887
 8840SOL    HW127419   5.921   2.380   1.983
 8840SOL    HW227420   5.904   2.498   1.870
 8841SOL     OW27421   1.292   1.353   5.749
 8841SOL    HW127422   1.302   1.312   5.839
 8841SOL    HW227423   1.319   1.286   5.679
 8842SOL     OW27424   2.440   2.834   1.732
 8842SOL    HW127425   2.361   2.831   1.671
 8842SOL    HW227426   2.501   2.758   1.710
 8843SOL     OW27427   0.966   2.911   5.135
 8843SOL    HW127428   0.876   2.906   5.178
 8843SOL    HW227429   1.035   2.931   5.205
 8844SOL     OW27430   6.729   1.163   6.086
 8844SOL    HW127431   6.677   1.199   6.163
 8844SOL    HW227432   6.712   1.220   6.005
 8845SOL     OW27433   5.784   4.399   6.894
 8845SOL    HW127434   5.791   4.494   6.863
 8845SOL    HW227435   5.819   4.392   6.988
 8846SOL     OW27436   1.903   4.699   4.208
 8846SOL    HW127437   1.959   4.773   4.244
 8846SOL    HW227438   1.904   4.622   4.272
 8847SOL     OW27439   3.292   0.248   2.188
 8847SOL    HW127440   3.265   0.155   2.161
 8847SOL    HW227441   3.212   0.298   2.221
 8848SOL     OW27442   1.272   0.478   3.078
 8848SOL    HW127443   1.265   0.523   2.990
 8848SOL    HW227444   1.317   0.389   3.066
 8849SOL     OW27445   2.764   6.651   1.384
 8849SOL    HW127446   2.744   6.696   1.297
 8849SOL    HW227447   2.786   6.555   1.368
 8850SOL     OW27448   3.595   2.777   6.318
 8850SOL    HW127449   3.526   2.712   6.286
 8850SOL    HW227450   3.651   2.807   6.240
 8851SOL     OW27451   1.125   3.730   2.801
 8851SOL    HW127452   1.210   3.682   2.780
 8851SOL    HW227453   1.121   3.749   2.899
 8852SOL     OW27454   0.993   1.866   6.194
 8852SOL    HW127455   0.918   1.820   6.148
 8852SOL    HW227456   1.072   1.871   6.133
 8853SOL     OW27457   3.923   0.709   0.379
 8853SOL    HW127458   3.945   0.798   0.339
 8853SOL    HW227459   3.932   0.714   0.479
 8854SOL     OW27460   1.071   3.527   4.498
 8854SOL    HW127461   1.032   3.472   4.573
 8854SOL    HW227462   1.135   3.593   4.535
 8855SOL     OW27463   5.863   5.605   0.896
 8855SOL    HW127464   5.790   5.668   0.870
 8855SOL    HW227465   5.868   5.530   0.830
 8856SOL     OW27466   0.131   5.810   5.871
 8856SOL    HW127467   0.104   5.715   5.887
 8856SOL    HW227468   0.187   5.815   5.788
 8857SOL     OW27469   6.465   1.604   5.461
 8857SOL    HW127470   6.453   1.522   5.517
 8857SOL    HW227471   6.418   1.592   5.374
 8858SOL     OW27472   6.203   5.464   4.661
 8858SOL    HW127473   6.159   5.521   4.591
 8858SOL    HW227474   6.179   5.498   4.752
 8859SOL     OW27475   0.752   0.302   3.185
 8859SOL    HW127476   0.847   0.297   3.154
 8859SOL    HW227477   0.749   0.345   3.275
 8860SOL     OW27478   6.919   2.904   2.103
 8860SOL    HW127479   6.845   2.837   2.101
 8860SOL    HW227480   6.935   2.940   2.010
 8861SOL     OW27481   4.583   2.174   1.988
 8861SOL    HW127482   4.508   2.218   1.939
 8861SOL    HW227483   4.660   2.238   1.994
 8862SOL     OW27484   4.781   5.255   5.327
 8862SOL    HW127485   4.695   5.288   5.289
 8862SOL    HW227486   4.837   5.333   5.354
 8863SOL     OW27487   2.206   4.091   3.523
 8863SOL    HW127488   2.232   4.125   3.613
 8863SOL    HW227489   2.111   4.060   3.525
 8864SOL     OW27490   6.055   1.844   5.285
 8864SOL    HW127491   6.107   1.759   5.279
 8864SOL    HW227492   5.977   1.840   5.222
 8865SOL     OW27493   2.211   1.496   6.695
 8865SOL    HW127494   2.148   1.573   6.700
 8865SOL    HW227495   2.301   1.529   6.667
 8866SOL     OW27496   5.774   6.053   1.974
 8866SOL    HW127497   5.803   6.128   2.032
 8866SOL    HW227498   5.755   5.972   2.030
 8867SOL     OW27499   6.168   4.233   2.699
 8867SOL    HW127500   6.141   4.138   2.713
 8867SOL    HW227501   6.211   4.243   2.609
 8868SOL     OW27502   0.213   3.451   3.234
 8868SOL    HW127503   0.149   3.522   3.264
 8868SOL    HW227504   0.276   3.489   3.166
 8869SOL     OW27505   3.665   6.742   3.130
 8869SOL    HW127506   3.639   6.823   3.077
 8869SOL    HW227507   3.660   6.762   3.228
 8870SOL     OW27508   1.275   0.514   3.352
 8870SOL    HW127509   1.264   0.524   3.253
 8870SOL    HW227510   1.243   0.598   3.397
 8871SOL     OW27511   0.241   0.506   2.552
 8871SOL    HW127512   0.145   0.523   2.526
 8871SOL    HW227513   0.271   0.578   2.614
 8872SOL     OW27514   0.202   5.548   4.873
 8872SOL    HW127515   0.173   5.458   4.842
 8872SOL    HW227516   0.227   5.543   4.970
 8873SOL     OW27517   1.768   1.181   2.360
 8873SOL    HW127518   1.759   1.264   2.416
 8873SOL    HW227519   1.833   1.198   2.286
 8874SOL     OW27520   3.655   6.220   0.504
 8874SOL    HW127521   3.604   6.137   0.481
 8874SOL    HW227522   3.696   6.258   0.422
 8875SOL     OW27523   0.087   2.939   3.674
 8875SOL    HW127524   0.009   2.992   3.641
 8875SOL    HW227525   0.053   2.862   3.728
 8876SOL     OW27526   3.768   1.023   6.291
 8876SOL    HW127527   3.764   1.003   6.389
 8876SOL    HW227528   3.749   1.120   6.276
 8877SOL     OW27529   2.059   4.390   1.450
 8877SOL    HW127530   2.060   4.477   1.499
 8877SOL    HW227531   2.080   4.406   1.353
 8878SOL     OW27532   5.019   4.032   0.815
 8878SOL    HW127533   4.943   3.972   0.788
 8878SOL    HW227534   5.043   4.015   0.910
 8879SOL     OW27535   5.700   5.019   2.826
 8879SOL    HW127536   5.791   5.062   2.820
 8879SOL    HW227537   5.710   4.920   2.833
 8880SOL     OW27538   4.353   0.440   3.970
 8880SOL    HW127539   4.403   0.425   4.056
 8880SOL    HW227540   4.416   0.433   3.893
 8881SOL     OW27541   4.171   4.743   4.522
 8881SOL    HW127542   4.234   4.686   4.575
 8881SOL    HW227543   4.181   4.839   4.551
 8882SOL     OW27544   4.582   0.322   0.715
 8882SOL    HW127545   4.503   0.301   0.657
 8882SOL    HW227546   4.553   0.325   0.811
 8883SOL     OW27547   6.638   6.295   4.507
 8883SOL    HW127548   6.655   6.197   4.501
 8883SOL    HW227549   6.569   6.313   4.577
 8884SOL     OW27550   5.162   3.468   5.000
 8884SOL    HW127551   5.077   3.421   4.973
 8884SOL    HW227552   5.140   3.543   5.062
 8885SOL     OW27553   6.283   5.740   0.470
 8885SOL    HW127554   6.197   5.755   0.518
 8885SOL    HW227555   6.354   5.799   0.509
 8886SOL     OW27556   3.879   5.364   6.016
 8886SOL    HW127557   3.922   5.286   5.970
 8886SOL    HW227558   3.821   5.330   6.090
 8887SOL     OW27559   4.790   1.355   1.433
 8887SOL    HW127560   4.869   1.299   1.408
 8887SOL    HW227561   4.707   1.299   1.429
 8888SOL     OW27562   2.539   1.988   2.947
 8888SOL    HW127563   2.620   2.028   2.990
 8888SOL    HW227564   2.553   1.889   2.936
 8889SOL     OW27565   0.024   5.989   6.251
 8889SOL    HW127566   6.943   5.952   6.239
 8889SOL    HW227567   0.091   5.924   6.217
 8890SOL     OW27568   0.520   6.555   0.643
 8890SOL    HW127569   0.534   6.638   0.698
 8890SOL    HW227570   0.504   6.477   0.703
 8891SOL     OW27571   6.042   3.605   0.080
 8891SOL    HW127572   5.966   3.669   0.092
 8891SOL    HW227573   6.049   3.546   0.161
 8892SOL     OW27574   3.218   5.333   3.603
 8892SOL    HW127575   3.233   5.247   3.652
 8892SOL    HW227576   3.270   5.332   3.518
 8893SOL     OW27577   1.354   5.216   4.788
 8893SOL    HW127578   1.451   5.195   4.796
 8893SOL    HW227579   1.336   5.307   4.824
 8894SOL     OW27580   4.474   1.780   0.314
 8894SOL    HW127581   4.573   1.773   0.299
 8894SOL    HW227582   4.446   1.715   0.385
 8895SOL     OW27583   7.001   3.793   1.135
 8895SOL    HW127584   6.929   3.784   1.204
 8895SOL    HW227585   0.026   3.702   1.114
 8896SOL     OW27586   0.365   2.654   4.776
 8896SOL    HW127587   0.311   2.571   4.758
 8896SOL    HW227588   0.311   2.719   4.829
 8897SOL     OW27589   2.130   3.792   3.638
 8897SOL    HW127590   2.224   3.825   3.639
 8897SOL    HW227591   2.069   3.868   3.617
 8898SOL     OW27592   4.868   4.252   2.787
 8898SOL    HW127593   4.820   4.272   2.702
 8898SOL    HW227594   4.892   4.155   2.790
 8899SOL     OW27595   0.650   3.774   5.225
 8899SOL    HW127596   0.574   3.778   5.290
 8899SOL    HW227597   0.628   3.709   5.152
 8900SOL     OW27598   4.887   2.541   4.158
 8900SOL    HW127599   4.952   2.485   4.107
 8900SOL    HW227600   4.926   2.565   4.246
 8901SOL     OW27601   1.846   2.935   4.489
 8901SOL    HW127602   1.788   2.925   4.569
 8901SOL    HW227603   1.822   3.020   4.441
 8902SOL     OW27604   0.561   4.663   0.501
 8902SOL    HW127605   0.640   4.632   0.448
 8902SOL    HW227606   0.478   4.620   0.465
 8903SOL     OW27607   1.701   6.588   5.500
 8903SOL    HW127608   1.688   6.511   5.561
 8903SOL    HW227609   1.619   6.600   5.443
 8904SOL     OW27610   0.293   0.625   3.293
 8904SOL    HW127611   0.226   0.551   3.290
 8904SOL    HW227612   0.332   0.639   3.202
 8905SOL     OW27613   1.547   3.676   2.590
 8905SOL    HW127614   1.466   3.653   2.536
 8905SOL    HW227615   1.599   3.748   2.543
 8906SOL     OW27616   6.669   0.241   0.744
 8906SOL    HW127617   6.725   0.295   0.681
 8906SOL    HW227618   6.701   0.147   0.743
 8907SOL     OW27619   3.341   2.919   4.597
 8907SOL    HW127620   3.347   2.831   4.645
 8907SOL    HW227621   3.310   2.990   4.661
 8908SOL     OW27622   0.959   5.475   0.348
 8908SOL    HW127623   0.887   5.406   0.347
 8908SOL    HW227624   0.942   5.544   0.278
 8909SOL     OW27625   2.911   0.425   6.972
 8909SOL    HW127626   3.005   0.449   6.946
 8909SOL    HW227627   2.912   0.338   0.009
 8910SOL     OW27628   2.164   1.350   3.951
 8910SOL    HW127629   2.255   1.343   3.908
 8910SOL    HW227630   2.175   1.371   4.048
 8911SOL     OW27631   4.369   2.046   3.857
 8911SOL    HW127632   4.388   2.040   3.955
 8911SOL    HW227633   4.288   1.992   3.835
 8912SOL     OW27634   3.331   3.899   4.800
 8912SOL    HW127635   3.273   3.945   4.867
 8912SOL    HW227636   3.276   3.874   4.720
 8913SOL     OW27637   5.222   6.544   6.751
 8913SOL    HW127638   5.284   6.569   6.678
 8913SOL    HW227639   5.247   6.594   6.835
 8914SOL     OW27640   4.299   5.577   6.663
 8914SOL    HW127641   4.389   5.604   6.697
 8914SOL    HW227642   4.237   5.656   6.665
 8915SOL     OW27643   1.482   1.559   4.068
 8915SOL    HW127644   1.478   1.551   3.969
 8915SOL    HW227645   1.479   1.468   4.110
 8916SOL     OW27646   4.422   1.120   0.212
 8916SOL    HW127647   4.412   1.218   0.225
 8916SOL    HW227648   4.487   1.102   0.139
 8917SOL     OW27649   5.551   1.948   0.499
 8917SOL    HW127650   5.564   1.915   0.405
 8917SOL    HW227651   5.582   1.878   0.563
 8918SOL     OW27652   0.880   3.821   2.651
 8918SOL    HW127653   0.842   3.909   2.680
 8918SOL    HW227654   0.965   3.804   2.700
 8919SOL     OW27655   5.987   3.891   0.870
 8919SOL    HW127656   6.001   3.981   0.828
 8919SOL    HW227657   5.903   3.850   0.833
 8920SOL     OW27658   6.317   1.660   0.245
 8920SOL    HW127659   6.349   1.704   0.329
 8920SOL    HW227660   6.386   1.672   0.173
 8921SOL     OW27661   1.707   2.711   1.565
 8921SOL    HW127662   1.658   2.676   1.485
 8921SOL    HW227663   1.793   2.663   1.576
 8922SOL     OW27664   3.633   0.042   3.555
 8922SOL    HW127665   3.724   0.044   3.596
 8922SOL    HW227666   3.612   0.132   3.516
 8923SOL     OW27667   1.700   2.104   4.887
 8923SOL    HW127668   1.654   2.069   4.805
 8923SOL    HW227669   1.634   2.110   4.962
 8924SOL     OW27670   5.035   5.667   5.200
 8924SOL    HW127671   5.056   5.631   5.110
 8924SOL    HW227672   5.113   5.654   5.261
 8925SOL     OW27673   1.008   0.339   3.096
 8925SOL    HW127674   1.068   0.313   3.172
 8925SOL    HW227675   1.062   0.381   3.024
 8926SOL     OW27676   6.049   2.749   6.492
 8926SOL    HW127677   6.147   2.733   6.488
 8926SOL    HW227678   6.011   2.741   6.399
 8927SOL     OW27679   0.713   1.196   6.042
 8927SOL    HW127680   0.760   1.114   6.074
 8927SOL    HW227681   0.774   1.248   5.983
 8928SOL     OW27682   2.287   6.153   5.088
 8928SOL    HW127683   2.341   6.070   5.100
 8928SOL    HW227684   2.344   6.225   5.050
 8929SOL     OW27685   6.686   2.765   4.646
 8929SOL    HW127686   6.648   2.724   4.729
 8929SOL    HW227687   6.667   2.707   4.567
 8930SOL     OW27688   1.610   4.242   3.099
 8930SOL    HW127689   1.682   4.281   3.042
 8930SOL    HW227690   1.586   4.306   3.172
 8931SOL     OW27691   3.899   2.144   1.349
 8931SOL    HW127692   3.917   2.242   1.359
 8931SOL    HW227693   3.952   2.108   1.272
 8932SOL     OW27694   0.231   3.122   3.516
 8932SOL    HW127695   0.169   3.068   3.573
 8932SOL    HW227696   0.285   3.060   3.458
 8933SOL     OW27697   3.483   1.554   5.776
 8933SOL    HW127698   3.399   1.539   5.723
 8933SOL    HW227699   3.559   1.572   5.713
 8934SOL     OW27700   3.076   5.784   3.494
 8934SOL    HW127701   3.074   5.846   3.573
 8934SOL    HW227702   3.063   5.690   3.525
 8935SOL     OW27703   0.363   4.374   1.124
 8935SOL    HW127704   0.309   4.458   1.115
 8935SOL    HW227705   0.460   4.396   1.111
 8936SOL     OW27706   2.198   2.819   0.239
 8936SOL    HW127707   2.270   2.791   0.175
 8936SOL    HW227708   2.229   2.898   0.292
 8937SOL     OW27709   0.613   5.882   5.912
 8937SOL    HW127710   0.545   5.947   5.945
 8937SOL    HW227711   0.705   5.918   5.929
 8938SOL     OW27712   6.055   5.337   0.942
 8938SOL    HW127713   6.132   5.313   1.000
 8938SOL    HW227714   6.017   5.254   0.901
 8939SOL     OW27715   5.649   1.723   4.519
 8939SOL    HW127716   5.698   1.691   4.600
 8939SOL    HW227717   5.692   1.807   4.485
 8940SOL     OW27718   5.973   0.849   3.194
 8940SOL    HW127719   5.989   0.794   3.112
 8940SOL    HW227720   5.985   0.792   3.275
 8941SOL     OW27721   5.248   2.204   6.550
 8941SOL    HW127722   5.229   2.149   6.631
 8941SOL    HW227723   5.210   2.296   6.562
 8942SOL     OW27724   0.495   2.315   5.187
 8942SOL    HW127725   0.448   2.227   5.190
 8942SOL    HW227726   0.592   2.302   5.208
 8943SOL     OW27727   5.079   3.645   0.831
 8943SOL    HW127728   4.988   3.656   0.869
 8943SOL    HW227729   5.074   3.647   0.731
 8944SOL     OW27730   4.273   5.679   0.775
 8944SOL    HW127731   4.340   5.698   0.847
 8944SOL    HW227732   4.204   5.751   0.774
 8945SOL     OW27733   2.756   0.889   4.020
 8945SOL    HW127734   2.728   0.965   3.961
 8945SOL    HW227735   2.763   0.922   4.114
 8946SOL     OW27736   3.016   1.826   4.561
 8946SOL    HW127737   2.979   1.740   4.597
 8946SOL    HW227738   2.966   1.903   4.601
 8947SOL     OW27739   4.174   3.815   5.470
 8947SOL    HW127740   4.190   3.883   5.541
 8947SOL    HW227741   4.143   3.861   5.387
 8948SOL     OW27742   5.793   4.972   3.477
 8948SOL    HW127743   5.793   4.892   3.417
 8948SOL    HW227744   5.700   4.991   3.507
 8949SOL     OW27745   2.214   6.121   0.014
 8949SOL    HW127746   2.313   6.109   0.028
 8949SOL    HW227747   2.178   6.041   6.978
 8950SOL     OW27748   4.539   2.456   4.052
 8950SOL    HW127749   4.563   2.552   4.044
 8950SOL    HW227750   4.572   2.421   4.140
 8951SOL     OW27751   1.623   2.817   5.462
 8951SOL    HW127752   1.637   2.726   5.500
 8951SOL    HW227753   1.535   2.821   5.416
 8952SOL     OW27754   0.246   1.289   2.343
 8952SOL    HW127755   0.181   1.277   2.269
 8952SOL    HW227756   0.266   1.386   2.355
 8953SOL     OW27757   1.822   3.324   6.900
 8953SOL    HW127758   1.855   3.265   6.826
 8953SOL    HW227759   1.773   3.268   6.967
 8954SOL     OW27760   1.808   5.920   6.261
 8954SOL    HW127761   1.815   5.951   6.356
 8954SOL    HW227762   1.800   5.821   6.259
 8955SOL     OW27763   6.370   4.012   3.315
 8955SOL    HW127764   6.280   4.030   3.354
 8955SOL    HW227765   6.411   4.098   3.284
 8956SOL     OW27766   0.796   0.585   5.680
 8956SOL    HW127767   0.883   0.538   5.675
 8956SOL    HW227768   0.731   0.530   5.732
 8957SOL     OW27769   2.890   4.907   2.650
 8957SOL    HW127770   2.880   5.005   2.672
 8957SOL    HW227771   2.926   4.898   2.557
 8958SOL     OW27772   1.659   6.666   4.151
 8958SOL    HW127773   1.665   6.571   4.182
 8958SOL    HW227774   1.742   6.715   4.177
 8959SOL     OW27775   1.762   4.249   0.167
 8959SOL    HW127776   1.766   4.222   0.070
 8959SOL    HW227777   1.846   4.296   0.192
 8960SOL     OW27778   4.029   5.596   1.106
 8960SOL    HW127779   4.065   5.561   1.193
 8960SOL    HW227780   4.053   5.693   1.096
 8961SOL     OW27781   1.502   2.228   3.860
 8961SOL    HW127782   1.585   2.222   3.915
 8961SOL    HW227783   1.451   2.310   3.885
 8962SOL     OW27784   5.819   0.502   3.087
 8962SOL    HW127785   5.836   0.528   2.992
 8962SOL    HW227786   5.903   0.465   3.127
 8963SOL     OW27787   6.309   0.712   4.348
 8963SOL    HW127788   6.302   0.798   4.297
 8963SOL    HW227789   6.217   0.674   4.362
 8964SOL     OW27790   5.230   4.605   2.398
 8964SOL    HW127791   5.204   4.510   2.414
 8964SOL    HW227792   5.250   4.619   2.301
 8965SOL     OW27793   1.299   5.419   1.862
 8965SOL    HW127794   1.372   5.412   1.793
 8965SOL    HW227795   1.275   5.328   1.895
 8966SOL     OW27796   1.957   2.650   6.053
 8966SOL    HW127797   1.910   2.680   5.970
 8966SOL    HW227798   2.042   2.702   6.063
 8967SOL     OW27799   4.562   0.574   0.364
 8967SOL    HW127800   4.474   0.620   0.360
 8967SOL    HW227801   4.558   0.491   0.309
 8968SOL     OW27802   4.821   6.057   1.645
 8968SOL    HW127803   4.851   6.016   1.558
 8968SOL    HW227804   4.722   6.071   1.642
 8969SOL     OW27805   6.538   0.640   4.494
 8969SOL    HW127806   6.482   0.647   4.411
 8969SOL    HW227807   6.486   0.593   4.565
 8970SOL     OW27808   3.828   1.670   1.405
 8970SOL    HW127809   3.796   1.759   1.372
 8970SOL    HW227810   3.884   1.683   1.486
 8971SOL     OW27811   4.369   5.186   2.420
 8971SOL    HW127812   4.382   5.256   2.490
 8971SOL    HW227813   4.308   5.221   2.349
 8972SOL     OW27814   5.294   6.646   5.313
 8972SOL    HW127815   5.391   6.635   5.288
 8972SOL    HW227816   5.263   6.563   5.359
 8973SOL     OW27817   1.340   4.467   0.212
 8973SOL    HW127818   1.276   4.395   0.185
 8973SOL    HW227819   1.292   4.555   0.215
 8974SOL     OW27820   0.575   3.600   4.995
 8974SOL    HW127821   0.618   3.593   4.905
 8974SOL    HW227822   0.563   3.509   5.034
 8975SOL     OW27823   3.351   6.912   0.675
 8975SOL    HW127824   3.289   6.834   0.668
 8975SOL    HW227825   3.352   6.962   0.589
 8976SOL     OW27826   1.761   5.588   4.265
 8976SOL    HW127827   1.712   5.521   4.320
 8976SOL    HW227828   1.773   5.552   4.172
 8977SOL     OW27829   6.325   1.524   5.898
 8977SOL    HW127830   6.250   1.521   5.832
 8977SOL    HW227831   6.316   1.449   5.962
 8978SOL     OW27832   5.531   6.999   0.573
 8978SOL    HW127833   5.443   7.011   0.527
 8978SOL    HW227834   5.557   0.074   0.617
 8979SOL     OW27835   1.885   4.070   5.024
 8979SOL    HW127836   1.837   4.130   5.088
 8979SOL    HW227837   1.864   3.975   5.044
 8980SOL     OW27838   3.815   2.940   4.631
 8980SOL    HW127839   3.730   2.933   4.682
 8980SOL    HW227840   3.807   2.890   4.545
 8981SOL     OW27841   3.584   1.250   5.250
 8981SOL    HW127842   3.619   1.343   5.260
 8981SOL    HW227843   3.550   1.236   5.157
 8982SOL     OW27844   3.056   4.540   0.635
 8982SOL    HW127845   3.082   4.633   0.662
 8982SOL    HW227846   3.137   4.482   0.633
 8983SOL     OW27847   4.360   5.484   0.532
 8983SOL    HW127848   4.368   5.569   0.479
 8983SOL    HW227849   4.345   5.506   0.628
 8984SOL     OW27850   2.146   6.066   3.164
 8984SOL    HW127851   2.238   6.030   3.150
 8984SOL    HW227852   2.151   6.149   3.221
 8985SOL     OW27853   3.928   2.798   6.585
 8985SOL    HW127854   4.019   2.839   6.572
 8985SOL    HW227855   3.939   2.700   6.602
 8986SOL     OW27856   3.905   4.872   2.895
 8986SOL    HW127857   3.844   4.850   2.819
 8986SOL    HW227858   3.858   4.855   2.981
 8987SOL     OW27859   5.717   5.816   2.132
 8987SOL    HW127860   5.627   5.787   2.164
 8987SOL    HW227861   5.778   5.827   2.210
 8988SOL     OW27862   0.510   5.366   4.317
 8988SOL    HW127863   0.537   5.281   4.361
 8988SOL    HW227864   0.411   5.369   4.307
 8989SOL     OW27865   4.168   2.923   6.563
 8989SOL    HW127866   4.186   3.018   6.537
 8989SOL    HW227867   4.231   2.896   6.636
 8990SOL     OW27868   6.944   5.202   3.510
 8990SOL    HW127869   6.967   5.222   3.415
 8990SOL    HW227870   6.944   5.287   3.563
 8991SOL     OW27871   1.296   2.490   5.360
 8991SOL    HW127872   1.207   2.459   5.327
 8991SOL    HW227873   1.299   2.485   5.460
 8992SOL     OW27874   6.259   2.061   6.852
 8992SOL    HW127875   6.345   2.035   6.897
 8992SOL    HW227876   6.183   2.015   6.898
 8993SOL     OW27877   4.231   2.633   6.427
 8993SOL    HW127878   4.260   2.727   6.441
 8993SOL    HW227879   4.293   2.589   6.362
 8994SOL     OW27880   1.957   4.459   4.416
 8994SOL    HW127881   1.980   4.534   4.478
 8994SOL    HW227882   2.040   4.430   4.368
 8995SOL     OW27883   6.982   1.719   1.771
 8995SOL    HW127884   6.915   1.646   1.750
 8995SOL    HW227885   7.011   1.710   1.866
 8996SOL     OW27886   5.618   4.060   6.482
 8996SOL    HW127887   5.688   4.124   6.514
 8996SOL    HW227888   5.604   3.989   6.550
 8997SOL     OW27889   5.480   1.045   4.845
 8997SOL    HW127890   5.491   1.098   4.761
 8997SOL    HW227891   5.473   0.948   4.823
 8998SOL     OW27892   5.803   4.377   4.414
 8998SOL    HW127893   5.859   4.458   4.423
 8998SOL    HW227894   5.836   4.306   4.476
 8999SOL     OW27895   5.189   6.554   5.837
 8999SOL    HW127896   5.116   6.543   5.904
 8999SOL    HW227897   5.167   6.629   5.775
 9000SOL     OW27898   2.286   4.530   1.647
 9000SOL    HW127899   2.293   4.450   1.588
 9000SOL    HW227900   2.269   4.500   1.741
 9001SOL     OW27901   0.284   5.052   1.907
 9001SOL    HW127902   0.300   4.986   1.834
 9001SOL    HW227903   0.206   5.110   1.883
 9002SOL     OW27904   1.169   4.224   5.879
 9002SOL    HW127905   1.131   4.290   5.814
 9002SOL    HW227906   1.106   4.216   5.957
 9003SOL     OW27907   5.788   1.654   1.237
 9003SOL    HW127908   5.757   1.733   1.184
 9003SOL    HW227909   5.734   1.646   1.320
 9004SOL     OW27910   4.085   4.748   0.488
 9004SOL    HW127911   4.118   4.841   0.472
 9004SOL    HW227912   3.994   4.737   0.449
 9005SOL     OW27913   5.321   1.017   5.900
 9005SOL    HW127914   5.403   0.993   5.847
 9005SOL    HW227915   5.242   1.021   5.840
 9006SOL     OW27916   4.108   0.028   0.723
 9006SOL    HW127917   4.011   0.046   0.735
 9006SOL    HW227918   4.159   0.114   0.726
 9007SOL     OW27919   2.438   1.678   2.811
 9007SOL    HW127920   2.451   1.628   2.726
 9007SOL    HW227921   2.526   1.686   2.858
 9008SOL     OW27922   0.202   5.794   3.018
 9008SOL    HW127923   0.150   5.790   2.933
 9008SOL    HW227924   0.175   5.875   3.070
 9009SOL     OW27925   3.782   5.631   0.475
 9009SOL    HW127926   3.852   5.646   0.406
 9009SOL    HW227927   3.795   5.542   0.518
 9010SOL     OW27928   1.723   6.849   3.898
 9010SOL    HW127929   1.677   6.835   3.810
 9010SOL    HW227930   1.658   6.837   3.972
 9011SOL     OW27931   4.514   0.535   3.109
 9011SOL    HW127932   4.552   0.568   3.196
 9011SOL    HW227933   4.416   0.520   3.119
 9012SOL     OW27934   2.462   5.745   0.337
 9012SOL    HW127935   2.537   5.737   0.403
 9012SOL    HW227936   2.423   5.837   0.342
 9013SOL     OW27937   1.597   6.399   4.258
 9013SOL    HW127938   1.630   6.321   4.311
 9013SOL    HW227939   1.501   6.416   4.280
 9014SOL     OW27940   6.293   2.099   2.292
 9014SOL    HW127941   6.334   2.189   2.307
 9014SOL    HW227942   6.345   2.050   2.222
 9015SOL     OW27943   5.656   2.222   0.516
 9015SOL    HW127944   5.723   2.261   0.454
 9015SOL    HW227945   5.643   2.125   0.493
 9016SOL     OW27946   5.759   5.390   5.848
 9016SOL    HW127947   5.752   5.373   5.749
 9016SOL    HW227948   5.705   5.471   5.872
 9017SOL     OW27949   3.372   0.900   5.163
 9017SOL    HW127950   3.351   0.820   5.107
 9017SOL    HW227951   3.289   0.934   5.205
 9018SOL     OW27952   3.790   3.041   6.485
 9018SOL    HW127953   3.836   3.099   6.552
 9018SOL    HW227954   3.813   2.946   6.502
 9019SOL     OW27955   1.069   2.769   2.964
 9019SOL    HW127956   1.139   2.736   3.026
 9019SOL    HW227957   0.983   2.781   3.014
 9020SOL     OW27958   6.387   5.733   1.894
 9020SOL    HW127959   6.311   5.762   1.953
 9020SOL    HW227960   6.430   5.651   1.932
 9021SOL     OW27961   0.131   0.518   4.206
 9021SOL    HW127962   0.184   0.561   4.279
 9021SOL    HW227963   0.178   0.435   4.175
 9022SOL     OW27964   3.977   2.543   6.650
 9022SOL    HW127965   4.041   2.490   6.595
 9022SOL    HW227966   3.984   2.515   6.746
 9023SOL     OW27967   4.398   3.191   1.207
 9023SOL    HW127968   4.356   3.106   1.237
 9023SOL    HW227969   4.356   3.268   1.254
 9024SOL     OW27970   1.679   5.226   6.086
 9024SOL    HW127971   1.607   5.167   6.048
 9024SOL    HW227972   1.769   5.190   6.062
 9025SOL     OW27973   0.539   5.495   0.951
 9025SOL    HW127974   0.458   5.449   0.916
 9025SOL    HW227975   0.520   5.592   0.963
 9026SOL     OW27976   3.916   1.928   0.176
 9026SOL    HW127977   3.980   1.952   0.249
 9026SOL    HW227978   3.967   1.892   0.097
 9027SOL     OW27979   0.818   3.601   3.851
 9027SOL    HW127980   0.788   3.623   3.759
 9027SOL    HW227981   0.786   3.510   3.876
 9028SOL     OW27982   3.605   3.925   5.607
 9028SOL    HW127983   3.703   3.923   5.590
 9028SOL    HW227984   3.557   3.939   5.520
 9029SOL     OW27985   4.172   0.198   4.722
 9029SOL    HW127986   4.232   0.166   4.649
 9029SOL    HW227987   4.213   0.278   4.766
 9030SOL     OW27988   2.728   2.381   3.854
 9030SOL    HW127989   2.733   2.353   3.950
 9030SOL    HW227990   2.731   2.300   3.796
 9031SOL     OW27991   4.703   0.309   4.442
 9031SOL    HW127992   4.635   0.381   4.460
 9031SOL    HW227993   4.666   0.244   4.376
 9032SOL     OW27994   4.712   3.576   1.565
 9032SOL    HW127995   4.686   3.497   1.510
 9032SOL    HW227996   4.765   3.545   1.644
 9033SOL     OW27997   0.979   5.683   2.871
 9033SOL    HW127998   1.075   5.672   2.896
 9033SOL    HW227999   0.932   5.739   2.939
 9034SOL     OW28000   3.064   6.326   4.568
 9034SOL    HW128001   2.994   6.265   4.530
 9034SOL    HW228002   3.132   6.347   4.498
 9035SOL     OW28003   1.736   5.057   0.643
 9035SOL    HW128004   1.741   5.141   0.589
 9035SOL    HW228005   1.829   5.025   0.664
 9036SOL     OW28006   1.218   3.742   5.556
 9036SOL    HW128007   1.289   3.783   5.614
 9036SOL    HW228008   1.220   3.643   5.568
 9037SOL     OW28009   0.768   2.422   3.186
 9037SOL    HW128010   0.865   2.400   3.197
 9037SOL    HW228011   0.718   2.395   3.268
 9038SOL     OW28012   4.420   3.215   6.376
 9038SOL    HW128013   4.472   3.287   6.422
 9038SOL    HW228014   4.406   3.240   6.280
 9039SOL     OW28015   2.871   5.060   6.774
 9039SOL    HW128016   2.888   5.142   6.830
 9039SOL    HW228017   2.917   5.071   6.685
 9040SOL     OW28018   1.875   1.911   1.380
 9040SOL    HW128019   1.968   1.907   1.343
 9040SOL    HW228020   1.850   1.821   1.416
 9041SOL     OW28021   0.102   2.504   0.977
 9041SOL    HW128022   0.049   2.443   0.919
 9041SOL    HW228023   0.165   2.558   0.920
 9042SOL     OW28024   3.593   5.701   6.186
 9042SOL    HW128025   3.539   5.625   6.221
 9042SOL    HW228026   3.555   5.731   6.098
 9043SOL     OW28027   2.944   1.280   0.164
 9043SOL    HW128028   2.848   1.259   0.145
 9043SOL    HW228029   2.990   1.307   0.079
 9044SOL     OW28030   0.941   0.343   6.495
 9044SOL    HW128031   0.863   0.303   6.448
 9044SOL    HW228032   0.952   0.438   6.466
 9045SOL     OW28033   4.180   0.394   2.914
 9045SOL    HW128034   4.176   0.432   3.006
 9045SOL    HW228035   4.231   0.308   2.915
 9046SOL     OW28036   3.245   3.760   2.899
 9046SOL    HW128037   3.254   3.719   2.809
 9046SOL    HW228038   3.149   3.760   2.926
 9047SOL     OW28039   1.396   4.082   5.943
 9047SOL    HW128040   1.421   4.068   6.039
 9047SOL    HW228041   1.317   4.143   5.937
 9048SOL     OW28042   6.354   2.322   5.959
 9048SOL    HW128043   6.278   2.292   6.016
 9048SOL    HW228044   6.356   2.268   5.875
 9049SOL     OW28045   3.040   6.730   6.594
 9049SOL    HW128046   3.014   6.754   6.500
 9049SOL    HW228047   2.988   6.650   6.624
 9050SOL     OW28048   0.633   4.149   1.355
 9050SOL    HW128049   0.567   4.224   1.363
 9050SOL    HW228050   0.702   4.158   1.426
 9051SOL     OW28051   2.556   1.858   1.221
 9051SOL    HW128052   2.541   1.957   1.212
 9051SOL    HW228053   2.523   1.828   1.311
 9052SOL     OW28054   1.690   3.074   4.880
 9052SOL    HW128055   1.682   3.004   4.808
 9052SOL    HW228056   1.754   3.043   4.950
 9053SOL     OW28057   1.867   1.530   1.208
 9053SOL    HW128058   1.942   1.597   1.209
 9053SOL    HW228059   1.782   1.575   1.183
 9054SOL     OW28060   2.781   5.581   3.446
 9054SOL    HW128061   2.879   5.560   3.445
 9054SOL    HW228062   2.730   5.502   3.413
 9055SOL     OW28063   0.332   4.082   4.590
 9055SOL    HW128064   0.269   4.140   4.539
 9055SOL    HW228065   0.363   4.007   4.532
 9056SOL     OW28066   6.570   1.748   2.832
 9056SOL    HW128067   6.477   1.734   2.798
 9056SOL    HW228068   6.573   1.726   2.929
 9057SOL     OW28069   4.374   1.276   4.287
 9057SOL    HW128070   4.312   1.261   4.364
 9057SOL    HW228071   4.468   1.277   4.320
 9058SOL     OW28072   1.452   0.864   6.545
 9058SOL    HW128073   1.545   0.875   6.512
 9058SOL    HW228074   1.420   0.771   6.524
 9059SOL     OW28075   1.395   1.870   2.530
 9059SOL    HW128076   1.368   1.964   2.509
 9059SOL    HW228077   1.493   1.868   2.551
 9060SOL     OW28078   5.125   3.097   4.891
 9060SOL    HW128079   5.081   3.048   4.816
 9060SOL    HW228080   5.218   3.062   4.904
 9061SOL     OW28081   5.155   5.490   2.330
 9061SOL    HW128082   5.071   5.544   2.326
 9061SOL    HW228083   5.141   5.403   2.283
 9062SOL     OW28084   1.420   4.785   1.235
 9062SOL    HW128085   1.418   4.837   1.320
 9062SOL    HW228086   1.509   4.798   1.190
 9063SOL     OW28087   3.305   2.104   2.696
 9063SOL    HW128088   3.234   2.174   2.705
 9063SOL    HW228089   3.287   2.047   2.616
 9064SOL     OW28090   6.698   3.206   6.697
 9064SOL    HW128091   6.615   3.260   6.685
 9064SOL    HW228092   6.682   3.112   6.664
 9065SOL     OW28093   2.430   1.057   0.615
 9065SOL    HW128094   2.383   1.097   0.537
 9065SOL    HW228095   2.403   1.105   0.699
 9066SOL     OW28096   4.639   6.810   6.939
 9066SOL    HW128097   4.709   6.794   7.009
 9066SOL    HW228098   4.571   6.874   6.974
 9067SOL     OW28099   1.491   6.897   3.395
 9067SOL    HW128100   1.585   6.885   3.361
 9067SOL    HW228101   1.441   6.956   3.332
 9068SOL     OW28102   1.382   5.270   6.638
 9068SOL    HW128103   1.370   5.247   6.542
 9068SOL    HW228104   1.455   5.338   6.647
 9069SOL     OW28105   1.777   2.903   6.104
 9069SOL    HW128106   1.717   2.877   6.179
 9069SOL    HW228107   1.758   2.846   6.024
 9070SOL     OW28108   1.097   4.792   4.438
 9070SOL    HW128109   1.064   4.876   4.479
 9070SOL    HW228110   1.197   4.789   4.442
 9071SOL     OW28111   6.355   6.915   0.092
 9071SOL    HW128112   6.436   6.868   0.057
 9071SOL    HW228113   6.295   6.849   0.138
 9072SOL     OW28114   6.201   3.856   6.711
 9072SOL    HW128115   6.208   3.768   6.758
 9072SOL    HW228116   6.105   3.875   6.689
 9073SOL     OW28117   1.916   0.707   1.870
 9073SOL    HW128118   1.826   0.680   1.837
 9073SOL    HW228119   1.922   0.693   1.969
 9074SOL     OW28120   1.583   0.124   2.697
 9074SOL    HW128121   1.486   0.098   2.692
 9074SOL    HW228122   1.592   0.223   2.688
 9075SOL     OW28123   6.731   1.038   2.181
 9075SOL    HW128124   6.700   1.091   2.103
 9075SOL    HW228125   6.790   1.094   2.239
 9076SOL     OW28126   6.641   0.930   5.747
 9076SOL    HW128127   6.577   0.854   5.739
 9076SOL    HW228128   6.680   0.931   5.839
 9077SOL     OW28129   5.874   6.208   2.193
 9077SOL    HW128130   5.963   6.167   2.217
 9077SOL    HW228131   5.854   6.283   2.255
 9078SOL     OW28132   3.783   2.932   5.107
 9078SOL    HW128133   3.825   2.953   5.019
 9078SOL    HW228134   3.685   2.948   5.103
 9079SOL     OW28135   2.973   0.112   5.969
 9079SOL    HW128136   3.060   0.063   5.974
 9079SOL    HW228137   2.922   0.082   5.889
 9080SOL     OW28138   5.285   1.759   0.998
 9080SOL    HW128139   5.286   1.660   0.988
 9080SOL    HW228140   5.363   1.798   0.947
 9081SOL     OW28141   5.317   6.113   2.134
 9081SOL    HW128142   5.406   6.102   2.177
 9081SOL    HW228143   5.301   6.037   2.071
 9082SOL     OW28144   3.024   1.351   3.718
 9082SOL    HW128145   2.933   1.393   3.715
 9082SOL    HW228146   3.076   1.390   3.794
 9083SOL     OW28147   4.760   4.909   4.843
 9083SOL    HW128148   4.859   4.903   4.831
 9083SOL    HW228149   4.716   4.835   4.793
 9084SOL     OW28150   2.970   3.699   2.946
 9084SOL    HW128151   2.973   3.603   2.974
 9084SOL    HW228152   2.945   3.756   3.024
 9085SOL     OW28153   1.788   2.052   0.505
 9085SOL    HW128154   1.887   2.067   0.511
 9085SOL    HW228155   1.742   2.104   0.577
 9086SOL     OW28156   0.643   4.535   0.968
 9086SOL    HW128157   0.648   4.441   0.932
 9086SOL    HW228158   0.690   4.539   1.056
 9087SOL     OW28159   4.977   3.588   2.009
 9087SOL    HW128160   4.954   3.521   2.079
 9087SOL    HW228161   4.961   3.680   2.045
 9088SOL     OW28162   5.159   0.526   0.177
 9088SOL    HW128163   5.083   0.490   0.231
 9088SOL    HW228164   5.233   0.459   0.174
 9089SOL     OW28165   4.368   6.988   5.210
 9089SOL    HW128166   4.427   6.911   5.233
 9089SOL    HW228167   4.292   6.993   5.276
 9090SOL     OW28168   5.817   1.594   4.744
 9090SOL    HW128169   5.877   1.673   4.732
 9090SOL    HW228170   5.871   1.510   4.738
 9091SOL     OW28171   3.114   3.697   0.012
 9091SOL    HW128172   3.160   3.611   7.004
 9091SOL    HW228173   3.025   3.678   0.055
 9092SOL     OW28174   0.369   2.120   0.279
 9092SOL    HW128175   0.383   2.214   0.311
 9092SOL    HW228176   0.271   2.098   0.280
 9093SOL     OW28177   1.300   6.232   5.822
 9093SOL    HW128178   1.382   6.284   5.849
 9093SOL    HW228179   1.219   6.287   5.841
 9094SOL     OW28180   0.527   3.842   2.144
 9094SOL    HW128181   0.597   3.809   2.082
 9094SOL    HW228182   0.504   3.771   2.210
 9095SOL     OW28183   5.933   6.277   4.893
 9095SOL    HW128184   5.875   6.197   4.885
 9095SOL    HW228185   5.967   6.285   4.987
 9096SOL     OW28186   6.259   5.667   2.944
 9096SOL    HW128187   6.251   5.657   3.043
 9096SOL    HW228188   6.314   5.748   2.922
 9097SOL     OW28189   0.971   3.012   6.263
 9097SOL    HW128190   0.874   2.995   6.246
 9097SOL    HW228191   0.987   3.111   6.268
 9098SOL     OW28192   1.576   3.783   4.266
 9098SOL    HW128193   1.610   3.848   4.334
 9098SOL    HW228194   1.479   3.764   4.283
 9099SOL     OW28195   2.616   2.567   6.861
 9099SOL    HW128196   2.668   2.587   6.944
 9099SOL    HW228197   2.676   2.574   6.781
 9100SOL     OW28198   0.816   4.988   3.112
 9100SOL    HW128199   0.879   4.949   3.179
 9100SOL    HW228200   0.827   5.087   3.110
 9101SOL     OW28201   0.983   2.627   1.946
 9101SOL    HW128202   1.083   2.633   1.936
 9101SOL    HW228203   0.961   2.601   2.040
 9102SOL     OW28204   4.105   6.366   3.437
 9102SOL    HW128205   4.031   6.357   3.505
 9102SOL    HW228206   4.066   6.387   3.348
 9103SOL     OW28207   6.209   1.515   0.663
 9103SOL    HW128208   6.117   1.545   0.637
 9103SOL    HW228209   6.235   1.559   0.749
 9104SOL     OW28210   6.268   0.959   6.633
 9104SOL    HW128211   6.262   1.056   6.656
 9104SOL    HW228212   6.249   0.904   6.715
 9105SOL     OW28213   2.099   0.243   6.080
 9105SOL    HW128214   2.077   0.283   6.170
 9105SOL    HW228215   2.103   0.316   6.012
 9106SOL     OW28216   1.857   4.229   0.997
 9106SOL    HW128217   1.800   4.173   1.057
 9106SOL    HW228218   1.889   4.309   1.048
 9107SOL     OW28219   2.444   1.027   7.011
 9107SOL    HW128220   2.396   1.006   0.085
 9107SOL    HW228221   2.415   0.964   6.940
 9108SOL     OW28222   5.826   5.123   6.221
 9108SOL    HW128223   5.779   5.076   6.146
 9108SOL    HW228224   5.918   5.086   6.230
 9109SOL     OW28225   5.217   3.047   2.459
 9109SOL    HW128226   5.306   3.092   2.461
 9109SOL    HW228227   5.223   2.959   2.507
 9110SOL     OW28228   1.313   6.025   5.065
 9110SOL    HW128229   1.267   6.113   5.053
 9110SOL    HW228230   1.332   5.984   4.976
 9111SOL     OW28231   4.000   2.971   5.744
 9111SOL    HW128232   3.978   2.890   5.799
 9111SOL    HW228233   3.964   3.053   5.789
 9112SOL     OW28234   0.938   5.306   2.235
 9112SOL    HW128235   0.921   5.353   2.149
 9112SOL    HW228236   1.036   5.290   2.245
 9113SOL     OW28237   5.447   1.517   3.764
 9113SOL    HW128238   5.408   1.502   3.855
 9113SOL    HW228239   5.426   1.438   3.705
 9114SOL     OW28240   1.720   5.865   5.281
 9114SOL    HW128241   1.805   5.884   5.232
 9114SOL    HW228242   1.658   5.942   5.271
 9115SOL     OW28243   5.027   4.283   4.308
 9115SOL    HW128244   5.098   4.281   4.378
 9115SOL    HW228245   5.059   4.236   4.226
 9116SOL     OW28246   1.145   0.034   2.953
 9116SOL    HW128247   1.090   0.021   3.036
 9116SOL    HW228248   1.084   0.054   2.876
 9117SOL     OW28249   3.318   0.461   0.467
 9117SOL    HW128250   3.342   0.378   0.517
 9117SOL    HW228251   3.391   0.528   0.478
 9118SOL     OW28252   6.228   4.654   1.383
 9118SOL    HW128253   6.243   4.558   1.361
 9118SOL    HW228254   6.166   4.661   1.460
 9119SOL     OW28255   3.723   0.444   0.927
 9119SOL    HW128256   3.678   0.516   0.875
 9119SOL    HW228257   3.677   0.433   1.015
 9120SOL     OW28258   6.058   3.145   5.216
 9120SOL    HW128259   5.985   3.177   5.156
 9120SOL    HW228260   6.086   3.219   5.278
 9121SOL     OW28261   3.050   0.587   4.849
 9121SOL    HW128262   3.078   0.540   4.765
 9121SOL    HW228263   3.096   0.676   4.854
 9122SOL     OW28264   1.803   3.928   2.448
 9122SOL    HW128265   1.747   3.978   2.382
 9122SOL    HW228266   1.777   3.953   2.541
 9123SOL     OW28267   0.603   0.000   3.655
 9123SOL    HW128268   0.537   6.937   3.663
 9123SOL    HW228269   0.694   6.978   3.679
 9124SOL     OW28270   2.708   5.425   1.466
 9124SOL    HW128271   2.792   5.477   1.452
 9124SOL    HW228272   2.657   5.420   1.381
 9125SOL     OW28273   4.504   6.107   1.027
 9125SOL    HW128274   4.407   6.128   1.038
 9125SOL    HW228275   4.543   6.166   0.957
 9126SOL     OW28276   3.919   4.410   0.295
 9126SOL    HW128277   3.951   4.426   0.388
 9126SOL    HW228278   3.968   4.332   0.256
 9127SOL     OW28279   0.091   4.745   4.429
 9127SOL    HW128280   7.003   4.736   4.434
 9127SOL    HW228281   0.116   4.791   4.344
 9128SOL     OW28282   5.742   3.651   5.943
 9128SOL    HW128283   5.686   3.721   5.899
 9128SOL    HW228284   5.785   3.690   6.025
 9129SOL     OW28285   1.656   2.483   0.919
 9129SOL    HW128286   1.731   2.425   0.887
 9129SOL    HW228287   1.592   2.428   0.973
 9130SOL     OW28288   2.943   3.718   5.011
 9130SOL    HW128289   2.955   3.778   4.932
 9130SOL    HW228290   2.898   3.769   5.085
 9131SOL     OW28291   5.167   2.462   1.022
 9131SOL    HW128292   5.076   2.476   0.985
 9131SOL    HW228293   5.169   2.379   1.078
 9132SOL     OW28294   6.685   4.442   3.331
 9132SOL    HW128295   6.780   4.440   3.362
 9132SOL    HW228296   6.625   4.449   3.410
 9133SOL     OW28297   4.589   1.215   1.044
 9133SOL    HW128298   4.658   1.163   1.095
 9133SOL    HW228299   4.613   1.215   0.946
 9134SOL     OW28300   4.460   4.596   0.317
 9134SOL    HW128301   4.487   4.667   0.252
 9134SOL    HW228302   4.517   4.515   0.304
 9135SOL     OW28303   6.451   6.622   2.546
 9135SOL    HW128304   6.440   6.719   2.569
 9135SOL    HW228305   6.394   6.566   2.606
 9136SOL     OW28306   6.530   4.535   6.891
 9136SOL    HW128307   6.450   4.525   6.833
 9136SOL    HW228308   6.531   4.462   6.960
 9137SOL     OW28309   5.364   6.263   6.315
 9137SOL    HW128310   5.404   6.216   6.237
 9137SOL    HW228311   5.265   6.248   6.316
 9138SOL     OW28312   3.339   3.029   0.641
 9138SOL    HW128313   3.387   3.050   0.726
 9138SOL    HW228314   3.248   3.070   0.644
 9139SOL     OW28315   6.504   0.427   0.849
 9139SOL    HW128316   6.558   0.363   0.793
 9139SOL    HW228317   6.420   0.382   0.878
 9140SOL     OW28318   1.205   4.112   3.162
 9140SOL    HW128319   1.245   4.123   3.253
 9140SOL    HW228320   1.268   4.149   3.094
 9141SOL     OW28321   6.661   5.877   5.109
 9141SOL    HW128322   6.699   5.962   5.144
 9141SOL    HW228323   6.594   5.841   5.173
 9142SOL     OW28324   1.653   4.422   4.794
 9142SOL    HW128325   1.696   4.512   4.786
 9142SOL    HW228326   1.725   4.353   4.804
 9143SOL     OW28327   6.904   4.176   3.076
 9143SOL    HW128328   6.814   4.188   3.035
 9143SOL    HW228329   6.903   4.094   3.133
 9144SOL     OW28330   2.585   4.617   5.097
 9144SOL    HW128331   2.684   4.599   5.095
 9144SOL    HW228332   2.551   4.623   5.003
 9145SOL     OW28333   1.381   5.976   5.856
 9145SOL    HW128334   1.411   5.938   5.768
 9145SOL    HW228335   1.364   6.074   5.846
 9146SOL     OW28336   5.421   2.598   3.219
 9146SOL    HW128337   5.325   2.600   3.191
 9146SOL    HW228338   5.427   2.584   3.317
 9147SOL     OW28339   4.135   6.753   5.105
 9147SOL    HW128340   4.225   6.736   5.065
 9147SOL    HW228341   4.137   6.839   5.155
 9148SOL     OW28342   5.606   5.910   1.535
 9148SOL    HW128343   5.541   5.872   1.469
 9148SOL    HW228344   5.646   5.836   1.589
 9149SOL     OW28345   0.136   3.627   1.512
 9149SOL    HW128346   0.105   3.679   1.592
 9149SOL    HW228347   0.169   3.691   1.443
 9150SOL     OW28348   2.006   3.021   0.658
 9150SOL    HW128349   2.095   3.015   0.613
 9150SOL    HW228350   1.950   3.090   0.612
 9151SOL     OW28351   1.765   3.195   3.844
 9151SOL    HW128352   1.741   3.099   3.829
 9151SOL    HW228353   1.836   3.201   3.914
 9152SOL     OW28354   1.550   3.989   2.349
 9152SOL    HW128355   1.454   3.976   2.374
 9152SOL    HW228356   1.584   3.907   2.302
 9153SOL     OW28357   0.676   3.839   6.050
 9153SOL    HW128358   0.770   3.863   6.023
 9153SOL    HW228359   0.618   3.920   6.044
 9154SOL     OW28360   5.242   4.982   2.831
 9154SOL    HW128361   5.153   4.937   2.831
 9154SOL    HW228362   5.240   5.061   2.771
 9155SOL     OW28363   1.650   6.709   2.832
 9155SOL    HW128364   1.637   6.625   2.779
 9155SOL    HW228365   1.561   6.746   2.857
 9156SOL     OW28366   6.482   3.898   5.972
 9156SOL    HW128367   6.573   3.937   5.958
 9156SOL    HW228368   6.437   3.885   5.884
 9157SOL     OW28369   1.635   3.881   6.623
 9157SOL    HW128370   1.581   3.932   6.690
 9157SOL    HW228371   1.595   3.789   6.612
 9158SOL     OW28372   6.792   4.030   4.829
 9158SOL    HW128373   6.759   4.087   4.753
 9158SOL    HW228374   6.737   3.947   4.834
 9159SOL     OW28375   2.906   1.446   4.152
 9159SOL    HW128376   2.980   1.497   4.108
 9159SOL    HW228377   2.854   1.507   4.212
 9160SOL     OW28378   0.828   4.410   1.757
 9160SOL    HW128379   0.777   4.339   1.805
 9160SOL    HW228380   0.925   4.385   1.752
 9161SOL     OW28381   6.581   4.197   2.343
 9161SOL    HW128382   6.628   4.284   2.356
 9161SOL    HW228383   6.540   4.194   2.252
 9162SOL     OW28384   4.516   1.988   1.463
 9162SOL    HW128385   4.454   1.910   1.462
 9162SOL    HW228386   4.575   1.985   1.383
 9163SOL     OW28387   1.912   2.553   3.526
 9163SOL    HW128388   1.917   2.567   3.427
 9163SOL    HW228389   1.993   2.503   3.557
 9164SOL     OW28390   2.810   6.467   0.327
 9164SOL    HW128391   2.897   6.431   0.361
 9164SOL    HW228392   2.766   6.522   0.399
 9165SOL     OW28393   5.633   1.345   5.986
 9165SOL    HW128394   5.553   1.333   5.928
 9165SOL    HW228395   5.693   1.415   5.947
 9166SOL     OW28396   5.404   6.143   1.220
 9166SOL    HW128397   5.387   6.049   1.249
 9166SOL    HW228398   5.317   6.186   1.194
 9167SOL     OW28399   1.761   1.327   4.805
 9167SOL    HW128400   1.809   1.405   4.844
 9167SOL    HW228401   1.740   1.261   4.878
 9168SOL     OW28402   6.682   6.022   4.490
 9168SOL    HW128403   6.621   5.943   4.493
 9168SOL    HW228404   6.776   5.992   4.475
 9169SOL     OW28405   6.859   6.188   1.516
 9169SOL    HW128406   6.890   6.143   1.432
 9169SOL    HW228407   6.827   6.280   1.495
 9170SOL     OW28408   1.374   0.923   6.244
 9170SOL    HW128409   1.424   0.843   6.213
 9170SOL    HW228410   1.433   1.004   6.239
 9171SOL     OW28411   3.229   5.329   6.395
 9171SOL    HW128412   3.306   5.265   6.397
 9171SOL    HW228413   3.194   5.341   6.488
 9172SOL     OW28414   4.815   1.694   4.246
 9172SOL    HW128415   4.886   1.689   4.175
 9172SOL    HW228416   4.856   1.723   4.332
 9173SOL     OW28417   5.691   3.611   5.118
 9173SOL    HW128418   5.695   3.660   5.205
 9173SOL    HW228419   5.635   3.662   5.053
 9174SOL     OW28420   6.967   4.781   0.916
 9174SOL    HW128421   6.922   4.698   0.947
 9174SOL    HW228422   0.008   4.761   0.833
 9175SOL     OW28423   2.139   0.182   0.194
 9175SOL    HW128424   2.085   0.200   0.112
 9175SOL    HW228425   2.085   0.205   0.275
 9176SOL     OW28426   1.684   1.752   2.137
 9176SOL    HW128427   1.592   1.775   2.170
 9176SOL    HW228428   1.707   1.810   2.059
 9177SOL     OW28429   0.142   5.221   3.874
 9177SOL    HW128430   0.083   5.174   3.808
 9177SOL    HW228431   0.228   5.245   3.829
 9178SOL     OW28432   1.985   4.988   0.865
 9178SOL    HW128433   1.952   5.016   0.955
 9178SOL    HW228434   2.085   4.994   0.863
 9179SOL     OW28435   3.124   5.465   4.199
 9179SOL    HW128436   3.068   5.422   4.269
 9179SOL    HW228437   3.080   5.455   4.110
 9180SOL     OW28438   0.243   1.052   4.975
 9180SOL    HW128439   0.157   1.080   5.017
 9180SOL    HW228440   0.251   1.092   4.884
 9181SOL     OW28441   2.387   1.950   3.613
 9181SOL    HW128442   2.431   1.913   3.531
 9181SOL    HW228443   2.426   1.906   3.694
 9182SOL     OW28444   0.736   1.750   3.121
 9182SOL    HW128445   0.776   1.704   3.042
 9182SOL    HW228446   0.642   1.718   3.133
 9183SOL     OW28447   1.216   1.830   6.036
 9183SOL    HW128448   1.315   1.820   6.039
 9183SOL    HW228449   1.183   1.816   5.943
 9184SOL     OW28450   3.964   3.403   0.651
 9184SOL    HW128451   4.053   3.358   0.659
 9184SOL    HW228452   3.910   3.387   0.733
 9185SOL     OW28453   0.933   0.918   6.828
 9185SOL    HW128454   0.899   0.856   6.756
 9185SOL    HW228455   1.013   0.967   6.795
 9186SOL     OW28456   5.303   0.813   6.230
 9186SOL    HW128457   5.261   0.901   6.254
 9186SOL    HW228458   5.390   0.803   6.277
 9187SOL     OW28459   5.800   2.157   0.762
 9187SOL    HW128460   5.810   2.208   0.847
 9187SOL    HW228461   5.752   2.214   0.695
 9188SOL     OW28462   1.429   0.256   2.408
 9188SOL    HW128463   1.408   0.304   2.323
 9188SOL    HW228464   1.526   0.264   2.428
 9189SOL     OW28465   4.281   1.128   5.250
 9189SOL    HW128466   4.295   1.210   5.306
 9189SOL    HW228467   4.368   1.083   5.233
 9190SOL     OW28468   5.674   1.957   5.407
 9190SOL    HW128469   5.579   1.986   5.416
 9190SOL    HW228470   5.734   2.028   5.443
 9191SOL     OW28471   5.485   0.186   1.094
 9191SOL    HW128472   5.461   0.280   1.073
 9191SOL    HW228473   5.570   0.162   1.047
 9192SOL     OW28474   4.832   3.950   3.939
 9192SOL    HW128475   4.745   3.902   3.937
 9192SOL    HW228476   4.903   3.892   3.901
 9193SOL     OW28477   2.918   3.361   3.418
 9193SOL    HW128478   2.929   3.270   3.377
 9193SOL    HW228479   2.872   3.352   3.506
 9194SOL     OW28480   4.152   5.777   2.396
 9194SOL    HW128481   4.172   5.734   2.484
 9194SOL    HW228482   4.086   5.850   2.408
 9195SOL     OW28483   0.097   3.107   2.632
 9195SOL    HW128484   0.012   3.137   2.675
 9195SOL    HW228485   0.167   3.176   2.646
 9196SOL     OW28486   5.077   6.458   3.632
 9196SOL    HW128487   5.109   6.373   3.673
 9196SOL    HW228488   4.988   6.483   3.671
 9197SOL     OW28489   3.721   3.022   5.537
 9197SOL    HW128490   3.786   3.035   5.462
 9197SOL    HW228491   3.730   3.097   5.602
 9198SOL     OW28492   5.612   2.306   5.630
 9198SOL    HW128493   5.634   2.388   5.578
 9198SOL    HW228494   5.590   2.330   5.724
 9199SOL     OW28495   1.631   3.380   6.320
 9199SOL    HW128496   1.587   3.300   6.280
 9199SOL    HW228497   1.642   3.366   6.419
 9200SOL     OW28498   5.807   6.570   0.881
 9200SOL    HW128499   5.765   6.585   0.970
 9200SOL    HW228500   5.805   6.656   0.829
 9201SOL     OW28501   1.391   4.195   2.967
 9201SOL    HW128502   1.397   4.131   2.890
 9201SOL    HW228503   1.483   4.219   2.997
 9202SOL     OW28504   3.036   5.537   3.606
 9202SOL    HW128505   3.037   5.545   3.705
 9202SOL    HW228506   3.073   5.448   3.579
 9203SOL     OW28507   4.846   0.707   6.011
 9203SOL    HW128508   4.830   0.632   5.947
 9203SOL    HW228509   4.934   0.751   5.989
 9204SOL     OW28510   5.165   4.234   2.068
 9204SOL    HW128511   5.196   4.265   1.978
 9204SOL    HW228512   5.219   4.155   2.096
 9205SOL     OW28513   4.886   3.124   2.234
 9205SOL    HW128514   4.975   3.085   2.210
 9205SOL    HW228515   4.815   3.085   2.176
 9206SOL     OW28516   0.737   6.752   2.944
 9206SOL    HW128517   0.705   6.842   2.973
 9206SOL    HW228518   0.711   6.736   2.849
 9207SOL     OW28519   3.825   6.524   6.697
 9207SOL    HW128520   3.818   6.619   6.669
 9207SOL    HW228521   3.907   6.511   6.753
 9208SOL     OW28522   4.931   4.628   2.070
 9208SOL    HW128523   4.872   4.696   2.028
 9208SOL    HW228524   5.005   4.604   2.007
 9209SOL     OW28525   3.749   0.337   3.167
 9209SOL    HW128526   3.682   0.292   3.108
 9209SOL    HW228527   3.707   0.355   3.256
 9210SOL     OW28528   1.434   6.739   0.314
 9210SOL    HW128529   1.505   6.670   0.296
 9210SOL    HW228530   1.344   6.696   0.310
 9211SOL     OW28531   4.914   1.458   5.622
 9211SOL    HW128532   4.982   1.521   5.585
 9211SOL    HW228533   4.852   1.508   5.682
 9212SOL     OW28534   5.476   3.776   4.999
 9212SOL    HW128535   5.440   3.762   5.091
 9212SOL    HW228536   5.468   3.873   4.974
 9213SOL     OW28537   6.667   0.144   2.718
 9213SOL    HW128538   6.604   0.067   2.724
 9213SOL    HW228539   6.711   0.145   2.628
 9214SOL     OW28540   2.490   2.421   5.448
 9214SOL    HW128541   2.580   2.440   5.410
 9214SOL    HW228542   2.426   2.493   5.418
 9215SOL     OW28543   0.271   2.973   2.767
 9215SOL    HW128544   0.329   3.045   2.807
 9215SOL    HW228545   0.201   3.015   2.710
 9216SOL     OW28546   2.788   5.901   3.815
 9216SOL    HW128547   2.766   5.975   3.880
 9216SOL    HW228548   2.883   5.872   3.830
 9217SOL     OW28549   4.261   0.895   6.431
 9217SOL    HW128550   4.234   0.801   6.409
 9217SOL    HW228551   4.337   0.923   6.373
 9218SOL     OW28552   5.735   5.606   6.178
 9218SOL    HW128553   5.689   5.678   6.231
 9218SOL    HW228554   5.701   5.517   6.207
 9219SOL     OW28555   3.539   2.550   5.680
 9219SOL    HW128556   3.562   2.646   5.668
 9219SOL    HW228557   3.482   2.519   5.604
 9220SOL     OW28558   0.262   0.020   3.100
 9220SOL    HW128559   0.218   6.962   3.157
 9220SOL    HW228560   0.204   0.041   3.021
 9221SOL     OW28561   1.998   1.452   0.352
 9221SOL    HW128562   1.958   1.415   0.268
 9221SOL    HW228563   2.035   1.544   0.333
 9222SOL     OW28564   1.874   3.144   4.200
 9222SOL    HW128565   1.968   3.178   4.200
 9222SOL    HW228566   1.841   3.138   4.295
 9223SOL     OW28567   0.529   3.278   5.099
 9223SOL    HW128568   0.599   3.297   5.168
 9223SOL    HW228569   0.494   3.185   5.112
 9224SOL     OW28570   2.613   4.575   3.666
 9224SOL    HW128571   2.596   4.613   3.757
 9224SOL    HW228572   2.676   4.634   3.616
 9225SOL     OW28573   5.577   5.800   6.264
 9225SOL    HW128574   5.505   5.743   6.223
 9225SOL    HW228575   5.539   5.852   6.340
 9226SOL     OW28576   0.811   0.749   0.659
 9226SOL    HW128577   0.759   0.685   0.715
 9226SOL    HW228578   0.779   0.744   0.564
 9227SOL     OW28579   2.818   4.406   0.454
 9227SOL    HW128580   2.874   4.356   0.387
 9227SOL    HW228581   2.874   4.425   0.535
 9228SOL     OW28582   3.552   3.496   5.480
 9228SOL    HW128583   3.476   3.476   5.541
 9228SOL    HW228584   3.525   3.567   5.415
 9229SOL     OW28585   6.933   4.736   6.977
 9229SOL    HW128586   6.927   4.637   6.966
 9229SOL    HW228587   6.841   4.775   6.978
 9230SOL     OW28588   4.659   1.443   4.805
 9230SOL    HW128589   4.725   1.475   4.873
 9230SOL    HW228590   4.660   1.504   4.726
 9231SOL     OW28591   6.560   6.021   3.014
 9231SOL    HW128592   6.621   6.049   2.940
 9231SOL    HW228593   6.604   5.950   3.069
 9232SOL     OW28594   1.201   5.318   2.213
 9232SOL    HW128595   1.230   5.225   2.238
 9232SOL    HW228596   1.265   5.354   2.145
 9233SOL     OW28597   0.475   6.624   6.577
 9233SOL    HW128598   0.382   6.642   6.608
 9233SOL    HW228599   0.524   6.572   6.647
 9234SOL     OW28600   2.457   3.745   7.008
 9234SOL    HW128601   2.477   3.785   0.086
 9234SOL    HW228602   2.378   3.683   0.005
 9235SOL     OW28603   1.745   1.821   2.947
 9235SOL    HW128604   1.827   1.771   2.917
 9235SOL    HW228605   1.733   1.809   3.046
 9236SOL     OW28606   1.848   3.126   6.685
 9236SOL    HW128607   1.776   3.058   6.674
 9236SOL    HW228608   1.923   3.107   6.622
 9237SOL     OW28609   5.187   5.052   3.088
 9237SOL    HW128610   5.218   5.012   3.001
 9237SOL    HW228611   5.260   5.044   3.156
 9238SOL     OW28612   1.404   2.820   4.879
 9238SOL    HW128613   1.463   2.870   4.817
 9238SOL    HW228614   1.322   2.874   4.898
 9239SOL     OW28615   1.248   4.626   6.780
 9239SOL    HW128616   1.323   4.561   6.793
 9239SOL    HW228617   1.262   4.675   6.694
 9240SOL     OW28618   4.593   1.579   3.131
 9240SOL    HW128619   4.593   1.638   3.212
 9240SOL    HW228620   4.536   1.619   3.060
 9241SOL     OW28621   5.200   0.290   1.047
 9241SOL    HW128622   5.130   0.303   0.977
 9241SOL    HW228623   5.225   0.378   1.087
 9242SOL     OW28624   2.068   2.393   0.223
 9242SOL    HW128625   2.143   2.346   0.271
 9242SOL    HW228626   1.990   2.331   0.215
 9243SOL     OW28627   1.457   0.665   6.873
 9243SOL    HW128628   1.524   0.710   6.932
 9243SOL    HW228629   1.382   0.729   6.854
 9244SOL     OW28630   3.653   6.840   6.005
 9244SOL    HW128631   3.602   6.918   5.968
 9244SOL    HW228632   3.601   6.799   6.081
 9245SOL     OW28633   1.317   5.122   3.229
 9245SOL    HW128634   1.288   5.108   3.135
 9245SOL    HW228635   1.247   5.174   3.278
 9246SOL     OW28636   5.312   0.050   6.616
 9246SOL    HW128637   5.226   0.060   6.665
 9246SOL    HW228638   5.294   0.023   6.521
 9247SOL     OW28639   4.068   5.502   2.831
 9247SOL    HW128640   4.128   5.423   2.844
 9247SOL    HW228641   4.002   5.506   2.906
 9248SOL     OW28642   2.295   0.398   6.499
 9248SOL    HW128643   2.305   0.496   6.519
 9248SOL    HW228644   2.198   0.376   6.494
 9249SOL     OW28645   3.072   6.378   0.833
 9249SOL    HW128646   3.143   6.429   0.883
 9249SOL    HW228647   3.115   6.308   0.777
 9250SOL     OW28648   0.424   2.681   4.361
 9250SOL    HW128649   0.474   2.596   4.379
 9250SOL    HW228650   0.327   2.669   4.383
 9251SOL     OW28651   2.972   2.521   0.316
 9251SOL    HW128652   2.912   2.495   0.391
 9251SOL    HW228653   2.967   2.620   0.303
 9252SOL     OW28654   5.779   1.859   5.163
 9252SOL    HW128655   5.755   1.762   5.163
 9252SOL    HW228656   5.737   1.904   5.242
 9253SOL     OW28657   0.897   6.200   5.411
 9253SOL    HW128658   0.910   6.288   5.366
 9253SOL    HW228659   0.846   6.139   5.351
 9254SOL     OW28660   0.274   4.784   2.532
 9254SOL    HW128661   0.304   4.809   2.440
 9254SOL    HW228662   0.174   4.779   2.534
 9255SOL     OW28663   6.818   4.518   0.780
 9255SOL    HW128664   6.765   4.433   0.789
 9255SOL    HW228665   6.804   4.557   0.689
 9256SOL     OW28666   2.611   6.211   1.014
 9256SOL    HW128667   2.589   6.205   1.112
 9256SOL    HW228668   2.623   6.307   0.989
 9257SOL     OW28669   6.433   5.759   4.053
 9257SOL    HW128670   6.490   5.797   4.126
 9257SOL    HW228671   6.432   5.823   3.976
 9258SOL     OW28672   3.265   5.169   0.959
 9258SOL    HW128673   3.324   5.197   1.035
 9258SOL    HW228674   3.169   5.176   0.987
 9259SOL     OW28675   1.555   2.018   6.864
 9259SOL    HW128676   1.596   2.078   6.795
 9259SOL    HW228677   1.507   1.943   6.819
 9260SOL     OW28678   5.345   3.606   4.834
 9260SOL    HW128679   5.292   3.544   4.892
 9260SOL    HW228680   5.379   3.682   4.889
 9261SOL     OW28681   3.272   2.202   1.606
 9261SOL    HW128682   3.255   2.129   1.672
 9261SOL    HW228683   3.369   2.226   1.606
 9262SOL     OW28684   6.655   6.070   5.426
 9262SOL    HW128685   6.693   5.994   5.372
 9262SOL    HW228686   6.701   6.073   5.515
 9263SOL     OW28687   2.227   4.504   3.760
 9263SOL    HW128688   2.143   4.482   3.711
 9263SOL    HW228689   2.227   4.601   3.786
 9264SOL     OW28690   5.411   4.317   6.390
 9264SOL    HW128691   5.320   4.277   6.375
 9264SOL    HW228692   5.470   4.292   6.313
 9265SOL     OW28693   6.032   1.515   1.254
 9265SOL    HW128694   5.950   1.534   1.308
 9265SOL    HW228695   6.051   1.417   1.256
 9266SOL     OW28696   1.757   4.621   1.426
 9266SOL    HW128697   1.778   4.559   1.502
 9266SOL    HW228698   1.690   4.578   1.366
 9267SOL     OW28699   6.899   0.561   4.136
 9267SOL    HW128700   6.989   0.541   4.176
 9267SOL    HW228701   6.828   0.518   4.191
 9268SOL     OW28702   0.236   0.333   1.329
 9268SOL    HW128703   0.230   0.432   1.333
 9268SOL    HW228704   0.313   0.306   1.271
 9269SOL     OW28705   3.107   1.053   0.151
 9269SOL    HW128706   3.118   1.087   0.058
 9269SOL    HW228707   3.022   1.089   0.190
 9270SOL     OW28708   2.186   0.368   5.828
 9270SOL    HW128709   2.095   0.386   5.792
 9270SOL    HW228710   2.211   0.273   5.811
 9271SOL     OW28711   1.216   5.810   4.737
 9271SOL    HW128712   1.176   5.902   4.736
 9271SOL    HW228713   1.289   5.805   4.669
 9272SOL     OW28714   6.782   6.677   6.336
 9272SOL    HW128715   6.713   6.718   6.395
 9272SOL    HW228716   6.865   6.734   6.336
 9273SOL     OW28717   4.970   4.314   3.414
 9273SOL    HW128718   4.877   4.295   3.385
 9273SOL    HW228719   5.002   4.241   3.475
 9274SOL     OW28720   0.755   2.959   0.981
 9274SOL    HW128721   0.677   3.008   0.943
 9274SOL    HW228722   0.734   2.861   0.986
 9275SOL     OW28723   6.765   0.929   0.582
 9275SOL    HW128724   6.673   0.919   0.620
 9275SOL    HW228725   6.824   0.857   0.618
 9276SOL     OW28726   2.471   5.506   0.200
 9276SOL    HW128727   2.429   5.445   0.269
 9276SOL    HW228728   2.469   5.600   0.234
 9277SOL     OW28729   5.395   5.278   1.994
 9277SOL    HW128730   5.383   5.183   2.023
 9277SOL    HW228731   5.457   5.325   2.056
 9278SOL     OW28732   0.935   0.107   5.401
 9278SOL    HW128733   1.028   0.141   5.396
 9278SOL    HW228734   0.872   0.173   5.362
 9279SOL     OW28735   3.648   5.805   1.628
 9279SOL    HW128736   3.681   5.846   1.713
 9279SOL    HW228737   3.696   5.718   1.612
 9280SOL     OW28738   1.558   6.503   2.674
 9280SOL    HW128739   1.594   6.412   2.650
 9280SOL    HW228740   1.459   6.497   2.687
 9281SOL     OW28741   2.113   5.318   0.337
 9281SOL    HW128742   2.103   5.408   0.380
 9281SOL    HW228743   2.207   5.285   0.350
 9282SOL     OW28744   3.129   0.132   5.441
 9282SOL    HW128745   3.227   0.109   5.439
 9282SOL    HW228746   3.118   0.231   5.446
 9283SOL     OW28747   4.255   6.565   1.145
 9283SOL    HW128748   4.321   6.520   1.084
 9283SOL    HW228749   4.280   6.661   1.155
 9284SOL     OW28750   4.570   4.007   5.441
 9284SOL    HW128751   4.510   3.933   5.472
 9284SOL    HW228752   4.660   3.969   5.418
 9285SOL     OW28753   0.576   4.988   2.843
 9285SOL    HW128754   0.511   5.036   2.784
 9285SOL    HW228755   0.642   5.054   2.880
 9286SOL     OW28756   4.624   6.417   1.533
 9286SOL    HW128757   4.694   6.348   1.519
 9286SOL    HW228758   4.567   6.423   1.451
 9287SOL     OW28759   4.047   3.749   5.917
 9287SOL    HW128760   4.146   3.748   5.924
 9287SOL    HW228761   4.018   3.693   5.840
 9288SOL     OW28762   3.739   1.861   2.541
 9288SOL    HW128763   3.728   1.836   2.445
 9288SOL    HW228764   3.665   1.821   2.595
 9289SOL     OW28765   5.005   6.440   0.480
 9289SOL    HW128766   4.973   6.419   0.388
 9289SOL    HW228767   5.105   6.433   0.483
 9290SOL     OW28768   4.885   1.185   4.485
 9290SOL    HW128769   4.819   1.123   4.526
 9290SOL    HW228770   4.871   1.277   4.519
 9291SOL     OW28771   1.157   4.318   6.263
 9291SOL    HW128772   1.193   4.229   6.291
 9291SOL    HW228773   1.114   4.364   6.341
 9292SOL     OW28774   1.025   1.407   6.864
 9292SOL    HW128775   0.949   1.400   6.800
 9292SOL    HW228776   0.998   1.369   6.953
 9293SOL     OW28777   5.103   2.644   4.311
 9293SOL    HW128778   5.091   2.582   4.388
 9293SOL    HW228779   5.148   2.596   4.235
 9294SOL     OW28780   4.560   0.008   6.538
 9294SOL    HW128781   4.487   0.045   6.595
 9294SOL    HW228782   4.532   0.011   6.442
 9295SOL     OW28783   0.428   0.839   4.801
 9295SOL    HW128784   0.377   0.900   4.741
 9295SOL    HW228785   0.407   0.744   4.777
 9296SOL     OW28786   2.377   4.971   6.054
 9296SOL    HW128787   2.420   4.886   6.024
 9296SOL    HW228788   2.424   5.006   6.136
 9297SOL     OW28789   6.437   6.096   2.179
 9297SOL    HW128790   6.461   6.003   2.207
 9297SOL    HW228791   6.462   6.109   2.083
 9298SOL     OW28792   0.894   4.560   6.308
 9298SOL    HW128793   0.801   4.588   6.330
 9298SOL    HW228794   0.923   4.606   6.224
 9299SOL     OW28795   2.148   2.778   4.435
 9299SOL    HW128796   2.062   2.748   4.392
 9299SOL    HW228797   2.156   2.737   4.526
 9300SOL     OW28798   1.846   5.840   4.943
 9300SOL    HW128799   1.896   5.864   4.860
 9300SOL    HW228800   1.866   5.907   5.015
 9301SOL     OW28801   0.384   4.357   4.115
 9301SOL    HW128802   0.366   4.320   4.206
 9301SOL    HW228803   0.386   4.457   4.119
 9302SOL     OW28804   2.100   3.558   4.883
 9302SOL    HW128805   2.084   3.611   4.800
 9302SOL    HW228806   2.120   3.620   4.959
 9303SOL     OW28807   2.438   4.434   6.988
 9303SOL    HW128808   2.454   4.351   0.031
 9303SOL    HW228809   2.489   4.510   0.016
 9304SOL     OW28810   4.833   5.496   6.707
 9304SOL    HW128811   4.856   5.409   6.663
 9304SOL    HW228812   4.838   5.569   6.639
 9305SOL     OW28813   1.728   2.072   1.033
 9305SOL    HW128814   1.804   2.127   1.066
 9305SOL    HW228815   1.682   2.120   0.958
 9306SOL     OW28816   6.768   6.525   5.209
 9306SOL    HW128817   6.852   6.554   5.256
 9306SOL    HW228818   6.731   6.602   5.157
 9307SOL     OW28819   1.586   3.402   1.699
 9307SOL    HW128820   1.658   3.346   1.740
 9307SOL    HW228821   1.613   3.427   1.606
 9308SOL     OW28822   1.993   3.239   1.765
 9308SOL    HW128823   2.012   3.257   1.862
 9308SOL    HW228824   2.022   3.317   1.710
 9309SOL     OW28825   4.876   5.236   6.646
 9309SOL    HW128826   4.790   5.187   6.662
 9309SOL    HW228827   4.952   5.170   6.643
 9310SOL     OW28828   5.927   6.226   6.979
 9310SOL    HW128829   5.950   6.306   6.924
 9310SOL    HW228830   5.863   6.252   0.040
 9311SOL     OW28831   4.522   3.913   1.153
 9311SOL    HW128832   4.500   3.816   1.146
 9311SOL    HW228833   4.490   3.961   1.071
 9312SOL     OW28834   0.738   3.036   3.308
 9312SOL    HW128835   0.672   3.077   3.371
 9312SOL    HW228836   0.829   3.074   3.327
 9313SOL     OW28837   0.596   0.942   2.236
 9313SOL    HW128838   0.529   1.015   2.250
 9313SOL    HW228839   0.555   0.855   2.263
 9314SOL     OW28840   5.409   4.215   0.500
 9314SOL    HW128841   5.363   4.140   0.548
 9314SOL    HW228842   5.483   4.179   0.444
 9315SOL     OW28843   4.748   6.892   6.290
 9315SOL    HW128844   4.827   6.915   6.346
 9315SOL    HW228845   4.684   6.969   6.289
 9316SOL     OW28846   5.250   0.770   5.559
 9316SOL    HW128847   5.180   0.810   5.619
 9316SOL    HW228848   5.211   0.755   5.468
 9317SOL     OW28849   3.682   5.884   2.785
 9317SOL    HW128850   3.739   5.819   2.836
 9317SOL    HW228851   3.598   5.839   2.757
 9318SOL     OW28852   3.878   6.984   1.858
 9318SOL    HW128853   3.859   0.069   1.876
 9318SOL    HW228854   3.807   6.947   1.799
 9319SOL     OW28855   3.268   2.639   6.493
 9319SOL    HW128856   3.330   2.641   6.414
 9319SOL    HW228857   3.196   2.571   6.476
 9320SOL     OW28858   6.310   6.602   6.856
 9320SOL    HW128859   6.357   6.681   6.816
 9320SOL    HW228860   6.331   6.597   6.954
 9321SOL     OW28861   0.413   3.171   4.626
 9321SOL    HW128862   0.439   3.087   4.578
 9321SOL    HW228863   0.485   3.197   4.690
 9322SOL     OW28864   6.595   3.378   0.002
 9322SOL    HW128865   6.692   3.389   0.021
 9322SOL    HW228866   6.567   3.440   6.941
 9323SOL     OW28867   0.435   2.172   6.027
 9323SOL    HW128868   0.488   2.097   6.066
 9323SOL    HW228869   0.483   2.208   5.946
 9324SOL     OW28870   0.898   4.269   2.099
 9324SOL    HW128871   0.893   4.367   2.115
 9324SOL    HW228872   0.978   4.249   2.042
 9325SOL     OW28873   1.024   4.515   3.232
 9325SOL    HW128874   1.019   4.416   3.226
 9325SOL    HW228875   0.933   4.552   3.251
 9326SOL     OW28876   4.735   4.205   1.765
 9326SOL    HW128877   4.776   4.241   1.849
 9326SOL    HW228878   4.636   4.201   1.776
 9327SOL     OW28879   3.407   0.918   3.098
 9327SOL    HW128880   3.313   0.895   3.071
 9327SOL    HW228881   3.414   0.919   3.197
 9328SOL     OW28882   2.114   0.380   3.700
 9328SOL    HW128883   2.170   0.409   3.777
 9328SOL    HW228884   2.023   0.354   3.733
 9329SOL     OW28885   0.048   5.477   6.417
 9329SOL    HW128886   0.136   5.477   6.463
 9329SOL    HW228887   6.992   5.523   6.475
 9330SOL     OW28888   6.648   6.409   6.992
 9330SOL    HW128889   6.719   6.339   6.985
 9330SOL    HW228890   6.681   6.493   6.950
 9331SOL     OW28891   2.089   3.115   3.381
 9331SOL    HW128892   2.117   3.146   3.472
 9331SOL    HW228893   1.994   3.084   3.384
 9332SOL     OW28894   5.231   5.814   0.774
 9332SOL    HW128895   5.174   5.887   0.737
 9332SOL    HW228896   5.299   5.853   0.836
 9333SOL     OW28897   4.178   3.660   1.062
 9333SOL    HW128898   4.079   3.651   1.071
 9333SOL    HW228899   4.219   3.570   1.045
 9334SOL     OW28900   6.047   6.321   5.722
 9334SOL    HW128901   6.039   6.292   5.817
 9334SOL    HW228902   5.964   6.368   5.695
 9335SOL     OW28903   0.851   3.431   2.054
 9335SOL    HW128904   0.934   3.388   2.019
 9335SOL    HW228905   0.817   3.498   1.989
 9336SOL     OW28906   5.829   6.967   5.865
 9336SOL    HW128907   5.732   6.983   5.883
 9336SOL    HW228908   5.867   0.032   5.812
 9337SOL     OW28909   2.193   0.528   6.055
 9337SOL    HW128910   2.269   0.588   6.081
 9337SOL    HW228911   2.198   0.508   5.957
 9338SOL     OW28912   5.764   6.731   0.181
 9338SOL    HW128913   5.692   6.661   0.178
 9338SOL    HW228914   5.840   6.703   0.123
 9339SOL     OW28915   6.625   3.856   5.369
 9339SOL    HW128916   6.604   3.862   5.466
 9339SOL    HW228917   6.675   3.939   5.341
 9340SOL     OW28918   3.699   5.175   0.764
 9340SOL    HW128919   3.696   5.122   0.849
 9340SOL    HW228920   3.733   5.116   0.690
 9341SOL     OW28921   5.171   4.503   6.319
 9341SOL    HW128922   5.214   4.469   6.235
 9341SOL    HW228923   5.080   4.464   6.328
 9342SOL     OW28924   3.627   0.196   4.246
 9342SOL    HW128925   3.586   0.267   4.189
 9342SOL    HW228926   3.642   0.232   4.338
 9343SOL     OW28927   4.636   4.451   1.192
 9343SOL    HW128928   4.607   4.407   1.106
 9343SOL    HW228929   4.714   4.401   1.229
 9344SOL     OW28930   6.258   6.985   5.144
 9344SOL    HW128931   6.219   6.943   5.226
 9344SOL    HW228932   6.353   7.011   5.162
 9345SOL     OW28933   0.704   5.296   0.079
 9345SOL    HW128934   0.756   5.363   0.025
 9345SOL    HW228935   0.753   5.277   0.164
 9346SOL     OW28936   5.931   6.675   1.253
 9346SOL    HW128937   5.913   6.694   1.349
 9346SOL    HW228938   5.998   6.601   1.245
 9347SOL     OW28939   3.595   5.808   0.758
 9347SOL    HW128940   3.536   5.727   0.760
 9347SOL    HW228941   3.575   5.865   0.837
 9348SOL     OW28942   2.560   5.769   1.753
 9348SOL    HW128943   2.560   5.853   1.807
 9348SOL    HW228944   2.642   5.766   1.695
 9349SOL     OW28945   6.823   6.126   2.073
 9349SOL    HW128946   6.745   6.168   2.118
 9349SOL    HW228947   6.841   6.173   1.987
 9350SOL     OW28948   6.799   0.662   6.141
 9350SOL    HW128949   6.731   0.592   6.162
 9350SOL    HW228950   6.815   0.718   6.222
 9351SOL     OW28951   3.405   3.204   6.168
 9351SOL    HW128952   3.317   3.247   6.149
 9351SOL    HW228953   3.437   3.231   6.258
 9352SOL     OW28954   3.317   2.503   5.869
 9352SOL    HW128955   3.243   2.461   5.816
 9352SOL    HW228956   3.402   2.498   5.818
 9353SOL     OW28957   0.655   3.835   1.440
 9353SOL    HW128958   0.574   3.890   1.421
 9353SOL    HW228959   0.633   3.769   1.513
 9354SOL     OW28960   5.100   2.004   1.852
 9354SOL    HW128961   5.074   2.005   1.949
 9354SOL    HW228962   5.022   1.979   1.796
 9355SOL     OW28963   6.041   0.703   2.983
 9355SOL    HW128964   6.121   0.656   3.021
 9355SOL    HW228965   6.020   0.666   2.893
 9356SOL     OW28966   4.726   4.287   2.568
 9356SOL    HW128967   4.662   4.358   2.596
 9356SOL    HW228968   4.711   4.264   2.471
 9357SOL     OW28969   3.180   2.827   0.496
 9357SOL    HW128970   3.213   2.837   0.402
 9357SOL    HW228971   3.225   2.895   0.554
 9358SOL     OW28972   5.619   4.756   1.877
 9358SOL    HW128973   5.528   4.726   1.847
 9358SOL    HW228974   5.661   4.811   1.805
 9359SOL     OW28975   6.011   4.091   6.351
 9359SOL    HW128976   6.044   4.172   6.302
 9359SOL    HW228977   5.933   4.116   6.409
 9360SOL     OW28978   1.753   0.501   6.032
 9360SOL    HW128979   1.715   0.416   6.071
 9360SOL    HW228980   1.819   0.540   6.096
 9361SOL     OW28981   3.090   0.427   2.261
 9361SOL    HW128982   3.107   0.493   2.335
 9361SOL    HW228983   2.991   0.420   2.245
 9362SOL     OW28984   2.292   1.919   3.248
 9362SOL    HW128985   2.256   1.967   3.328
 9362SOL    HW228986   2.333   1.985   3.185
 9363SOL     OW28987   2.817   6.075   2.176
 9363SOL    HW128988   2.870   6.047   2.256
 9363SOL    HW228989   2.866   6.147   2.127
 9364SOL     OW28990   5.124   4.914   6.892
 9364SOL    HW128991   5.196   4.848   6.868
 9364SOL    HW228992   5.095   4.962   6.810
 9365SOL     OW28993   2.566   1.355   5.023
 9365SOL    HW128994   2.498   1.429   5.015
 9365SOL    HW228995   2.658   1.393   5.010
 9366SOL     OW28996   3.023   1.684   0.511
 9366SOL    HW128997   3.033   1.592   0.472
 9366SOL    HW228998   3.040   1.679   0.610
 9367SOL     OW28999   6.911   5.717   2.983
 9367SOL    HW129000   6.889   5.683   2.892
 9367SOL    HW229001   6.984   5.662   3.023
 9368SOL     OW29002   3.293   2.781   1.506
 9368SOL    HW129003   3.267   2.862   1.454
 9368SOL    HW229004   3.389   2.760   1.489
 9369SOL     OW29005   0.039   2.632   4.879
 9369SOL    HW129006   0.112   2.700   4.870
 9369SOL    HW229007   0.062   2.569   4.954
 9370SOL     OW29008   6.309   1.122   3.136
 9370SOL    HW129009   6.395   1.088   3.098
 9370SOL    HW229010   6.328   1.193   3.205
 9371SOL     OW29011   0.264   6.785   0.902
 9371SOL    HW129012   0.195   6.752   0.837
 9371SOL    HW229013   0.241   6.878   0.930
 9372SOL     OW29014   6.051   0.036   5.428
 9372SOL    HW129015   6.091   6.956   5.429
 9372SOL    HW229016   6.064   0.079   5.517
 9373SOL     OW29017   4.264   1.502   3.553
 9373SOL    HW129018   4.322   1.432   3.513
 9373SOL    HW229019   4.260   1.490   3.653
 9374SOL     OW29020   5.311   4.042   0.704
 9374SOL    HW129021   5.348   3.958   0.665
 9374SOL    HW229022   5.242   4.020   0.772
 9375SOL     OW29023   0.864   1.012   3.735
 9375SOL    HW129024   0.841   0.992   3.831
 9375SOL    HW229025   0.902   1.104   3.728
 9376SOL     OW29026   1.482   3.579   1.887
 9376SOL    HW129027   1.516   3.511   1.822
 9376SOL    HW229028   1.558   3.634   1.921
 9377SOL     OW29029   5.997   5.594   3.776
 9377SOL    HW129030   6.088   5.597   3.735
 9377SOL    HW229031   5.986   5.672   3.838
 9378SOL     OW29032   3.011   6.763   0.369
 9378SOL    HW129033   2.954   6.724   0.441
 9378SOL    HW229034   3.001   6.862   0.367
 9379SOL     OW29035   5.142   4.710   4.513
 9379SOL    HW129036   5.165   4.804   4.487
 9379SOL    HW229037   5.103   4.663   4.434
 9380SOL     OW29038   6.074   6.888   6.035
 9380SOL    HW129039   6.008   6.924   5.969
 9380SOL    HW229040   6.166   6.894   5.997
 9381SOL     OW29041   2.374   1.605   6.047
 9381SOL    HW129042   2.409   1.680   6.102
 9381SOL    HW229043   2.442   1.580   5.978
 9382SOL     OW29044   4.624   2.353   2.899
 9382SOL    HW129045   4.640   2.340   2.997
 9382SOL    HW229046   4.613   2.264   2.855
 9383SOL     OW29047   4.251   5.957   4.833
 9383SOL    HW129048   4.307   5.903   4.896
 9383SOL    HW229049   4.204   6.029   4.884
 9384SOL     OW29050   4.743   5.775   1.523
 9384SOL    HW129051   4.795   5.814   1.447
 9384SOL    HW229052   4.787   5.800   1.609
 9385SOL     OW29053   3.648   1.350   3.534
 9385SOL    HW129054   3.712   1.379   3.463
 9385SOL    HW229055   3.613   1.430   3.582
 9386SOL     OW29056   3.247   6.536   4.675
 9386SOL    HW129057   3.192   6.617   4.659
 9386SOL    HW229058   3.266   6.489   4.589
 9387SOL     OW29059   3.879   6.963   6.834
 9387SOL    HW129060   3.948   6.910   6.786
 9387SOL    HW229061   3.912   0.045   6.847
 9388SOL     OW29062   6.601   0.361   3.204
 9388SOL    HW129063   6.631   0.412   3.285
 9388SOL    HW229064   6.503   0.341   3.213
 9389SOL     OW29065   2.553   0.783   5.646
 9389SOL    HW129066   2.472   0.753   5.594
 9389SOL    HW229067   2.604   0.703   5.676
 9390SOL     OW29068   3.278   4.980   2.368
 9390SOL    HW129069   3.369   5.020   2.358
 9390SOL    HW229070   3.235   4.974   2.278
 9391SOL     OW29071   0.865   1.110   5.655
 9391SOL    HW129072   0.947   1.068   5.618
 9391SOL    HW229073   0.829   1.053   5.729
 9392SOL     OW29074   1.244   5.925   4.407
 9392SOL    HW129075   1.311   5.852   4.392
 9392SOL    HW229076   1.287   6.001   4.455
 9393SOL     OW29077   3.694   2.196   5.332
 9393SOL    HW129078   3.735   2.195   5.241
 9393SOL    HW229079   3.596   2.218   5.324
 9394SOL     OW29080   6.035   2.568   2.738
 9394SOL    HW129081   6.055   2.541   2.644
 9394SOL    HW229082   5.944   2.609   2.741
 9395SOL     OW29083   2.206   3.174   0.420
 9395SOL    HW129084   2.270   3.116   0.370
 9395SOL    HW229085   2.253   3.216   0.498
 9396SOL     OW29086   6.159   0.342   6.333
 9396SOL    HW129087   6.125   0.313   6.422
 9396SOL    HW229088   6.233   0.407   6.345
 9397SOL     OW29089   2.669   0.743   0.908
 9397SOL    HW129090   2.585   0.753   0.854
 9397SOL    HW229091   2.647   0.697   0.994
 9398SOL     OW29092   2.632   1.359   6.081
 9398SOL    HW129093   2.656   1.426   6.150
 9398SOL    HW229094   2.643   1.399   5.990
 9399SOL     OW29095   6.902   0.571   5.596
 9399SOL    HW129096   6.982   0.546   5.540
 9399SOL    HW229097   6.928   0.644   5.659
 9400SOL     OW29098   5.766   2.661   2.785
 9400SOL    HW129099   5.723   2.694   2.869
 9400SOL    HW229100   5.727   2.708   2.706
 9401SOL     OW29101   3.293   0.293   2.965
 9401SOL    HW129102   3.357   0.279   3.040
 9401SOL    HW229103   3.317   0.234   2.888
 9402SOL     OW29104   2.188   5.142   6.335
 9402SOL    HW129105   2.184   5.204   6.257
 9402SOL    HW229106   2.283   5.115   6.352
 9403SOL     OW29107   5.541   1.110   4.227
 9403SOL    HW129108   5.452   1.107   4.182
 9403SOL    HW229109   5.594   1.187   4.191
 9404SOL     OW29110   1.433   3.892   6.845
 9404SOL    HW129111   1.456   3.796   6.859
 9404SOL    HW229112   1.410   3.934   6.932
 9405SOL     OW29113   6.026   0.215   1.054
 9405SOL    HW129114   5.999   0.119   1.067
 9405SOL    HW229115   5.945   0.273   1.056
 9406SOL     OW29116   0.376   1.562   5.240
 9406SOL    HW129117   0.287   1.557   5.285
 9406SOL    HW229118   0.381   1.493   5.169
 9407SOL     OW29119   3.300   6.206   3.012
 9407SOL    HW129120   3.254   6.197   3.100
 9407SOL    HW229121   3.321   6.302   2.995
 9408SOL     OW29122   3.421   2.022   6.033
 9408SOL    HW129123   3.497   1.965   6.064
 9408SOL    HW229124   3.356   1.965   5.981
 9409SOL     OW29125   5.746   4.240   3.695
 9409SOL    HW129126   5.788   4.219   3.784
 9409SOL    HW229127   5.698   4.328   3.701
 9410SOL     OW29128   4.277   6.615   2.558
 9410SOL    HW129129   4.198   6.638   2.615
 9410SOL    HW229130   4.344   6.689   2.562
 9411SOL     OW29131   4.385   4.766   0.613
 9411SOL    HW129132   4.469   4.719   0.642
 9411SOL    HW229133   4.307   4.729   0.663
 9412SOL     OW29134   6.916   2.501   1.185
 9412SOL    HW129135   6.864   2.426   1.145
 9412SOL    HW229136   7.004   2.510   1.138
 9413SOL     OW29137   3.348   5.959   5.940
 9413SOL    HW129138   3.279   6.030   5.926
 9413SOL    HW229139   3.424   5.974   5.877
 9414SOL     OW29140   2.375   1.530   1.364
 9414SOL    HW129141   2.412   1.438   1.346
 9414SOL    HW229142   2.351   1.573   1.277
 9415SOL     OW29143   2.954   6.952   2.332
 9415SOL    HW129144   2.877   0.000   2.357
 9415SOL    HW229145   2.925   6.891   2.258
 9416SOL     OW29146   1.029   2.433   1.765
 9416SOL    HW129147   0.957   2.366   1.748
 9416SOL    HW229148   0.991   2.512   1.813
 9417SOL     OW29149   2.631   5.667   5.138
 9417SOL    HW129150   2.631   5.707   5.046
 9417SOL    HW229151   2.662   5.735   5.204
 9418SOL     OW29152   3.423   5.289   0.766
 9418SOL    HW129153   3.366   5.249   0.837
 9418SOL    HW229154   3.504   5.233   0.752
 9419SOL     OW29155   2.959   6.673   5.414
 9419SOL    HW129156   3.046   6.633   5.388
 9419SOL    HW229157   2.895   6.668   5.338
 9420SOL     OW29158   0.460   1.406   4.489
 9420SOL    HW129159   0.519   1.457   4.551
 9420SOL    HW229160   0.447   1.313   4.524
 9421SOL     OW29161   1.154   4.672   5.682
 9421SOL    HW129162   1.158   4.724   5.597
 9421SOL    HW229163   1.060   4.643   5.699
 9422SOL     OW29164   4.899   0.996   2.451
 9422SOL    HW129165   4.995   0.995   2.424
 9422SOL    HW229166   4.854   0.913   2.419
 9423SOL     OW29167   4.069   0.594   4.511
 9423SOL    HW129168   4.075   0.689   4.543
 9423SOL    HW229169   3.997   0.587   4.442
 9424SOL     OW29170   2.914   6.040   4.609
 9424SOL    HW129171   2.897   6.112   4.677
 9424SOL    HW229172   2.859   6.059   4.527
 9425SOL     OW29173   1.499   3.089   4.466
 9425SOL    HW129174   1.523   3.080   4.370
 9425SOL    HW229175   1.474   3.184   4.486
 9426SOL     OW29176   3.677   6.787   6.987
 9426SOL    HW129177   3.745   6.837   6.933
 9426SOL    HW229178   3.587   6.795   6.943
 9427SOL     OW29179   3.039   5.346   4.445
 9427SOL    HW129180   3.012   5.257   4.480
 9427SOL    HW229181   2.974   5.415   4.475
 9428SOL     OW29182   5.044   0.351   3.060
 9428SOL    HW129183   4.954   0.320   3.030
 9428SOL    HW229184   5.093   0.274   3.102
 9429SOL     OW29185   0.300   3.802   2.636
 9429SOL    HW129186   0.378   3.773   2.581
 9429SOL    HW229187   0.331   3.862   2.709
 9430SOL     OW29188   6.433   6.629   1.541
 9430SOL    HW129189   6.366   6.670   1.603
 9430SOL    HW229190   6.385   6.577   1.470
 9431SOL     OW29191   6.498   4.351   1.919
 9431SOL    HW129192   6.453   4.382   1.835
 9431SOL    HW229193   6.591   4.320   1.897
 9432SOL     OW29194   6.593   6.553   3.369
 9432SOL    HW129195   6.519   6.490   3.389
 9432SOL    HW229196   6.571   6.606   3.287
 9433SOL     OW29197   3.192   5.043   5.395
 9433SOL    HW129198   3.105   5.024   5.440
 9433SOL    HW229199   3.207   5.141   5.390
 9434SOL     OW29200   5.141   5.259   2.715
 9434SOL    HW129201   5.061   5.204   2.696
 9434SOL    HW229202   5.140   5.342   2.658
 9435SOL     OW29203   1.727   0.742   4.458
 9435SOL    HW129204   1.766   0.670   4.516
 9435SOL    HW229205   1.801   0.794   4.416
 9436SOL     OW29206   2.353   3.338   0.050
 9436SOL    HW129207   2.450   3.318   0.063
 9436SOL    HW229208   2.304   3.327   0.136
 9437SOL     OW29209   1.299   4.722   3.791
 9437SOL    HW129210   1.385   4.673   3.806
 9437SOL    HW229211   1.222   4.665   3.818
 9438SOL     OW29212   0.913   6.481   2.104
 9438SOL    HW129213   0.918   6.473   2.004
 9438SOL    HW229214   1.003   6.506   2.139
 9439SOL     OW29215   0.293   2.596   1.917
 9439SOL    HW129216   0.250   2.676   1.876
 9439SOL    HW229217   0.376   2.624   1.966
 9440SOL     OW29218   5.072   6.404   6.096
 9440SOL    HW129219   5.064   6.396   6.196
 9440SOL    HW229220   5.030   6.490   6.067
 9441SOL     OW29221   1.486   4.992   5.491
 9441SOL    HW129222   1.489   4.906   5.440
 9441SOL    HW229223   1.533   5.063   5.440
 9442SOL     OW29224   6.944   3.486   1.372
 9442SOL    HW129225   6.878   3.554   1.338
 9442SOL    HW229226   0.001   3.531   1.428
 9443SOL     OW29227   1.673   3.917   1.942
 9443SOL    HW129228   1.757   3.962   1.972
 9443SOL    HW229229   1.682   3.889   1.847
 9444SOL     OW29230   0.436   3.384   0.158
 9444SOL    HW129231   0.382   3.301   0.166
 9444SOL    HW229232   0.412   3.431   0.073
 9445SOL     OW29233   5.482   3.708   1.430
 9445SOL    HW129234   5.393   3.668   1.409
 9445SOL    HW229235   5.554   3.651   1.391
 9446SOL     OW29236   6.579   6.060   1.596
 9446SOL    HW129237   6.665   6.022   1.631
 9446SOL    HW229238   6.547   6.003   1.520
 9447SOL     OW29239   6.004   3.051   2.168
 9447SOL    HW129240   6.096   3.088   2.181
 9447SOL    HW229241   5.946   3.120   2.126
 9448SOL     OW29242   6.015   6.732   0.429
 9448SOL    HW129243   5.917   6.751   0.426
 9448SOL    HW229244   6.062   6.782   0.357
 9449SOL     OW29245   5.944   4.950   5.723
 9449SOL    HW129246   5.968   4.855   5.704
 9449SOL    HW229247   5.845   4.961   5.722
 9450SOL     OW29248   3.109   4.969   4.703
 9450SOL    HW129249   3.095   4.909   4.782
 9450SOL    HW229250   3.030   5.030   4.693
 9451SOL     OW29251   4.775   5.391   5.966
 9451SOL    HW129252   4.746   5.420   5.875
 9451SOL    HW229253   4.835   5.461   6.006
 9452SOL     OW29254   2.209   4.982   1.799
 9452SOL    HW129255   2.129   4.958   1.743
 9452SOL    HW229256   2.279   4.911   1.789
 9453SOL     OW29257   2.862   5.198   2.585
 9453SOL    HW129258   2.779   5.152   2.617
 9453SOL    HW229259   2.836   5.278   2.530
 9454SOL     OW29260   2.082   3.209   5.376
 9454SOL    HW129261   2.122   3.208   5.284
 9454SOL    HW229262   2.125   3.281   5.431
 9455SOL     OW29263   3.950   1.474   2.222
 9455SOL    HW129264   4.022   1.532   2.260
 9455SOL    HW229265   3.923   1.509   2.132
 9456SOL     OW29266   1.302   3.551   1.212
 9456SOL    HW129267   1.214   3.520   1.248
 9456SOL    HW229268   1.303   3.541   1.113
 9457SOL     OW29269   1.083   3.239   0.783
 9457SOL    HW129270   1.045   3.211   0.871
 9457SOL    HW229271   1.009   3.259   0.720
 9458SOL     OW29272   6.599   5.427   5.407
 9458SOL    HW129273   6.660   5.504   5.420
 9458SOL    HW229274   6.576   5.418   5.310
 9459SOL     OW29275   6.409   5.692   1.607
 9459SOL    HW129276   6.509   5.682   1.604
 9459SOL    HW229277   6.379   5.694   1.703
 9460SOL     OW29278   0.856   2.030   5.060
 9460SOL    HW129279   0.853   2.128   5.078
 9460SOL    HW229280   0.890   2.014   4.967
 9461SOL     OW29281   1.368   0.781   3.788
 9461SOL    HW129282   1.383   0.705   3.851
 9461SOL    HW229283   1.292   0.837   3.820
 9462SOL     OW29284   1.055   2.884   2.191
 9462SOL    HW129285   1.063   2.784   2.196
 9462SOL    HW229286   1.009   2.910   2.106
 9463SOL     OW29287   5.736   1.403   0.244
 9463SOL    HW129288   5.782   1.373   0.327
 9463SOL    HW229289   5.656   1.458   0.268
 9464SOL     OW29290   5.817   0.221   6.072
 9464SOL    HW129291   5.910   0.240   6.102
 9464SOL    HW229292   5.771   0.307   6.051
 9465SOL     OW29293   6.309   0.796   3.985
 9465SOL    HW129294   6.227   0.805   4.041
 9465SOL    HW229295   6.368   0.875   3.999
 9466SOL     OW29296   2.879   2.611   6.316
 9466SOL    HW129297   2.927   2.675   6.256
 9466SOL    HW229298   2.793   2.583   6.274
 9467SOL     OW29299   2.027   3.309   2.027
 9467SOL    HW129300   2.094   3.383   2.021
 9467SOL    HW229301   1.952   3.337   2.088
 9468SOL     OW29302   6.927   3.204   5.464
 9468SOL    HW129303   7.003   3.155   5.422
 9468SOL    HW229304   6.883   3.262   5.396
 9469SOL     OW29305   6.355   5.022   2.017
 9469SOL    HW129306   6.387   4.950   1.957
 9469SOL    HW229307   6.426   5.092   2.027
 9470SOL     OW29308   4.782   3.853   0.857
 9470SOL    HW129309   4.739   3.772   0.816
 9470SOL    HW229310   4.790   3.839   0.956
 9471SOL     OW29311   0.441   2.070   5.554
 9471SOL    HW129312   0.462   1.997   5.619
 9471SOL    HW229313   0.524   2.099   5.507
 9472SOL     OW29314   6.171   4.437   4.171
 9472SOL    HW129315   6.183   4.454   4.073
 9472SOL    HW229316   6.254   4.392   4.206
 9473SOL     OW29317   2.862   5.575   6.146
 9473SOL    HW129318   2.763   5.569   6.138
 9473SOL    HW229319   2.900   5.484   6.164
 9474SOL     OW29320   4.056   4.923   1.767
 9474SOL    HW129321   3.979   4.859   1.767
 9474SOL    HW229322   4.136   4.879   1.808
 9475SOL     OW29323   2.471   3.434   1.431
 9475SOL    HW129324   2.488   3.530   1.455
 9475SOL    HW229325   2.480   3.423   1.332
 9476SOL     OW29326   3.747   3.470   5.663
 9476SOL    HW129327   3.712   3.377   5.672
 9476SOL    HW229328   3.703   3.515   5.584
 9477SOL     OW29329   1.256   2.721   1.553
 9477SOL    HW129330   1.227   2.639   1.504
 9477SOL    HW229331   1.332   2.699   1.613
 9478SOL     OW29332   5.599   4.456   5.840
 9478SOL    HW129333   5.692   4.459   5.876
 9478SOL    HW229334   5.597   4.496   5.748
 9479SOL     OW29335   6.043   6.133   6.546
 9479SOL    HW129336   6.127   6.180   6.574
 9479SOL    HW229337   5.996   6.100   6.628
 9480SOL     OW29338   5.854   4.688   6.867
 9480SOL    HW129339   5.856   4.670   6.965
 9480SOL    HW229340   5.780   4.752   6.847
 9481SOL     OW29341   6.914   3.764   2.473
 9481SOL    HW129342   6.882   3.714   2.553
 9481SOL    HW229343   6.838   3.776   2.409
 9482SOL     OW29344   4.741   0.878   1.965
 9482SOL    HW129345   4.725   0.969   2.004
 9482SOL    HW229346   4.653   0.835   1.946
 9483SOL     OW29347   1.422   1.532   6.581
 9483SOL    HW129348   1.325   1.505   6.586
 9483SOL    HW229349   1.447   1.549   6.486
 9484SOL     OW29350   6.893   1.394   3.908
 9484SOL    HW129351   6.796   1.402   3.927
 9484SOL    HW229352   6.942   1.472   3.946
 9485SOL     OW29353   0.978   0.431   2.218
 9485SOL    HW129354   0.896   0.379   2.240
 9485SOL    HW229355   0.970   0.523   2.256
 9486SOL     OW29356   2.894   6.200   1.335
 9486SOL    HW129357   2.857   6.113   1.303
 9486SOL    HW229358   2.821   6.252   1.380
 9487SOL     OW29359   3.320   3.398   3.972
 9487SOL    HW129360   3.241   3.436   4.019
 9487SOL    HW229361   3.330   3.442   3.882
 9488SOL     OW29362   1.256   6.803   1.425
 9488SOL    HW129363   1.166   6.770   1.455
 9488SOL    HW229364   1.304   6.842   1.504
 9489SOL     OW29365   3.945   4.957   0.832
 9489SOL    HW129366   3.912   4.981   0.924
 9489SOL    HW229367   4.037   4.995   0.819
 9490SOL     OW29368   5.153   0.845   1.732
 9490SOL    HW129369   5.113   0.831   1.641
 9490SOL    HW229370   5.082   0.833   1.801
 9491SOL     OW29371   5.608   4.801   5.878
 9491SOL    HW129372   5.673   4.727   5.895
 9491SOL    HW229373   5.516   4.772   5.905
 9492SOL     OW29374   3.366   4.045   1.485
 9492SOL    HW129375   3.387   4.120   1.422
 9492SOL    HW229376   3.316   3.973   1.437
 9493SOL     OW29377   4.711   6.104   3.027
 9493SOL    HW129378   4.635   6.159   3.061
 9493SOL    HW229379   4.794   6.160   3.026
 9494SOL     OW29380   4.477   3.197   5.382
 9494SOL    HW129381   4.449   3.291   5.399
 9494SOL    HW229382   4.400   3.145   5.346
 9495SOL     OW29383   5.745   2.316   5.175
 9495SOL    HW129384   5.806   2.268   5.111
 9495SOL    HW229385   5.772   2.295   5.269
 9496SOL     OW29386   5.600   4.168   6.840
 9496SOL    HW129387   5.518   4.161   6.782
 9496SOL    HW229388   5.639   4.259   6.831
 9497SOL     OW29389   5.606   6.000   6.865
 9497SOL    HW129390   5.530   5.944   6.834
 9497SOL    HW229391   5.668   5.945   6.921
 9498SOL     OW29392   3.852   0.006   6.144
 9498SOL    HW129393   3.872   0.094   6.102
 9498SOL    HW229394   3.780   6.971   6.093
 9499SOL     OW29395   3.035   3.893   5.444
 9499SOL    HW129396   3.117   3.928   5.490
 9499SOL    HW229397   2.954   3.917   5.498
 9500SOL     OW29398   4.898   5.787   1.758
 9500SOL    HW129399   4.941   5.703   1.792
 9500SOL    HW229400   4.892   5.853   1.833
 9501SOL     OW29401   3.179   1.283   4.448
 9501SOL    HW129402   3.156   1.338   4.528
 9501SOL    HW229403   3.272   1.248   4.457
 9502SOL     OW29404   5.880   2.599   5.247
 9502SOL    HW129405   5.976   2.571   5.235
 9502SOL    HW229406   5.822   2.544   5.187
 9503SOL     OW29407   1.077   6.979   1.787
 9503SOL    HW129408   0.989   6.936   1.808
 9503SOL    HW229409   1.113   0.013   1.869
 9504SOL     OW29410   0.473   2.573   0.042
 9504SOL    HW129411   0.572   2.560   0.042
 9504SOL    HW229412   0.447   2.635   0.116
 9505SOL     OW29413   5.633   2.841   3.370
 9505SOL    HW129414   5.633   2.896   3.287
 9505SOL    HW229415   5.607   2.747   3.347
 9506SOL     OW29416   6.827   3.864   0.322
 9506SOL    HW129417   6.738   3.827   0.349
 9506SOL    HW229418   6.855   3.822   0.235
 9507SOL     OW29419   0.959   1.259   3.707
 9507SOL    HW129420   0.865   1.290   3.691
 9507SOL    HW229421   1.022   1.319   3.658
 9508SOL     OW29422   6.037   1.858   0.921
 9508SOL    HW129423   5.993   1.925   0.982
 9508SOL    HW229424   6.012   1.877   0.827
 9509SOL     OW29425   2.281   6.370   5.863
 9509SOL    HW129426   2.332   6.384   5.948
 9509SOL    HW229427   2.188   6.339   5.884
 9510SOL     OW29428   6.127   4.554   3.097
 9510SOL    HW129429   6.039   4.536   3.141
 9510SOL    HW229430   6.114   4.560   2.998
 9511SOL     OW29431   0.535   1.785   0.527
 9511SOL    HW129432   0.550   1.829   0.615
 9511SOL    HW229433   0.450   1.733   0.530
 9512SOL     OW29434   0.859   2.297   3.928
 9512SOL    HW129435   0.828   2.248   3.846
 9512SOL    HW229436   0.922   2.238   3.979
 9513SOL     OW29437   2.120   3.841   4.431
 9513SOL    HW129438   2.118   3.935   4.397
 9513SOL    HW229439   2.157   3.780   4.361
 9514SOL     OW29440   2.044   3.251   0.056
 9514SOL    HW129441   1.976   3.305   0.006
 9514SOL    HW229442   2.021   3.251   0.154
 9515SOL     OW29443   1.864   6.144   6.118
 9515SOL    HW129444   1.873   6.093   6.033
 9515SOL    HW229445   1.850   6.081   6.194
 9516SOL     OW29446   5.182   3.957   3.868
 9516SOL    HW129447   5.119   3.894   3.823
 9516SOL    HW229448   5.276   3.924   3.854
 9517SOL     OW29449   0.038   5.621   1.839
 9517SOL    HW129450   0.040   5.669   1.927
 9517SOL    HW229451   0.108   5.550   1.837
 9518SOL     OW29452   0.433   2.398   6.230
 9518SOL    HW129453   0.381   2.350   6.301
 9518SOL    HW229454   0.460   2.333   6.159
 9519SOL     OW29455   3.498   3.498   3.236
 9519SOL    HW129456   3.514   3.545   3.149
 9519SOL    HW229457   3.586   3.474   3.277
 9520SOL     OW29458   0.047   0.344   5.117
 9520SOL    HW129459   6.991   0.312   5.183
 9520SOL    HW229460   0.038   0.443   5.104
 9521SOL     OW29461   3.136   0.542   0.862
 9521SOL    HW129462   3.188   0.594   0.794
 9521SOL    HW229463   3.083   0.605   0.919
 9522SOL     OW29464   3.485   6.012   1.520
 9522SOL    HW129465   3.528   6.091   1.476
 9522SOL    HW229466   3.548   5.935   1.520
 9523SOL     OW29467   2.473   5.243   4.133
 9523SOL    HW129468   2.391   5.299   4.118
 9523SOL    HW229469   2.455   5.178   4.207
 9524SOL     OW29470   1.917   4.248   1.790
 9524SOL    HW129471   1.836   4.208   1.833
 9524SOL    HW229472   1.981   4.175   1.765
 9525SOL     OW29473   2.033   2.946   5.420
 9525SOL    HW129474   1.933   2.936   5.421
 9525SOL    HW229475   2.056   3.042   5.429
 9526SOL     OW29476   5.614   4.580   0.067
 9526SOL    HW129477   5.696   4.624   0.104
 9526SOL    HW229478   5.543   4.649   0.054
 9527SOL     OW29479   3.691   6.558   3.482
 9527SOL    HW129480   3.606   6.537   3.531
 9527SOL    HW229481   3.687   6.653   3.449
 9528SOL     OW29482   5.854   1.612   0.969
 9528SOL    HW129483   5.916   1.684   0.939
 9528SOL    HW229484   5.825   1.630   1.063
 9529SOL     OW29485   6.336   1.842   1.529
 9529SOL    HW129486   6.243   1.805   1.531
 9529SOL    HW229487   6.373   1.833   1.437
 9530SOL     OW29488   0.500   5.598   3.703
 9530SOL    HW129489   0.451   5.621   3.619
 9530SOL    HW229490   0.435   5.573   3.775
 9531SOL     OW29491   3.667   4.843   2.674
 9531SOL    HW129492   3.678   4.942   2.670
 9531SOL    HW229493   3.587   4.820   2.730
 9532SOL     OW29494   5.693   5.102   2.248
 9532SOL    HW129495   5.791   5.094   2.228
 9532SOL    HW229496   5.655   5.011   2.264
 9533SOL     OW29497   2.272   5.061   3.551
 9533SOL    HW129498   2.323   4.975   3.558
 9533SOL    HW229499   2.336   5.138   3.547
 9534SOL     OW29500   5.408   4.498   5.485
 9534SOL    HW129501   5.492   4.531   5.529
 9534SOL    HW229502   5.408   4.526   5.389
 9535SOL     OW29503   1.085   1.056   5.493
 9535SOL    HW129504   1.099   1.153   5.475
 9535SOL    HW229505   1.118   1.002   5.416
 9536SOL     OW29506   3.774   3.773   4.560
 9536SOL    HW129507   3.751   3.720   4.478
 9536SOL    HW229508   3.874   3.784   4.566
 9537SOL     OW29509   1.549   0.954   3.964
 9537SOL    HW129510   1.571   1.036   4.017
 9537SOL    HW229511   1.451   0.934   3.974
 9538SOL     OW29512   3.329   0.497   4.803
 9538SOL    HW129513   3.285   0.551   4.731
 9538SOL    HW229514   3.322   0.546   4.890
 9539SOL     OW29515   3.675   2.919   2.996
 9539SOL    HW129516   3.693   2.852   3.067
 9539SOL    HW229517   3.579   2.948   3.001
 9540SOL     OW29518   4.945   4.984   4.109
 9540SOL    HW129519   4.945   4.918   4.185
 9540SOL    HW229520   5.039   5.009   4.086
 9541SOL     OW29521   1.598   5.754   4.837
 9541SOL    HW129522   1.686   5.796   4.854
 9541SOL    HW229523   1.594   5.665   4.883
 9542SOL     OW29524   5.808   4.675   4.538
 9542SOL    HW129525   5.822   4.708   4.631
 9542SOL    HW229526   5.892   4.633   4.504
 9543SOL     OW29527   2.513   1.066   5.837
 9543SOL    HW129528   2.498   1.131   5.763
 9543SOL    HW229529   2.466   0.980   5.815
 9544SOL     OW29530   5.178   3.455   3.883
 9544SOL    HW129531   5.184   3.355   3.877
 9544SOL    HW229532   5.087   3.484   3.853
 9545SOL     OW29533   1.336   4.675   1.907
 9545SOL    HW129534   1.359   4.598   1.847
 9545SOL    HW229535   1.294   4.640   1.991
 9546SOL     OW29536   2.754   1.495   6.276
 9546SOL    HW129537   2.783   1.401   6.293
 9546SOL    HW229538   2.748   1.545   6.362
 9547SOL     OW29539   3.449   6.030   3.847
 9547SOL    HW129540   3.409   6.122   3.851
 9547SOL    HW229541   3.390   5.966   3.895
 9548SOL     OW29542   1.170   4.826   6.362
 9548SOL    HW129543   1.108   4.811   6.285
 9548SOL    HW229544   1.125   4.884   6.430
 9549SOL     OW29545   4.579   2.144   1.674
 9549SOL    HW129546   4.512   2.127   1.747
 9549SOL    HW229547   4.551   2.094   1.592
 9550SOL     OW29548   4.964   2.846   1.610
 9550SOL    HW129549   5.058   2.813   1.617
 9550SOL    HW229550   4.920   2.842   1.700
 9551SOL     OW29551   6.497   1.961   6.455
 9551SOL    HW129552   6.522   1.913   6.371
 9551SOL    HW229553   6.462   2.052   6.433
 9552SOL     OW29554   2.641   0.967   6.345
 9552SOL    HW129555   2.677   1.025   6.419
 9552SOL    HW229556   2.553   1.003   6.315
 9553SOL     OW29557   5.578   2.064   6.903
 9553SOL    HW129558   5.567   2.163   6.905
 9553SOL    HW229559   5.600   2.034   6.810
 9554SOL     OW29560   1.921   6.710   4.280
 9554SOL    HW129561   2.011   6.680   4.250
 9554SOL    HW229562   1.900   6.670   4.370
 9555SOL     OW29563   6.493   0.544   4.035
 9555SOL    HW129564   6.464   0.638   4.019
 9555SOL    HW229565   6.582   0.544   4.081
 9556SOL     OW29566   2.598   4.093   0.822
 9556SOL    HW129567   2.635   4.185   0.824
 9556SOL    HW229568   2.672   4.027   0.835
 9557SOL     OW29569   4.940   0.467   1.826
 9557SOL    HW129570   4.948   0.554   1.874
 9557SOL    HW229571   4.848   0.429   1.839
 9558SOL     OW29572   5.682   6.743   6.089
 9558SOL    HW129573   5.735   6.809   6.036
 9558SOL    HW229574   5.598   6.720   6.040
 9559SOL     OW29575   1.907   3.790   0.378
 9559SOL    HW129576   1.882   3.807   0.282
 9559SOL    HW229577   2.004   3.808   0.390
 9560SOL     OW29578   3.309   6.792   1.834
 9560SOL    HW129579   3.294   6.701   1.875
 9560SOL    HW229580   3.226   6.847   1.845
 9561SOL     OW29581   1.078   0.943   1.210
 9561SOL    HW129582   1.175   0.932   1.187
 9561SOL    HW229583   1.027   0.972   1.129
 9562SOL     OW29584   2.645   5.406   3.757
 9562SOL    HW129585   2.696   5.490   3.736
 9562SOL    HW229586   2.647   5.390   3.855
 9563SOL     OW29587   0.944   6.410   0.708
 9563SOL    HW129588   0.939   6.413   0.808
 9563SOL    HW229589   1.026   6.360   0.680
 9564SOL     OW29590   1.874   0.120   0.551
 9564SOL    HW129591   1.896   0.024   0.532
 9564SOL    HW229592   1.823   0.126   0.637
 9565SOL     OW29593   3.586   1.378   3.994
 9565SOL    HW129594   3.510   1.322   3.964
 9565SOL    HW229595   3.639   1.329   4.063
 9566SOL     OW29596   2.163   6.652   0.790
 9566SOL    HW129597   2.245   6.596   0.781
 9566SOL    HW229598   2.187   6.748   0.780
 9567SOL     OW29599   6.455   4.596   0.535
 9567SOL    HW129600   6.473   4.665   0.606
 9567SOL    HW229601   6.434   4.641   0.449
 9568SOL     OW29602   4.132   2.093   6.953
 9568SOL    HW129603   4.065   2.115   6.882
 9568SOL    HW229604   4.161   1.998   6.945
 9569SOL     OW29605   5.672   0.129   2.051
 9569SOL    HW129606   5.743   0.094   2.112
 9569SOL    HW229607   5.640   0.218   2.084
 9570SOL     OW29608   6.899   3.109   0.835
 9570SOL    HW129609   6.847   3.067   0.909
 9570SOL    HW229610   6.837   3.138   0.763
 9571SOL     OW29611   2.411   2.417   0.009
 9571SOL    HW129612   2.442   2.476   6.946
 9571SOL    HW229613   2.487   2.359   0.038
 9572SOL     OW29614   2.310   4.342   3.400
 9572SOL    HW129615   2.277   4.265   3.456
 9572SOL    HW229616   2.346   4.307   3.313
 9573SOL     OW29617   6.887   1.164   4.865
 9573SOL    HW129618   6.889   1.071   4.827
 9573SOL    HW229619   6.980   1.193   4.889
 9574SOL     OW29620   3.841   3.139   1.306
 9574SOL    HW129621   3.862   3.130   1.404
 9574SOL    HW229622   3.793   3.057   1.274
 9575SOL     OW29623   5.735   6.434   1.966
 9575SOL    HW129624   5.827   6.394   1.973
 9575SOL    HW229625   5.668   6.360   1.956
 9576SOL     OW29626   1.034   1.166   0.060
 9576SOL    HW129627   0.936   1.148   0.060
 9576SOL    HW229628   1.055   1.240   0.123
 9577SOL     OW29629   6.572   5.842   1.426
 9577SOL    HW129630   6.502   5.814   1.491
 9577SOL    HW229631   6.608   5.762   1.378
 9578SOL     OW29632   1.276   2.632   3.121
 9578SOL    HW129633   1.326   2.596   3.042
 9578SOL    HW229634   1.303   2.727   3.138
 9579SOL     OW29635   5.802   6.471   2.360
 9579SOL    HW129636   5.874   6.538   2.375
 9579SOL    HW229637   5.744   6.500   2.284
 9580SOL     OW29638   4.950   4.866   1.261
 9580SOL    HW129639   4.864   4.814   1.267
 9580SOL    HW229640   5.024   4.806   1.232
 9581SOL     OW29641   6.067   0.482   0.397
 9581SOL    HW129642   6.005   0.422   0.347
 9581SOL    HW229643   6.041   0.578   0.382
 9582SOL     OW29644   3.688   5.439   4.059
 9582SOL    HW129645   3.731   5.439   4.149
 9582SOL    HW229646   3.639   5.353   4.045
 9583SOL     OW29647   3.398   4.509   1.665
 9583SOL    HW129648   3.489   4.521   1.703
 9583SOL    HW229649   3.405   4.470   1.573
 9584SOL     OW29650   1.787   4.097   4.340
 9584SOL    HW129651   1.838   4.102   4.254
 9584SOL    HW229652   1.765   4.189   4.372
 9585SOL     OW29653   4.973   5.892   1.412
 9585SOL    HW129654   5.001   5.899   1.316
 9585SOL    HW229655   5.045   5.930   1.470
 9586SOL     OW29656   4.496   5.079   1.450
 9586SOL    HW129657   4.510   4.981   1.440
 9586SOL    HW229658   4.580   5.120   1.486
 9587SOL     OW29659   2.308   6.360   1.627
 9587SOL    HW129660   2.369   6.282   1.620
 9587SOL    HW229661   2.329   6.426   1.555
 9588SOL     OW29662   6.459   6.358   0.720
 9588SOL    HW129663   6.518   6.338   0.798
 9588SOL    HW229664   6.502   6.325   0.636
 9589SOL     OW29665   1.346   3.674   6.472
 9589SOL    HW129666   1.375   3.685   6.377
 9589SOL    HW229667   1.271   3.608   6.476
 9590SOL     OW29668   5.367   1.601   1.978
 9590SOL    HW129669   5.406   1.598   2.070
 9590SOL    HW229670   5.354   1.509   1.943
 9591SOL     OW29671   3.417   6.934   6.484
 9591SOL    HW129672   3.355   6.954   6.560
 9591SOL    HW229673   3.401   6.840   6.451
 9592SOL     OW29674   2.643   4.191   6.741
 9592SOL    HW129675   2.609   4.283   6.760
 9592SOL    HW229676   2.595   4.125   6.798
 9593SOL     OW29677   1.971   1.241   5.547
 9593SOL    HW129678   2.015   1.292   5.473
 9593SOL    HW229679   2.019   1.260   5.633
 9594SOL     OW29680   1.527   5.904   3.875
 9594SOL    HW129681   1.588   5.859   3.940
 9594SOL    HW229682   1.579   5.930   3.793
 9595SOL     OW29683   0.387   3.035   3.781
 9595SOL    HW129684   0.416   3.130   3.772
 9595SOL    HW229685   0.294   3.032   3.817
 9596SOL     OW29686   0.313   5.644   1.071
 9596SOL    HW129687   0.371   5.704   1.127
 9596SOL    HW229688   0.317   5.551   1.108
 9597SOL     OW29689   1.181   4.208   2.525
 9597SOL    HW129690   1.133   4.229   2.610
 9597SOL    HW229691   1.116   4.182   2.455
 9598SOL     OW29692   1.663   3.610   2.978
 9598SOL    HW129693   1.711   3.662   3.049
 9598SOL    HW229694   1.708   3.521   2.966
 9599SOL     OW29695   3.192   6.946   3.534
 9599SOL    HW129696   3.218   6.902   3.620
 9599SOL    HW229697   3.138   6.882   3.479
 9600SOL     OW29698   2.892   0.390   0.987
 9600SOL    HW129699   2.834   0.311   0.966
 9600SOL    HW229700   2.959   0.403   0.914
 9601SOL     OW29701   6.442   4.566   1.116
 9601SOL    HW129702   6.494   4.644   1.153
 9601SOL    HW229703   6.411   4.508   1.192
 9602SOL     OW29704   4.627   4.538   5.537
 9602SOL    HW129705   4.645   4.636   5.526
 9602SOL    HW229706   4.611   4.497   5.448
 9603SOL     OW29707   5.604   6.781   5.749
 9603SOL    HW129708   5.567   6.826   5.668
 9603SOL    HW229709   5.701   6.805   5.759
 9604SOL     OW29710   4.931   0.604   0.745
 9604SOL    HW129711   4.865   0.586   0.672
 9604SOL    HW229712   4.912   0.693   0.786
 9605SOL     OW29713   6.790   4.847   3.545
 9605SOL    HW129714   6.771   4.943   3.525
 9605SOL    HW229715   6.720   4.812   3.607
 9606SOL     OW29716   1.158   1.293   6.438
 9606SOL    HW129717   1.175   1.320   6.533
 9606SOL    HW229718   1.093   1.357   6.397
 9607SOL     OW29719   2.970   1.821   6.195
 9607SOL    HW129720   2.939   1.912   6.224
 9607SOL    HW229721   2.958   1.756   6.270
 9608SOL     OW29722   6.675   4.189   2.951
 9608SOL    HW129723   6.591   4.241   2.963
 9608SOL    HW229724   6.704   4.194   2.855
 9609SOL     OW29725   3.911   2.664   6.194
 9609SOL    HW129726   3.954   2.730   6.256
 9609SOL    HW229727   3.972   2.647   6.116
 9610SOL     OW29728   2.484   4.863   2.782
 9610SOL    HW129729   2.484   4.777   2.832
 9610SOL    HW229730   2.547   4.857   2.704
 9611SOL     OW29731   1.948   6.513   1.111
 9611SOL    HW129732   1.850   6.515   1.129
 9611SOL    HW229733   1.985   6.423   1.134
 9612SOL     OW29734   0.442   3.159   2.045
 9612SOL    HW129735   0.411   3.077   1.997
 9612SOL    HW229736   0.463   3.231   1.979
 9613SOL     OW29737   6.004   6.121   3.428
 9613SOL    HW129738   6.008   6.207   3.478
 9613SOL    HW229739   5.993   6.045   3.492
 9614SOL     OW29740   4.187   2.295   3.110
 9614SOL    HW129741   4.169   2.393   3.110
 9614SOL    HW229742   4.155   2.256   3.197
 9615SOL     OW29743   2.501   2.472   0.671
 9615SOL    HW129744   2.496   2.449   0.768
 9615SOL    HW229745   2.593   2.454   0.637
 9616SOL     OW29746   3.739   2.538   1.026
 9616SOL    HW129747   3.824   2.579   1.059
 9616SOL    HW229748   3.693   2.601   0.964
 9617SOL     OW29749   2.258   2.853   3.490
 9617SOL    HW129750   2.326   2.906   3.539
 9617SOL    HW229751   2.299   2.770   3.453
 9618SOL     OW29752   3.387   0.932   0.897
 9618SOL    HW129753   3.353   0.965   0.985
 9618SOL    HW229754   3.457   0.994   0.863
 9619SOL     OW29755   1.724   0.684   5.673
 9619SOL    HW129756   1.716   0.765   5.732
 9619SOL    HW229757   1.634   0.663   5.634
 9620SOL     OW29758   5.087   0.481   4.822
 9620SOL    HW129759   5.024   0.409   4.849
 9620SOL    HW229760   5.048   0.532   4.745
 9621SOL     OW29761   1.540   2.820   2.487
 9621SOL    HW129762   1.471   2.767   2.438
 9621SOL    HW229763   1.499   2.906   2.519
 9622SOL     OW29764   5.963   1.342   0.925
 9622SOL    HW129765   5.885   1.404   0.925
 9622SOL    HW229766   6.030   1.374   0.857
 9623SOL     OW29767   2.851   2.799   6.511
 9623SOL    HW129768   2.852   2.716   6.454
 9623SOL    HW229769   2.904   2.871   6.465
 9624SOL     OW29770   5.711   3.412   2.858
 9624SOL    HW129771   5.796   3.377   2.897
 9624SOL    HW229772   5.685   3.496   2.905
 9625SOL     OW29773   5.477   5.872   0.176
 9625SOL    HW129774   5.470   5.957   0.230
 9625SOL    HW229775   5.567   5.866   0.135
 9626SOL     OW29776   4.211   5.075   0.838
 9626SOL    HW129777   4.277   5.076   0.763
 9626SOL    HW229778   4.176   5.167   0.853
 9627SOL     OW29779   0.803   6.172   6.229
 9627SOL    HW129780   0.703   6.178   6.235
 9627SOL    HW229781   0.844   6.257   6.264
 9628SOL     OW29782   4.937   6.125   0.960
 9628SOL    HW129783   4.955   6.197   0.893
 9628SOL    HW229784   4.889   6.049   0.915
 9629SOL     OW29785   2.514   0.606   1.403
 9629SOL    HW129786   2.482   0.597   1.497
 9629SOL    HW229787   2.447   0.567   1.341
 9630SOL     OW29788   6.441   0.589   6.078
 9630SOL    HW129789   6.526   0.630   6.045
 9630SOL    HW229790   6.390   0.551   6.000
 9631SOL     OW29791   6.432   0.338   6.509
 9631SOL    HW129792   6.429   0.418   6.448
 9631SOL    HW229793   6.509   0.347   6.572
 9632SOL     OW29794   1.898   6.192   2.086
 9632SOL    HW129795   1.858   6.120   2.143
 9632SOL    HW229796   1.840   6.209   2.007
 9633SOL     OW29797   5.733   5.822   0.011
 9633SOL    HW129798   5.809   5.827   0.076
 9633SOL    HW229799   5.721   5.727   6.992
 9634SOL     OW29800   1.595   6.213   4.963
 9634SOL    HW129801   1.558   6.303   4.986
 9634SOL    HW229802   1.678   6.225   4.908
 9635SOL     OW29803   2.595   5.426   4.690
 9635SOL    HW129804   2.665   5.388   4.751
 9635SOL    HW229805   2.546   5.351   4.646
 9636SOL     OW29806   4.028   1.472   5.262
 9636SOL    HW129807   3.985   1.505   5.346
 9636SOL    HW229808   4.030   1.547   5.195
 9637SOL     OW29809   1.741   1.781   6.433
 9637SOL    HW129810   1.645   1.801   6.414
 9637SOL    HW229811   1.790   1.767   6.347
 9638SOL     OW29812   6.478   3.411   4.905
 9638SOL    HW129813   6.468   3.465   4.821
 9638SOL    HW229814   6.574   3.391   4.920
 9639SOL     OW29815   4.852   1.473   2.680
 9639SOL    HW129816   4.832   1.383   2.642
 9639SOL    HW229817   4.772   1.531   2.672
 9640SOL     OW29818   2.357   2.725   2.823
 9640SOL    HW129819   2.408   2.661   2.765
 9640SOL    HW229820   2.412   2.749   2.903
 9641SOL     OW29821   5.234   0.090   0.571
 9641SOL    HW129822   5.135   0.076   0.579
 9641SOL    HW229823   5.275   0.093   0.662
 9642SOL     OW29824   3.405   0.251   4.910
 9642SOL    HW129825   3.370   0.246   5.004
 9642SOL    HW229826   3.379   0.338   4.869
 9643SOL     OW29827   5.271   4.564   4.051
 9643SOL    HW129828   5.280   4.533   3.956
 9643SOL    HW229829   5.285   4.663   4.055
 9644SOL     OW29830   0.737   2.961   6.876
 9644SOL    HW129831   0.825   2.918   6.898
 9644SOL    HW229832   0.688   2.980   6.961
 9645SOL     OW29833   2.918   5.037   5.488
 9645SOL    HW129834   2.836   5.086   5.458
 9645SOL    HW229835   2.972   5.097   5.549
 9646SOL     OW29836   3.970   5.059   2.494
 9646SOL    HW129837   3.954   5.118   2.573
 9646SOL    HW229838   3.882   5.031   2.456
 9647SOL     OW29839   6.321   3.428   1.009
 9647SOL    HW129840   6.404   3.375   0.994
 9647SOL    HW229841   6.341   3.506   1.068
 9648SOL     OW29842   4.448   2.598   1.066
 9648SOL    HW129843   4.475   2.646   1.150
 9648SOL    HW229844   4.474   2.502   1.073
 9649SOL     OW29845   2.327   5.960   0.298
 9649SOL    HW129846   2.370   6.045   0.267
 9649SOL    HW229847   2.237   5.981   0.337
 9650SOL     OW29848   6.593   5.632   2.099
 9650SOL    HW129849   6.680   5.659   2.057
 9650SOL    HW229850   6.611   5.593   2.190
 9651SOL     OW29851   0.958   1.147   6.313
 9651SOL    HW129852   1.005   1.221   6.265
 9651SOL    HW229853   0.962   1.064   6.256
 9652SOL     OW29854   0.426   4.687   3.190
 9652SOL    HW129855   0.513   4.723   3.155
 9652SOL    HW229856   0.374   4.646   3.115
 9653SOL     OW29857   5.146   4.977   4.471
 9653SOL    HW129858   5.052   5.005   4.450
 9653SOL    HW229859   5.205   5.057   4.472
 9654SOL     OW29860   2.297   2.839   1.973
 9654SOL    HW129861   2.218   2.900   1.965
 9654SOL    HW229862   2.349   2.840   1.888
 9655SOL     OW29863   0.150   1.403   6.592
 9655SOL    HW129864   0.239   1.418   6.635
 9655SOL    HW229865   0.159   1.411   6.493
 9656SOL     OW29866   3.526   0.450   2.563
 9656SOL    HW129867   3.543   0.472   2.659
 9656SOL    HW229868   3.434   0.481   2.537
 9657SOL     OW29869   6.243   1.109   5.100
 9657SOL    HW129870   6.163   1.097   5.041
 9657SOL    HW229871   6.219   1.083   5.193
 9658SOL     OW29872   6.384   2.801   1.629
 9658SOL    HW129873   6.354   2.708   1.609
 9658SOL    HW229874   6.394   2.852   1.544
 9659SOL     OW29875   0.891   4.591   0.203
 9659SOL    HW129876   0.835   4.518   0.243
 9659SOL    HW229877   0.880   4.674   0.257
 9660SOL     OW29878   0.854   5.205   0.300
 9660SOL    HW129879   0.808   5.117   0.297
 9660SOL    HW229880   0.925   5.203   0.370
 9661SOL     OW29881   4.519   6.768   0.623
 9661SOL    HW129882   4.571   6.798   0.544
 9661SOL    HW229883   4.553   6.815   0.705
 9662SOL     OW29884   6.127   1.451   4.681
 9662SOL    HW129885   6.223   1.421   4.687
 9662SOL    HW229886   6.080   1.428   4.766
 9663SOL     OW29887   2.409   5.266   2.906
 9663SOL    HW129888   2.491   5.319   2.927
 9663SOL    HW229889   2.365   5.305   2.825
 9664SOL     OW29890   3.946   6.766   2.034
 9664SOL    HW129891   3.925   6.821   1.952
 9664SOL    HW229892   3.866   6.711   2.058
 9665SOL     OW29893   5.426   4.344   5.088
 9665SOL    HW129894   5.481   4.406   5.144
 9665SOL    HW229895   5.372   4.397   5.023
 9666SOL     OW29896   5.245   4.554   2.714
 9666SOL    HW129897   5.307   4.618   2.668
 9666SOL    HW229898   5.150   4.581   2.696
 9667SOL     OW29899   4.058   3.616   4.233
 9667SOL    HW129900   4.118   3.551   4.186
 9667SOL    HW229901   4.030   3.688   4.169
 9668SOL     OW29902   0.611   0.949   5.189
 9668SOL    HW129903   0.528   0.994   5.159
 9668SOL    HW229904   0.615   0.857   5.150
 9669SOL     OW29905   0.891   6.496   0.437
 9669SOL    HW129906   0.902   6.595   0.443
 9669SOL    HW229907   0.874   6.459   0.528
 9670SOL     OW29908   5.049   4.784   6.534
 9670SOL    HW129909   4.963   4.794   6.484
 9670SOL    HW229910   5.123   4.766   6.469
 9671SOL     OW29911   6.799   5.615   5.401
 9671SOL    HW129912   6.895   5.618   5.430
 9671SOL    HW229913   6.793   5.638   5.304
 9672SOL     OW29914   0.738   6.186   4.770
 9672SOL    HW129915   0.777   6.094   4.780
 9672SOL    HW229916   0.666   6.199   4.838
 9673SOL     OW29917   3.282   4.200   6.691
 9673SOL    HW129918   3.227   4.151   6.624
 9673SOL    HW229919   3.368   4.229   6.650
 9674SOL     OW29920   3.260   5.946   2.174
 9674SOL    HW129921   3.183   6.004   2.203
 9674SOL    HW229922   3.313   5.994   2.105
 9675SOL     OW29923   6.550   2.359   2.336
 9675SOL    HW129924   6.520   2.297   2.408
 9675SOL    HW229925   6.616   2.312   2.277
 9676SOL     OW29926   0.735   3.959   4.459
 9676SOL    HW129927   0.684   4.042   4.435
 9676SOL    HW229928   0.773   3.918   4.376
 9677SOL     OW29929   2.039   3.264   6.085
 9677SOL    HW129930   2.138   3.270   6.089
 9677SOL    HW229931   2.010   3.176   6.123
 9678SOL     OW29932   3.974   3.913   3.368
 9678SOL    HW129933   4.034   3.890   3.445
 9678SOL    HW229934   3.898   3.969   3.401
 9679SOL     OW29935   1.206   2.389   2.073
 9679SOL    HW129936   1.117   2.394   2.119
 9679SOL    HW229937   1.232   2.481   2.043
 9680SOL     OW29938   6.111   5.905   3.309
 9680SOL    HW129939   6.181   5.955   3.257
 9680SOL    HW229940   6.057   5.970   3.362
 9681SOL     OW29941   1.964   0.863   2.400
 9681SOL    HW129942   1.877   0.823   2.430
 9681SOL    HW229943   2.040   0.808   2.435
 9682SOL     OW29944   5.344   4.551   3.095
 9682SOL    HW129945   5.345   4.459   3.058
 9682SOL    HW229946   5.252   4.575   3.126
 9683SOL     OW29947   4.347   6.457   0.153
 9683SOL    HW129948   4.345   6.488   0.058
 9683SOL    HW229949   4.374   6.361   0.157
 9684SOL     OW29950   0.670   4.085   4.978
 9684SOL    HW129951   0.695   3.994   4.946
 9684SOL    HW229952   0.633   4.138   4.901
 9685SOL     OW29953   1.286   2.734   0.742
 9685SOL    HW129954   1.274   2.751   0.840
 9685SOL    HW229955   1.196   2.722   0.700
 9686SOL     OW29956   6.101   0.784   1.523
 9686SOL    HW129957   6.111   0.854   1.453
 9686SOL    HW229958   6.070   0.826   1.609
 9687SOL     OW29959   2.578   0.095   3.605
 9687SOL    HW129960   2.543   0.144   3.685
 9687SOL    HW229961   2.668   0.133   3.580
 9688SOL     OW29962   0.038   1.337   2.962
 9688SOL    HW129963   0.094   1.349   2.879
 9688SOL    HW229964   0.097   1.307   3.037
 9689SOL     OW29965   2.723   6.244   6.760
 9689SOL    HW129966   2.795   6.259   6.692
 9689SOL    HW229967   2.743   6.160   6.811
 9690SOL     OW29968   6.601   4.803   0.669
 9690SOL    HW129969   6.530   4.863   0.631
 9690SOL    HW229970   6.679   4.858   0.698
 9691SOL     OW29971   1.676   5.414   1.919
 9691SOL    HW129972   1.701   5.492   1.976
 9691SOL    HW229973   1.580   5.422   1.892
 9692SOL     OW29974   2.705   5.175   1.570
 9692SOL    HW129975   2.702   5.271   1.540
 9692SOL    HW229976   2.673   5.169   1.664
 9693SOL     OW29977   6.350   6.160   1.746
 9693SOL    HW129978   6.414   6.091   1.781
 9693SOL    HW229979   6.400   6.242   1.720
 9694SOL     OW29980   1.282   2.695   6.742
 9694SOL    HW129981   1.213   2.640   6.790
 9694SOL    HW229982   1.313   2.768   6.803
 9695SOL     OW29983   6.862   4.499   1.439
 9695SOL    HW129984   6.940   4.448   1.404
 9695SOL    HW229985   6.889   4.549   1.522
 9696SOL     OW29986   3.843   3.060   1.609
 9696SOL    HW129987   3.746   3.065   1.629
 9696SOL    HW229988   3.895   3.050   1.694
 9697SOL     OW29989   0.292   5.285   0.001
 9697SOL    HW129990   0.202   5.248   0.024
 9697SOL    HW229991   0.363   5.231   0.047
 9698SOL     OW29992   5.750   2.042   4.976
 9698SOL    HW129993   5.826   2.102   4.951
 9698SOL    HW229994   5.779   1.980   5.050
 9699SOL     OW29995   1.554   3.508   0.133
 9699SOL    HW129996   1.556   3.536   0.229
 9699SOL    HW229997   1.602   3.421   0.123
 9700SOL     OW29998   3.585   4.056   5.285
 9700SOL    HW129999   3.507   4.117   5.298
 9700SOL    HW230000   3.584   4.019   5.193
 9701SOL     OW30001   4.585   5.152   4.520
 9701SOL    HW130002   4.601   5.146   4.422
 9701SOL    HW230003   4.487   5.161   4.537
 9702SOL     OW30004   4.599   1.219   0.760
 9702SOL    HW130005   4.564   1.190   0.671
 9702SOL    HW230006   4.651   1.304   0.750
 9703SOL     OW30007   2.941   5.818   4.191
 9703SOL    HW130008   2.935   5.899   4.133
 9703SOL    HW230009   3.037   5.795   4.208
 9704SOL     OW30010   3.704   6.811   3.386
 9704SOL    HW130011   3.669   6.871   3.458
 9704SOL    HW230012   3.785   6.852   3.344
 9705SOL     OW30013   3.351   4.646   0.220
 9705SOL    HW130014   3.375   4.723   0.161
 9705SOL    HW230015   3.330   4.680   0.312
 9706SOL     OW30016   5.960   2.910   2.392
 9706SOL    HW130017   5.973   2.950   2.301
 9706SOL    HW230018   6.038   2.852   2.414
 9707SOL     OW30019   2.499   5.222   2.319
 9707SOL    HW130020   2.436   5.298   2.308
 9707SOL    HW230021   2.465   5.160   2.390
 9708SOL     OW30022   2.092   1.736   3.213
 9708SOL    HW130023   2.171   1.796   3.199
 9708SOL    HW230024   2.122   1.648   3.248
 9709SOL     OW30025   1.864   6.429   2.878
 9709SOL    HW130026   1.791   6.363   2.894
 9709SOL    HW230027   1.878   6.441   2.780
 9710SOL     OW30028   0.246   1.301   3.152
 9710SOL    HW130029   0.314   1.296   3.225
 9710SOL    HW230030   0.188   1.220   3.155
 9711SOL     OW30031   1.300   3.775   5.277
 9711SOL    HW130032   1.263   3.765   5.369
 9711SOL    HW230033   1.252   3.850   5.230
 9712SOL     OW30034   5.214   1.658   4.279
 9712SOL    HW130035   5.268   1.695   4.355
 9712SOL    HW230036   5.205   1.559   4.291
 9713SOL     OW30037   6.687   4.892   2.988
 9713SOL    HW130038   6.705   4.933   3.077
 9713SOL    HW230039   6.703   4.794   2.993
 9714SOL     OW30040   2.334   2.434   1.338
 9714SOL    HW130041   2.388   2.352   1.359
 9714SOL    HW230042   2.302   2.474   1.424
 9715SOL     OW30043   5.047   5.840   4.846
 9715SOL    HW130044   5.140   5.861   4.817
 9715SOL    HW230045   5.012   5.762   4.794
 9716SOL     OW30046   4.212   1.861   6.215
 9716SOL    HW130047   4.123   1.869   6.171
 9716SOL    HW230048   4.212   1.779   6.273
 9717SOL     OW30049   5.965   5.806   3.974
 9717SOL    HW130050   5.904   5.745   4.024
 9717SOL    HW230051   5.912   5.881   3.934
 9718SOL     OW30052   4.007   3.432   1.268
 9718SOL    HW130053   3.935   3.363   1.282
 9718SOL    HW230054   4.060   3.441   1.352
 9719SOL     OW30055   0.701   2.075   0.506
 9719SOL    HW130056   0.654   2.012   0.445
 9719SOL    HW230057   0.788   2.035   0.536
 9720SOL     OW30058   0.164   6.878   1.985
 9720SOL    HW130059   0.229   6.954   1.974
 9720SOL    HW230060   0.164   6.848   2.080
 9721SOL     OW30061   6.473   4.132   2.088
 9721SOL    HW130062   6.458   4.213   2.031
 9721SOL    HW230063   6.397   4.068   2.075
 9722SOL     OW30064   0.675   0.539   3.923
 9722SOL    HW130065   0.590   0.545   3.871
 9722SOL    HW230066   0.724   0.455   3.898
 9723SOL     OW30067   0.080   0.940   3.690
 9723SOL    HW130068   0.111   0.890   3.609
 9723SOL    HW230069   6.999   0.974   3.675
 9724SOL     OW30070   3.219   2.258   1.261
 9724SOL    HW130071   3.237   2.181   1.323
 9724SOL    HW230072   3.277   2.250   1.180
 9725SOL     OW30073   4.624   3.017   5.261
 9725SOL    HW130074   4.575   3.093   5.303
 9725SOL    HW230075   4.642   2.947   5.329
 9726SOL     OW30076   4.965   6.776   4.826
 9726SOL    HW130077   4.940   6.681   4.842
 9726SOL    HW230078   4.948   6.830   4.908
 9727SOL     OW30079   1.020   3.230   5.792
 9727SOL    HW130080   1.114   3.195   5.800
 9727SOL    HW230081   0.981   3.202   5.704
 9728SOL     OW30082   2.629   5.629   6.623
 9728SOL    HW130083   2.558   5.699   6.618
 9728SOL    HW230084   2.684   5.630   6.540
 9729SOL     OW30085   2.030   4.852   3.034
 9729SOL    HW130086   2.115   4.902   3.018
 9729SOL    HW230087   2.017   4.783   2.962
 9730SOL     OW30088   6.480   3.346   2.669
 9730SOL    HW130089   6.491   3.250   2.693
 9730SOL    HW230090   6.545   3.371   2.598
 9731SOL     OW30091   3.594   5.229   0.340
 9731SOL    HW130092   3.549   5.315   0.363
 9731SOL    HW230093   3.526   5.156   0.334
 9732SOL     OW30094   6.376   6.137   2.762
 9732SOL    HW130095   6.474   6.117   2.769
 9732SOL    HW230096   6.335   6.137   2.853
 9733SOL     OW30097   4.977   4.838   5.282
 9733SOL    HW130098   5.020   4.765   5.336
 9733SOL    HW230099   4.925   4.798   5.207
 9734SOL     OW30100   5.278   2.084   4.108
 9734SOL    HW130101   5.334   2.149   4.055
 9734SOL    HW230102   5.310   2.083   4.202
 9735SOL     OW30103   1.914   4.673   1.760
 9735SOL    HW130104   1.906   4.616   1.841
 9735SOL    HW230105   1.852   4.640   1.689
 9736SOL     OW30106   3.909   0.784   6.747
 9736SOL    HW130107   3.896   0.811   6.843
 9736SOL    HW230108   3.993   0.824   6.712
 9737SOL     OW30109   4.093   2.194   5.056
 9737SOL    HW130110   4.128   2.287   5.066
 9737SOL    HW230111   4.057   2.182   4.963
 9738SOL     OW30112   1.467   0.817   3.226
 9738SOL    HW130113   1.503   0.769   3.146
 9738SOL    HW230114   1.537   0.821   3.297
 9739SOL     OW30115   5.965   4.888   1.493
 9739SOL    HW130116   6.056   4.888   1.533
 9739SOL    HW230117   5.972   4.904   1.394
 9740SOL     OW30118   6.060   4.687   2.847
 9740SOL    HW130119   5.979   4.635   2.821
 9740SOL    HW230120   6.075   4.761   2.781
 9741SOL     OW30121   4.541   1.933   2.316
 9741SOL    HW130122   4.487   1.914   2.234
 9741SOL    HW230123   4.543   2.031   2.332
 9742SOL     OW30124   5.330   0.929   3.319
 9742SOL    HW130125   5.392   0.986   3.373
 9742SOL    HW230126   5.359   0.931   3.223
 9743SOL     OW30127   1.726   3.139   5.949
 9743SOL    HW130128   1.740   3.057   6.004
 9743SOL    HW230129   1.782   3.133   5.866
 9744SOL     OW30130   2.011   0.937   2.122
 9744SOL    HW130131   1.917   0.936   2.088
 9744SOL    HW230132   2.013   0.894   2.213
 9745SOL     OW30133   0.323   2.510   5.161
 9745SOL    HW130134   0.379   2.430   5.182
 9745SOL    HW230135   0.230   2.482   5.138
 9746SOL     OW30136   6.285   0.800   4.734
 9746SOL    HW130137   6.338   0.841   4.660
 9746SOL    HW230138   6.189   0.796   4.709
 9747SOL     OW30139   0.530   0.260   6.191
 9747SOL    HW130140   0.537   0.163   6.169
 9747SOL    HW230141   0.536   0.314   6.107
 9748SOL     OW30142   1.051   6.006   3.881
 9748SOL    HW130143   0.974   5.952   3.846
 9748SOL    HW230144   1.086   5.964   3.964
 9749SOL     OW30145   0.342   3.907   4.370
 9749SOL    HW130146   0.368   3.961   4.290
 9749SOL    HW230147   0.343   3.810   4.347
 9750SOL     OW30148   4.527   4.754   3.924
 9750SOL    HW130149   4.626   4.739   3.921
 9750SOL    HW230150   4.482   4.688   3.864
 9751SOL     OW30151   1.844   1.785   0.394
 9751SOL    HW130152   1.834   1.872   0.442
 9751SOL    HW230153   1.925   1.738   0.427
 9752SOL     OW30154   4.285   0.909   5.566
 9752SOL    HW130155   4.240   0.993   5.599
 9752SOL    HW230156   4.239   0.878   5.483
 9753SOL     OW30157   6.902   5.946   5.306
 9753SOL    HW130158   6.955   5.977   5.227
 9753SOL    HW230159   6.958   5.950   5.388
 9754SOL     OW30160   1.340   1.748   6.868
 9754SOL    HW130161   1.392   1.776   6.788
 9754SOL    HW230162   1.242   1.753   6.847
 9755SOL     OW30163   3.761   4.319   5.695
 9755SOL    HW130164   3.756   4.314   5.596
 9755SOL    HW230165   3.706   4.246   5.735
 9756SOL     OW30166   5.876   2.265   6.407
 9756SOL    HW130167   5.973   2.247   6.417
 9756SOL    HW230168   5.838   2.208   6.333
 9757SOL     OW30169   5.979   2.228   3.742
 9757SOL    HW130170   5.953   2.314   3.786
 9757SOL    HW230171   6.067   2.198   3.779
 9758SOL     OW30172   2.688   0.372   6.746
 9758SOL    HW130173   2.628   0.376   6.666
 9758SOL    HW230174   2.647   0.423   6.821
 9759SOL     OW30175   2.876   6.413   1.169
 9759SOL    HW130176   2.815   6.417   1.090
 9759SOL    HW230177   2.890   6.318   1.195
 9760SOL     OW30178   6.040   4.375   5.660
 9760SOL    HW130179   6.098   4.440   5.612
 9760SOL    HW230180   6.085   4.286   5.662
 9761SOL     OW30181   5.956   5.481   1.751
 9761SOL    HW130182   5.933   5.551   1.683
 9761SOL    HW230183   5.875   5.458   1.804
 9762SOL     OW30184   2.497   1.958   4.731
 9762SOL    HW130185   2.481   1.997   4.641
 9762SOL    HW230186   2.550   2.022   4.786
 9763SOL     OW30187   2.981   1.905   1.105
 9763SOL    HW130188   2.981   1.927   1.203
 9763SOL    HW230189   3.058   1.843   1.085
 9764SOL     OW30190   0.882   1.813   2.624
 9764SOL    HW130191   0.968   1.785   2.582
 9764SOL    HW230192   0.869   1.764   2.710
 9765SOL     OW30193   0.700   2.144   5.499
 9765SOL    HW130194   0.751   2.227   5.476
 9765SOL    HW230195   0.731   2.109   5.588
 9766SOL     OW30196   2.990   0.226   2.642
 9766SOL    HW130197   2.898   0.209   2.677
 9766SOL    HW230198   3.042   0.141   2.642
 9767SOL     OW30199   5.344   0.437   4.798
 9767SOL    HW130200   5.247   0.457   4.808
 9767SOL    HW230201   5.381   0.490   4.721
 9768SOL     OW30202   4.588   1.892   2.802
 9768SOL    HW130203   4.554   1.984   2.779
 9768SOL    HW230204   4.642   1.858   2.725
 9769SOL     OW30205   0.943   1.975   1.245
 9769SOL    HW130206   0.973   1.888   1.205
 9769SOL    HW230207   1.015   2.011   1.304
 9770SOL     OW30208   5.812   4.585   5.940
 9770SOL    HW130209   5.834   4.598   5.844
 9770SOL    HW230210   5.896   4.586   5.994
 9771SOL     OW30211   4.536   5.191   5.871
 9771SOL    HW130212   4.459   5.132   5.893
 9771SOL    HW230213   4.609   5.179   5.939
 9772SOL     OW30214   6.684   0.761   1.871
 9772SOL    HW130215   6.724   0.701   1.801
 9772SOL    HW230216   6.731   0.746   1.958
 9773SOL     OW30217   6.266   5.536   3.709
 9773SOL    HW130218   6.343   5.597   3.688
 9773SOL    HW230219   6.287   5.444   3.677
 9774SOL     OW30220   6.192   5.176   3.595
 9774SOL    HW130221   6.093   5.187   3.591
 9774SOL    HW230222   6.223   5.183   3.690
 9775SOL     OW30223   1.774   2.503   5.138
 9775SOL    HW130224   1.771   2.467   5.045
 9775SOL    HW230225   1.682   2.532   5.165
 9776SOL     OW30226   0.439   6.322   5.248
 9776SOL    HW130227   0.404   6.326   5.154
 9776SOL    HW230228   0.488   6.407   5.269
 9777SOL     OW30229   5.557   4.263   6.187
 9777SOL    HW130230   5.531   4.217   6.103
 9777SOL    HW230231   5.657   4.272   6.191
 9778SOL     OW30232   4.625   6.963   2.442
 9778SOL    HW130233   4.619   6.911   2.357
 9778SOL    HW230234   4.565   0.031   2.436
 9779SOL     OW30235   2.465   2.142   5.541
 9779SOL    HW130236   2.448   2.087   5.459
 9779SOL    HW230237   2.499   2.232   5.514
 9780SOL     OW30238   3.119   4.522   0.159
 9780SOL    HW130239   3.182   4.583   0.207
 9780SOL    HW230240   3.033   4.569   0.142
 9781SOL     OW30241   1.357   4.685   4.535
 9781SOL    HW130242   1.347   4.707   4.632
 9781SOL    HW230243   1.405   4.598   4.525
 9782SOL     OW30244   6.176   0.354   1.681
 9782SOL    HW130245   6.197   0.382   1.587
 9782SOL    HW230246   6.261   0.345   1.733
 9783SOL     OW30247   5.244   1.355   1.822
 9783SOL    HW130248   5.211   1.431   1.765
 9783SOL    HW230249   5.326   1.316   1.781
 9784SOL     OW30250   4.399   0.607   3.637
 9784SOL    HW130251   4.349   0.693   3.630
 9784SOL    HW230252   4.337   0.531   3.619
 9785SOL     OW30253   0.856   2.891   1.949
 9785SOL    HW130254   0.885   2.804   1.910
 9785SOL    HW230255   0.900   2.966   1.900
 9786SOL     OW30256   2.906   5.865   5.081
 9786SOL    HW130257   2.893   5.839   4.985
 9786SOL    HW230258   3.004   5.878   5.099
 9787SOL     OW30259   5.121   4.541   1.875
 9787SOL    HW130260   5.194   4.563   1.811
 9787SOL    HW230261   5.034   4.538   1.825
 9788SOL     OW30262   6.445   1.398   5.635
 9788SOL    HW130263   6.436   1.445   5.723
 9788SOL    HW230264   6.465   1.301   5.651
 9789SOL     OW30265   2.234   5.602   4.627
 9789SOL    HW130266   2.140   5.568   4.639
 9789SOL    HW230267   2.239   5.657   4.544
 9790SOL     OW30268   6.148   2.029   4.003
 9790SOL    HW130269   6.161   2.040   4.102
 9790SOL    HW230270   6.050   2.033   3.981
 9791SOL     OW30271   0.506   2.199   1.381
 9791SOL    HW130272   0.429   2.137   1.363
 9791SOL    HW230273   0.533   2.243   1.296
 9792SOL     OW30274   4.215   5.224   1.221
 9792SOL    HW130275   4.296   5.231   1.162
 9792SOL    HW230276   4.134   5.250   1.169
 9793SOL     OW30277   5.217   5.780   1.838
 9793SOL    HW130278   5.228   5.739   1.747
 9793SOL    HW230279   5.192   5.709   1.904
 9794SOL     OW30280   4.742   2.626   6.530
 9794SOL    HW130281   4.771   2.678   6.450
 9794SOL    HW230282   4.718   2.688   6.604
 9795SOL     OW30283   1.714   3.416   4.131
 9795SOL    HW130284   1.745   3.327   4.165
 9795SOL    HW230285   1.784   3.485   4.150
 9796SOL     OW30286   2.599   5.029   6.675
 9796SOL    HW130287   2.638   5.026   6.767
 9796SOL    HW230288   2.643   4.959   6.618
 9797SOL     OW30289   4.437   3.037   5.593
 9797SOL    HW130290   4.398   3.094   5.665
 9797SOL    HW230291   4.437   3.087   5.506
 9798SOL     OW30292   2.410   1.651   1.104
 9798SOL    HW130293   2.448   1.614   1.019
 9798SOL    HW230294   2.474   1.717   1.143
 9799SOL     OW30295   2.978   4.184   1.812
 9799SOL    HW130296   2.971   4.283   1.814
 9799SOL    HW230297   2.997   4.150   1.905
 9800SOL     OW30298   4.278   4.997   6.522
 9800SOL    HW130299   4.196   4.992   6.464
 9800SOL    HW230300   4.358   5.012   6.464
 9801SOL     OW30301   4.167   5.408   0.248
 9801SOL    HW130302   4.205   5.482   0.304
 9801SOL    HW230303   4.088   5.442   0.198
 9802SOL     OW30304   6.756   3.452   0.788
 9802SOL    HW130305   6.752   3.528   0.723
 9802SOL    HW230306   6.757   3.488   0.882
 9803SOL     OW30307   6.298   0.518   6.883
 9803SOL    HW130308   6.233   0.512   6.959
 9803SOL    HW230309   6.360   0.440   6.886
 9804SOL     OW30310   6.187   5.856   4.128
 9804SOL    HW130311   6.278   5.827   4.101
 9804SOL    HW230312   6.120   5.823   4.061
 9805SOL     OW30313   1.685   5.162   6.875
 9805SOL    HW130314   1.776   5.204   6.870
 9805SOL    HW230315   1.651   5.146   6.782
 9806SOL     OW30316   0.240   1.856   2.771
 9806SOL    HW130317   0.300   1.901   2.838
 9806SOL    HW230318   0.263   1.887   2.679
 9807SOL     OW30319   4.031   2.345   0.930
 9807SOL    HW130320   4.058   2.326   1.024
 9807SOL    HW230321   4.037   2.443   0.912
 9808SOL     OW30322   0.919   1.292   4.682
 9808SOL    HW130323   0.905   1.389   4.662
 9808SOL    HW230324   1.016   1.275   4.699
 9809SOL     OW30325   0.692   0.890   4.777
 9809SOL    HW130326   0.596   0.888   4.803
 9809SOL    HW230327   0.732   0.978   4.801
 9810SOL     OW30328   3.725   1.095   3.610
 9810SOL    HW130329   3.654   1.026   3.597
 9810SOL    HW230330   3.692   1.183   3.575
 9811SOL     OW30331   0.404   6.788   2.643
 9811SOL    HW130332   0.325   6.757   2.696
 9811SOL    HW230333   0.372   6.831   2.558
 9812SOL     OW30334   4.954   2.464   6.008
 9812SOL    HW130335   4.969   2.371   5.977
 9812SOL    HW230336   4.893   2.511   5.945
 9813SOL     OW30337   6.632   4.793   0.166
 9813SOL    HW130338   6.624   4.769   0.069
 9813SOL    HW230339   6.706   4.740   0.207
 9814SOL     OW30340   0.114   0.147   5.444
 9814SOL    HW130341   0.028   0.194   5.458
 9814SOL    HW230342   0.187   0.193   5.495
 9815SOL     OW30343   6.069   3.445   2.414
 9815SOL    HW130344   6.079   3.431   2.315
 9815SOL    HW230345   5.974   3.428   2.440
 9816SOL     OW30346   0.343   6.315   6.698
 9816SOL    HW130347   0.426   6.317   6.754
 9816SOL    HW230348   0.294   6.401   6.708
 9817SOL     OW30349   2.762   6.669   0.123
 9817SOL    HW130350   2.753   6.606   0.201
 9817SOL    HW230351   2.825   6.629   0.056
 9818SOL     OW30352   0.725   6.599   3.498
 9818SOL    HW130353   0.631   6.576   3.523
 9818SOL    HW230354   0.787   6.567   3.570
 9819SOL     OW30355   0.435   3.780   4.701
 9819SOL    HW130356   0.399   3.852   4.642
 9819SOL    HW230357   0.509   3.732   4.653
 9820SOL     OW30358   3.845   1.899   5.701
 9820SOL    HW130359   3.784   1.937   5.631
 9820SOL    HW230360   3.860   1.801   5.682
 9821SOL     OW30361   4.265   2.572   1.768
 9821SOL    HW130362   4.199   2.641   1.740
 9821SOL    HW230363   4.357   2.602   1.745
 9822SOL     OW30364   3.543   6.183   5.623
 9822SOL    HW130365   3.589   6.185   5.535
 9822SOL    HW230366   3.447   6.209   5.611
 9823SOL     OW30367   1.750   0.382   2.963
 9823SOL    HW130368   1.811   0.459   2.943
 9823SOL    HW230369   1.748   0.366   3.061
 9824SOL     OW30370   0.950   6.510   5.305
 9824SOL    HW130371   0.948   6.512   5.405
 9824SOL    HW230372   0.884   6.576   5.270
 9825SOL     OW30373   5.360   6.367   5.722
 9825SOL    HW130374   5.321   6.437   5.782
 9825SOL    HW230375   5.288   6.332   5.662
 9826SOL     OW30376   2.200   5.892   4.876
 9826SOL    HW130377   2.281   5.922   4.926
 9826SOL    HW230378   2.139   5.844   4.939
 9827SOL     OW30379   1.517   5.547   1.681
 9827SOL    HW130380   1.493   5.642   1.660
 9827SOL    HW230381   1.616   5.536   1.678
 9828SOL     OW30382   4.364   2.372   4.576
 9828SOL    HW130383   4.413   2.450   4.616
 9828SOL    HW230384   4.344   2.306   4.647
 9829SOL     OW30385   4.352   5.551   5.564
 9829SOL    HW130386   4.351   5.473   5.627
 9829SOL    HW230387   4.441   5.595   5.568
 9830SOL     OW30388   6.070   2.461   3.032
 9830SOL    HW130389   6.062   2.367   3.001
 9830SOL    HW230390   6.073   2.522   2.953
 9831SOL     OW30391   0.745   3.726   2.990
 9831SOL    HW130392   0.831   3.756   2.948
 9831SOL    HW230393   0.694   3.669   2.926
 9832SOL     OW30394   4.633   5.136   4.777
 9832SOL    HW130395   4.623   5.130   4.678
 9832SOL    HW230396   4.653   5.046   4.815
 9833SOL     OW30397   3.751   4.055   3.969
 9833SOL    HW130398   3.668   4.097   4.005
 9833SOL    HW230399   3.731   4.015   3.879
 9834SOL     OW30400   2.712   6.341   6.435
 9834SOL    HW130401   2.744   6.387   6.518
 9834SOL    HW230402   2.631   6.286   6.458
 9835SOL     OW30403   3.906   3.842   4.073
 9835SOL    HW130404   3.871   3.932   4.047
 9835SOL    HW230405   3.832   3.775   4.072
 9836SOL     OW30406   0.220   4.179   6.055
 9836SOL    HW130407   0.291   4.179   6.125
 9836SOL    HW230408   0.199   4.084   6.029
 9837SOL     OW30409   5.388   2.056   3.559
 9837SOL    HW130410   5.484   2.085   3.559
 9837SOL    HW230411   5.378   1.977   3.620
 9838SOL     OW30412   1.276   6.853   1.138
 9838SOL    HW130413   1.187   6.809   1.132
 9838SOL    HW230414   1.301   6.863   1.234
 9839SOL     OW30415   5.034   6.879   3.905
 9839SOL    HW130416   5.061   6.975   3.905
 9839SOL    HW230417   5.069   6.834   3.823
 9840SOL     OW30418   6.049   0.957   0.085
 9840SOL    HW130419   6.012   0.994   0.000
 9840SOL    HW230420   6.007   1.004   0.163
 9841SOL     OW30421   0.196   6.537   3.270
 9841SOL    HW130422   0.171   6.542   3.173
 9841SOL    HW230423   0.282   6.487   3.280
 9842SOL     OW30424   3.189   1.505   6.437
 9842SOL    HW130425   3.278   1.530   6.397
 9842SOL    HW230426   3.203   1.470   6.529
 9843SOL     OW30427   0.962   0.416   1.358
 9843SOL    HW130428   0.949   0.435   1.261
 9843SOL    HW230429   1.025   0.339   1.369
 9844SOL     OW30430   4.585   6.680   4.236
 9844SOL    HW130431   4.530   6.724   4.165
 9844SOL    HW230432   4.680   6.674   4.205
 9845SOL     OW30433   1.809   3.370   2.179
 9845SOL    HW130434   1.724   3.326   2.150
 9845SOL    HW230435   1.800   3.402   2.273
 9846SOL     OW30436   6.088   2.501   1.266
 9846SOL    HW130437   6.131   2.413   1.285
 9846SOL    HW230438   6.072   2.550   1.352
 9847SOL     OW30439   4.457   4.059   0.224
 9847SOL    HW130440   4.369   4.094   0.192
 9847SOL    HW230441   4.475   3.971   0.180
 9848SOL     OW30442   2.942   4.299   5.873
 9848SOL    HW130443   2.843   4.307   5.878
 9848SOL    HW230444   2.970   4.281   5.778
 9849SOL     OW30445   0.614   2.174   4.890
 9849SOL    HW130446   0.541   2.194   4.955
 9849SOL    HW230447   0.655   2.085   4.911
 9850SOL     OW30448   1.065   0.315   4.328
 9850SOL    HW130449   1.033   0.410   4.330
 9850SOL    HW230450   1.083   0.287   4.234
 9851SOL     OW30451   3.357   5.076   4.694
 9851SOL    HW130452   3.436   5.022   4.664
 9851SOL    HW230453   3.279   5.015   4.710
 9852SOL     OW30454   2.044   0.745   6.406
 9852SOL    HW130455   2.085   0.829   6.369
 9852SOL    HW230456   1.955   0.767   6.446
 9853SOL     OW30457   6.289   4.330   3.451
 9853SOL    HW130458   6.209   4.307   3.507
 9853SOL    HW230459   6.372   4.302   3.498
 9854SOL     OW30460   0.767   4.413   5.726
 9854SOL    HW130461   0.724   4.323   5.723
 9854SOL    HW230462   0.863   4.405   5.697
 9855SOL     OW30463   1.339   4.848   1.494
 9855SOL    HW130464   1.252   4.895   1.482
 9855SOL    HW230465   1.323   4.750   1.505
 9856SOL     OW30466   5.549   4.293   3.184
 9856SOL    HW130467   5.617   4.240   3.234
 9856SOL    HW230468   5.508   4.236   3.112
 9857SOL     OW30469   4.047   0.206   5.191
 9857SOL    HW130470   4.105   0.206   5.272
 9857SOL    HW230471   4.102   0.228   5.111
 9858SOL     OW30472   6.159   6.389   2.470
 9858SOL    HW130473   6.200   6.396   2.379
 9858SOL    HW230474   6.175   6.298   2.507
 9859SOL     OW30475   0.039   5.225   3.249
 9859SOL    HW130476   0.010   5.166   3.174
 9859SOL    HW230477   0.138   5.218   3.261
 9860SOL     OW30478   1.022   2.951   4.284
 9860SOL    HW130479   1.109   2.941   4.333
 9860SOL    HW230480   0.957   2.883   4.319
 9861SOL     OW30481   2.981   2.074   3.327
 9861SOL    HW130482   2.991   2.087   3.228
 9861SOL    HW230483   2.927   1.991   3.344
 9862SOL     OW30484   1.171   4.690   0.233
 9862SOL    HW130485   1.199   4.746   0.311
 9862SOL    HW230486   1.079   4.654   0.250
 9863SOL     OW30487   3.895   6.117   0.713
 9863SOL    HW130488   3.857   6.064   0.637
 9863SOL    HW230489   3.819   6.157   0.766
 9864SOL     OW30490   2.839   5.320   5.110
 9864SOL    HW130491   2.833   5.357   5.202
 9864SOL    HW230492   2.827   5.221   5.113
 9865SOL     OW30493   0.636   5.686   5.234
 9865SOL    HW130494   0.601   5.726   5.319
 9865SOL    HW230495   0.736   5.688   5.235
 9866SOL     OW30496   6.349   4.402   5.079
 9866SOL    HW130497   6.258   4.380   5.045
 9866SOL    HW230498   6.378   4.491   5.042
 9867SOL     OW30499   4.206   1.808   1.993
 9867SOL    HW130500   4.188   1.724   2.045
 9867SOL    HW230501   4.277   1.861   2.040
 9868SOL     OW30502   2.030   3.806   3.925
 9868SOL    HW130503   1.936   3.786   3.953
 9868SOL    HW230504   2.040   3.787   3.827
 9869SOL     OW30505   5.972   2.925   0.933
 9869SOL    HW130506   5.980   2.947   1.031
 9869SOL    HW230507   6.062   2.930   0.891
 9870SOL     OW30508   2.538   1.951   2.121
 9870SOL    HW130509   2.465   1.885   2.109
 9870SOL    HW230510   2.520   2.007   2.202
 9871SOL     OW30511   6.190   4.762   4.448
 9871SOL    HW130512   6.233   4.772   4.538
 9871SOL    HW230513   6.259   4.768   4.377
 9872SOL     OW30514   0.273   5.400   6.135
 9872SOL    HW130515   0.182   5.405   6.094
 9872SOL    HW230516   0.267   5.355   6.224
 9873SOL     OW30517   1.465   1.748   6.037
 9873SOL    HW130518   1.563   1.743   6.017
 9873SOL    HW230519   1.424   1.658   6.027
 9874SOL     OW30520   0.228   2.833   4.918
 9874SOL    HW130521   0.207   2.812   5.014
 9874SOL    HW230522   0.236   2.932   4.907
 9875SOL     OW30523   6.480   5.890   0.619
 9875SOL    HW130524   6.521   5.971   0.660
 9875SOL    HW230525   6.553   5.828   0.587
 9876SOL     OW30526   1.099   6.491   3.447
 9876SOL    HW130527   1.106   6.432   3.528
 9876SOL    HW230528   1.161   6.569   3.458
 9877SOL     OW30529   0.757   5.020   5.380
 9877SOL    HW130530   0.836   4.963   5.401
 9877SOL    HW230531   0.701   5.031   5.463
 9878SOL     OW30532   2.735   2.585   6.624
 9878SOL    HW130533   2.673   2.538   6.561
 9878SOL    HW230534   2.738   2.682   6.600
 9879SOL     OW30535   6.660   4.910   6.469
 9879SOL    HW130536   6.681   4.959   6.385
 9879SOL    HW230537   6.566   4.875   6.464
 9880SOL     OW30538   3.086   1.319   0.560
 9880SOL    HW130539   3.151   1.251   0.528
 9880SOL    HW230540   2.997   1.276   0.576
 9881SOL     OW30541   6.061   1.043   3.787
 9881SOL    HW130542   6.151   1.012   3.818
 9881SOL    HW230543   6.047   1.013   3.692
 9882SOL     OW30544   3.237   3.093   4.764
 9882SOL    HW130545   3.213   3.062   4.856
 9882SOL    HW230546   3.195   3.182   4.746
 9883SOL     OW30547   2.783   0.349   1.907
 9883SOL    HW130548   2.873   0.314   1.881
 9883SOL    HW230549   2.793   0.409   1.986
 9884SOL     OW30550   3.071   2.848   5.944
 9884SOL    HW130551   3.142   2.791   5.986
 9884SOL    HW230552   3.114   2.920   5.890
 9885SOL     OW30553   5.308   3.074   5.222
 9885SOL    HW130554   5.209   3.067   5.208
 9885SOL    HW230555   5.328   3.155   5.278
 9886SOL     OW30556   3.775   6.059   1.340
 9886SOL    HW130557   3.814   6.056   1.432
 9886SOL    HW230558   3.715   6.138   1.331
 9887SOL     OW30559   3.287   0.439   6.186
 9887SOL    HW130560   3.206   0.475   6.139
 9887SOL    HW230561   3.364   0.501   6.172
 9888SOL     OW30562   6.459   6.239   3.569
 9888SOL    HW130563   6.543   6.229   3.622
 9888SOL    HW230564   6.381   6.208   3.623
 9889SOL     OW30565   0.104   5.894   3.472
 9889SOL    HW130566   0.203   5.900   3.473
 9889SOL    HW230567   0.066   5.974   3.425
 9890SOL     OW30568   0.791   3.446   1.595
 9890SOL    HW130569   0.785   3.348   1.580
 9890SOL    HW230570   0.885   3.470   1.621
 9891SOL     OW30571   5.931   5.849   1.242
 9891SOL    HW130572   6.027   5.878   1.239
 9891SOL    HW230573   5.872   5.930   1.244
 9892SOL     OW30574   1.811   5.012   4.136
 9892SOL    HW130575   1.790   4.919   4.165
 9892SOL    HW230576   1.901   5.038   4.171
 9893SOL     OW30577   4.986   5.202   3.863
 9893SOL    HW130578   5.049   5.164   3.931
 9893SOL    HW230579   5.037   5.245   3.789
 9894SOL     OW30580   4.293   2.894   6.132
 9894SOL    HW130581   4.267   2.836   6.055
 9894SOL    HW230582   4.249   2.983   6.122
 9895SOL     OW30583   5.910   1.949   6.595
 9895SOL    HW130584   5.862   2.034   6.571
 9895SOL    HW230585   5.879   1.876   6.535
 9896SOL     OW30586   4.424   3.568   0.339
 9896SOL    HW130587   4.409   3.506   0.262
 9896SOL    HW230588   4.516   3.555   0.375
 9897SOL     OW30589   6.854   1.730   3.893
 9897SOL    HW130590   6.810   1.681   3.818
 9897SOL    HW230591   6.948   1.697   3.903
 9898SOL     OW30592   1.247   5.317   5.738
 9898SOL    HW130593   1.254   5.407   5.695
 9898SOL    HW230594   1.226   5.248   5.669
 9899SOL     OW30595   5.270   4.935   1.773
 9899SOL    HW130596   5.308   4.850   1.736
 9899SOL    HW230597   5.297   4.944   1.869
 9900SOL     OW30598   0.927   3.636   3.263
 9900SOL    HW130599   0.903   3.625   3.167
 9900SOL    HW230600   0.894   3.556   3.314
 9901SOL     OW30601   3.053   1.684   5.327
 9901SOL    HW130602   2.989   1.711   5.398
 9901SOL    HW230603   3.030   1.731   5.242
 9902SOL     OW30604   4.549   3.956   6.725
 9902SOL    HW130605   4.506   3.931   6.639
 9902SOL    HW230606   4.526   4.050   6.748
 9903SOL     OW30607   3.826   1.117   1.158
 9903SOL    HW130608   3.855   1.192   1.218
 9903SOL    HW230609   3.900   1.095   1.094
 9904SOL     OW30610   6.161   0.390   2.320
 9904SOL    HW130611   6.257   0.393   2.347
 9904SOL    HW230612   6.133   0.482   2.290
 9905SOL     OW30613   1.535   6.311   5.625
 9905SOL    HW130614   1.443   6.290   5.657
 9905SOL    HW230615   1.598   6.310   5.702
 9906SOL     OW30616   3.146   3.440   5.892
 9906SOL    HW130617   3.092   3.391   5.823
 9906SOL    HW230618   3.135   3.395   5.981
 9907SOL     OW30619   1.585   6.554   2.286
 9907SOL    HW130620   1.667   6.497   2.301
 9907SOL    HW230621   1.584   6.628   2.353
 9908SOL     OW30622   0.743   3.827   4.898
 9908SOL    HW130623   0.648   3.796   4.907
 9908SOL    HW230624   0.803   3.764   4.947
 9909SOL     OW30625   4.067   6.682   2.712
 9909SOL    HW130626   4.005   6.604   2.717
 9909SOL    HW230627   4.020   6.760   2.670
 9910SOL     OW30628   0.252   4.196   1.879
 9910SOL    HW130629   0.297   4.148   1.954
 9910SOL    HW230630   0.322   4.239   1.820
 9911SOL     OW30631   3.117   4.966   3.396
 9911SOL    HW130632   3.192   4.904   3.370
 9911SOL    HW230633   3.110   4.970   3.496
 9912SOL     OW30634   4.631   0.083   1.058
 9912SOL    HW130635   4.620   0.015   0.985
 9912SOL    HW230636   4.727   0.111   1.063
 9913SOL     OW30637   4.827   1.810   2.643
 9913SOL    HW130638   4.772   1.726   2.639
 9913SOL    HW230639   4.918   1.790   2.678
 9914SOL     OW30640   2.242   5.850   5.481
 9914SOL    HW130641   2.191   5.889   5.557
 9914SOL    HW230642   2.183   5.790   5.428
 9915SOL     OW30643   5.582   3.594   4.682
 9915SOL    HW130644   5.500   3.574   4.735
 9915SOL    HW230645   5.603   3.692   4.689
 9916SOL     OW30646   2.444   3.123   1.178
 9916SOL    HW130647   2.526   3.103   1.231
 9916SOL    HW230648   2.437   3.221   1.163
 9917SOL     OW30649   2.173   3.432   5.544
 9917SOL    HW130650   2.211   3.463   5.457
 9917SOL    HW230651   2.217   3.482   5.619
 9918SOL     OW30652   1.885   1.546   4.891
 9918SOL    HW130653   1.842   1.633   4.865
 9918SOL    HW230654   1.974   1.539   4.846
 9919SOL     OW30655   6.610   5.082   2.809
 9919SOL    HW130656   6.608   4.995   2.860
 9919SOL    HW230657   6.653   5.152   2.866
 9920SOL     OW30658   4.158   6.244   1.864
 9920SOL    HW130659   4.065   6.267   1.836
 9920SOL    HW230660   4.216   6.326   1.856
 9921SOL     OW30661   4.795   0.247   3.031
 9921SOL    HW130662   4.788   0.289   2.940
 9921SOL    HW230663   4.716   0.274   3.086
 9922SOL     OW30664   4.687   3.309   1.420
 9922SOL    HW130665   4.668   3.256   1.502
 9922SOL    HW230666   4.695   3.247   1.342
 9923SOL     OW30667   6.397   1.101   6.329
 9923SOL    HW130668   6.303   1.074   6.351
 9923SOL    HW230669   6.459   1.025   6.350
 9924SOL     OW30670   5.558   0.607   3.111
 9924SOL    HW130671   5.570   0.695   3.064
 9924SOL    HW230672   5.640   0.552   3.097
 9925SOL     OW30673   2.258   2.702   4.673
 9925SOL    HW130674   2.179   2.642   4.688
 9925SOL    HW230675   2.254   2.779   4.736
 9926SOL     OW30676   1.445   1.217   0.413
 9926SOL    HW130677   1.455   1.287   0.342
 9926SOL    HW230678   1.415   1.260   0.498
 9927SOL     OW30679   0.927   2.687   2.498
 9927SOL    HW130680   0.850   2.701   2.435
 9927SOL    HW230681   0.936   2.767   2.558
 9928SOL     OW30682   6.797   2.958   2.728
 9928SOL    HW130683   6.816   3.056   2.732
 9928SOL    HW230684   6.732   2.940   2.654
 9929SOL     OW30685   2.283   3.839   6.079
 9929SOL    HW130686   2.268   3.877   6.170
 9929SOL    HW230687   2.377   3.856   6.051
 9930SOL     OW30688   0.177   6.006   0.246
 9930SOL    HW130689   0.276   6.015   0.258
 9930SOL    HW230690   0.158   5.974   0.153
 9931SOL     OW30691   2.894   5.714   6.816
 9931SOL    HW130692   2.809   5.691   6.768
 9931SOL    HW230693   2.883   5.698   6.914
 9932SOL     OW30694   1.921   2.151   0.227
 9932SOL    HW130695   1.839   2.097   0.207
 9932SOL    HW230696   1.900   2.220   0.295
 9933SOL     OW30697   0.987   1.994   3.764
 9933SOL    HW130698   0.942   2.075   3.727
 9933SOL    HW230699   1.085   2.013   3.777
 9934SOL     OW30700   4.407   1.461   6.535
 9934SOL    HW130701   4.385   1.555   6.510
 9934SOL    HW230702   4.332   1.401   6.507
 9935SOL     OW30703   2.653   2.208   0.557
 9935SOL    HW130704   2.688   2.131   0.610
 9935SOL    HW230705   2.688   2.202   0.463
 9936SOL     OW30706   6.274   6.458   5.672
 9936SOL    HW130707   6.241   6.551   5.661
 9936SOL    HW230708   6.196   6.396   5.681
 9937SOL     OW30709   0.595   0.569   3.228
 9937SOL    HW130710   0.564   0.498   3.292
 9937SOL    HW230711   0.632   0.646   3.280
 9938SOL     OW30712   0.290   1.757   3.559
 9938SOL    HW130713   0.380   1.762   3.518
 9938SOL    HW230714   0.267   1.845   3.601
 9939SOL     OW30715   3.331   4.156   1.150
 9939SOL    HW130716   3.240   4.159   1.109
 9939SOL    HW230717   3.370   4.064   1.137
 9940SOL     OW30718   0.071   1.286   3.411
 9940SOL    HW130719   0.158   1.333   3.393
 9940SOL    HW230720   0.045   1.300   3.506
 9941SOL     OW30721   5.469   4.899   6.984
 9941SOL    HW130722   5.432   4.807   6.967
 9941SOL    HW230723   5.473   4.915   0.071
 9942SOL     OW30724   4.953   4.974   2.638
 9942SOL    HW130725   5.001   4.923   2.709
 9942SOL    HW230726   4.859   4.992   2.666
 9943SOL     OW30727   1.933   3.866   5.850
 9943SOL    HW130728   1.873   3.786   5.859
 9943SOL    HW230729   1.993   3.854   5.771
 9944SOL     OW30730   0.718   4.950   6.032
 9944SOL    HW130731   0.709   4.964   6.131
 9944SOL    HW230732   0.629   4.929   5.993
 9945SOL     OW30733   6.605   3.540   6.077
 9945SOL    HW130734   6.568   3.616   6.131
 9945SOL    HW230735   6.556   3.535   5.989
 9946SOL     OW30736   5.461   1.741   1.597
 9946SOL    HW130737   5.404   1.773   1.673
 9946SOL    HW230738   5.497   1.820   1.547
 9947SOL     OW30739   0.962   1.616   4.174
 9947SOL    HW130740   0.880   1.633   4.118
 9947SOL    HW230741   1.036   1.675   4.142
 9948SOL     OW30742   5.591   0.179   4.362
 9948SOL    HW130743   5.592   0.174   4.462
 9948SOL    HW230744   5.623   0.092   4.324
 9949SOL     OW30745   6.425   5.312   3.617
 9949SOL    HW130746   6.493   5.308   3.545
 9949SOL    HW230747   6.345   5.258   3.591
 9950SOL     OW30748   5.395   3.813   5.246
 9950SOL    HW130749   5.315   3.771   5.288
 9950SOL    HW230750   5.377   3.910   5.229
 9951SOL     OW30751   0.693   2.011   3.455
 9951SOL    HW130752   0.730   1.957   3.531
 9951SOL    HW230753   0.615   2.064   3.487
 9952SOL     OW30754   0.972   5.100   2.042
 9952SOL    HW130755   0.944   5.155   2.120
 9952SOL    HW230756   0.893   5.082   1.983
 9953SOL     OW30757   5.784   2.761   3.570
 9953SOL    HW130758   5.730   2.781   3.489
 9953SOL    HW230759   5.725   2.763   3.651
 9954SOL     OW30760   3.559   1.703   6.514
 9954SOL    HW130761   3.614   1.630   6.554
 9954SOL    HW230762   3.606   1.740   6.434
 9955SOL     OW30763   5.714   4.446   0.802
 9955SOL    HW130764   5.683   4.534   0.839
 9955SOL    HW230765   5.634   4.393   0.772
 9956SOL     OW30766   2.058   3.476   3.067
 9956SOL    HW130767   2.077   3.378   3.060
 9956SOL    HW230768   2.053   3.515   2.975
 9957SOL     OW30769   5.393   0.208   0.384
 9957SOL    HW130770   5.356   0.167   0.467
 9957SOL    HW230771   5.485   0.243   0.402
 9958SOL     OW30772   5.520   6.268   0.280
 9958SOL    HW130773   5.462   6.249   0.201
 9958SOL    HW230774   5.479   6.229   0.362
 9959SOL     OW30775   4.681   4.684   0.719
 9959SOL    HW130776   4.765   4.738   0.718
 9959SOL    HW230777   4.695   4.602   0.774
 9960SOL     OW30778   0.486   0.086   0.177
 9960SOL    HW130779   0.504   7.000   0.191
 9960SOL    HW230780   0.487   0.107   0.080
 9961SOL     OW30781   2.940   5.531   1.447
 9961SOL    HW130782   2.975   5.482   1.368
 9961SOL    HW230783   3.016   5.558   1.506
 9962SOL     OW30784   2.878   0.371   1.474
 9962SOL    HW130785   2.957   0.328   1.518
 9962SOL    HW230786   2.826   0.422   1.543
 9963SOL     OW30787   0.803   0.949   6.101
 9963SOL    HW130788   0.862   0.874   6.131
 9963SOL    HW230789   0.806   0.957   6.002
 9964SOL     OW30790   4.666   4.382   6.023
 9964SOL    HW130791   4.716   4.450   5.970
 9964SOL    HW230792   4.638   4.306   5.963
 9965SOL     OW30793   2.469   5.651   3.859
 9965SOL    HW130794   2.474   5.638   3.958
 9965SOL    HW230795   2.560   5.640   3.819
 9966SOL     OW30796   3.725   4.962   2.390
 9966SOL    HW130797   3.670   4.940   2.310
 9966SOL    HW230798   3.699   4.902   2.466
 9967SOL     OW30799   6.619   6.987   3.135
 9967SOL    HW130800   6.525   0.009   3.141
 9967SOL    HW230801   6.655   7.005   3.043
 9968SOL     OW30802   3.703   6.066   6.999
 9968SOL    HW130803   3.695   6.158   0.028
 9968SOL    HW230804   3.724   6.000   0.060
 9969SOL     OW30805   1.093   6.036   3.481
 9969SOL    HW130806   1.048   6.121   3.454
 9969SOL    HW230807   1.160   6.054   3.553
 9970SOL     OW30808   6.458   3.960   1.167
 9970SOL    HW130809   6.539   3.924   1.121
 9970SOL    HW230810   6.459   3.931   1.263
 9971SOL     OW30811   0.714   5.409   3.370
 9971SOL    HW130812   0.763   5.423   3.284
 9971SOL    HW230813   0.713   5.494   3.423
 9972SOL     OW30814   2.934   3.987   6.654
 9972SOL    HW130815   3.028   3.957   6.640
 9972SOL    HW230816   2.922   4.078   6.613
 9973SOL     OW30817   2.543   2.422   3.304
 9973SOL    HW130818   2.577   2.395   3.394
 9973SOL    HW230819   2.461   2.368   3.283
 9974SOL     OW30820   1.162   2.960   2.437
 9974SOL    HW130821   1.086   2.948   2.501
 9974SOL    HW230822   1.126   2.969   2.344
 9975SOL     OW30823   2.085   4.741   6.864
 9975SOL    HW130824   2.024   4.669   6.832
 9975SOL    HW230825   2.177   4.724   6.829
 9976SOL     OW30826   3.456   4.492   6.337
 9976SOL    HW130827   3.374   4.453   6.380
 9976SOL    HW230828   3.433   4.528   6.247
 9977SOL     OW30829   4.527   6.697   5.498
 9977SOL    HW130830   4.564   6.783   5.462
 9977SOL    HW230831   4.468   6.718   5.576
 9978SOL     OW30832   0.877   3.582   6.685
 9978SOL    HW130833   0.824   3.538   6.612
 9978SOL    HW230834   0.885   3.680   6.666
 9979SOL     OW30835   3.647   3.483   5.031
 9979SOL    HW130836   3.598   3.520   4.952
 9979SOL    HW230837   3.736   3.529   5.038
 9980SOL     OW30838   2.519   1.514   0.882
 9980SOL    HW130839   2.427   1.500   0.844
 9980SOL    HW230840   2.540   1.440   0.945
 9981SOL     OW30841   6.608   2.518   1.239
 9981SOL    HW130842   6.707   2.531   1.232
 9981SOL    HW230843   6.561   2.601   1.210
 9982SOL     OW30844   1.990   2.159   4.562
 9982SOL    HW130845   1.905   2.185   4.609
 9982SOL    HW230846   2.068   2.181   4.620
 9983SOL     OW30847   0.745   2.996   2.408
 9983SOL    HW130848   0.770   2.901   2.392
 9983SOL    HW230849   0.693   3.003   2.493
 9984SOL     OW30850   0.341   5.371   1.220
 9984SOL    HW130851   0.370   5.308   1.148
 9984SOL    HW230852   0.406   5.367   1.296
 9985SOL     OW30853   5.339   4.674   0.008
 9985SOL    HW130854   5.282   4.695   0.087
 9985SOL    HW230855   5.315   4.584   6.983
 9986SOL     OW30856   5.496   5.242   6.665
 9986SOL    HW130857   5.581   5.266   6.618
 9986SOL    HW230858   5.455   5.162   6.621
 9987SOL     OW30859   5.403   2.993   1.245
 9987SOL    HW130860   5.357   3.051   1.313
 9987SOL    HW230861   5.364   2.901   1.249
 9988SOL     OW30862   5.653   6.153   3.804
 9988SOL    HW130863   5.664   6.179   3.709
 9988SOL    HW230864   5.629   6.233   3.859
 9989SOL     OW30865   6.745   5.042   2.471
 9989SOL    HW130866   6.661   5.067   2.519
 9989SOL    HW230867   6.764   4.945   2.484
 9990SOL     OW30868   0.293   6.537   3.968
 9990SOL    HW130869   0.297   6.618   4.027
 9990SOL    HW230870   0.320   6.562   3.875
 9991SOL     OW30871   1.786   4.916   3.156
 9991SOL    HW130872   1.875   4.887   3.120
 9991SOL    HW230873   1.780   5.015   3.155
 9992SOL     OW30874   3.354   4.657   0.495
 9992SOL    HW130875   3.431   4.709   0.531
 9992SOL    HW230876   3.351   4.567   0.539
 9993SOL     OW30877   3.452   6.225   4.351
 9993SOL    HW130878   3.498   6.223   4.439
 9993SOL    HW230879   3.518   6.250   4.279
 9994SOL     OW30880   5.659   5.701   5.118
 9994SOL    HW130881   5.717   5.662   5.048
 9994SOL    HW230882   5.602   5.630   5.159
 9995SOL     OW30883   2.997   0.216   5.122
 9995SOL    HW130884   3.095   0.215   5.101
 9995SOL    HW230885   2.945   0.238   5.039
 9996SOL     OW30886   2.919   3.000   0.872
 9996SOL    HW130887   2.926   2.900   0.875
 9996SOL    HW230888   2.831   3.026   0.833
 9997SOL     OW30889   5.921   2.523   3.577
 9997SOL    HW130890   5.905   2.462   3.500
 9997SOL    HW230891   5.871   2.609   3.564
 9998SOL     OW30892   4.755   4.573   2.586
 9998SOL    HW130893   4.777   4.504   2.517
 9998SOL    HW230894   4.668   4.617   2.562
 9999SOL     OW30895   0.890   6.807   3.388
 9999SOL    HW130896   0.825   6.744   3.432
 9999SOL    HW230897   0.978   6.802   3.435
10000SOL     OW30898   5.070   2.456   1.474
10000SOL    HW130899   5.118   2.527   1.524
10000SOL    HW230900   4.978   2.488   1.450
10001SOL     OW30901   4.104   6.059   2.047
10001SOL    HW130902   4.123   6.151   2.012
10001SOL    HW230903   4.008   6.053   2.075
10002SOL     OW30904   3.106   1.256   1.813
10002SOL    HW130905   3.016   1.224   1.843
10002SOL    HW230906   3.151   1.303   1.889
10003SOL     OW30907   1.686   0.706   4.029
10003SOL    HW130908   1.613   0.647   4.064
10003SOL    HW230909   1.655   0.801   4.026
10004SOL     OW30910   6.600   4.012   5.087
10004SOL    HW130911   6.559   3.925   5.062
10004SOL    HW230912   6.628   4.061   5.004
10005SOL     OW30913   2.343   5.198   3.183
10005SOL    HW130914   2.364   5.232   3.091
10005SOL    HW230915   2.429   5.178   3.230
10006SOL     OW30916   5.278   0.190   4.618
10006SOL    HW130917   5.291   0.250   4.697
10006SOL    HW230918   5.251   0.244   4.539
10007SOL     OW30919   1.461   4.940   4.500
10007SOL    HW130920   1.395   4.981   4.437
10007SOL    HW230921   1.438   4.844   4.516
10008SOL     OW30922   4.207   1.168   6.069
10008SOL    HW130923   4.153   1.167   6.153
10008SOL    HW230924   4.300   1.138   6.089
10009SOL     OW30925   1.531   3.162   2.312
10009SOL    HW130926   1.607   3.206   2.360
10009SOL    HW230927   1.525   3.198   2.219
10010SOL     OW30928   2.703   3.943   0.472
10010SOL    HW130929   2.775   3.957   0.404
10010SOL    HW230930   2.680   4.030   0.516
10011SOL     OW30931   1.948   3.458   0.254
10011SOL    HW130932   1.853   3.467   0.284
10011SOL    HW230933   1.972   3.534   0.194
10012SOL     OW30934   5.994   2.204   2.953
10012SOL    HW130935   5.904   2.242   2.975
10012SOL    HW230936   5.985   2.140   2.877
10013SOL     OW30937   0.495   5.659   5.014
10013SOL    HW130938   0.541   5.678   5.101
10013SOL    HW230939   0.563   5.644   4.943
10014SOL     OW30940   0.699   0.086   3.032
10014SOL    HW130941   0.698   0.164   3.095
10014SOL    HW230942   0.794   0.055   3.020
10015SOL     OW30943   4.310   4.561   5.794
10015SOL    HW130944   4.300   4.554   5.695
10015SOL    HW230945   4.406   4.577   5.817
10016SOL     OW30946   2.285   0.055   3.088
10016SOL    HW130947   2.200   0.101   3.062
10016SOL    HW230948   2.264   6.992   3.152
10017SOL     OW30949   2.569   2.184   2.746
10017SOL    HW130950   2.587   2.240   2.827
10017SOL    HW230951   2.507   2.110   2.771
10018SOL     OW30952   6.719   3.267   5.706
10018SOL    HW130953   6.751   3.356   5.673
10018SOL    HW230954   6.623   3.255   5.683
10019SOL     OW30955   0.415   2.276   2.632
10019SOL    HW130956   0.511   2.260   2.655
10019SOL    HW230957   0.405   2.366   2.590
10020SOL     OW30958   6.090   0.631   2.281
10020SOL    HW130959   6.094   0.704   2.212
10020SOL    HW230960   6.002   0.634   2.327
10021SOL     OW30961   1.191   3.731   2.359
10021SOL    HW130962   1.267   3.669   2.381
10021SOL    HW230963   1.104   3.683   2.371
10022SOL     OW30964   2.556   5.828   6.874
10022SOL    HW130965   2.490   5.887   6.827
10022SOL    HW230966   2.517   5.736   6.883
10023SOL     OW30967   1.709   6.918   5.999
10023SOL    HW130968   1.638   6.895   6.065
10023SOL    HW230969   1.667   6.957   5.917
10024SOL     OW30970   1.524   4.790   2.527
10024SOL    HW130971   1.490   4.703   2.491
10024SOL    HW230972   1.605   4.774   2.582
10025SOL     OW30973   1.129   4.150   1.991
10025SOL    HW130974   1.150   4.055   2.014
10025SOL    HW230975   1.191   4.211   2.041
10026SOL     OW30976   5.288   1.390   4.259
10026SOL    HW130977   5.360   1.375   4.327
10026SOL    HW230978   5.245   1.303   4.236
10027SOL     OW30979   2.462   1.630   5.367
10027SOL    HW130980   2.380   1.665   5.412
10027SOL    HW230981   2.522   1.706   5.342
10028SOL     OW30982   4.847   0.761   1.207
10028SOL    HW130983   4.803   0.677   1.239
10028SOL    HW230984   4.915   0.790   1.274
10029SOL     OW30985   0.187   3.535   5.101
10029SOL    HW130986   0.218   3.626   5.074
10029SOL    HW230987   0.136   3.541   5.187
10030SOL     OW30988   2.258   0.095   4.860
10030SOL    HW130989   2.317   0.015   4.848
10030SOL    HW230990   2.303   0.161   4.920
10031SOL     OW30991   2.916   4.850   4.018
10031SOL    HW130992   2.933   4.869   3.921
10031SOL    HW230993   3.003   4.826   4.063
10032SOL     OW30994   3.148   6.250   5.187
10032SOL    HW130995   3.194   6.209   5.108
10032SOL    HW230996   3.065   6.199   5.207
10033SOL     OW30997   3.669   1.248   3.246
10033SOL    HW130998   3.577   1.274   3.216
10033SOL    HW230999   3.703   1.315   3.312
10034SOL     OW31000   2.749   0.695   3.823
10034SOL    HW131001   2.763   0.757   3.901
10034SOL    HW231002   2.763   0.745   3.738
10035SOL     OW31003   5.748   2.692   2.389
10035SOL    HW131004   5.699   2.738   2.464
10035SOL    HW231005   5.816   2.754   2.350
10036SOL     OW31006   0.269   0.448   6.910
10036SOL    HW131007   0.315   0.433   6.998
10036SOL    HW231008   0.230   0.361   6.879
10037SOL     OW31009   6.299   0.330   0.257
10037SOL    HW131010   6.251   0.413   0.287
10037SOL    HW231011   6.354   0.294   0.332
10038SOL     OW31012   4.139   0.099   6.948
10038SOL    HW131013   4.148   0.144   0.025
10038SOL    HW231014   4.122   0.001   6.961
10039SOL     OW31015   6.019   5.415   3.268
10039SOL    HW131016   6.097   5.468   3.232
10039SOL    HW231017   6.030   5.319   3.243
10040SOL     OW31018   3.621   6.888   0.742
10040SOL    HW131019   3.532   6.919   0.708
10040SOL    HW231020   3.668   6.964   0.786
10041SOL     OW31021   6.670   5.217   4.688
10041SOL    HW131022   6.751   5.191   4.636
10041SOL    HW231023   6.630   5.300   4.650
10042SOL     OW31024   0.343   0.617   4.662
10042SOL    HW131025   0.298   0.567   4.736
10042SOL    HW231026   0.438   0.587   4.654
10043SOL     OW31027   0.720   0.811   3.306
10043SOL    HW131028   0.815   0.818   3.276
10043SOL    HW231029   0.709   0.859   3.393
10044SOL     OW31030   2.446   1.620   5.667
10044SOL    HW131031   2.390   1.593   5.589
10044SOL    HW231032   2.453   1.720   5.669
10045SOL     OW31033   3.980   6.601   4.791
10045SOL    HW131034   3.937   6.677   4.840
10045SOL    HW231035   3.946   6.515   4.828
10046SOL     OW31036   0.080   2.779   1.733
10046SOL    HW131037   0.065   2.681   1.751
10046SOL    HW231038   0.166   2.790   1.684
10047SOL     OW31039   6.687   1.845   5.063
10047SOL    HW131040   6.589   1.837   5.081
10047SOL    HW231041   6.717   1.938   5.086
10048SOL     OW31042   3.402   1.370   1.239
10048SOL    HW131043   3.330   1.393   1.304
10048SOL    HW231044   3.435   1.278   1.257
10049SOL     OW31045   2.093   0.223   5.529
10049SOL    HW131046   2.114   0.217   5.432
10049SOL    HW231047   2.163   0.175   5.582
10050SOL     OW31048   5.193   2.954   4.556
10050SOL    HW131049   5.281   2.943   4.510
10050SOL    HW231050   5.171   2.869   4.605
10051SOL     OW31051   5.907   3.013   4.726
10051SOL    HW131052   5.912   2.982   4.821
10051SOL    HW231053   5.998   3.041   4.695
10052SOL     OW31054   1.082   3.497   1.585
10052SOL    HW131055   1.072   3.594   1.605
10052SOL    HW231056   1.159   3.460   1.637
10053SOL     OW31057   3.575   5.472   3.237
10053SOL    HW131058   3.607   5.558   3.279
10053SOL    HW231059   3.644   5.401   3.251
10054SOL     OW31060   3.890   5.302   5.106
10054SOL    HW131061   3.977   5.295   5.154
10054SOL    HW231062   3.901   5.362   5.026
10055SOL     OW31063   6.133   2.564   5.131
10055SOL    HW131064   6.156   2.661   5.121
10055SOL    HW231065   6.216   2.511   5.142
10056SOL     OW31066   6.471   4.790   1.546
10056SOL    HW131067   6.410   4.752   1.476
10056SOL    HW231068   6.565   4.788   1.512
10057SOL     OW31069   3.852   2.148   4.488
10057SOL    HW131070   3.927   2.085   4.507
10057SOL    HW231071   3.785   2.144   4.562
10058SOL     OW31072   0.404   5.520   4.064
10058SOL    HW131073   0.458   5.465   4.127
10058SOL    HW231074   0.449   5.609   4.050
10059SOL     OW31075   5.451   0.783   1.072
10059SOL    HW131076   5.374   0.846   1.076
10059SOL    HW231077   5.524   0.815   1.134
10060SOL     OW31078   2.794   2.384   1.674
10060SOL    HW131079   2.820   2.408   1.580
10060SOL    HW231080   2.872   2.396   1.735
10061SOL     OW31081   6.260   1.574   4.075
10061SOL    HW131082   6.290   1.638   4.145
10061SOL    HW231083   6.272   1.480   4.108
10062SOL     OW31084   6.832   5.648   3.345
10062SOL    HW131085   6.881   5.720   3.394
10062SOL    HW231086   6.755   5.687   3.296
10063SOL     OW31087   1.119   3.392   3.817
10063SOL    HW131088   1.101   3.293   3.819
10063SOL    HW231089   1.148   3.422   3.908
10064SOL     OW31090   5.470   6.045   4.609
10064SOL    HW131091   5.487   6.119   4.674
10064SOL    HW231092   5.425   6.082   4.527
10065SOL     OW31093   1.298   6.402   2.676
10065SOL    HW131094   1.285   6.335   2.749
10065SOL    HW231095   1.211   6.420   2.631
10066SOL     OW31096   0.962   6.930   3.993
10066SOL    HW131097   0.929   6.949   3.901
10066SOL    HW231098   1.062   6.930   3.993
10067SOL     OW31099   4.399   4.595   4.237
10067SOL    HW131100   4.481   4.646   4.209
10067SOL    HW231101   4.427   4.508   4.278
10068SOL     OW31102   5.170   3.684   4.643
10068SOL    HW131103   5.077   3.683   4.680
10068SOL    HW231104   5.234   3.657   4.715
10069SOL     OW31105   3.095   1.632   3.456
10069SOL    HW131106   3.087   1.536   3.484
10069SOL    HW231107   3.185   1.647   3.415
10070SOL     OW31108   1.103   6.431   4.746
10070SOL    HW131109   1.132   6.478   4.663
10070SOL    HW231110   1.003   6.430   4.752
10071SOL     OW31111   4.738   5.580   4.022
10071SOL    HW131112   4.642   5.599   4.041
10071SOL    HW231113   4.755   5.482   4.028
10072SOL     OW31114   0.502   6.514   3.346
10072SOL    HW131115   0.527   6.575   3.271
10072SOL    HW231116   0.507   6.419   3.316
10073SOL     OW31117   6.810   5.009   5.607
10073SOL    HW131118   6.860   5.012   5.693
10073SOL    HW231119   6.869   5.039   5.532
10074SOL     OW31120   1.466   0.132   6.050
10074SOL    HW131121   1.457   0.042   6.008
10074SOL    HW231122   1.553   0.137   6.100
10075SOL     OW31123   1.404   2.531   3.896
10075SOL    HW131124   1.340   2.524   3.820
10075SOL    HW231125   1.495   2.551   3.861
10076SOL     OW31126   4.817   6.895   4.623
10076SOL    HW131127   4.774   6.812   4.588
10076SOL    HW231128   4.881   6.872   4.696
10077SOL     OW31129   3.936   1.924   6.125
10077SOL    HW131130   3.902   1.967   6.208
10077SOL    HW231131   3.910   1.980   6.046
10078SOL     OW31132   5.809   0.124   5.222
10078SOL    HW131133   5.877   0.136   5.294
10078SOL    HW231134   5.790   0.212   5.179
10079SOL     OW31135   1.139   3.168   1.546
10079SOL    HW131136   1.182   3.257   1.559
10079SOL    HW231137   1.203   3.107   1.498
10080SOL     OW31138   1.989   2.642   0.117
10080SOL    HW131139   2.010   2.544   0.120
10080SOL    HW231140   2.074   2.694   0.123
10081SOL     OW31141   0.642   0.507   6.473
10081SOL    HW131142   0.582   0.587   6.479
10081SOL    HW231143   0.736   0.536   6.452
10082SOL     OW31144   6.311   2.548   1.563
10082SOL    HW131145   6.266   2.502   1.639
10082SOL    HW231146   6.405   2.515   1.555
10083SOL     OW31147   4.254   0.366   3.631
10083SOL    HW131148   4.155   0.355   3.632
10083SOL    HW231149   4.297   0.288   3.675
10084SOL     OW31150   2.245   1.118   5.652
10084SOL    HW131151   2.210   1.091   5.562
10084SOL    HW231152   2.341   1.146   5.644
10085SOL     OW31153   0.466   5.822   2.882
10085SOL    HW131154   0.494   5.889   2.951
10085SOL    HW231155   0.375   5.844   2.848
10086SOL     OW31156   6.085   4.538   2.056
10086SOL    HW131157   5.992   4.551   2.022
10086SOL    HW231158   6.150   4.583   1.995
10087SOL     OW31159   1.155   0.208   4.053
10087SOL    HW131160   1.093   0.261   3.995
10087SOL    HW231161   1.162   0.114   4.018
10088SOL     OW31162   0.857   6.709   4.845
10088SOL    HW131163   0.792   6.754   4.784
10088SOL    HW231164   0.861   6.612   4.824
10089SOL     OW31165   2.134   2.196   1.999
10089SOL    HW131166   2.069   2.176   2.073
10089SOL    HW231167   2.225   2.209   2.037
10090SOL     OW31168   1.329   4.170   0.963
10090SOL    HW131169   1.313   4.263   0.930
10090SOL    HW231170   1.278   4.105   0.906
10091SOL     OW31171   0.964   3.510   4.235
10091SOL    HW131172   1.031   3.491   4.163
10091SOL    HW231173   1.011   3.521   4.323
10092SOL     OW31174   1.699   3.641   5.245
10092SOL    HW131175   1.706   3.599   5.155
10092SOL    HW231176   1.642   3.723   5.240
10093SOL     OW31177   6.468   5.224   5.565
10093SOL    HW131178   6.536   5.208   5.637
10093SOL    HW231179   6.510   5.275   5.490
10094SOL     OW31180   2.072   1.156   2.483
10094SOL    HW131181   2.023   1.086   2.430
10094SOL    HW231182   2.158   1.119   2.517
10095SOL     OW31183   6.988   1.057   6.114
10095SOL    HW131184   7.001   1.071   6.212
10095SOL    HW231185   6.899   1.093   6.087
10096SOL     OW31186   0.247   5.419   2.519
10096SOL    HW131187   0.243   5.329   2.475
10096SOL    HW231188   0.310   5.478   2.470
10097SOL     OW31189   1.681   1.037   1.241
10097SOL    HW131190   1.760   1.089   1.209
10097SOL    HW231191   1.711   0.969   1.309
10098SOL     OW31192   2.245   5.682   6.320
10098SOL    HW131193   2.201   5.743   6.254
10098SOL    HW231194   2.340   5.710   6.333
10099SOL     OW31195   6.891   4.112   5.094
10099SOL    HW131196   6.937   4.030   5.128
10099SOL    HW231197   6.839   4.089   5.012
10100SOL     OW31198   4.740   0.606   4.783
10100SOL    HW131199   4.717   0.671   4.855
10100SOL    HW231200   4.729   0.513   4.817
10101SOL     OW31201   6.864   4.512   2.645
10101SOL    HW131202   6.767   4.491   2.637
10101SOL    HW231203   6.909   4.443   2.702
10102SOL     OW31204   3.172   1.675   2.202
10102SOL    HW131205   3.200   1.771   2.213
10102SOL    HW231206   3.088   1.671   2.148
10103SOL     OW31207   2.533   1.349   5.406
10103SOL    HW131208   2.515   1.445   5.385
10103SOL    HW231209   2.632   1.333   5.409
10104SOL     OW31210   1.086   5.232   5.035
10104SOL    HW131211   1.081   5.331   5.031
10104SOL    HW231212   0.999   5.195   5.067
10105SOL     OW31213   1.716   0.874   6.388
10105SOL    HW131214   1.804   0.915   6.414
10105SOL    HW231215   1.687   0.912   6.300
10106SOL     OW31216   5.331   5.962   0.992
10106SOL    HW131217   5.277   6.040   1.024
10106SOL    HW231218   5.390   5.930   1.067
10107SOL     OW31219   5.972   1.191   6.142
10107SOL    HW131220   5.921   1.136   6.076
10107SOL    HW231221   5.992   1.137   6.224
10108SOL     OW31222   6.594   6.994   0.429
10108SOL    HW131223   6.635   6.947   0.351
10108SOL    HW231224   6.607   6.940   0.511
10109SOL     OW31225   4.844   5.364   3.611
10109SOL    HW131226   4.817   5.437   3.674
10109SOL    HW231227   4.762   5.326   3.568
10110SOL     OW31228   3.583   0.094   5.981
10110SOL    HW131229   3.664   0.150   5.966
10110SOL    HW231230   3.532   0.129   6.060
10111SOL     OW31231   6.491   3.317   3.342
10111SOL    HW131232   6.566   3.266   3.300
10111SOL    HW231233   6.407   3.301   3.291
10112SOL     OW31234   5.321   3.941   5.569
10112SOL    HW131235   5.323   3.937   5.669
10112SOL    HW231236   5.311   4.036   5.539
10113SOL     OW31237   4.101   0.335   0.100
10113SOL    HW131238   4.097   0.412   0.036
10113SOL    HW231239   4.043   0.355   0.179
10114SOL     OW31240   4.927   1.422   0.166
10114SOL    HW131241   4.997   1.362   0.128
10114SOL    HW231242   4.885   1.475   0.092
10115SOL     OW31243   1.910   2.084   3.964
10115SOL    HW131244   1.943   2.083   3.869
10115SOL    HW231245   1.988   2.076   4.026
10116SOL     OW31246   0.138   0.561   1.115
10116SOL    HW131247   0.191   0.480   1.092
10116SOL    HW231248   0.199   0.640   1.120
10117SOL     OW31249   6.213   0.461   5.559
10117SOL    HW131250   6.205   0.369   5.521
10117SOL    HW231251   6.138   0.518   5.525
10118SOL     OW31252   6.472   4.814   2.785
10118SOL    HW131253   6.570   4.823   2.803
10118SOL    HW231254   6.422   4.816   2.872
10119SOL     OW31255   2.743   0.769   5.249
10119SOL    HW131256   2.784   0.716   5.174
10119SOL    HW231257   2.731   0.709   5.329
10120SOL     OW31258   0.824   3.192   3.727
10120SOL    HW131259   0.918   3.202   3.762
10120SOL    HW231260   0.796   3.096   3.732
10121SOL     OW31261   5.709   4.772   5.366
10121SOL    HW131262   5.618   4.770   5.323
10121SOL    HW231263   5.747   4.865   5.359
10122SOL     OW31264   4.998   3.009   0.001
10122SOL    HW131265   5.089   2.970   6.999
10122SOL    HW231266   4.983   3.082   6.946
10123SOL     OW31267   0.242   6.028   0.906
10123SOL    HW131268   0.180   6.105   0.891
10123SOL    HW231269   0.189   5.945   0.923
10124SOL     OW31270   3.190   3.910   0.284
10124SOL    HW131271   3.242   3.985   0.324
10124SOL    HW231272   3.216   3.899   0.188
10125SOL     OW31273   1.458   0.828   2.896
10125SOL    HW131274   1.358   0.829   2.905
10125SOL    HW231275   1.487   0.896   2.829
10126SOL     OW31276   6.594   5.095   0.311
10126SOL    HW131277   6.546   5.060   0.231
10126SOL    HW231278   6.618   5.191   0.296
10127SOL     OW31279   3.303   5.278   5.571
10127SOL    HW131280   3.348   5.213   5.632
10127SOL    HW231281   3.372   5.321   5.512
10128SOL     OW31282   6.818   1.874   0.627
10128SOL    HW131283   6.811   1.848   0.723
10128SOL    HW231284   6.765   1.810   0.571
10129SOL     OW31285   5.258   2.395   3.558
10129SOL    HW131286   5.356   2.397   3.580
10129SOL    HW231287   5.243   2.438   3.469
10130SOL     OW31288   0.103   5.877   2.750
10130SOL    HW131289   0.162   5.941   2.701
10130SOL    HW231290   0.093   5.794   2.696
10131SOL     OW31291   0.656   1.715   2.464
10131SOL    HW131292   0.694   1.631   2.426
10131SOL    HW231293   0.720   1.754   2.530
10132SOL     OW31294   3.364   6.489   2.958
10132SOL    HW131295   3.273   6.525   2.979
10132SOL    HW231296   3.380   6.493   2.860
10133SOL     OW31297   4.493   5.773   3.703
10133SOL    HW131298   4.455   5.800   3.791
10133SOL    HW231299   4.443   5.694   3.668
10134SOL     OW31300   6.839   1.052   3.664
10134SOL    HW131301   6.789   0.966   3.672
10134SOL    HW231302   6.840   1.082   3.569
10135SOL     OW31303   4.041   5.101   2.867
10135SOL    HW131304   3.982   5.020   2.873
10135SOL    HW231305   4.021   5.150   2.782
10136SOL     OW31306   6.101   0.300   3.545
10136SOL    HW131307   6.037   0.224   3.561
10136SOL    HW231308   6.151   0.320   3.629
10137SOL     OW31309   6.458   5.770   4.566
10137SOL    HW131310   6.444   5.853   4.619
10137SOL    HW231311   6.463   5.691   4.627
10138SOL     OW31312   5.953   2.210   0.182
10138SOL    HW131313   5.980   2.250   0.095
10138SOL    HW231314   5.978   2.272   0.257
10139SOL     OW31315   3.041   3.097   3.264
10139SOL    HW131316   3.025   3.082   3.167
10139SOL    HW231317   3.139   3.103   3.282
10140SOL     OW31318   6.219   5.385   0.115
10140SOL    HW131319   6.258   5.293   0.116
10140SOL    HW231320   6.283   5.449   0.158
10141SOL     OW31321   2.354   1.665   5.064
10141SOL    HW131322   2.280   1.635   5.124
10141SOL    HW231323   2.357   1.765   5.063
10142SOL     OW31324   4.183   6.196   4.987
10142SOL    HW131325   4.193   6.291   4.958
10142SOL    HW231326   4.245   6.178   5.064
10143SOL     OW31327   4.964   0.223   1.330
10143SOL    HW131328   4.998   0.155   1.395
10143SOL    HW231329   4.917   0.176   1.254
10144SOL     OW31330   3.102   5.437   5.508
10144SOL    HW131331   3.135   5.529   5.488
10144SOL    HW231332   3.180   5.377   5.527
10145SOL     OW31333   2.689   5.992   5.895
10145SOL    HW131334   2.789   5.999   5.901
10145SOL    HW231335   2.664   5.900   5.865
10146SOL     OW31336   3.809   5.516   4.285
10146SOL    HW131337   3.782   5.606   4.253
10146SOL    HW231338   3.754   5.491   4.364
10147SOL     OW31339   4.634   4.331   4.142
10147SOL    HW131340   4.657   4.384   4.224
10147SOL    HW231341   4.672   4.239   4.150
10148SOL     OW31342   6.078   5.828   0.901
10148SOL    HW131343   6.001   5.767   0.921
10148SOL    HW231344   6.044   5.920   0.883
10149SOL     OW31345   4.791   1.460   1.023
10149SOL    HW131346   4.750   1.450   0.932
10149SOL    HW231347   4.731   1.420   1.092
10150SOL     OW31348   4.651   4.434   0.866
10150SOL    HW131349   4.631   4.351   0.814
10150SOL    HW231350   4.566   4.483   0.886
10151SOL     OW31351   1.122   0.159   6.398
10151SOL    HW131352   1.066   0.077   6.387
10151SOL    HW231353   1.062   0.239   6.408
10152SOL     OW31354   1.554   5.171   3.581
10152SOL    HW131355   1.637   5.126   3.547
10152SOL    HW231356   1.483   5.102   3.596
10153SOL     OW31357   4.707   5.950   3.699
10153SOL    HW131358   4.699   6.006   3.781
10153SOL    HW231359   4.629   5.889   3.692
10154SOL     OW31360   6.753   6.308   5.843
10154SOL    HW131361   6.653   6.307   5.841
10154SOL    HW231362   6.789   6.276   5.756
10155SOL     OW31363   3.854   0.491   5.950
10155SOL    HW131364   3.913   0.497   6.031
10155SOL    HW231365   3.759   0.476   5.978
10156SOL     OW31366   5.263   0.038   2.873
10156SOL    HW131367   5.223   7.005   2.953
10156SOL    HW231368   5.212   0.011   2.791
10157SOL     OW31369   5.894   1.440   6.114
10157SOL    HW131370   5.965   1.502   6.147
10157SOL    HW231371   5.923   1.345   6.129
10158SOL     OW31372   4.750   3.465   0.216
10158SOL    HW131373   4.745   3.555   0.171
10158SOL    HW231374   4.841   3.426   0.203
10159SOL     OW31375   2.699   2.988   6.111
10159SOL    HW131376   2.783   2.934   6.114
10159SOL    HW231377   2.717   3.081   6.141
10160SOL     OW31378   0.770   4.588   3.268
10160SOL    HW131379   0.757   4.672   3.216
10160SOL    HW231380   0.726   4.512   3.219
10161SOL     OW31381   3.141   4.894   6.833
10161SOL    HW131382   3.098   4.969   6.783
10161SOL    HW231383   3.103   4.807   6.801
10162SOL     OW31384   2.565   3.141   6.803
10162SOL    HW131385   2.507   3.072   6.761
10162SOL    HW231386   2.600   3.108   6.890
10163SOL     OW31387   5.851   3.765   6.151
10163SOL    HW131388   5.921   3.760   6.221
10163SOL    HW231389   5.797   3.849   6.162
10164SOL     OW31390   6.510   2.950   4.725
10164SOL    HW131391   6.586   2.906   4.678
10164SOL    HW231392   6.502   2.913   4.817
10165SOL     OW31393   0.762   2.307   4.665
10165SOL    HW131394   0.682   2.265   4.708
10165SOL    HW231395   0.740   2.401   4.638
10166SOL     OW31396   3.193   1.414   1.442
10166SOL    HW131397   3.252   1.381   1.515
10166SOL    HW231398   3.120   1.471   1.480
10167SOL     OW31399   5.431   1.344   6.388
10167SOL    HW131400   5.406   1.332   6.484
10167SOL    HW231401   5.529   1.360   6.380
10168SOL     OW31402   0.010   4.499   4.487
10168SOL    HW131403   0.094   4.445   4.480
10168SOL    HW231404   0.031   4.589   4.525
10169SOL     OW31405   6.136   5.045   3.315
10169SOL    HW131406   6.103   5.072   3.405
10169SOL    HW231407   6.213   5.104   3.289
10170SOL     OW31408   0.602   4.422   5.137
10170SOL    HW131409   0.684   4.401   5.083
10170SOL    HW231410   0.629   4.474   5.218
10171SOL     OW31411   6.909   3.939   6.040
10171SOL    HW131412   7.004   3.966   6.030
10171SOL    HW231413   6.904   3.845   6.074
10172SOL     OW31414   5.425   0.602   2.808
10172SOL    HW131415   5.378   0.591   2.896
10172SOL    HW231416   5.386   0.679   2.758
10173SOL     OW31417   2.280   1.514   0.762
10173SOL    HW131418   2.183   1.519   0.787
10173SOL    HW231419   2.293   1.551   0.670
10174SOL     OW31420   5.666   4.746   2.886
10174SOL    HW131421   5.618   4.724   2.971
10174SOL    HW231422   5.714   4.665   2.853
10175SOL     OW31423   6.314   2.570   4.125
10175SOL    HW131424   6.361   2.603   4.208
10175SOL    HW231425   6.288   2.648   4.069
10176SOL     OW31426   1.560   3.169   6.163
10176SOL    HW131427   1.622   3.163   6.085
10176SOL    HW231428   1.475   3.122   6.142
10177SOL     OW31429   3.191   0.223   0.335
10177SOL    HW131430   3.099   0.254   0.312
10177SOL    HW231431   3.247   0.302   0.360
10178SOL     OW31432   6.160   2.941   4.423
10178SOL    HW131433   6.110   2.936   4.337
10178SOL    HW231434   6.137   2.862   4.480
10179SOL     OW31435   0.856   2.215   6.530
10179SOL    HW131436   0.803   2.189   6.449
10179SOL    HW231437   0.795   2.257   6.597
10180SOL     OW31438   3.010   5.578   5.936
10180SOL    HW131439   3.078   5.505   5.948
10180SOL    HW231440   2.957   5.588   6.020
10181SOL     OW31441   5.501   3.560   1.763
10181SOL    HW131442   5.543   3.619   1.694
10181SOL    HW231443   5.455   3.483   1.717
10182SOL     OW31444   5.920   1.262   1.364
10182SOL    HW131445   5.909   1.182   1.305
10182SOL    HW231446   5.949   1.233   1.455
10183SOL     OW31447   1.171   2.073   6.611
10183SOL    HW131448   1.173   2.171   6.595
10183SOL    HW231449   1.132   2.054   6.701
10184SOL     OW31450   4.587   1.995   6.115
10184SOL    HW131451   4.616   1.908   6.156
10184SOL    HW231452   4.662   2.061   6.122
10185SOL     OW31453   4.853   6.751   0.954
10185SOL    HW131454   4.944   6.777   0.922
10185SOL    HW231455   4.854   6.742   1.054
10186SOL     OW31456   5.492   2.973   3.148
10186SOL    HW131457   5.487   3.051   3.210
10186SOL    HW231458   5.493   3.005   3.053
10187SOL     OW31459   0.489   2.077   1.915
10187SOL    HW131460   0.535   2.117   1.836
10187SOL    HW231461   0.411   2.023   1.884
10188SOL     OW31462   3.889   6.322   0.382
10188SOL    HW131463   3.983   6.354   0.386
10188SOL    HW231464   3.888   6.222   0.371
10189SOL     OW31465   2.345   6.579   5.301
10189SOL    HW131466   2.425   6.624   5.339
10189SOL    HW231467   2.303   6.637   5.231
10190SOL     OW31468   5.143   2.197   0.866
10190SOL    HW131469   5.050   2.232   0.873
10190SOL    HW231470   5.163   2.137   0.944
10191SOL     OW31471   5.244   4.436   6.884
10191SOL    HW131472   5.168   4.501   6.874
10191SOL    HW231473   5.208   4.348   6.914
10192SOL     OW31474   3.904   0.605   4.908
10192SOL    HW131475   3.997   0.609   4.872
10192SOL    HW231476   3.843   0.566   4.839
10193SOL     OW31477   4.397   4.254   1.374
10193SOL    HW131478   4.305   4.267   1.336
10193SOL    HW231479   4.464   4.289   1.308
10194SOL     OW31480   5.868   4.275   4.829
10194SOL    HW131481   5.907   4.220   4.756
10194SOL    HW231482   5.773   4.297   4.807
10195SOL     OW31483   5.924   4.386   1.429
10195SOL    HW131484   5.895   4.481   1.419
10195SOL    HW231485   5.970   4.356   1.345
10196SOL     OW31486   6.361   1.530   4.910
10196SOL    HW131487   6.336   1.436   4.885
10196SOL    HW231488   6.278   1.583   4.928
10197SOL     OW31489   6.706   0.917   4.987
10197SOL    HW131490   6.767   0.947   4.913
10197SOL    HW231491   6.611   0.928   4.957
10198SOL     OW31492   3.864   0.826   2.398
10198SOL    HW131493   3.856   0.852   2.302
10198SOL    HW231494   3.957   0.793   2.416
10199SOL     OW31495   0.760   2.850   5.308
10199SOL    HW131496   0.773   2.804   5.396
10199SOL    HW231497   0.691   2.922   5.318
10200SOL     OW31498   5.339   2.660   1.068
10200SOL    HW131499   5.331   2.667   1.168
10200SOL    HW231500   5.264   2.604   1.033
10201SOL     OW31501   1.574   4.440   1.272
10201SOL    HW131502   1.497   4.451   1.210
10201SOL    HW231503   1.577   4.346   1.307
10202SOL     OW31504   3.928   1.638   5.481
10202SOL    HW131505   4.003   1.649   5.546
10202SOL    HW231506   3.901   1.728   5.446
10203SOL     OW31507   5.435   2.334   4.909
10203SOL    HW131508   5.416   2.270   4.984
10203SOL    HW231509   5.418   2.428   4.940
10204SOL     OW31510   5.158   6.777   6.434
10204SOL    HW131511   5.176   6.851   6.369
10204SOL    HW231512   5.085   6.805   6.497
10205SOL     OW31513   0.778   1.081   6.986
10205SOL    HW131514   0.684   1.079   6.953
10205SOL    HW231515   0.827   1.000   6.954
10206SOL     OW31516   1.156   0.851   5.798
10206SOL    HW131517   1.187   0.816   5.710
10206SOL    HW231518   1.152   0.777   5.865
10207SOL     OW31519   1.660   2.138   5.599
10207SOL    HW131520   1.603   2.194   5.539
10207SOL    HW231521   1.707   2.196   5.664
10208SOL     OW31522   5.262   5.223   5.117
10208SOL    HW131523   5.251   5.128   5.091
10208SOL    HW231524   5.179   5.274   5.093
10209SOL     OW31525   6.905   0.136   5.716
10209SOL    HW131526   6.908   0.180   5.806
10209SOL    HW231527   6.848   0.053   5.722
10210SOL     OW31528   4.273   6.043   1.700
10210SOL    HW131529   4.284   5.961   1.758
10210SOL    HW231530   4.235   6.117   1.755
10211SOL     OW31531   4.053   6.583   5.588
10211SOL    HW131532   4.103   6.596   5.502
10211SOL    HW231533   3.968   6.636   5.584
10212SOL     OW31534   0.869   0.177   5.871
10212SOL    HW131535   0.820   0.091   5.857
10212SOL    HW231536   0.887   0.189   5.969
10213SOL     OW31537   5.529   2.103   0.200
10213SOL    HW131538   5.451   2.110   0.262
10213SOL    HW231539   5.545   2.192   0.157
10214SOL     OW31540   1.300   2.958   1.454
10214SOL    HW131541   1.286   2.872   1.503
10214SOL    HW231542   1.353   2.941   1.371
10215SOL     OW31543   3.820   3.493   2.783
10215SOL    HW131544   3.738   3.437   2.769
10215SOL    HW231545   3.900   3.433   2.789
10216SOL     OW31546   5.917   0.314   2.191
10216SOL    HW131547   5.872   0.254   2.257
10216SOL    HW231548   6.012   0.330   2.220
10217SOL     OW31549   2.824   1.259   3.434
10217SOL    HW131550   2.743   1.212   3.469
10217SOL    HW231551   2.816   1.357   3.453
10218SOL     OW31552   0.957   2.927   2.660
10218SOL    HW131553   0.866   2.952   2.694
10218SOL    HW231554   1.023   2.930   2.735
10219SOL     OW31555   0.712   1.347   2.268
10219SOL    HW131556   0.668   1.258   2.271
10219SOL    HW231557   0.658   1.409   2.211
10220SOL     OW31558   3.755   2.535   1.696
10220SOL    HW131559   3.822   2.490   1.638
10220SOL    HW231560   3.736   2.477   1.776
10221SOL     OW31561   1.045   6.540   2.606
10221SOL    HW131562   1.048   6.623   2.551
10221SOL    HW231563   0.954   6.498   2.599
10222SOL     OW31564   3.160   3.838   4.589
10222SOL    HW131565   3.130   3.895   4.512
10222SOL    HW231566   3.124   3.746   4.578
10223SOL     OW31567   0.816   5.393   0.929
10223SOL    HW131568   0.857   5.403   1.019
10223SOL    HW231569   0.727   5.439   0.927
10224SOL     OW31570   5.820   4.176   3.276
10224SOL    HW131571   5.793   4.118   3.353
10224SOL    HW231572   5.876   4.252   3.309
10225SOL     OW31573   2.017   3.453   5.892
10225SOL    HW131574   2.097   3.504   5.861
10225SOL    HW231575   2.040   3.399   5.972
10226SOL     OW31576   4.452   2.578   0.330
10226SOL    HW131577   4.524   2.629   0.377
10226SOL    HW231578   4.485   2.485   0.310
10227SOL     OW31579   6.010   4.165   0.759
10227SOL    HW131580   6.100   4.203   0.738
10227SOL    HW231581   5.976   4.205   0.844
10228SOL     OW31582   5.166   1.208   0.881
10228SOL    HW131583   5.132   1.185   0.972
10228SOL    HW231584   5.262   1.181   0.873
10229SOL     OW31585   0.757   3.501   4.732
10229SOL    HW131586   0.733   3.567   4.660
10229SOL    HW231587   0.840   3.531   4.779
10230SOL     OW31588   6.758   5.816   2.443
10230SOL    HW131589   6.770   5.811   2.542
10230SOL    HW231590   6.714   5.732   2.410
10231SOL     OW31591   1.531   6.287   3.144
10231SOL    HW131592   1.523   6.386   3.158
10231SOL    HW231593   1.587   6.269   3.063
10232SOL     OW31594   4.811   6.539   3.006
10232SOL    HW131595   4.848   6.511   2.918
10232SOL    HW231596   4.832   6.636   3.022
10233SOL     OW31597   4.245   4.151   6.466
10233SOL    HW131598   4.214   4.129   6.374
10233SOL    HW231599   4.334   4.196   6.461
10234SOL     OW31600   6.785   0.863   1.378
10234SOL    HW131601   6.790   0.780   1.322
10234SOL    HW231602   6.704   0.859   1.436
10235SOL     OW31603   1.093   1.206   3.347
10235SOL    HW131604   1.020   1.189   3.282
10235SOL    HW231605   1.144   1.121   3.363
10236SOL     OW31606   2.153   7.001   1.145
10236SOL    HW131607   2.229   6.970   1.087
10236SOL    HW231608   2.113   6.922   1.191
10237SOL     OW31609   0.424   3.700   6.741
10237SOL    HW131610   0.502   3.726   6.684
10237SOL    HW231611   0.457   3.652   6.822
10238SOL     OW31612   3.889   5.574   0.832
10238SOL    HW131613   3.920   5.555   0.925
10238SOL    HW231614   3.963   5.616   0.779
10239SOL     OW31615   1.666   2.247   4.586
10239SOL    HW131616   1.594   2.303   4.626
10239SOL    HW231617   1.732   2.306   4.540
10240SOL     OW31618   2.836   6.726   0.895
10240SOL    HW131619   2.766   6.757   0.959
10240SOL    HW231620   2.915   6.693   0.946
10241SOL     OW31621   4.267   2.473   1.494
10241SOL    HW131622   4.202   2.520   1.434
10241SOL    HW231623   4.263   2.511   1.586
10242SOL     OW31624   6.890   2.486   0.389
10242SOL    HW131625   6.956   2.474   0.463
10242SOL    HW231626   6.797   2.478   0.426
10243SOL     OW31627   2.812   5.024   1.143
10243SOL    HW131628   2.853   4.933   1.156
10243SOL    HW231629   2.773   5.056   1.229
10244SOL     OW31630   2.534   4.038   1.658
10244SOL    HW131631   2.620   3.988   1.668
10244SOL    HW231632   2.463   3.993   1.713
10245SOL     OW31633   3.800   4.426   0.551
10245SOL    HW131634   3.743   4.386   0.478
10245SOL    HW231635   3.810   4.524   0.536
10246SOL     OW31636   3.461   3.135   4.490
10246SOL    HW131637   3.423   3.042   4.495
10246SOL    HW231638   3.460   3.176   4.581
10247SOL     OW31639   1.168   3.749   4.631
10247SOL    HW131640   1.103   3.786   4.697
10247SOL    HW231641   1.221   3.824   4.590
10248SOL     OW31642   1.182   0.265   3.293
10248SOL    HW131643   1.229   0.323   3.359
10248SOL    HW231644   1.100   0.227   3.336
10249SOL     OW31645   2.232   4.566   6.616
10249SOL    HW131646   2.156   4.503   6.599
10249SOL    HW231647   2.318   4.523   6.589
10250SOL     OW31648   5.067   2.450   6.853
10250SOL    HW131649   4.994   2.516   6.867
10250SOL    HW231650   5.030   2.366   6.816
10251SOL     OW31651   1.720   0.379   4.288
10251SOL    HW131652   1.783   0.455   4.303
10251SOL    HW231653   1.733   0.342   4.196
10252SOL     OW31654   5.119   4.177   5.859
10252SOL    HW131655   5.187   4.122   5.907
10252SOL    HW231656   5.158   4.212   5.774
10253SOL     OW31657   4.283   6.526   6.888
10253SOL    HW131658   4.287   6.540   6.789
10253SOL    HW231659   4.241   6.606   6.931
10254SOL     OW31660   5.888   1.924   4.504
10254SOL    HW131661   5.970   1.867   4.500
10254SOL    HW231662   5.875   1.970   4.416
10255SOL     OW31663   3.542   5.437   1.530
10255SOL    HW131664   3.616   5.502   1.511
10255SOL    HW231665   3.577   5.365   1.590
10256SOL     OW31666   4.900   0.912   2.759
10256SOL    HW131667   4.847   0.894   2.677
10256SOL    HW231668   4.872   0.849   2.832
10257SOL     OW31669   3.133   5.178   2.631
10257SOL    HW131670   3.179   5.094   2.602
10257SOL    HW231671   3.038   5.178   2.597
10258SOL     OW31672   1.706   1.480   2.117
10258SOL    HW131673   1.691   1.579   2.129
10258SOL    HW231674   1.661   1.449   2.033
10259SOL     OW31675   0.949   3.825   3.977
10259SOL    HW131676   1.049   3.837   3.978
10259SOL    HW231677   0.927   3.729   3.961
10260SOL     OW31678   1.625   1.250   3.955
10260SOL    HW131679   1.589   1.265   4.048
10260SOL    HW231680   1.549   1.252   3.890
10261SOL     OW31681   6.450   3.725   0.815
10261SOL    HW131682   6.363   3.769   0.836
10261SOL    HW231683   6.433   3.638   0.768
10262SOL     OW31684   3.561   1.049   6.759
10262SOL    HW131685   3.597   1.131   6.804
10262SOL    HW231686   3.626   1.016   6.691
10263SOL     OW31687   5.803   0.875   2.075
10263SOL    HW131688   5.763   0.922   2.154
10263SOL    HW231689   5.825   0.781   2.100
10264SOL     OW31690   6.149   5.299   6.544
10264SOL    HW131691   6.152   5.200   6.528
10264SOL    HW231692   6.239   5.338   6.527
10265SOL     OW31693   2.106   1.683   0.271
10265SOL    HW131694   2.107   1.655   0.175
10265SOL    HW231695   2.129   1.780   0.278
10266SOL     OW31696   3.060   4.062   2.033
10266SOL    HW131697   3.042   4.020   2.122
10266SOL    HW231698   3.159   4.064   2.017
10267SOL     OW31699   5.688   1.048   0.877
10267SOL    HW131700   5.769   1.080   0.926
10267SOL    HW231701   5.613   1.113   0.890
10268SOL     OW31702   4.904   0.103   1.084
10268SOL    HW131703   4.983   0.042   1.091
10268SOL    HW231704   4.913   0.159   1.001
10269SOL     OW31705   1.848   2.330   6.317
10269SOL    HW131706   1.924   2.271   6.290
10269SOL    HW231707   1.862   2.363   6.410
10270SOL     OW31708   3.126   5.951   1.631
10270SOL    HW131709   3.211   5.904   1.656
10270SOL    HW231710   3.048   5.892   1.653
10271SOL     OW31711   1.675   2.073   0.115
10271SOL    HW131712   1.616   2.026   0.050
10271SOL    HW231713   1.624   2.094   0.198
10272SOL     OW31714   6.831   0.785   4.437
10272SOL    HW131715   6.814   0.811   4.532
10272SOL    HW231716   6.767   0.834   4.377
10273SOL     OW31717   2.352   5.255   3.876
10273SOL    HW131718   2.443   5.290   3.854
10273SOL    HW231719   2.361   5.180   3.941
10274SOL     OW31720   0.496   5.331   4.952
10274SOL    HW131721   0.421   5.337   4.887
10274SOL    HW231722   0.460   5.311   5.043
10275SOL     OW31723   0.136   0.316   2.833
10275SOL    HW131724   0.136   0.272   2.744
10275SOL    HW231725   0.106   0.250   2.903
10276SOL     OW31726   4.224   5.950   6.196
10276SOL    HW131727   4.252   5.940   6.100
10276SOL    HW231728   4.130   5.984   6.199
10277SOL     OW31729   1.141   6.277   4.438
10277SOL    HW131730   1.148   6.247   4.343
10277SOL    HW231731   1.171   6.203   4.499
10278SOL     OW31732   0.410   0.474   5.412
10278SOL    HW131733   0.509   0.468   5.428
10278SOL    HW231734   0.362   0.417   5.479
10279SOL     OW31735   2.012   5.372   4.179
10279SOL    HW131736   1.953   5.424   4.240
10279SOL    HW231737   1.967   5.360   4.091
10280SOL     OW31738   5.430   4.463   0.372
10280SOL    HW131739   5.479   4.457   0.285
10280SOL    HW231740   5.420   4.371   0.411
10281SOL     OW31741   6.531   2.059   3.734
10281SOL    HW131742   6.486   1.991   3.677
10281SOL    HW231743   6.587   2.119   3.678
10282SOL     OW31744   4.798   3.937   3.287
10282SOL    HW131745   4.743   4.020   3.294
10282SOL    HW231746   4.882   3.956   3.237
10283SOL     OW31747   0.319   4.115   0.987
10283SOL    HW131748   0.336   4.069   1.074
10283SOL    HW231749   0.277   4.204   1.003
10284SOL     OW31750   0.329   2.575   3.618
10284SOL    HW131751   0.235   2.597   3.589
10284SOL    HW231752   0.358   2.639   3.689
10285SOL     OW31753   4.619   6.087   3.929
10285SOL    HW131754   4.523   6.060   3.928
10285SOL    HW231755   4.632   6.160   3.996
10286SOL     OW31756   3.064   1.406   4.656
10286SOL    HW131757   3.013   1.320   4.661
10286SOL    HW231758   3.003   1.482   4.679
10287SOL     OW31759   1.991   5.925   2.354
10287SOL    HW131760   2.071   5.983   2.371
10287SOL    HW231761   2.012   5.831   2.380
10288SOL     OW31762   3.776   0.132   5.191
10288SOL    HW131763   3.745   0.219   5.231
10288SOL    HW231764   3.858   0.148   5.136
10289SOL     OW31765   2.385   6.464   0.179
10289SOL    HW131766   2.414   6.408   0.257
10289SOL    HW231767   2.410   6.417   0.094
10290SOL     OW31768   3.107   3.066   2.334
10290SOL    HW131769   3.170   3.137   2.304
10290SOL    HW231770   3.013   3.095   2.317
10291SOL     OW31771   3.005   1.343   2.517
10291SOL    HW131772   3.095   1.305   2.496
10291SOL    HW231773   2.987   1.421   2.457
10292SOL     OW31774   6.573   0.130   6.306
10292SOL    HW131775   6.547   0.180   6.388
10292SOL    HW231776   6.653   0.174   6.265
10293SOL     OW31777   0.784   3.962   3.763
10293SOL    HW131778   0.808   3.901   3.839
10293SOL    HW231779   0.867   4.004   3.727
10294SOL     OW31780   3.476   1.712   2.655
10294SOL    HW131781   3.404   1.736   2.720
10294SOL    HW231782   3.453   1.746   2.564
10295SOL     OW31783   0.935   2.207   0.242
10295SOL    HW131784   1.017   2.251   0.206
10295SOL    HW231785   0.856   2.232   0.185
10296SOL     OW31786   5.806   1.110   5.904
10296SOL    HW131787   5.736   1.046   5.934
10296SOL    HW231788   5.764   1.183   5.850
10297SOL     OW31789   2.967   1.652   6.486
10297SOL    HW131790   2.989   1.730   6.545
10297SOL    HW231791   3.049   1.598   6.470
10298SOL     OW31792   0.408   3.169   2.343
10298SOL    HW131793   0.412   3.176   2.243
10298SOL    HW231794   0.375   3.078   2.369
10299SOL     OW31795   4.505   6.401   2.039
10299SOL    HW131796   4.526   6.329   1.974
10299SOL    HW231797   4.491   6.487   1.991
10300SOL     OW31798   0.744   3.582   1.864
10300SOL    HW131799   0.728   3.672   1.906
10300SOL    HW231800   0.709   3.583   1.770
10301SOL     OW31801   4.510   0.927   6.307
10301SOL    HW131802   4.567   0.848   6.284
10301SOL    HW231803   4.545   0.971   6.390
10302SOL     OW31804   2.504   6.034   4.313
10302SOL    HW131805   2.416   6.055   4.270
10302SOL    HW231806   2.524   6.102   4.384
10303SOL     OW31807   1.038   6.010   4.778
10303SOL    HW131808   0.965   5.953   4.818
10303SOL    HW231809   1.060   6.084   4.841
10304SOL     OW31810   6.157   0.025   0.313
10304SOL    HW131811   6.247   7.008   0.279
10304SOL    HW231812   6.112   0.081   0.243
10305SOL     OW31813   2.559   3.879   6.056
10305SOL    HW131814   2.621   3.948   6.018
10305SOL    HW231815   2.565   3.880   6.156
10306SOL     OW31816   5.778   0.355   1.077
10306SOL    HW131817   5.704   0.417   1.050
10306SOL    HW231818   5.784   0.352   1.177
10307SOL     OW31819   3.165   0.546   4.602
10307SOL    HW131820   3.092   0.605   4.569
10307SOL    HW231821   3.157   0.455   4.559
10308SOL     OW31822   2.498   4.470   2.632
10308SOL    HW131823   2.556   4.492   2.553
10308SOL    HW231824   2.526   4.527   2.709
10309SOL     OW31825   6.460   1.138   5.724
10309SOL    HW131826   6.403   1.110   5.802
10309SOL    HW231827   6.536   1.074   5.714
10310SOL     OW31828   2.506   2.679   6.404
10310SOL    HW131829   2.434   2.664   6.473
10310SOL    HW231830   2.539   2.773   6.411
10311SOL     OW31831   5.445   6.232   6.823
10311SOL    HW131832   5.512   6.160   6.837
10311SOL    HW231833   5.446   6.260   6.727
10312SOL     OW31834   4.616   0.335   2.280
10312SOL    HW131835   4.709   0.341   2.317
10312SOL    HW231836   4.567   0.261   2.326
10313SOL     OW31837   4.522   6.536   2.890
10313SOL    HW131838   4.545   6.573   2.980
10313SOL    HW231839   4.602   6.543   2.830
10314SOL     OW31840   0.667   6.846   0.016
10314SOL    HW131841   0.671   6.839   0.116
10314SOL    HW231842   0.759   6.836   6.990
10315SOL     OW31843   5.174   6.314   3.408
10315SOL    HW131844   5.183   6.217   3.430
10315SOL    HW231845   5.136   6.363   3.487
10316SOL     OW31846   6.707   2.194   6.276
10316SOL    HW131847   6.795   2.237   6.255
10316SOL    HW231848   6.633   2.248   6.236
10317SOL     OW31849   3.343   5.979   6.222
10317SOL    HW131850   3.249   6.004   6.247
10317SOL    HW231851   3.350   5.973   6.123
10318SOL     OW31852   5.265   0.071   0.067
10318SOL    HW131853   5.327   0.068   6.999
10318SOL    HW231854   5.276   0.158   0.114
10319SOL     OW31855   0.592   4.829   4.360
10319SOL    HW131856   0.605   4.819   4.459
10319SOL    HW231857   0.676   4.802   4.313
10320SOL     OW31858   6.978   0.467   3.440
10320SOL    HW131859   0.024   0.422   3.372
10320SOL    HW231860   6.923   0.398   3.488
10321SOL     OW31861   5.837   2.178   1.754
10321SOL    HW131862   5.891   2.242   1.809
10321SOL    HW231863   5.743   2.176   1.787
10322SOL     OW31864   4.607   4.671   4.712
10322SOL    HW131865   4.509   4.688   4.722
10322SOL    HW231866   4.623   4.572   4.713
10323SOL     OW31867   0.112   4.634   5.404
10323SOL    HW131868   0.038   4.572   5.376
10323SOL    HW231869   0.098   4.723   5.361
10324SOL     OW31870   3.226   3.311   2.348
10324SOL    HW131871   3.284   3.287   2.425
10324SOL    HW231872   3.269   3.382   2.293
10325SOL     OW31873   0.018   5.682   2.117
10325SOL    HW131874   6.967   5.758   2.098
10325SOL    HW231875   0.011   5.656   2.213
10326SOL     OW31876   5.409   3.928   6.995
10326SOL    HW131877   5.364   3.840   0.000
10326SOL    HW231878   5.375   3.968   6.910
10327SOL     OW31879   2.959   4.048   1.336
10327SOL    HW131880   2.876   4.052   1.281
10327SOL    HW231881   2.940   4.079   1.429
10328SOL     OW31882   6.609   3.071   1.557
10328SOL    HW131883   6.669   3.006   1.604
10328SOL    HW231884   6.643   3.164   1.573
10329SOL     OW31885   3.213   1.497   2.905
10329SOL    HW131886   3.309   1.502   2.876
10329SOL    HW231887   3.208   1.503   3.004
10330SOL     OW31888   4.978   0.255   0.884
10330SOL    HW131889   4.968   0.224   0.789
10330SOL    HW231890   4.915   0.331   0.901
10331SOL     OW31891   6.254   5.970   0.084
10331SOL    HW131892   6.233   5.913   0.005
10331SOL    HW231893   6.351   5.959   0.107
10332SOL     OW31894   1.309   0.963   0.727
10332SOL    HW131895   1.219   1.002   0.707
10332SOL    HW231896   1.299   0.867   0.754
10333SOL     OW31897   0.935   5.751   4.174
10333SOL    HW131898   0.975   5.842   4.163
10333SOL    HW231899   0.950   5.698   4.090
10334SOL     OW31900   2.870   6.977   3.855
10334SOL    HW131901   2.827   6.968   3.945
10334SOL    HW231902   2.969   6.966   3.865
10335SOL     OW31903   0.332   4.516   6.130
10335SOL    HW131904   0.421   4.560   6.139
10335SOL    HW231905   0.326   4.469   6.042
10336SOL     OW31906   5.742   6.966   2.991
10336SOL    HW131907   5.740   6.866   2.987
10336SOL    HW231908   5.658   6.999   3.034
10337SOL     OW31909   6.420   5.531   0.249
10337SOL    HW131910   6.492   5.483   0.300
10337SOL    HW231911   6.401   5.618   0.294
10338SOL     OW31912   1.851   6.269   1.613
10338SOL    HW131913   1.932   6.308   1.656
10338SOL    HW231914   1.824   6.324   1.534
10339SOL     OW31915   6.850   3.051   5.777
10339SOL    HW131916   6.814   3.132   5.731
10339SOL    HW231917   6.803   3.038   5.865
10340SOL     OW31918   1.142   3.506   6.437
10340SOL    HW131919   1.094   3.590   6.411
10340SOL    HW231920   1.174   3.459   6.355
10341SOL     OW31921   2.131   3.012   2.352
10341SOL    HW131922   2.147   3.111   2.353
10341SOL    HW231923   2.147   2.974   2.443
10342SOL     OW31924   1.858   0.642   3.813
10342SOL    HW131925   1.835   0.580   3.737
10342SOL    HW231926   1.776   0.661   3.866
10343SOL     OW31927   2.459   5.642   0.791
10343SOL    HW131928   2.458   5.686   0.881
10343SOL    HW231929   2.407   5.557   0.796
10344SOL     OW31930   3.495   3.654   6.778
10344SOL    HW131931   3.504   3.657   6.877
10344SOL    HW231932   3.586   3.645   6.737
10345SOL     OW31933   1.533   2.804   5.156
10345SOL    HW131934   1.577   2.894   5.164
10345SOL    HW231935   1.513   2.785   5.060
10346SOL     OW31936   0.204   5.773   1.615
10346SOL    HW131937   0.302   5.786   1.630
10346SOL    HW231938   0.165   5.720   1.690
10347SOL     OW31939   4.231   0.961   4.044
10347SOL    HW131940   4.241   0.872   4.090
10347SOL    HW231941   4.314   0.982   3.993
10348SOL     OW31942   5.776   3.265   0.102
10348SOL    HW131943   5.762   3.240   0.198
10348SOL    HW231944   5.874   3.273   0.084
10349SOL     OW31945   0.799   0.196   6.280
10349SOL    HW131946   0.719   0.256   6.285
10349SOL    HW231947   0.770   0.103   6.257
10350SOL     OW31948   3.050   6.265   5.450
10350SOL    HW131949   3.080   6.307   5.364
10350SOL    HW231950   2.953   6.283   5.464
10351SOL     OW31951   4.289   5.050   5.880
10351SOL    HW131952   4.295   4.959   5.920
10351SOL    HW231953   4.193   5.073   5.863
10352SOL     OW31954   3.433   1.484   6.259
10352SOL    HW131955   3.414   1.401   6.205
10352SOL    HW231956   3.468   1.458   6.349
10353SOL     OW31957   6.365   2.664   4.388
10353SOL    HW131958   6.413   2.617   4.461
10353SOL    HW231959   6.288   2.716   4.426
10354SOL     OW31960   5.372   0.998   1.724
10354SOL    HW131961   5.425   0.977   1.807
10354SOL    HW231962   5.283   0.953   1.730
10355SOL     OW31963   2.602   6.026   2.348
10355SOL    HW131964   2.640   6.057   2.435
10355SOL    HW231965   2.669   6.040   2.275
10356SOL     OW31966   6.853   4.353   4.990
10356SOL    HW131967   6.885   4.265   5.027
10356SOL    HW231968   6.907   4.427   5.031
10357SOL     OW31969   2.084   2.166   6.524
10357SOL    HW131970   2.072   2.067   6.518
10357SOL    HW231971   2.135   2.188   6.607
10358SOL     OW31972   0.489   2.565   2.459
10358SOL    HW131973   0.409   2.506   2.461
10358SOL    HW231974   0.470   2.650   2.509
10359SOL     OW31975   0.324   1.503   1.470
10359SOL    HW131976   0.258   1.575   1.487
10359SOL    HW231977   0.283   1.431   1.414
10360SOL     OW31978   5.690   5.956   3.306
10360SOL    HW131979   5.740   6.033   3.266
10360SOL    HW231980   5.643   5.987   3.389
10361SOL     OW31981   2.882   5.930   2.413
10361SOL    HW131982   2.899   5.832   2.401
10361SOL    HW231983   2.837   5.945   2.502
10362SOL     OW31984   2.210   4.560   4.797
10362SOL    HW131985   2.211   4.534   4.700
10362SOL    HW231986   2.145   4.501   4.846
10363SOL     OW31987   4.777   0.290   3.500
10363SOL    HW131988   4.856   0.352   3.497
10363SOL    HW231989   4.703   0.334   3.551
10364SOL     OW31990   2.267   4.449   1.251
10364SOL    HW131991   2.195   4.436   1.184
10364SOL    HW231992   2.354   4.414   1.215
10365SOL     OW31993   4.911   5.268   6.933
10365SOL    HW131994   4.916   5.357   6.979
10365SOL    HW231995   4.934   5.278   6.837
10366SOL     OW31996   2.862   0.203   3.410
10366SOL    HW131997   2.947   0.241   3.373
10366SOL    HW231998   2.868   0.199   3.510
10367SOL     OW31999   5.824   2.408   3.336
10367SOL    HW132000   5.886   2.333   3.312
10367SOL    HW232001   5.854   2.492   3.291
10368SOL     OW32002   1.948   1.418   1.855
10368SOL    HW132003   2.011   1.483   1.898
10368SOL    HW232004   1.972   1.325   1.882
10369SOL     OW32005   3.962   2.457   0.260
10369SOL    HW132006   3.942   2.504   0.174
10369SOL    HW232007   3.987   2.362   0.242
10370SOL     OW32008   4.213   0.827   5.298
10370SOL    HW132009   4.216   0.747   5.237
10370SOL    HW232010   4.258   0.904   5.253
10371SOL     OW32011   4.822   5.851   5.266
10371SOL    HW132012   4.885   5.774   5.271
10371SOL    HW232013   4.731   5.822   5.295
10372SOL     OW32014   2.335   1.159   4.194
10372SOL    HW132015   2.280   1.240   4.212
10372SOL    HW232016   2.286   1.099   4.131
10373SOL     OW32017   1.131   6.519   4.221
10373SOL    HW132018   1.048   6.565   4.191
10373SOL    HW232019   1.138   6.430   4.178
10374SOL     OW32020   3.114   2.151   2.970
10374SOL    HW132021   3.199   2.134   3.019
10374SOL    HW232022   3.092   2.071   2.913
10375SOL     OW32023   5.893   1.999   1.092
10375SOL    HW132024   5.811   1.942   1.085
10375SOL    HW232025   5.925   1.999   1.186
10376SOL     OW32026   0.569   0.697   3.710
10376SOL    HW132027   0.502   0.642   3.660
10376SOL    HW232028   0.658   0.652   3.706
10377SOL     OW32029   0.362   0.455   3.845
10377SOL    HW132030   0.304   0.428   3.767
10377SOL    HW232031   0.328   0.541   3.883
10378SOL     OW32032   0.034   0.357   6.310
10378SOL    HW132033   0.075   0.423   6.247
10378SOL    HW232034   6.951   0.341   6.285
10379SOL     OW32035   5.318   1.211   4.444
10379SOL    HW132036   5.409   1.216   4.486
10379SOL    HW232037   5.289   1.116   4.439
10380SOL     OW32038   5.044   0.353   2.078
10380SOL    HW132039   4.956   0.324   2.042
10380SOL    HW232040   5.090   0.410   2.011
10381SOL     OW32041   4.598   4.585   5.794
10381SOL    HW132042   4.683   4.588   5.845
10381SOL    HW232043   4.617   4.561   5.698
10382SOL     OW32044   1.941   5.173   0.160
10382SOL    HW132045   1.963   5.201   0.066
10382SOL    HW232046   2.011   5.207   0.222
10383SOL     OW32047   0.909   2.643   1.189
10383SOL    HW132048   0.864   2.666   1.275
10383SOL    HW232049   1.004   2.675   1.192
10384SOL     OW32050   6.480   0.232   0.444
10384SOL    HW132051   6.500   0.262   0.537
10384SOL    HW232052   6.520   0.142   0.428
10385SOL     OW32053   6.361   1.258   6.647
10385SOL    HW132054   6.282   1.300   6.603
10385SOL    HW232055   6.340   1.239   6.743
10386SOL     OW32056   5.928   2.856   5.613
10386SOL    HW132057   5.951   2.938   5.560
10386SOL    HW232058   5.979   2.778   5.578
10387SOL     OW32059   1.773   2.473   3.196
10387SOL    HW132060   1.792   2.445   3.102
10387SOL    HW232061   1.769   2.572   3.201
10388SOL     OW32062   1.299   4.974   2.949
10388SOL    HW132063   1.219   4.916   2.965
10388SOL    HW232064   1.378   4.936   2.996
10389SOL     OW32065   1.133   4.772   3.077
10389SOL    HW132066   1.061   4.711   3.043
10389SOL    HW232067   1.101   4.819   3.160
10390SOL     OW32068   1.214   3.199   3.526
10390SOL    HW132069   1.217   3.237   3.619
10390SOL    HW232070   1.196   3.273   3.461
10391SOL     OW32071   2.465   6.547   6.344
10391SOL    HW132072   2.542   6.542   6.408
10391SOL    HW232073   2.379   6.545   6.395
10392SOL     OW32074   6.604   5.370   0.375
10392SOL    HW132075   6.672   5.440   0.355
10392SOL    HW232076   6.601   5.353   0.474
10393SOL     OW32077   1.498   1.316   4.210
10393SOL    HW132078   1.508   1.225   4.251
10393SOL    HW232079   1.401   1.333   4.191
10394SOL     OW32080   2.463   6.696   0.051
10394SOL    HW132081   2.534   6.732   0.111
10394SOL    HW232082   2.432   6.607   0.085
10395SOL     OW32083   0.141   1.161   4.706
10395SOL    HW132084   0.148   1.065   4.681
10395SOL    HW232085   0.232   1.204   4.699
10396SOL     OW32086   1.150   6.804   4.877
10396SOL    HW132087   1.174   6.824   4.782
10396SOL    HW232088   1.052   6.786   4.883
10397SOL     OW32089   3.979   1.628   2.970
10397SOL    HW132090   3.984   1.533   3.001
10397SOL    HW232091   4.057   1.679   3.006
10398SOL     OW32092   6.405   2.867   2.483
10398SOL    HW132093   6.492   2.819   2.494
10398SOL    HW232094   6.411   2.930   2.405
10399SOL     OW32095   5.443   2.152   5.140
10399SOL    HW132096   5.473   2.165   5.234
10399SOL    HW232097   5.425   2.054   5.124
10400SOL     OW32098   2.055   5.612   1.758
10400SOL    HW132099   2.079   5.647   1.848
10400SOL    HW232100   2.125   5.547   1.728
10401SOL     OW32101   0.423   6.016   1.831
10401SOL    HW132102   0.503   6.077   1.828
10401SOL    HW232103   0.366   6.040   1.909
10402SOL     OW32104   0.392   3.083   4.271
10402SOL    HW132105   0.343   3.145   4.209
10402SOL    HW232106   0.326   3.024   4.317
10403SOL     OW32107   5.710   1.001   2.287
10403SOL    HW132108   5.690   0.965   2.379
10403SOL    HW232109   5.666   1.090   2.276
10404SOL     OW32110   0.428   6.305   3.717
10404SOL    HW132111   0.337   6.332   3.747
10404SOL    HW232112   0.492   6.312   3.795
10405SOL     OW32113   1.991   6.308   5.938
10405SOL    HW132114   1.982   6.226   5.996
10405SOL    HW232115   1.901   6.334   5.903
10406SOL     OW32116   2.194   4.804   6.196
10406SOL    HW132117   2.128   4.776   6.126
10406SOL    HW232118   2.251   4.878   6.160
10407SOL     OW32119   0.816   1.594   0.230
10407SOL    HW132120   0.900   1.621   0.184
10407SOL    HW232121   0.760   1.675   0.246
10408SOL     OW32122   4.379   5.934   2.723
10408SOL    HW132123   4.359   6.025   2.759
10408SOL    HW232124   4.358   5.865   2.791
10409SOL     OW32125   6.068   4.633   2.552
10409SOL    HW132126   6.047   4.660   2.458
10409SOL    HW232127   5.989   4.588   2.593
10410SOL     OW32128   4.960   0.102   0.640
10410SOL    HW132129   4.956   0.138   0.547
10410SOL    HW232130   4.870   0.067   0.666
10411SOL     OW32131   2.301   4.886   3.270
10411SOL    HW132132   2.339   4.805   3.226
10411SOL    HW232133   2.270   4.950   3.200
10412SOL     OW32134   0.506   2.195   0.682
10412SOL    HW132135   0.567   2.149   0.618
10412SOL    HW232136   0.451   2.127   0.731
10413SOL     OW32137   0.518   1.853   6.850
10413SOL    HW132138   0.501   1.763   6.890
10413SOL    HW232139   0.612   1.881   6.870
10414SOL     OW32140   6.005   6.601   5.450
10414SOL    HW132141   5.938   6.534   5.480
10414SOL    HW232142   6.069   6.621   5.525
10415SOL     OW32143   0.400   5.662   3.457
10415SOL    HW132144   0.373   5.756   3.436
10415SOL    HW232145   0.497   5.650   3.436
10416SOL     OW32146   5.383   1.308   5.858
10416SOL    HW132147   5.308   1.326   5.795
10416SOL    HW232148   5.347   1.270   5.943
10417SOL     OW32149   3.566   4.925   4.047
10417SOL    HW132150   3.529   4.899   4.136
10417SOL    HW232151   3.493   4.923   3.979
10418SOL     OW32152   5.997   3.723   6.411
10418SOL    HW132153   5.998   3.792   6.483
10418SOL    HW232154   6.071   3.658   6.426
10419SOL     OW32155   2.657   1.497   4.720
10419SOL    HW132156   2.693   1.430   4.786
10419SOL    HW232157   2.602   1.449   4.651
10420SOL     OW32158   6.138   3.809   2.944
10420SOL    HW132159   6.127   3.710   2.933
10420SOL    HW232160   6.191   3.827   3.027
10421SOL     OW32161   0.836   4.670   4.417
10421SOL    HW132162   0.799   4.679   4.510
10421SOL    HW232163   0.919   4.723   4.409
10422SOL     OW32164   6.636   3.801   4.831
10422SOL    HW132165   6.591   3.740   4.766
10422SOL    HW232166   6.667   3.748   4.910
10423SOL     OW32167   3.293   5.178   4.206
10423SOL    HW132168   3.193   5.181   4.208
10423SOL    HW232169   3.330   5.225   4.286
10424SOL     OW32170   3.804   1.171   0.428
10424SOL    HW132171   3.776   1.116   0.506
10424SOL    HW232172   3.889   1.219   0.448
10425SOL     OW32173   1.616   2.178   0.697
10425SOL    HW132174   1.548   2.203   0.628
10425SOL    HW232175   1.580   2.105   0.755
10426SOL     OW32176   6.367   2.158   6.284
10426SOL    HW132177   6.292   2.209   6.327
10426SOL    HW232178   6.437   2.221   6.252
10427SOL     OW32179   5.378   6.630   4.502
10427SOL    HW132180   5.415   6.695   4.569
10427SOL    HW232181   5.304   6.578   4.544
10428SOL     OW32182   2.817   0.361   4.083
10428SOL    HW132183   2.887   0.348   4.013
10428SOL    HW232184   2.727   0.362   4.041
10429SOL     OW32185   1.269   2.613   1.917
10429SOL    HW132186   1.282   2.615   1.818
10429SOL    HW232187   1.311   2.695   1.958
10430SOL     OW32188   3.168   0.184   3.673
10430SOL    HW132189   3.142   0.242   3.596
10430SOL    HW232190   3.180   0.090   3.642
10431SOL     OW32191   3.563   0.514   2.826
10431SOL    HW132192   3.508   0.523   2.909
10431SOL    HW232193   3.582   0.604   2.788
10432SOL     OW32194   1.486   5.676   6.260
10432SOL    HW132195   1.489   5.585   6.218
10432SOL    HW232196   1.508   5.745   6.191
10433SOL     OW32197   2.257   0.420   2.766
10433SOL    HW132198   2.327   0.353   2.740
10433SOL    HW232199   2.231   0.405   2.861
10434SOL     OW32200   5.280   0.272   5.444
10434SOL    HW132201   5.193   0.273   5.494
10434SOL    HW232202   5.272   0.212   5.364
10435SOL     OW32203   2.152   1.616   0.004
10435SOL    HW132204   2.165   1.517   7.011
10435SOL    HW232205   2.064   1.640   6.975
10436SOL     OW32206   6.159   3.384   5.360
10436SOL    HW132207   6.231   3.421   5.301
10436SOL    HW232208   6.106   3.459   5.400
10437SOL     OW32209   5.644   6.382   5.072
10437SOL    HW132210   5.709   6.425   5.135
10437SOL    HW232211   5.674   6.289   5.051
10438SOL     OW32212   6.485   6.208   6.855
10438SOL    HW132213   6.386   6.220   6.844
10438SOL    HW232214   6.524   6.292   6.892
10439SOL     OW32215   6.461   6.283   4.971
10439SOL    HW132216   6.396   6.211   4.950
10439SOL    HW232217   6.411   6.369   4.988
10440SOL     OW32218   6.630   2.488   0.542
10440SOL    HW132219   6.560   2.559   0.550
10440SOL    HW232220   6.589   2.405   0.503
10441SOL     OW32221   4.488   2.041   0.415
10441SOL    HW132222   4.445   2.005   0.498
10441SOL    HW232223   4.476   1.975   0.341
10442SOL     OW32224   2.000   1.924   5.597
10442SOL    HW132225   1.918   1.871   5.576
10442SOL    HW232226   1.995   1.958   5.691
10443SOL     OW32227   0.339   1.559   2.357
10443SOL    HW132228   0.428   1.579   2.399
10443SOL    HW232229   0.274   1.632   2.379
10444SOL     OW32230   4.036   5.362   4.197
10444SOL    HW132231   4.019   5.263   4.204
10444SOL    HW232232   3.950   5.411   4.203
10445SOL     OW32233   0.844   3.306   2.933
10445SOL    HW132234   0.783   3.267   3.002
10445SOL    HW232235   0.939   3.294   2.962
10446SOL     OW32236   1.969   4.361   5.891
10446SOL    HW132237   2.056   4.406   5.869
10446SOL    HW232238   1.954   4.285   5.828
10447SOL     OW32239   0.526   1.949   2.866
10447SOL    HW132240   0.586   2.025   2.841
10447SOL    HW232241   0.448   1.983   2.918
10448SOL     OW32242   2.505   6.423   2.382
10448SOL    HW132243   2.488   6.520   2.367
10448SOL    HW232244   2.533   6.380   2.297
10449SOL     OW32245   3.633   5.059   4.990
10449SOL    HW132246   3.729   5.030   4.996
10449SOL    HW232247   3.625   5.138   4.928
10450SOL     OW32248   0.016   0.554   6.022
10450SOL    HW132249   0.101   0.556   6.076
10450SOL    HW232250   6.953   0.593   6.077
10451SOL     OW32251   3.194   1.312   3.135
10451SOL    HW132252   3.132   1.243   3.096
10451SOL    HW232253   3.200   1.299   3.234
10452SOL     OW32254   6.316   3.977   4.405
10452SOL    HW132255   6.282   3.888   4.438
10452SOL    HW232256   6.375   3.962   4.326
10453SOL     OW32257   3.891   6.118   3.376
10453SOL    HW132258   3.852   6.209   3.364
10453SOL    HW232259   3.831   6.050   3.333
10454SOL     OW32260   6.688   1.320   5.879
10454SOL    HW132261   6.694   1.415   5.909
10454SOL    HW232262   6.706   1.313   5.781
10455SOL     OW32263   6.662   5.583   3.644
10455SOL    HW132264   6.661   5.680   3.620
10455SOL    HW232265   6.639   5.573   3.740
10456SOL     OW32266   1.130   5.419   6.469
10456SOL    HW132267   1.162   5.505   6.429
10456SOL    HW232268   1.181   5.343   6.430
10457SOL     OW32269   3.609   2.567   6.507
10457SOL    HW132270   3.642   2.638   6.445
10457SOL    HW232271   3.546   2.608   6.574
10458SOL     OW32272   0.517   5.854   6.846
10458SOL    HW132273   0.567   5.934   6.813
10458SOL    HW232274   0.441   5.835   6.784
10459SOL     OW32275   0.299   5.000   0.701
10459SOL    HW132276   0.336   4.998   0.608
10459SOL    HW232277   0.320   4.915   0.748
10460SOL     OW32278   0.129   1.187   1.106
10460SOL    HW132279   0.168   1.182   1.014
10460SOL    HW232280   0.037   1.225   1.103
10461SOL     OW32281   6.618   5.251   6.665
10461SOL    HW132282   6.695   5.312   6.682
10461SOL    HW232283   6.590   5.208   6.751
10462SOL     OW32284   4.709   2.152   0.766
10462SOL    HW132285   4.612   2.155   0.793
10462SOL    HW232286   4.716   2.162   0.667
10463SOL     OW32287   4.602   2.370   6.486
10463SOL    HW132288   4.688   2.330   6.518
10463SOL    HW232289   4.619   2.462   6.450
10464SOL     OW32290   6.481   4.854   2.293
10464SOL    HW132291   6.396   4.903   2.311
10464SOL    HW232292   6.507   4.801   2.374
10465SOL     OW32293   5.509   4.415   1.178
10465SOL    HW132294   5.568   4.404   1.098
10465SOL    HW232295   5.520   4.508   1.214
10466SOL     OW32296   6.193   4.371   6.360
10466SOL    HW132297   6.293   4.382   6.360
10466SOL    HW232298   6.152   4.447   6.310
10467SOL     OW32299   0.893   3.283   0.610
10467SOL    HW132300   0.835   3.313   0.686
10467SOL    HW232301   0.856   3.319   0.524
10468SOL     OW32302   1.952   4.712   3.893
10468SOL    HW132303   2.027   4.779   3.894
10468SOL    HW232304   1.868   4.756   3.924
10469SOL     OW32305   0.172   1.328   4.169
10469SOL    HW132306   0.220   1.357   4.086
10469SOL    HW232307   0.097   1.266   4.144
10470SOL     OW32308   1.895   2.591   2.720
10470SOL    HW132309   1.947   2.666   2.761
10470SOL    HW232310   1.846   2.624   2.639
10471SOL     OW32311   2.936   6.689   6.919
10471SOL    HW132312   2.925   6.657   6.825
10471SOL    HW232313   3.032   6.712   6.936
10472SOL     OW32314   3.978   4.992   6.905
10472SOL    HW132315   3.920   5.049   6.847
10472SOL    HW232316   3.945   4.898   6.904
10473SOL     OW32317   5.588   4.995   0.453
10473SOL    HW132318   5.593   4.957   0.545
10473SOL    HW232319   5.621   5.090   0.454
10474SOL     OW32320   5.627   0.953   4.442
10474SOL    HW132321   5.602   0.856   4.447
10474SOL    HW232322   5.572   0.999   4.372
10475SOL     OW32323   1.746   6.021   1.191
10475SOL    HW132324   1.728   5.955   1.263
10475SOL    HW232325   1.836   6.062   1.205
10476SOL     OW32326   4.614   5.596   0.130
10476SOL    HW132327   4.622   5.576   0.032
10476SOL    HW232328   4.519   5.581   0.159
10477SOL     OW32329   6.496   5.127   4.085
10477SOL    HW132330   6.573   5.064   4.088
10477SOL    HW232331   6.514   5.199   4.018
10478SOL     OW32332   6.045   1.260   0.006
10478SOL    HW132333   5.999   1.348   7.003
10478SOL    HW232334   6.036   1.233   0.102
10479SOL     OW32335   0.972   2.323   2.216
10479SOL    HW132336   0.938   2.321   2.310
10479SOL    HW232337   0.991   2.229   2.186
10480SOL     OW32338   2.147   0.248   2.485
10480SOL    HW132339   2.226   0.281   2.434
10480SOL    HW232340   2.127   0.311   2.560
10481SOL     OW32341   6.549   1.266   2.042
10481SOL    HW132342   6.543   1.314   2.130
10481SOL    HW232343   6.512   1.325   1.970
10482SOL     OW32344   4.899   3.803   4.580
10482SOL    HW132345   4.876   3.788   4.676
10482SOL    HW232346   4.897   3.716   4.531
10483SOL     OW32347   6.196   6.733   0.217
10483SOL    HW132348   6.135   6.663   0.180
10483SOL    HW232349   6.245   6.696   0.297
10484SOL     OW32350   6.464   1.203   2.435
10484SOL    HW132351   6.510   1.270   2.376
10484SOL    HW232352   6.504   1.113   2.420
10485SOL     OW32353   5.945   3.863   5.491
10485SOL    HW132354   5.925   3.881   5.588
10485SOL    HW232355   5.914   3.940   5.436
10486SOL     OW32356   5.204   3.011   1.835
10486SOL    HW132357   5.181   3.087   1.895
10486SOL    HW232358   5.131   2.943   1.837
10487SOL     OW32359   5.998   6.628   1.678
10487SOL    HW132360   6.005   6.536   1.717
10487SOL    HW232361   6.083   6.678   1.693
10488SOL     OW32362   2.485   2.317   6.188
10488SOL    HW132363   2.526   2.407   6.198
10488SOL    HW232364   2.385   2.326   6.188
10489SOL     OW32365   0.994   6.088   6.430
10489SOL    HW132366   0.927   6.043   6.491
10489SOL    HW232367   0.949   6.114   6.345
10490SOL     OW32368   6.995   0.737   3.923
10490SOL    HW132369   0.054   0.805   3.905
10490SOL    HW232370   7.000   0.708   4.019
10491SOL     OW32371   1.422   4.085   5.627
10491SOL    HW132372   1.421   4.149   5.703
10491SOL    HW232373   1.438   3.992   5.661
10492SOL     OW32374   4.468   3.448   5.597
10492SOL    HW132375   4.474   3.486   5.505
10492SOL    HW232376   4.560   3.431   5.633
10493SOL     OW32377   2.535   0.996   1.718
10493SOL    HW132378   2.554   0.949   1.804
10493SOL    HW232379   2.572   1.089   1.721
10494SOL     OW32380   6.035   2.506   4.465
10494SOL    HW132381   6.046   2.516   4.366
10494SOL    HW232382   6.064   2.414   4.493
10495SOL     OW32383   1.427   6.719   7.005
10495SOL    HW132384   1.473   6.806   0.009
10495SOL    HW232385   1.337   6.720   0.037
10496SOL     OW32386   0.030   6.892   5.352
10496SOL    HW132387   0.043   6.985   5.386
10496SOL    HW232388   7.009   6.833   5.426
10497SOL     OW32389   1.415   1.068   1.226
10497SOL    HW132390   1.512   1.079   1.245
10497SOL    HW232391   1.398   1.085   1.129
10498SOL     OW32392   2.778   5.687   6.387
10498SOL    HW132393   2.729   5.773   6.372
10498SOL    HW232394   2.800   5.645   6.299
10499SOL     OW32395   3.304   5.728   3.160
10499SOL    HW132396   3.247   5.806   3.187
10499SOL    HW232397   3.259   5.679   3.085
10500SOL     OW32398   1.157   2.109   6.197
10500SOL    HW132399   1.157   2.013   6.227
10500SOL    HW232400   1.141   2.113   6.098
10501SOL     OW32401   1.429   3.293   2.628
10501SOL    HW132402   1.383   3.284   2.716
10501SOL    HW232403   1.435   3.204   2.584
10502SOL     OW32404   3.012   5.829   6.475
10502SOL    HW132405   3.084   5.883   6.519
10502SOL    HW232406   3.040   5.733   6.473
10503SOL     OW32407   2.572   3.312   6.339
10503SOL    HW132408   2.519   3.269   6.412
10503SOL    HW232409   2.553   3.410   6.336
10504SOL     OW32410   3.072   3.074   0.637
10504SOL    HW132411   3.020   3.068   0.722
10504SOL    HW232412   3.014   3.049   0.560
10505SOL     OW32413   6.893   6.166   1.797
10505SOL    HW132414   6.953   6.091   1.826
10505SOL    HW232415   6.896   6.174   1.697
10506SOL     OW32416   0.381   4.323   5.619
10506SOL    HW132417   0.357   4.373   5.536
10506SOL    HW232418   0.409   4.230   5.595
10507SOL     OW32419   1.241   0.394   5.792
10507SOL    HW132420   1.226   0.301   5.826
10507SOL    HW232421   1.336   0.404   5.762
10508SOL     OW32422   5.231   4.009   3.230
10508SOL    HW132423   5.194   3.974   3.316
10508SOL    HW232424   5.163   4.067   3.186
10509SOL     OW32425   1.271   0.475   6.225
10509SOL    HW132426   1.371   0.478   6.215
10509SOL    HW232427   1.237   0.388   6.189
10510SOL     OW32428   6.840   6.131   0.071
10510SOL    HW132429   6.904   6.127   7.006
10510SOL    HW232430   6.747   6.113   0.038
10511SOL     OW32431   4.738   2.896   0.783
10511SOL    HW132432   4.785   2.981   0.807
10511SOL    HW232433   4.721   2.894   0.685
10512SOL     OW32434   3.793   6.625   6.300
10512SOL    HW132435   3.804   6.700   6.365
10512SOL    HW232436   3.771   6.541   6.350
10513SOL     OW32437   0.619   2.035   0.160
10513SOL    HW132438   0.522   2.053   0.176
10513SOL    HW232439   0.664   2.121   0.135
10514SOL     OW32440   0.298   4.926   1.079
10514SOL    HW132441   0.321   4.843   1.027
10514SOL    HW232442   0.211   4.912   1.126
10515SOL     OW32443   6.997   2.149   3.818
10515SOL    HW132444   6.968   2.245   3.814
10515SOL    HW232445   6.917   2.091   3.833
10516SOL     OW32446   4.100   0.446   5.829
10516SOL    HW132447   4.011   0.492   5.832
10516SOL    HW232448   4.119   0.404   5.918
10517SOL     OW32449   0.049   1.787   3.072
10517SOL    HW132450   6.972   1.777   3.026
10517SOL    HW232451   0.081   1.697   3.102
10518SOL     OW32452   0.967   6.708   1.537
10518SOL    HW132453   0.943   6.622   1.492
10518SOL    HW232454   0.927   6.710   1.629
10519SOL     OW32455   2.825   3.516   5.371
10519SOL    HW132456   2.800   3.442   5.308
10519SOL    HW232457   2.754   3.586   5.371
10520SOL     OW32458   4.476   2.331   6.861
10520SOL    HW132459   4.433   2.321   6.951
10520SOL    HW232460   4.416   2.382   6.800
10521SOL     OW32461   6.414   5.996   1.234
10521SOL    HW132462   6.381   5.980   1.141
10521SOL    HW232463   6.465   5.916   1.266
10522SOL     OW32464   6.350   0.920   2.138
10522SOL    HW132465   6.251   0.912   2.149
10522SOL    HW232466   6.392   0.933   2.228
10523SOL     OW32467   6.870   5.876   6.510
10523SOL    HW132468   6.775   5.903   6.525
10523SOL    HW232469   6.888   5.873   6.412
10524SOL     OW32470   2.915   0.697   3.521
10524SOL    HW132471   2.943   0.653   3.435
10524SOL    HW232472   2.942   0.793   3.519
10525SOL     OW32473   2.531   6.012   4.659
10525SOL    HW132474   2.500   5.918   4.643
10525SOL    HW232475   2.588   6.014   4.742
10526SOL     OW32476   6.527   0.029   2.417
10526SOL    HW132477   6.594   0.103   2.424
10526SOL    HW232478   6.484   0.031   2.327
10527SOL     OW32479   1.306   2.332   4.541
10527SOL    HW132480   1.207   2.348   4.540
10527SOL    HW232481   1.328   2.258   4.478
10528SOL     OW32482   0.420   5.062   4.704
10528SOL    HW132483   0.445   4.997   4.776
10528SOL    HW232484   0.356   5.018   4.641
10529SOL     OW32485   0.085   0.053   3.915
10529SOL    HW132486   0.093   6.983   3.857
10529SOL    HW232487   0.160   0.115   3.896
10530SOL     OW32488   2.380   1.765   6.270
10530SOL    HW132489   2.389   1.743   6.367
10530SOL    HW232490   2.467   1.802   6.236
10531SOL     OW32491   1.729   2.999   5.283
10531SOL    HW132492   1.705   2.918   5.337
10531SOL    HW232493   1.710   3.081   5.336
10532SOL     OW32494   3.958   2.408   5.678
10532SOL    HW132495   4.032   2.475   5.670
10532SOL    HW232496   3.884   2.447   5.733
10533SOL     OW32497   2.485   1.157   5.566
10533SOL    HW132498   2.477   1.245   5.520
10533SOL    HW232499   2.578   1.122   5.554
10534SOL     OW32500   6.533   5.775   1.051
10534SOL    HW132501   6.623   5.793   1.013
10534SOL    HW232502   6.463   5.794   0.982
10535SOL     OW32503   0.484   1.178   2.243
10535SOL    HW132504   0.479   1.180   2.143
10535SOL    HW232505   0.405   1.226   2.281
10536SOL     OW32506   4.534   0.338   2.896
10536SOL    HW132507   4.460   0.275   2.918
10536SOL    HW232508   4.533   0.415   2.960
10537SOL     OW32509   1.419   4.962   1.859
10537SOL    HW132510   1.496   4.926   1.912
10537SOL    HW232511   1.394   4.897   1.787
10538SOL     OW32512   4.358   3.433   0.576
10538SOL    HW132513   4.350   3.465   0.482
10538SOL    HW232514   4.359   3.512   0.638
10539SOL     OW32515   0.553   4.104   6.002
10539SOL    HW132516   0.541   4.196   6.038
10539SOL    HW232517   0.478   4.083   5.938
10540SOL     OW32518   1.991   0.312   6.328
10540SOL    HW132519   1.957   0.391   6.276
10540SOL    HW232520   1.996   0.336   6.425
10541SOL     OW32521   3.725   2.916   0.279
10541SOL    HW132522   3.746   2.913   0.181
10541SOL    HW232523   3.646   2.975   0.294
10542SOL     OW32524   0.188   2.356   0.189
10542SOL    HW132525   0.132   2.352   0.107
10542SOL    HW232526   0.284   2.346   0.164
10543SOL     OW32527   1.210   0.749   5.542
10543SOL    HW132528   1.144   0.783   5.476
10543SOL    HW232529   1.179   0.662   5.579
10544SOL     OW32530   1.470   2.337   2.076
10544SOL    HW132531   1.505   2.416   2.025
10544SOL    HW232532   1.371   2.344   2.085
10545SOL     OW32533   6.456   0.369   2.653
10545SOL    HW132534   6.410   0.442   2.704
10545SOL    HW232535   6.552   0.366   2.679
10546SOL     OW32536   2.912   0.634   4.071
10546SOL    HW132537   2.867   0.546   4.053
10546SOL    HW232538   2.843   0.706   4.076
10547SOL     OW32539   4.474   1.518   1.248
10547SOL    HW132540   4.403   1.455   1.280
10547SOL    HW232541   4.433   1.588   1.190
10548SOL     OW32542   5.102   4.249   5.286
10548SOL    HW132543   5.077   4.266   5.381
10548SOL    HW232544   5.020   4.221   5.235
10549SOL     OW32545   1.126   0.832   1.673
10549SOL    HW132546   1.087   0.913   1.628
10549SOL    HW232547   1.069   0.752   1.653
10550SOL     OW32548   4.882   6.754   4.111
10550SOL    HW132549   4.934   6.808   4.044
10550SOL    HW232550   4.878   6.804   4.198
10551SOL     OW32551   1.099   2.763   6.314
10551SOL    HW132552   1.042   2.845   6.306
10551SOL    HW232553   1.191   2.789   6.346
10552SOL     OW32554   3.436   2.189   5.253
10552SOL    HW132555   3.417   2.094   5.227
10552SOL    HW232556   3.355   2.245   5.234
10553SOL     OW32557   1.309   4.965   6.944
10553SOL    HW132558   1.349   5.006   6.862
10553SOL    HW232559   1.215   4.936   6.924
10554SOL     OW32560   6.980   4.681   6.698
10554SOL    HW132561   0.033   4.609   6.673
10554SOL    HW232562   6.975   4.688   6.797
10555SOL     OW32563   3.273   1.731   1.632
10555SOL    HW132564   3.267   1.807   1.698
10555SOL    HW232565   3.238   1.762   1.543
10556SOL     OW32566   2.126   3.307   4.777
10556SOL    HW132567   2.114   3.401   4.810
10556SOL    HW232568   2.181   3.256   4.843
10557SOL     OW32569   0.088   2.644   3.555
10557SOL    HW132570   7.005   2.622   3.580
10557SOL    HW232571   0.100   2.743   3.552
10558SOL     OW32572   4.918   6.085   5.424
10558SOL    HW132573   4.870   6.026   5.359
10558SOL    HW232574   4.932   6.035   5.510
10559SOL     OW32575   4.301   2.069   0.655
10559SOL    HW132576   4.359   2.113   0.723
10559SOL    HW232577   4.217   2.121   0.642
10560SOL     OW32578   0.954   3.050   4.026
10560SOL    HW132579   0.871   2.998   4.009
10560SOL    HW232580   0.996   3.018   4.111
10561SOL     OW32581   2.543   3.996   6.895
10561SOL    HW132582   2.562   3.916   6.951
10561SOL    HW232583   2.458   3.982   6.845
10562SOL     OW32584   4.031   1.201   0.119
10562SOL    HW132585   4.123   1.190   0.081
10562SOL    HW232586   4.035   1.258   0.201
10563SOL     OW32587   1.513   1.883   5.399
10563SOL    HW132588   1.473   1.901   5.488
10563SOL    HW232589   1.551   1.790   5.397
10564SOL     OW32590   6.198   2.385   1.752
10564SOL    HW132591   6.258   2.360   1.828
10564SOL    HW232592   6.103   2.388   1.784
10565SOL     OW32593   5.529   1.879   4.968
10565SOL    HW132594   5.587   1.798   4.961
10565SOL    HW232595   5.585   1.960   4.984
10566SOL     OW32596   3.484   4.166   6.483
10566SOL    HW132597   3.577   4.183   6.451
10566SOL    HW232598   3.477   4.072   6.515
10567SOL     OW32599   1.801   3.724   4.062
10567SOL    HW132600   1.718   3.737   4.116
10567SOL    HW232601   1.874   3.689   4.120
10568SOL     OW32602   4.633   0.969   3.316
10568SOL    HW132603   4.581   0.933   3.239
10568SOL    HW232604   4.653   1.066   3.300
10569SOL     OW32605   5.433   2.967   4.382
10569SOL    HW132606   5.463   3.004   4.470
10569SOL    HW232607   5.489   3.006   4.308
10570SOL     OW32608   1.423   5.115   2.663
10570SOL    HW132609   1.446   5.212   2.672
10570SOL    HW232610   1.464   5.079   2.579
10571SOL     OW32611   6.198   6.480   3.229
10571SOL    HW132612   6.108   6.460   3.268
10571SOL    HW232613   6.204   6.578   3.209
10572SOL     OW32614   6.016   3.758   1.743
10572SOL    HW132615   6.012   3.716   1.652
10572SOL    HW232616   5.997   3.856   1.735
10573SOL     OW32617   5.978   5.308   4.776
10573SOL    HW132618   5.888   5.295   4.734
10573SOL    HW232619   6.040   5.350   4.711
10574SOL     OW32620   0.561   1.727   3.458
10574SOL    HW132621   0.555   1.761   3.364
10574SOL    HW232622   0.626   1.782   3.510
10575SOL     OW32623   1.416   7.003   5.223
10575SOL    HW132624   1.392   0.023   5.315
10575SOL    HW232625   1.336   6.959   5.182
10576SOL     OW32626   1.798   5.483   3.524
10576SOL    HW132627   1.782   5.477   3.425
10576SOL    HW232628   1.720   5.446   3.573
10577SOL     OW32629   1.727   2.734   5.870
10577SOL    HW132630   1.673   2.808   5.828
10577SOL    HW232631   1.759   2.672   5.798
10578SOL     OW32632   6.465   0.706   5.787
10578SOL    HW132633   6.493   0.649   5.710
10578SOL    HW232634   6.376   0.675   5.821
10579SOL     OW32635   4.432   1.862   0.937
10579SOL    HW132636   4.500   1.835   0.869
10579SOL    HW232637   4.400   1.780   0.986
10580SOL     OW32638   6.231   6.206   6.788
10580SOL    HW132639   6.178   6.281   6.826
10580SOL    HW232640   6.221   6.125   6.846
10581SOL     OW32641   5.314   0.644   3.588
10581SOL    HW132642   5.364   0.561   3.566
10581SOL    HW232643   5.378   0.718   3.607
10582SOL     OW32644   3.597   5.073   6.656
10582SOL    HW132645   3.530   5.023   6.711
10582SOL    HW232646   3.656   5.007   6.609
10583SOL     OW32647   4.160   1.523   0.157
10583SOL    HW132648   4.186   1.603   0.104
10583SOL    HW232649   4.076   1.543   0.208
10584SOL     OW32650   5.577   0.174   1.422
10584SOL    HW132651   5.624   0.095   1.381
10584SOL    HW232652   5.508   0.209   1.357
10585SOL     OW32653   0.883   3.303   6.541
10585SOL    HW132654   0.829   3.373   6.496
10585SOL    HW232655   0.826   3.222   6.558
10586SOL     OW32656   3.305   6.709   6.374
10586SOL    HW132657   3.242   6.683   6.301
10586SOL    HW232658   3.313   6.634   6.439
10587SOL     OW32659   6.214   4.332   0.666
10587SOL    HW132660   6.299   4.322   0.718
10587SOL    HW232661   6.187   4.428   0.665
10588SOL     OW32662   0.122   5.533   3.083
10588SOL    HW132663   0.183   5.611   3.066
10588SOL    HW232664   0.153   5.484   3.165
10589SOL     OW32665   5.910   1.738   3.972
10589SOL    HW132666   5.962   1.743   3.886
10589SOL    HW232667   5.849   1.816   3.979
10590SOL     OW32668   1.112   0.020   3.446
10590SOL    HW132669   1.092   6.979   3.529
10590SOL    HW232670   1.207   0.052   3.448
10591SOL     OW32671   1.097   2.337   0.658
10591SOL    HW132672   1.023   2.348   0.724
10591SOL    HW232673   1.119   2.426   0.618
10592SOL     OW32674   6.372   1.385   0.241
10592SOL    HW132675   6.343   1.480   0.253
10592SOL    HW232676   6.318   1.343   0.169
10593SOL     OW32677   2.019   5.405   1.268
10593SOL    HW132678   1.960   5.423   1.348
10593SOL    HW232679   1.962   5.376   1.191
10594SOL     OW32680   0.237   1.977   4.466
10594SOL    HW132681   0.302   1.932   4.405
10594SOL    HW232682   0.215   2.068   4.431
10595SOL     OW32683   3.609   6.167   6.516
10595SOL    HW132684   3.543   6.145   6.588
10595SOL    HW232685   3.640   6.083   6.472
10596SOL     OW32686   3.843   0.528   2.308
10596SOL    HW132687   3.892   0.612   2.332
10596SOL    HW232688   3.800   0.490   2.390
10597SOL     OW32689   1.795   0.524   4.932
10597SOL    HW132690   1.772   0.531   5.029
10597SOL    HW232691   1.860   0.596   4.908
10598SOL     OW32692   2.271   1.968   0.029
10598SOL    HW132693   2.321   2.054   0.019
10598SOL    HW232694   2.286   1.912   6.960
10599SOL     OW32695   5.909   1.486   0.043
10599SOL    HW132696   5.826   1.454   0.090
10599SOL    HW232697   5.967   1.535   0.108
10600SOL     OW32698   2.366   3.221   6.497
10600SOL    HW132699   2.377   3.295   6.563
10600SOL    HW232700   2.288   3.164   6.523
10601SOL     OW32701   3.128   6.204   6.426
10601SOL    HW132702   3.224   6.231   6.432
10601SOL    HW232703   3.118   6.129   6.361
10602SOL     OW32704   4.781   1.178   2.052
10602SOL    HW132705   4.743   1.270   2.067
10602SOL    HW232706   4.792   1.132   2.139
10603SOL     OW32707   1.423   5.724   4.346
10603SOL    HW132708   1.453   5.683   4.432
10603SOL    HW232709   1.411   5.652   4.277
10604SOL     OW32710   6.929   4.765   4.769
10604SOL    HW132711   6.910   4.679   4.817
10604SOL    HW232712   6.872   4.837   4.808
10605SOL     OW32713   1.379   4.980   6.680
10605SOL    HW132714   1.434   4.898   6.663
10605SOL    HW232715   1.435   5.061   6.663
10606SOL     OW32716   0.819   0.640   1.941
10606SOL    HW132717   0.720   0.642   1.954
10606SOL    HW232718   0.841   0.577   1.867
10607SOL     OW32719   5.695   4.895   6.839
10607SOL    HW132720   5.679   4.941   6.752
10607SOL    HW232721   5.619   4.913   6.901
10608SOL     OW32722   6.409   1.488   3.850
10608SOL    HW132723   6.362   1.501   3.937
10608SOL    HW232724   6.366   1.412   3.800
10609SOL     OW32725   3.985   6.596   1.189
10609SOL    HW132726   3.962   6.692   1.206
10609SOL    HW232727   4.084   6.586   1.181
10610SOL     OW32728   1.282   3.170   5.639
10610SOL    HW132729   1.322   3.180   5.548
10610SOL    HW232730   1.343   3.116   5.696
10611SOL     OW32731   5.668   2.828   5.700
10611SOL    HW132732   5.590   2.865   5.649
10611SOL    HW232733   5.753   2.852   5.652
10612SOL     OW32734   1.880   0.270   0.317
10612SOL    HW132735   1.803   0.331   0.299
10612SOL    HW232736   1.867   0.225   0.405
10613SOL     OW32737   0.225   6.259   5.598
10613SOL    HW132738   0.320   6.282   5.580
10613SOL    HW232739   0.217   6.219   5.690
10614SOL     OW32740   6.673   0.936   4.279
10614SOL    HW132741   6.590   0.894   4.243
10614SOL    HW232742   6.667   1.036   4.270
10615SOL     OW32743   5.209   5.609   5.421
10615SOL    HW132744   5.308   5.620   5.410
10615SOL    HW232745   5.191   5.524   5.471
10616SOL     OW32746   2.809   5.667   0.051
10616SOL    HW132747   2.788   5.569   0.050
10616SOL    HW232748   2.733   5.716   0.093
10617SOL     OW32749   1.363   2.162   6.989
10617SOL    HW132750   1.395   2.254   7.008
10617SOL    HW232751   1.432   2.114   6.933
10618SOL     OW32752   6.038   3.128   0.230
10618SOL    HW132753   6.089   3.120   0.145
10618SOL    HW232754   6.102   3.144   0.306
10619SOL     OW32755   0.867   4.273   3.948
10619SOL    HW132756   0.785   4.226   3.980
10619SOL    HW232757   0.939   4.205   3.931
10620SOL     OW32758   1.497   6.017   4.791
10620SOL    HW132759   1.537   5.930   4.817
10620SOL    HW232760   1.516   6.085   4.863
10621SOL     OW32761   1.967   6.335   0.656
10621SOL    HW132762   1.946   6.426   0.692
10621SOL    HW232763   2.007   6.279   0.729
10622SOL     OW32764   3.848   0.783   1.492
10622SOL    HW132765   3.887   0.843   1.562
10622SOL    HW232766   3.767   0.737   1.529
10623SOL     OW32767   6.448   1.833   3.560
10623SOL    HW132768   6.434   1.877   3.471
10623SOL    HW232769   6.369   1.774   3.580
10624SOL     OW32770   1.927   0.566   4.263
10624SOL    HW132771   1.908   0.661   4.237
10624SOL    HW232772   1.986   0.565   4.343
10625SOL     OW32773   0.414   3.268   0.429
10625SOL    HW132774   0.405   3.339   0.359
10625SOL    HW232775   0.354   3.289   0.507
10626SOL     OW32776   0.527   2.501   1.516
10626SOL    HW132777   0.534   2.403   1.495
10626SOL    HW232778   0.585   2.523   1.594
10627SOL     OW32779   6.161   5.996   3.834
10627SOL    HW132780   6.065   6.014   3.854
10627SOL    HW232781   6.168   5.919   3.770
10628SOL     OW32782   5.835   5.741   5.777
10628SOL    HW132783   5.801   5.832   5.799
10628SOL    HW232784   5.905   5.715   5.843
10629SOL     OW32785   2.624   5.731   5.844
10629SOL    HW132786   2.538   5.733   5.792
10629SOL    HW232787   2.655   5.637   5.855
10630SOL     OW32788   6.865   1.571   3.637
10630SOL    HW132789   6.890   1.481   3.603
10630SOL    HW232790   6.778   1.565   3.686
10631SOL     OW32791   0.666   6.731   3.950
10631SOL    HW132792   0.635   6.641   3.982
10631SOL    HW232793   0.686   6.789   4.028
10632SOL     OW32794   0.175   1.818   5.117
10632SOL    HW132795   0.217   1.767   5.042
10632SOL    HW232796   0.195   1.773   5.204
10633SOL     OW32797   1.368   5.419   1.496
10633SOL    HW132798   1.428   5.472   1.557
10633SOL    HW232799   1.313   5.356   1.549
10634SOL     OW32800   3.103   6.375   1.401
10634SOL    HW132801   3.137   6.443   1.336
10634SOL    HW232802   3.020   6.332   1.364
10635SOL     OW32803   2.083   0.743   1.409
10635SOL    HW132804   2.126   0.808   1.346
10635SOL    HW232805   2.112   0.763   1.503
10636SOL     OW32806   0.734   2.363   1.696
10636SOL    HW132807   0.690   2.444   1.732
10636SOL    HW232808   0.687   2.281   1.730
10637SOL     OW32809   3.324   4.164   5.272
10637SOL    HW132810   3.336   4.251   5.320
10637SOL    HW232811   3.257   4.176   5.198
10638SOL     OW32812   0.193   6.578   5.787
10638SOL    HW132813   0.205   6.530   5.874
10638SOL    HW232814   0.117   6.537   5.737
10639SOL     OW32815   2.383   0.370   4.304
10639SOL    HW132816   2.468   0.363   4.356
10639SOL    HW232817   2.341   0.459   4.321
10640SOL     OW32818   4.124   0.485   6.878
10640SOL    HW132819   4.095   0.556   6.942
10640SOL    HW232820   4.089   0.506   6.787
10641SOL     OW32821   5.787   1.887   6.986
10641SOL    HW132822   5.735   1.845   0.048
10641SOL    HW232823   5.732   1.959   6.943
10642SOL     OW32824   0.234   3.113   1.766
10642SOL    HW132825   0.278   3.141   1.681
10642SOL    HW232826   0.210   3.193   1.820
10643SOL     OW32827   2.848   2.941   5.696
10643SOL    HW132828   2.897   2.970   5.614
10643SOL    HW232829   2.883   2.991   5.775
10644SOL     OW32830   4.579   1.486   4.385
10644SOL    HW132831   4.627   1.408   4.343
10644SOL    HW232832   4.494   1.454   4.427
10645SOL     OW32833   2.835   0.855   4.961
10645SOL    HW132834   2.770   0.931   4.969
10645SOL    HW232835   2.787   0.768   4.971
10646SOL     OW32836   0.972   3.844   6.650
10646SOL    HW132837   0.941   3.919   6.708
10646SOL    HW232838   1.072   3.844   6.645
10647SOL     OW32839   0.277   5.223   0.993
10647SOL    HW132840   0.277   5.131   1.033
10647SOL    HW232841   0.329   5.223   0.908
10648SOL     OW32842   4.787   2.967   6.666
10648SOL    HW132843   4.818   3.057   6.698
10648SOL    HW232844   4.687   2.967   6.658
10649SOL     OW32845   0.153   5.149   5.967
10649SOL    HW132846   0.070   5.203   5.976
10649SOL    HW232847   0.170   5.100   6.053
10650SOL     OW32848   3.175   6.701   3.981
10650SOL    HW132849   3.222   6.635   3.922
10650SOL    HW232850   3.229   6.715   4.064
10651SOL     OW32851   4.443   6.429   6.421
10651SOL    HW132852   4.448   6.382   6.509
10651SOL    HW232853   4.499   6.512   6.424
10652SOL     OW32854   3.562   0.801   6.406
10652SOL    HW132855   3.521   0.740   6.339
10652SOL    HW232856   3.640   0.756   6.450
10653SOL     OW32857   5.173   3.711   4.261
10653SOL    HW132858   5.125   3.630   4.226
10653SOL    HW232859   5.185   3.701   4.360
10654SOL     OW32860   4.305   0.649   0.314
10654SOL    HW132861   4.242   0.635   0.390
10654SOL    HW232862   4.310   0.747   0.293
10655SOL     OW32863   2.564   5.766   1.341
10655SOL    HW132864   2.622   5.731   1.268
10655SOL    HW232865   2.607   5.846   1.383
10656SOL     OW32866   6.879   2.801   6.361
10656SOL    HW132867   6.905   2.705   6.374
10656SOL    HW232868   6.943   2.860   6.409
10657SOL     OW32869   6.094   0.762   1.180
10657SOL    HW132870   6.159   0.686   1.188
10657SOL    HW232871   6.009   0.729   1.139
10658SOL     OW32872   6.864   5.659   5.100
10658SOL    HW132873   6.793   5.729   5.100
10658SOL    HW232874   6.945   5.694   5.146
10659SOL     OW32875   5.940   1.026   0.461
10659SOL    HW132876   5.841   1.032   0.450
10659SOL    HW232877   5.963   0.948   0.519
10660SOL     OW32878   4.628   5.006   5.319
10660SOL    HW132879   4.562   5.067   5.364
10660SOL    HW232880   4.717   5.051   5.316
10661SOL     OW32881   0.149   6.753   2.751
10661SOL    HW132882   0.071   6.799   2.794
10661SOL    HW232883   0.116   6.698   2.674
10662SOL     OW32884   5.881   1.405   0.542
10662SOL    HW132885   5.962   1.448   0.579
10662SOL    HW232886   5.889   1.306   0.551
10663SOL     OW32887   0.178   0.315   0.505
10663SOL    HW132888   0.143   0.391   0.451
10663SOL    HW232889   0.210   0.242   0.444
10664SOL     OW32890   1.681   4.881   6.964
10664SOL    HW132891   1.614   4.868   0.025
10664SOL    HW232892   1.690   4.979   6.944
10665SOL     OW32893   6.789   1.143   0.774
10665SOL    HW132894   6.704   1.115   0.819
10665SOL    HW232895   6.865   1.088   0.807
10666SOL     OW32896   1.591   6.996   6.963
10666SOL    HW132897   1.612   0.062   0.011
10666SOL    HW232898   1.672   6.938   6.955
10667SOL     OW32899   3.715   1.674   5.125
10667SOL    HW132900   3.814   1.662   5.119
10667SOL    HW232901   3.685   1.654   5.219
10668SOL     OW32902   1.858   1.009   5.520
10668SOL    HW132903   1.854   0.969   5.612
10668SOL    HW232904   1.915   1.091   5.523
10669SOL     OW32905   1.176   6.719   6.428
10669SOL    HW132906   1.109   6.730   6.354
10669SOL    HW232907   1.190   6.621   6.446
10670SOL     OW32908   6.561   4.642   5.566
10670SOL    HW132909   6.518   4.712   5.623
10670SOL    HW232910   6.658   4.662   5.557
10671SOL     OW32911   1.990   1.314   3.532
10671SOL    HW132912   2.060   1.294   3.600
10671SOL    HW232913   1.933   1.233   3.517
10672SOL     OW32914   0.256   3.375   0.639
10672SOL    HW132915   0.314   3.373   0.721
10672SOL    HW232916   0.239   3.470   0.613
10673SOL     OW32917   2.834   3.296   5.203
10673SOL    HW132918   2.779   3.225   5.247
10673SOL    HW232919   2.893   3.254   5.134
10674SOL     OW32920   3.706   1.934   2.044
10674SOL    HW132921   3.793   1.908   2.000
10674SOL    HW232922   3.696   2.034   2.042
10675SOL     OW32923   0.686   0.548   5.974
10675SOL    HW132924   0.632   0.614   6.025
10675SOL    HW232925   0.627   0.476   5.940
10676SOL     OW32926   6.759   0.290   6.482
10676SOL    HW132927   6.813   0.206   6.486
10676SOL    HW232928   6.721   0.309   6.573
10677SOL     OW32929   0.156   0.346   0.770
10677SOL    HW132930   0.155   0.341   0.670
10677SOL    HW232931   0.114   0.263   0.807
10678SOL     OW32932   2.462   6.587   3.218
10678SOL    HW132933   2.513   6.503   3.202
10678SOL    HW232934   2.494   6.631   3.302
10679SOL     OW32935   5.559   5.168   4.495
10679SOL    HW132936   5.633   5.188   4.559
10679SOL    HW232937   5.597   5.162   4.402
10680SOL     OW32938   1.420   2.088   3.637
10680SOL    HW132939   1.455   2.148   3.710
10680SOL    HW232940   1.409   2.141   3.553
10681SOL     OW32941   0.273   1.059   5.820
10681SOL    HW132942   0.369   1.084   5.835
10681SOL    HW232943   0.267   0.994   5.744
10682SOL     OW32944   6.837   1.612   2.943
10682SOL    HW132945   6.745   1.649   2.958
10682SOL    HW232946   6.859   1.547   3.014
10683SOL     OW32947   2.096   1.883   4.667
10683SOL    HW132948   2.136   1.918   4.582
10683SOL    HW232949   2.063   1.959   4.722
10684SOL     OW32950   5.739   5.602   0.475
10684SOL    HW132951   5.690   5.558   0.551
10684SOL    HW232952   5.690   5.685   0.448
10685SOL     OW32953   0.005   2.607   2.386
10685SOL    HW132954   6.922   2.585   2.364
10685SOL    HW232955   0.008   2.690   2.442
10686SOL     OW32956   3.670   4.974   0.517
10686SOL    HW132957   3.667   5.072   0.496
10686SOL    HW232958   3.674   4.923   0.431
10687SOL     OW32959   0.593   4.812   2.344
10687SOL    HW132960   0.621   4.864   2.425
10687SOL    HW232961   0.572   4.876   2.270
10688SOL     OW32962   6.571   5.278   2.006
10688SOL    HW132963   6.598   5.371   1.979
10688SOL    HW232964   6.652   5.229   2.038
10689SOL     OW32965   0.092   0.864   1.850
10689SOL    HW132966   0.037   0.944   1.873
10689SOL    HW232967   0.180   0.894   1.813
10690SOL     OW32968   4.446   5.371   1.752
10690SOL    HW132969   4.482   5.447   1.807
10690SOL    HW232970   4.467   5.285   1.798
10691SOL     OW32971   6.966   1.534   1.335
10691SOL    HW132972   6.876   1.572   1.312
10691SOL    HW232973   6.961   1.434   1.336
10692SOL     OW32974   4.383   5.955   3.939
10692SOL    HW132975   4.296   5.914   3.909
10692SOL    HW232976   4.414   5.910   4.023
10693SOL     OW32977   6.392   2.240   1.942
10693SOL    HW132978   6.368   2.143   1.953
10693SOL    HW232979   6.491   2.250   1.942
10694SOL     OW32980   3.866   6.383   0.649
10694SOL    HW132981   3.884   6.285   0.652
10694SOL    HW232982   3.825   6.407   0.561
10695SOL     OW32983   6.218   3.394   4.191
10695SOL    HW132984   6.181   3.441   4.272
10695SOL    HW232985   6.305   3.435   4.165
10696SOL     OW32986   6.213   6.490   1.427
10696SOL    HW132987   6.173   6.426   1.361
10696SOL    HW232988   6.280   6.442   1.484
10697SOL     OW32989   2.960   6.128   3.268
10697SOL    HW132990   2.945   6.122   3.169
10697SOL    HW232991   2.878   6.164   3.312
10698SOL     OW32992   3.028   0.567   3.246
10698SOL    HW132993   3.084   0.565   3.164
10698SOL    HW232994   2.932   0.555   3.222
10699SOL     OW32995   2.227   2.150   2.453
10699SOL    HW132996   2.182   2.091   2.521
10699SOL    HW232997   2.192   2.127   2.362
10700SOL     OW32998   6.356   0.738   1.624
10700SOL    HW132999   6.263   0.743   1.588
10700SOL    HW233000   6.355   0.700   1.716
10701SOL     OW33001   3.442   6.367   0.688
10701SOL    HW133002   3.531   6.355   0.642
10701SOL    HW233003   3.421   6.464   0.695
10702SOL     OW33004   6.273   3.251   1.361
10702SOL    HW133005   6.267   3.216   1.268
10702SOL    HW233006   6.264   3.176   1.426
10703SOL     OW33007   4.082   3.387   3.586
10703SOL    HW133008   4.072   3.414   3.681
10703SOL    HW233009   4.109   3.466   3.531
10704SOL     OW33010   5.628   6.549   2.168
10704SOL    HW133011   5.679   6.490   2.106
10704SOL    HW233012   5.565   6.493   2.223
10705SOL     OW33013   0.424   2.506   6.560
10705SOL    HW133014   0.385   2.577   6.502
10705SOL    HW233015   0.360   2.482   6.633
10706SOL     OW33016   3.555   1.351   2.145
10706SOL    HW133017   3.599   1.402   2.219
10706SOL    HW233018   3.557   1.406   2.061
10707SOL     OW33019   6.378   0.208   5.825
10707SOL    HW133020   6.467   0.229   5.784
10707SOL    HW233021   6.388   0.202   5.924
10708SOL     OW33022   4.375   0.941   1.193
10708SOL    HW133023   4.367   1.002   1.113
10708SOL    HW233024   4.284   0.918   1.226
10709SOL     OW33025   0.432   6.515   6.172
10709SOL    HW133026   0.369   6.487   6.100
10709SOL    HW233027   0.416   6.459   6.254
10710SOL     OW33028   6.182   5.657   3.270
10710SOL    HW133029   6.156   5.750   3.297
10710SOL    HW233030   6.270   5.634   3.310
10711SOL     OW33031   1.932   5.585   4.902
10711SOL    HW133032   1.873   5.656   4.941
10711SOL    HW233033   1.882   5.536   4.831
10712SOL     OW33034   4.007   1.661   5.087
10712SOL    HW133035   4.038   1.624   4.999
10712SOL    HW233036   4.047   1.752   5.101
10713SOL     OW33037   1.137   6.294   1.250
10713SOL    HW133038   1.182   6.312   1.163
10713SOL    HW233039   1.201   6.248   1.312
10714SOL     OW33040   6.809   5.223   4.991
10714SOL    HW133041   6.776   5.140   5.036
10714SOL    HW233042   6.759   5.236   4.906
10715SOL     OW33043   6.284   1.258   3.751
10715SOL    HW133044   6.188   1.287   3.749
10715SOL    HW233045   6.308   1.214   3.665
10716SOL     OW33046   6.261   0.572   3.126
10716SOL    HW133047   6.286   0.643   3.191
10716SOL    HW233048   6.286   0.482   3.163
10717SOL     OW33049   6.459   6.429   2.029
10717SOL    HW133050   6.465   6.371   1.949
10717SOL    HW233051   6.547   6.432   2.075
10718SOL     OW33052   0.109   4.600   6.285
10718SOL    HW133053   0.032   4.585   6.222
10718SOL    HW233054   0.195   4.588   6.236
10719SOL     OW33055   4.515   0.873   2.292
10719SOL    HW133056   4.564   0.786   2.295
10719SOL    HW233057   4.468   0.889   2.379
10720SOL     OW33058   0.845   3.463   0.245
10720SOL    HW133059   0.929   3.443   0.195
10720SOL    HW233060   0.846   3.558   0.276
10721SOL     OW33061   4.665   2.724   4.032
10721SOL    HW133062   4.744   2.691   4.084
10721SOL    HW233063   4.677   2.820   4.009
10722SOL     OW33064   0.316   4.118   0.704
10722SOL    HW133065   0.274   4.112   0.794
10722SOL    HW233066   0.267   4.184   0.648
10723SOL     OW33067   6.286   4.034   0.296
10723SOL    HW133068   6.370   4.058   0.248
10723SOL    HW233069   6.235   4.117   0.319
10724SOL     OW33070   3.732   6.694   5.290
10724SOL    HW133071   3.784   6.626   5.239
10724SOL    HW233072   3.702   6.654   5.377
10725SOL     OW33073   6.747   6.717   4.693
10725SOL    HW133074   6.744   6.699   4.594
10725SOL    HW233075   6.796   6.802   4.710
10726SOL     OW33076   5.165   0.919   4.832
10726SOL    HW133077   5.218   0.979   4.892
10726SOL    HW233078   5.145   0.834   4.881
10727SOL     OW33079   1.887   6.126   6.738
10727SOL    HW133080   1.824   6.168   6.672
10727SOL    HW233081   1.952   6.194   6.770
10728SOL     OW33082   5.712   5.695   3.307
10728SOL    HW133083   5.794   5.674   3.361
10728SOL    HW233084   5.693   5.793   3.313
10729SOL     OW33085   5.858   3.398   3.998
10729SOL    HW133086   5.865   3.337   4.077
10729SOL    HW233087   5.806   3.354   3.926
10730SOL     OW33088   1.850   5.527   2.862
10730SOL    HW133089   1.901   5.598   2.814
10730SOL    HW233090   1.885   5.437   2.836
10731SOL     OW33091   4.691   6.574   6.743
10731SOL    HW133092   4.654   6.660   6.779
10731SOL    HW233093   4.766   6.543   6.801
10732SOL     OW33094   5.916   5.843   3.137
10732SOL    HW133095   5.838   5.869   3.193
10732SOL    HW233096   6.001   5.871   3.183
10733SOL     OW33097   0.382   1.170   6.322
10733SOL    HW133098   0.392   1.201   6.416
10733SOL    HW233099   0.463   1.117   6.296
10734SOL     OW33100   1.543   1.059   4.295
10734SOL    HW133101   1.557   1.091   4.389
10734SOL    HW233102   1.510   0.965   4.297
10735SOL     OW33103   6.703   6.357   2.212
10735SOL    HW133104   6.750   6.439   2.178
10735SOL    HW233105   6.735   6.335   2.304
10736SOL     OW33106   5.932   6.447   3.865
10736SOL    HW133107   6.030   6.438   3.884
10736SOL    HW233108   5.880   6.392   3.930
10737SOL     OW33109   6.348   1.472   2.181
10737SOL    HW133110   6.304   1.382   2.177
10737SOL    HW233111   6.298   1.536   2.121
10738SOL     OW33112   3.822   0.760   1.217
10738SOL    HW133113   3.817   0.774   1.316
10738SOL    HW233114   3.762   0.826   1.171
10739SOL     OW33115   5.556   2.745   3.744
10739SOL    HW133116   5.609   2.698   3.815
10739SOL    HW233117   5.459   2.726   3.757
10740SOL     OW33118   2.501   0.227   5.617
10740SOL    HW133119   2.569   0.163   5.581
10740SOL    HW233120   2.541   0.281   5.691
10741SOL     OW33121   2.003   2.047   3.723
10741SOL    HW133122   2.029   1.956   3.692
10741SOL    HW233123   1.959   2.097   3.648
10742SOL     OW33124   6.167   6.150   2.602
10742SOL    HW133125   6.139   6.064   2.560
10742SOL    HW233126   6.254   6.137   2.650
10743SOL     OW33127   2.715   1.671   5.558
10743SOL    HW133128   2.617   1.691   5.569
10743SOL    HW233129   2.726   1.588   5.502
10744SOL     OW33130   2.002   1.096   0.252
10744SOL    HW133131   1.906   1.071   0.238
10744SOL    HW233132   2.007   1.172   0.317
10745SOL     OW33133   1.685   4.242   2.280
10745SOL    HW133134   1.639   4.161   2.315
10745SOL    HW233135   1.620   4.317   2.274
10746SOL     OW33136   1.568   6.474   6.643
10746SOL    HW133137   1.492   6.535   6.662
10746SOL    HW233138   1.572   6.454   6.545
10747SOL     OW33139   6.339   1.244   4.861
10747SOL    HW133140   6.282   1.198   4.929
10747SOL    HW233141   6.434   1.214   4.870
10748SOL     OW33142   3.250   6.565   1.266
10748SOL    HW133143   3.321   6.635   1.265
10748SOL    HW233144   3.261   6.505   1.186
10749SOL     OW33145   5.922   4.442   1.717
10749SOL    HW133146   5.898   4.417   1.623
10749SOL    HW233147   5.841   4.478   1.764
10750SOL     OW33148   4.264   2.214   4.368
10750SOL    HW133149   4.314   2.276   4.429
10750SOL    HW233150   4.240   2.262   4.284
10751SOL     OW33151   0.650   5.814   4.303
10751SOL    HW133152   0.609   5.752   4.370
10751SOL    HW233153   0.747   5.794   4.294
10752SOL     OW33154   6.347   6.589   0.412
10752SOL    HW133155   6.416   6.605   0.483
10752SOL    HW233156   6.265   6.552   0.455
10753SOL     OW33157   5.259   6.698   4.254
10753SOL    HW133158   5.192   6.772   4.265
10753SOL    HW233159   5.286   6.665   4.344
10754SOL     OW33160   0.736   4.158   2.407
10754SOL    HW133161   0.790   4.121   2.332
10754SOL    HW233162   0.784   4.236   2.448
10755SOL     OW33163   0.192   2.897   1.122
10755SOL    HW133164   0.117   2.885   1.057
10755SOL    HW233165   0.274   2.926   1.074
10756SOL     OW33166   1.275   0.684   0.845
10756SOL    HW133167   1.294   0.587   0.859
10756SOL    HW233168   1.177   0.696   0.828
10757SOL     OW33169   0.393   3.787   1.718
10757SOL    HW133170   0.474   3.730   1.716
10757SOL    HW233171   0.343   3.773   1.804
10758SOL     OW33172   0.730   0.324   0.082
10758SOL    HW133173   0.700   0.241   0.033
10758SOL    HW233174   0.735   0.305   0.180
10759SOL     OW33175   2.572   2.427   5.716
10759SOL    HW133176   2.658   2.385   5.686
10759SOL    HW233177   2.511   2.437   5.638
10760SOL     OW33178   0.988   4.950   6.510
10760SOL    HW133179   0.945   4.860   6.511
10760SOL    HW233180   0.943   5.007   6.442
10761SOL     OW33181   1.018   1.797   5.804
10761SOL    HW133182   1.040   1.703   5.778
10761SOL    HW233183   0.997   1.850   5.722
10762SOL     OW33184   2.785   5.987   6.600
10762SOL    HW133185   2.753   5.977   6.695
10762SOL    HW233186   2.868   5.933   6.587
10763SOL     OW33187   4.970   0.156   3.883
10763SOL    HW133188   5.009   0.186   3.796
10763SOL    HW233189   4.884   0.203   3.899
10764SOL     OW33190   4.376   6.635   4.597
10764SOL    HW133191   4.341   6.543   4.616
10764SOL    HW233192   4.343   6.666   4.508
10765SOL     OW33193   0.246   2.451   2.449
10765SOL    HW133194   0.180   2.527   2.448
10765SOL    HW233195   0.208   2.373   2.399
10766SOL     OW33196   2.103   4.954   0.041
10766SOL    HW133197   2.099   4.860   0.008
10766SOL    HW233198   2.017   4.977   0.087
10767SOL     OW33199   1.269   5.265   6.980
10767SOL    HW133200   1.226   5.259   0.059
10767SOL    HW233201   1.368   5.267   6.990
10768SOL     OW33202   5.338   6.217   0.100
10768SOL    HW133203   5.376   6.214   0.008
10768SOL    HW233204   5.271   6.144   0.111
10769SOL     OW33205   3.184   3.043   4.340
10769SOL    HW133206   3.234   3.015   4.422
10769SOL    HW233207   3.227   3.003   4.259
10770SOL     OW33208   5.799   6.961   3.297
10770SOL    HW133209   5.886   6.935   3.255
10770SOL    HW233210   5.773   0.040   3.266
10771SOL     OW33211   4.585   5.994   5.951
10771SOL    HW133212   4.610   6.067   6.015
10771SOL    HW233213   4.488   6.000   5.931
10772SOL     OW33214   5.905   5.157   2.608
10772SOL    HW133215   5.958   5.211   2.543
10772SOL    HW233216   5.821   5.126   2.565
10773SOL     OW33217   0.115   3.554   1.082
10773SOL    HW133218   0.214   3.551   1.092
10773SOL    HW233219   0.083   3.467   1.044
10774SOL     OW33220   0.933   3.201   1.008
10774SOL    HW133221   0.878   3.247   1.078
10774SOL    HW233222   0.904   3.106   1.001
10775SOL     OW33223   1.806   4.203   0.718
10775SOL    HW133224   1.841   4.223   0.810
10775SOL    HW233225   1.842   4.115   0.687
10776SOL     OW33226   0.583   2.433   4.296
10776SOL    HW133227   0.522   2.388   4.231
10776SOL    HW233228   0.661   2.472   4.247
10777SOL     OW33229   2.666   0.835   1.537
10777SOL    HW133230   2.607   0.905   1.578
10777SOL    HW233231   2.610   0.774   1.480
10778SOL     OW33232   5.440   0.252   2.928
10778SOL    HW133233   5.518   0.294   2.881
10778SOL    HW233234   5.379   0.211   2.861
10779SOL     OW33235   5.612   3.730   5.366
10779SOL    HW133236   5.538   3.769   5.310
10779SOL    HW233237   5.573   3.663   5.429
10780SOL     OW33238   2.000   5.459   4.584
10780SOL    HW133239   1.953   5.544   4.561
10780SOL    HW233240   1.943   5.381   4.558
10781SOL     OW33241   5.619   2.314   4.710
10781SOL    HW133242   5.608   2.332   4.807
10781SOL    HW233243   5.670   2.389   4.667
10782SOL     OW33244   1.089   1.330   5.396
10782SOL    HW133245   1.090   1.339   5.296
10782SOL    HW233246   1.119   1.415   5.438
10783SOL     OW33247   1.209   2.515   3.709
10783SOL    HW133248   1.223   2.564   3.623
10783SOL    HW233249   1.111   2.507   3.727
10784SOL     OW33250   3.951   5.775   2.820
10784SOL    HW133251   4.043   5.788   2.782
10784SOL    HW233252   3.944   5.825   2.906
10785SOL     OW33253   1.197   5.196   1.668
10785SOL    HW133254   1.168   5.101   1.657
10785SOL    HW233255   1.258   5.202   1.747
10786SOL     OW33256   4.191   1.718   2.320
10786SOL    HW133257   4.290   1.705   2.312
10786SOL    HW233258   4.171   1.814   2.335
10787SOL     OW33259   4.256   0.840   3.264
10787SOL    HW133260   4.321   0.838   3.189
10787SOL    HW233261   4.163   0.837   3.228
10788SOL     OW33262   1.842   3.925   0.122
10788SOL    HW133263   1.764   3.970   0.166
10788SOL    HW233264   1.825   3.916   0.024
10789SOL     OW33265   6.662   1.316   1.557
10789SOL    HW133266   6.724   1.238   1.569
10789SOL    HW233267   6.587   1.309   1.623
10790SOL     OW33268   0.554   1.519   5.745
10790SOL    HW133269   0.626   1.575   5.703
10790SOL    HW233270   0.549   1.432   5.698
10791SOL     OW33271   1.522   1.847   3.600
10791SOL    HW133272   1.486   1.940   3.606
10791SOL    HW233273   1.450   1.785   3.570
10792SOL     OW33274   3.885   2.100   2.452
10792SOL    HW133275   3.863   2.023   2.512
10792SOL    HW233276   3.803   2.126   2.400
10793SOL     OW33277   4.380   1.841   4.867
10793SOL    HW133278   4.408   1.805   4.778
10793SOL    HW233279   4.450   1.820   4.935
10794SOL     OW33280   5.146   2.012   1.075
10794SOL    HW133281   5.197   1.936   1.034
10794SOL    HW233282   5.153   2.006   1.174
10795SOL     OW33283   7.006   3.273   3.341
10795SOL    HW133284   0.071   3.238   3.288
10795SOL    HW233285   7.004   3.373   3.335
10796SOL     OW33286   0.552   0.002   6.114
10796SOL    HW133287   0.485   7.003   6.188
10796SOL    HW233288   0.507   7.000   6.026
10797SOL     OW33289   4.547   4.790   6.685
10797SOL    HW133290   4.450   4.784   6.708
10797SOL    HW233291   4.567   4.730   6.608
10798SOL     OW33292   1.387   6.860   6.512
10798SOL    HW133293   1.382   6.949   6.557
10798SOL    HW233294   1.296   6.836   6.476
10799SOL     OW33295   2.980   1.115   2.685
10799SOL    HW133296   2.980   1.182   2.611
10799SOL    HW233297   2.978   1.162   2.773
10800SOL     OW33298   2.260   0.078   5.659
10800SOL    HW133299   2.276   0.050   5.753
10800SOL    HW233300   2.342   0.125   5.624
10801SOL     OW33301   2.726   6.021   6.332
10801SOL    HW133302   2.750   5.992   6.425
10801SOL    HW233303   2.742   6.119   6.323
10802SOL     OW33304   0.879   5.363   4.325
10802SOL    HW133305   0.808   5.434   4.323
10802SOL    HW233306   0.882   5.321   4.416
10803SOL     OW33307   0.060   3.994   4.392
10803SOL    HW133308   0.152   3.954   4.394
10803SOL    HW233309   0.063   4.082   4.345
10804SOL     OW33310   4.940   4.561   1.026
10804SOL    HW133311   4.860   4.602   1.071
10804SOL    HW233312   5.003   4.527   1.096
10805SOL     OW33313   3.880   6.040   0.358
10805SOL    HW133314   3.945   5.969   0.387
10805SOL    HW233315   3.795   5.997   0.329
10806SOL     OW33316   6.291   3.954   6.433
10806SOL    HW133317   6.280   3.911   6.523
10806SOL    HW233318   6.202   3.961   6.388
10807SOL     OW33319   4.588   0.031   3.949
10807SOL    HW133320   4.633   0.120   3.945
10807SOL    HW233321   4.656   6.970   3.936
10808SOL     OW33322   0.728   2.300   0.118
10808SOL    HW133323   0.638   2.322   0.154
10808SOL    HW233324   0.741   2.345   0.029
10809SOL     OW33325   3.359   0.955   3.382
10809SOL    HW133326   3.411   0.948   3.467
10809SOL    HW233327   3.298   1.034   3.386
10810SOL     OW33328   1.086   1.668   6.905
10810SOL    HW133329   1.115   1.694   6.997
10810SOL    HW233330   1.066   1.570   6.903
10811SOL     OW33331   4.856   4.552   5.890
10811SOL    HW133332   4.887   4.623   5.953
10811SOL    HW233333   4.889   4.574   5.798
10812SOL     OW33334   0.030   2.438   2.988
10812SOL    HW133335   6.971   2.454   2.920
10812SOL    HW233336   0.103   2.506   2.977
10813SOL     OW33337   3.172   5.651   2.535
10813SOL    HW133338   3.234   5.681   2.463
10813SOL    HW233339   3.081   5.635   2.496
10814SOL     OW33340   1.982   6.042   5.094
10814SOL    HW133341   2.033   6.086   5.020
10814SOL    HW233342   1.994   6.094   5.178
10815SOL     OW33343   4.428   2.459   3.606
10815SOL    HW133344   4.408   2.399   3.529
10815SOL    HW233345   4.363   2.441   3.680
10816SOL     OW33346   1.858   2.450   1.884
10816SOL    HW133347   1.958   2.442   1.882
10816SOL    HW233348   1.818   2.362   1.908
10817SOL     OW33349   4.703   6.644   1.920
10817SOL    HW133350   4.757   6.728   1.923
10817SOL    HW233351   4.751   6.572   1.971
10818SOL     OW33352   4.418   2.936   6.372
10818SOL    HW133353   4.375   3.024   6.391
10818SOL    HW233354   4.384   2.899   6.285
10819SOL     OW33355   0.576   3.816   5.638
10819SOL    HW133356   0.523   3.828   5.555
10819SOL    HW233357   0.672   3.802   5.615
10820SOL     OW33358   0.213   0.352   4.530
10820SOL    HW133359   0.308   0.338   4.504
10820SOL    HW233360   0.174   0.266   4.563
10821SOL     OW33361   6.842   0.200   1.072
10821SOL    HW133362   6.794   0.285   1.047
10821SOL    HW233363   6.899   0.217   1.153
10822SOL     OW33364   1.174   4.927   0.752
10822SOL    HW133365   1.109   4.975   0.810
10822SOL    HW233366   1.232   4.993   0.705
10823SOL     OW33367   1.104   1.926   2.012
10823SOL    HW133368   1.086   1.964   2.103
10823SOL    HW233369   1.101   2.000   1.945
10824SOL     OW33370   5.249   0.367   3.430
10824SOL    HW133371   5.274   0.276   3.462
10824SOL    HW233372   5.316   0.398   3.362
10825SOL     OW33373   3.816   1.897   0.890
10825SOL    HW133374   3.868   1.823   0.849
10825SOL    HW233375   3.878   1.961   0.936
10826SOL     OW33376   6.921   2.776   1.461
10826SOL    HW133377   6.950   2.681   1.459
10826SOL    HW233378   6.909   2.805   1.556
10827SOL     OW33379   1.307   2.453   4.155
10827SOL    HW133380   1.393   2.456   4.205
10827SOL    HW233381   1.315   2.507   4.071
10828SOL     OW33382   1.206   6.264   0.041
10828SOL    HW133383   1.200   6.351   7.003
10828SOL    HW233384   1.302   6.238   0.052
10829SOL     OW33385   2.327   3.729   1.674
10829SOL    HW133386   2.306   3.653   1.737
10829SOL    HW233387   2.342   3.812   1.727
10830SOL     OW33388   5.335   1.543   4.027
10830SOL    HW133389   5.299   1.508   4.113
10830SOL    HW233390   5.373   1.634   4.042
10831SOL     OW33391   5.119   3.074   3.189
10831SOL    HW133392   5.131   3.098   3.092
10831SOL    HW233393   5.089   3.155   3.240
10832SOL     OW33394   6.815   2.439   2.835
10832SOL    HW133395   6.764   2.523   2.816
10832SOL    HW233396   6.789   2.368   2.770
10833SOL     OW33397   3.151   0.332   4.406
10833SOL    HW133398   3.211   0.294   4.477
10833SOL    HW233399   3.193   0.318   4.316
10834SOL     OW33400   6.902   1.418   5.272
10834SOL    HW133401   6.807   1.416   5.302
10834SOL    HW233402   6.906   1.407   5.173
10835SOL     OW33403   6.642   2.005   2.759
10835SOL    HW133404   6.636   1.920   2.810
10835SOL    HW233405   6.648   1.985   2.661
10836SOL     OW33406   1.784   2.552   0.630
10836SOL    HW133407   1.814   2.647   0.641
10836SOL    HW233408   1.686   2.546   0.651
10837SOL     OW33409   1.149   5.848   1.651
10837SOL    HW133410   1.161   5.795   1.567
10837SOL    HW233411   1.214   5.816   1.720
10838SOL     OW33412   6.308   6.907   0.980
10838SOL    HW133413   6.304   6.814   0.943
10838SOL    HW233414   6.247   6.967   0.927
10839SOL     OW33415   1.822   1.383   0.152
10839SOL    HW133416   1.797   1.435   0.071
10839SOL    HW233417   1.772   1.297   0.155
10840SOL     OW33418   3.603   5.098   2.706
10840SOL    HW133419   3.519   5.054   2.735
10840SOL    HW233420   3.615   5.184   2.754
10841SOL     OW33421   4.729   3.300   5.886
10841SOL    HW133422   4.751   3.344   5.799
10841SOL    HW233423   4.774   3.211   5.891
10842SOL     OW33424   6.753   3.007   1.031
10842SOL    HW133425   6.704   3.044   1.110
10842SOL    HW233426   6.802   2.925   1.058
10843SOL     OW33427   0.450   1.139   1.952
10843SOL    HW133428   0.529   1.095   1.911
10843SOL    HW233429   0.403   1.194   1.882
10844SOL     OW33430   3.423   7.006   3.352
10844SOL    HW133431   3.360   7.011   3.429
10844SOL    HW233432   3.509   6.964   3.381
10845SOL     OW33433   1.511   3.244   0.894
10845SOL    HW133434   1.415   3.230   0.918
10845SOL    HW233435   1.521   3.236   0.795
10846SOL     OW33436   3.967   1.887   1.912
10846SOL    HW133437   4.062   1.858   1.904
10846SOL    HW233438   3.964   1.986   1.925
10847SOL     OW33439   3.790   2.436   6.229
10847SOL    HW133440   3.849   2.364   6.267
10847SOL    HW233441   3.843   2.520   6.218
10848SOL     OW33442   0.823   1.240   0.696
10848SOL    HW133443   0.817   1.175   0.620
10848SOL    HW233444   0.759   1.211   0.768
10849SOL     OW33445   2.709   5.087   4.366
10849SOL    HW133446   2.713   4.988   4.373
10849SOL    HW233447   2.643   5.122   4.432
10850SOL     OW33448   5.817   0.593   2.099
10850SOL    HW133449   5.750   0.595   2.025
10850SOL    HW233450   5.857   0.501   2.106
10851SOL     OW33451   3.913   2.016   6.390
10851SOL    HW133452   3.943   2.110   6.376
10851SOL    HW233453   3.985   1.965   6.438
10852SOL     OW33454   0.313   6.382   6.390
10852SOL    HW133455   0.249   6.306   6.378
10852SOL    HW233456   0.262   6.467   6.405
10853SOL     OW33457   2.020   0.889   4.697
10853SOL    HW133458   2.004   0.964   4.632
10853SOL    HW233459   2.020   0.802   4.648
10854SOL     OW33460   0.130   6.361   1.034
10854SOL    HW133461   0.057   6.382   1.100
10854SOL    HW233462   0.209   6.418   1.054
10855SOL     OW33463   1.505   5.810   2.131
10855SOL    HW133464   1.428   5.747   2.123
10855SOL    HW233465   1.504   5.873   2.053
10856SOL     OW33466   6.005   0.306   6.623
10856SOL    HW133467   5.918   0.345   6.595
10856SOL    HW233468   6.071   0.379   6.638
10857SOL     OW33469   6.384   0.484   5.148
10857SOL    HW133470   6.417   0.578   5.143
10857SOL    HW233471   6.363   0.451   5.057
10858SOL     OW33472   2.122   1.956   0.241
10858SOL    HW133473   2.183   1.957   0.161
10858SOL    HW233474   2.058   2.032   0.235
10859SOL     OW33475   0.927   5.953   2.237
10859SOL    HW133476   1.019   5.988   2.217
10859SOL    HW233477   0.861   5.997   2.176
10860SOL     OW33478   5.804   3.480   0.575
10860SOL    HW133479   5.872   3.552   0.589
10860SOL    HW233480   5.841   3.393   0.607
10861SOL     OW33481   3.152   2.988   1.703
10861SOL    HW133482   3.196   2.952   1.621
10861SOL    HW233483   3.111   2.913   1.755
10862SOL     OW33484   3.456   3.191   5.406
10862SOL    HW133485   3.522   3.116   5.418
10862SOL    HW233486   3.504   3.275   5.382
10863SOL     OW33487   2.130   0.653   3.158
10863SOL    HW133488   2.069   0.700   3.222
10863SOL    HW233489   2.154   0.563   3.194
10864SOL     OW33490   3.107   4.427   1.616
10864SOL    HW133491   3.196   4.387   1.636
10864SOL    HW233492   3.059   4.446   1.701
10865SOL     OW33493   4.091   1.408   2.765
10865SOL    HW133494   4.117   1.473   2.836
10865SOL    HW233495   4.118   1.443   2.675
10866SOL     OW33496   0.052   3.622   3.332
10866SOL    HW133497   7.004   3.590   3.406
10866SOL    HW233498   7.011   3.682   3.271
10867SOL     OW33499   4.695   2.740   1.004
10867SOL    HW133500   4.716   2.756   0.907
10867SOL    HW233501   4.618   2.676   1.011
10868SOL     OW33502   1.514   6.817   4.918
10868SOL    HW133503   1.432   6.861   4.955
10868SOL    HW233504   1.592   6.880   4.925
10869NA      NA33505   0.091   1.188   5.932
10870NA      NA33506   4.402   4.616   5.229
10871NA      NA33507   1.336   4.878   2.717
10872NA      NA33508   5.879   3.991   3.125
10873NA      NA33509   3.846   2.305   5.482
10874NA      NA33510   2.066   4.747   0.437
10875NA      NA33511   1.169   5.300   6.767
10876NA      NA33512   3.656   4.250   0.903
10877NA      NA33513   4.799   4.771   0.197
10878NA      NA33514   3.346   0.939   6.775
10879NA      NA33515   5.556   6.771   1.864
10880NA      NA33516   2.406   6.452   5.675
10881NA      NA33517   4.042   5.086   1.587
10882NA      NA33518   3.600   3.183   6.563
   7.01152   7.01152   7.01152
