Generated by trjconv : CNT in water t= 595.00000
33518
    1C        C    1   2.847   2.773   4.750
    1C        C    2   2.899   2.718   4.869
    1C        C    3   2.843   2.770   4.986
    1C        C    4   2.847   2.775   4.261
    1C        C    5   2.900   2.726   4.383
    1C        C    6   2.846   2.773   4.504
    1C        C    7   3.016   2.647   4.625
    1C        C    8   2.900   2.728   4.627
    1C        C    9   3.076   2.607   4.746
    1C        C   10   3.005   2.625   4.866
    1C        C   11   3.179   2.487   4.973
    1C        C   12   3.058   2.557   4.977
    1C        C   13   2.855   2.774   3.772
    1C        C   14   2.905   2.726   3.895
    1C        C   15   2.854   2.778   4.016
    1C        C   16   3.017   2.646   4.140
    1C        C   17   2.905   2.732   4.140
    1C        C   18   3.079   2.609   4.262
    1C        C   19   3.015   2.644   4.383
    1C        C   20   3.208   2.554   4.506
    1C        C   21   3.080   2.612   4.504
    1C        C   22   3.276   2.532   4.627
    1C        C   23   3.207   2.552   4.749
    1C        C   24   3.414   2.486   4.863
    1C        C   25   3.271   2.498   4.864
    1C        C   26   3.491   2.484   4.979
    1C        C   27   2.852   2.769   3.283
    1C        C   28   2.908   2.729   3.406
    1C        C   29   2.856   2.774   3.530
    1C        C   30   3.022   2.641   3.651
    1C        C   31   2.910   2.726   3.651
    1C        C   32   3.077   2.602   3.776
    1C        C   33   3.014   2.637   3.898
    1C        C   34   3.207   2.549   4.018
    1C        C   35   3.076   2.601   4.020
    1C        C   36   3.274   2.528   4.140
    1C        C   37   3.209   2.555   4.263
    1C        C   38   3.416   2.505   4.380
    1C        C   39   3.277   2.530   4.385
    1C        C   40   3.488   2.498   4.502
    1C        C   41   3.414   2.500   4.622
    1C        C   42   3.629   2.488   4.741
    1C        C   43   3.487   2.485   4.741
    1C        C   44   3.704   2.487   4.860
    1C        C   45   3.630   2.479   4.979
    1C        C   46   2.840   2.752   2.794
    1C        C   47   2.897   2.711   2.916
    1C        C   48   2.849   2.761   3.039
    1C        C   49   3.023   2.640   3.161
    1C        C   50   2.904   2.717   3.162
    1C        C   51   3.081   2.607   3.285
    1C        C   52   3.020   2.642   3.407
    1C        C   53   3.209   2.546   3.529
    1C        C   54   3.079   2.601   3.528
    1C        C   55   3.276   2.525   3.652
    1C        C   56   3.208   2.549   3.773
    1C        C   57   3.413   2.501   3.893
    1C        C   58   3.275   2.528   3.896
    1C        C   59   3.483   2.501   4.015
    1C        C   60   3.413   2.500   4.138
    1C        C   61   3.627   2.494   4.258
    1C        C   62   3.486   2.492   4.258
    1C        C   63   3.700   2.510   4.378
    1C        C   64   3.629   2.504   4.500
    1C        C   65   3.838   2.546   4.622
    1C        C   66   3.701   2.512   4.621
    1C        C   67   3.907   2.565   4.744
    1C        C   68   3.838   2.530   4.863
    1C        C   69   4.051   2.588   4.978
    1C        C   70   3.922   2.535   4.975
    1C        C   71   2.826   2.731   2.307
    1C        C   72   2.889   2.694   2.428
    1C        C   73   2.837   2.745   2.549
    1C        C   74   3.011   2.628   2.673
    1C        C   75   2.892   2.704   2.672
    1C        C   76   3.077   2.598   2.794
    1C        C   77   3.015   2.633   2.916
    1C        C   78   3.211   2.550   3.038
    1C        C   79   3.079   2.600   3.038
    1C        C   80   3.276   2.529   3.162
    1C        C   81   3.209   2.547   3.285
    1C        C   82   3.413   2.491   3.403
    1C        C   83   3.274   2.518   3.407
    1C        C   84   3.485   2.490   3.524
    1C        C   85   3.414   2.496   3.647
    1C        C   86   3.624   2.501   3.769
    1C        C   87   3.483   2.491   3.770
    1C        C   88   3.694   2.511   3.891
    1C        C   89   3.625   2.502   4.014
    1C        C   90   3.832   2.549   4.136
    1C        C   91   3.696   2.510   4.136
    1C        C   92   3.903   2.572   4.256
    1C        C   93   3.837   2.547   4.378
    1C        C   94   4.031   2.633   4.498
    1C        C   95   3.903   2.573   4.500
    1C        C   96   4.090   2.675   4.619
    1C        C   97   4.034   2.628   4.740
    1C        C   98   4.195   2.763   4.864
    1C        C   99   4.104   2.653   4.862
    1C        C  100   4.214   2.843   4.978
    1C        C  101   2.822   2.732   2.070
    1C        C  102   2.993   2.593   2.190
    1C        C  103   2.876   2.675   2.187
    1C        C  104   3.064   2.567   2.310
    1C        C  105   3.007   2.615   2.430
    1C        C  106   3.200   2.530   2.550
    1C        C  107   3.070   2.584   2.552
    1C        C  108   3.273   2.519   2.671
    1C        C  109   3.206   2.541   2.794
    1C        C  110   3.412   2.489   2.916
    1C        C  111   3.274   2.519   2.915
    1C        C  112   3.484   2.487   3.038
    1C        C  113   3.415   2.500   3.161
    1C        C  114   3.628   2.495   3.279
    1C        C  115   3.487   2.492   3.282
    1C        C  116   3.695   2.509   3.403
    1C        C  117   3.626   2.499   3.526
    1C        C  118   3.833   2.545   3.646
    1C        C  119   3.697   2.506   3.648
    1C        C  120   3.897   2.570   3.770
    1C        C  121   3.830   2.547   3.892
    1C        C  122   4.021   2.643   4.013
    1C        C  123   3.898   2.574   4.013
    1C        C  124   4.086   2.677   4.134
    1C        C  125   4.031   2.633   4.256
    1C        C  126   4.194   2.770   4.377
    1C        C  127   4.091   2.673   4.377
    1C        C  128   4.238   2.826   4.499
    1C        C  129   4.193   2.772   4.622
    1C        C  130   4.326   2.937   4.743
    1C        C  131   4.245   2.821   4.744
    1C        C  132   4.358   3.003   4.864
    1C        C  133   4.292   2.959   4.979
    1C        C  134   3.173   2.466   2.079
    1C        C  135   3.040   2.511   2.083
    1C        C  136   3.261   2.474   2.189
    1C        C  137   3.197   2.518   2.307
    1C        C  138   3.407   2.479   2.427
    1C        C  139   3.268   2.503   2.429
    1C        C  140   3.482   2.481   2.547
    1C        C  141   3.411   2.490   2.669
    1C        C  142   3.621   2.486   2.791
    1C        C  143   3.480   2.481   2.792
    1C        C  144   3.692   2.495   2.913
    1C        C  145   3.625   2.488   3.037
    1C        C  146   3.835   2.531   3.155
    1C        C  147   3.698   2.496   3.157
    1C        C  148   3.899   2.562   3.278
    1C        C  149   3.833   2.542   3.401
    1C        C  150   4.024   2.633   3.524
    1C        C  151   3.898   2.570   3.523
    1C        C  152   4.081   2.672   3.647
    1C        C  153   4.022   2.635   3.771
    1C        C  154   4.191   2.769   3.889
    1C        C  155   4.082   2.679   3.891
    1C        C  156   4.243   2.818   4.010
    1C        C  157   4.197   2.765   4.133
    1C        C  158   4.336   2.927   4.252
    1C        C  159   4.247   2.816   4.255
    1C        C  160   4.370   2.989   4.374
    1C        C  161   4.331   2.933   4.497
    1C        C  162   4.442   3.113   4.616
    1C        C  163   4.369   2.992   4.620
    1C        C  164   4.468   3.184   4.735
    1C        C  165   4.436   3.120   4.857
    1C        C  166   4.515   3.321   4.973
    1C        C  167   4.482   3.186   4.972
    1C        C  168   3.478   2.438   2.072
    1C        C  169   3.401   2.457   2.187
    1C        C  170   3.620   2.461   2.304
    1C        C  171   3.477   2.461   2.306
    1C        C  172   3.692   2.485   2.423
    1C        C  173   3.623   2.484   2.546
    1C        C  174   3.828   2.534   2.669
    1C        C  175   3.691   2.499   2.669
    1C        C  176   3.897   2.557   2.790
    1C        C  177   3.828   2.534   2.911
    1C        C  178   4.024   2.623   3.032
    1C        C  179   3.898   2.559   3.032
    1C        C  180   4.085   2.661   3.154
    1C        C  181   4.024   2.628   3.277
    1C        C  182   4.191   2.757   3.398
    1C        C  183   4.082   2.667   3.399
    1C        C  184   4.243   2.806   3.520
    1C        C  185   4.191   2.760   3.643
    1C        C  186   4.334   2.920   3.764
    1C        C  187   4.242   2.813   3.764
    1C        C  188   4.373   2.982   3.885
    1C        C  189   4.331   2.928   4.009
    1C        C  190   4.450   3.105   4.126
    1C        C  191   4.377   2.984   4.130
    1C        C  192   4.476   3.170   4.248
    1C        C  193   4.440   3.112   4.372
    1C        C  194   4.511   3.312   4.493
    1C        C  195   4.471   3.177   4.494
    1C        C  196   4.530   3.387   4.611
    1C        C  197   4.513   3.319   4.734
    1C        C  198   4.559   3.534   4.853
    1C        C  199   4.533   3.393   4.854
    1C        C  200   4.591   3.620   4.962
    1C        C  201   3.617   2.422   2.070
    1C        C  202   3.827   2.517   2.181
    1C        C  203   3.694   2.462   2.184
    1C        C  204   3.897   2.540   2.302
    1C        C  205   3.829   2.518   2.424
    1C        C  206   4.018   2.620   2.542
    1C        C  207   3.893   2.553   2.545
    1C        C  208   4.078   2.658   2.664
    1C        C  209   4.021   2.625   2.789
    1C        C  210   4.196   2.748   2.910
    1C        C  211   4.080   2.667   2.910
    1C        C  212   4.248   2.799   3.031
    1C        C  213   4.193   2.752   3.152
    1C        C  214   4.334   2.911   3.274
    1C        C  215   4.243   2.802   3.275
    1C        C  216   4.372   2.972   3.396
    1C        C  217   4.328   2.919   3.519
    1C        C  218   4.433   3.105   3.637
    1C        C  219   4.366   2.981   3.640
    1C        C  220   4.467   3.169   3.758
    1C        C  221   4.442   3.105   3.882
    1C        C  222   4.509   3.308   4.003
    1C        C  223   4.474   3.171   4.003
    1C        C  224   4.517   3.378   4.126
    1C        C  225   4.508   3.308   4.248
    1C        C  226   4.525   3.521   4.369
    1C        C  227   4.522   3.380   4.369
    1C        C  228   4.529   3.598   4.487
    1C        C  229   4.537   3.528   4.609
    1C        C  230   4.505   3.740   4.727
    1C        C  231   4.538   3.602   4.730
    1C        C  232   4.501   3.819   4.843
    1C        C  233   4.552   3.754   4.956
    1C        C  234   4.021   2.604   2.062
    1C        C  235   3.896   2.543   2.062
    1C        C  236   4.085   2.647   2.179
    1C        C  237   4.023   2.607   2.299
    1C        C  238   4.194   2.736   2.421
    1C        C  239   4.084   2.646   2.420
    1C        C  240   4.246   2.789   2.542
    1C        C  241   4.189   2.746   2.664
    1C        C  242   4.330   2.905   2.785
    1C        C  243   4.244   2.793   2.785
    1C        C  244   4.374   2.964   2.905
    1C        C  245   4.337   2.909   3.030
    1C        C  246   4.438   3.095   3.148
    1C        C  247   4.376   2.968   3.152
    1C        C  248   4.458   3.163   3.270
    1C        C  249   4.434   3.099   3.393
    1C        C  250   4.506   3.302   3.513
    1C        C  251   4.463   3.167   3.514
    1C        C  252   4.516   3.372   3.635
    1C        C  253   4.505   3.305   3.759
    1C        C  254   4.528   3.516   3.878
    1C        C  255   4.523   3.375   3.880
    1C        C  256   4.520   3.588   4.000
    1C        C  257   4.518   3.519   4.123
    1C        C  258   4.490   3.728   4.241
    1C        C  259   4.512   3.589   4.246
    1C        C  260   4.467   3.798   4.362
    1C        C  261   4.490   3.734   4.485
    1C        C  262   4.431   3.941   4.603
    1C        C  263   4.472   3.805   4.606
    1C        C  264   4.401   4.008   4.723
    1C        C  265   4.437   3.945   4.844
    1C        C  266   4.321   4.128   4.958
    1C        C  267   4.393   4.009   4.961
    1C        C  268   4.256   2.781   2.063
    1C        C  269   4.200   2.729   2.181
    1C        C  270   4.344   2.891   2.302
    1C        C  271   4.253   2.781   2.301
    1C        C  272   4.385   2.954   2.421
    1C        C  273   4.339   2.895   2.541
    1C        C  274   4.444   3.082   2.659
    1C        C  275   4.372   2.960   2.662
    1C        C  276   4.473   3.149   2.780
    1C        C  277   4.443   3.087   2.903
    1C        C  278   4.510   3.290   3.023
    1C        C  279   4.473   3.154   3.024
    1C        C  280   4.520   3.364   3.143
    1C        C  281   4.501   3.298   3.267
    1C        C  282   4.522   3.509   3.389
    1C        C  283   4.519   3.368   3.389
    1C        C  284   4.522   3.581   3.510
    1C        C  285   4.526   3.513   3.634
    1C        C  286   4.498   3.725   3.750
    1C        C  287   4.520   3.585   3.755
    1C        C  288   4.470   3.788   3.874
    1C        C  289   4.488   3.725   3.999
    1C        C  290   4.422   3.930   4.114
    1C        C  291   4.474   3.798   4.119
    1C        C  292   4.395   3.995   4.237
    1C        C  293   4.422   3.931   4.360
    1C        C  294   4.317   4.118   4.478
    1C        C  295   4.399   4.002   4.480
    1C        C  296   4.276   4.179   4.599
    1C        C  297   4.323   4.127   4.721
    1C        C  298   4.199   4.309   4.837
    1C        C  299   4.283   4.193   4.840
    1C        C  300   4.172   4.400   4.945
    1C        C  301   4.353   2.880   2.061
    1C        C  302   4.469   3.065   2.177
    1C        C  303   4.393   2.944   2.179
    1C        C  304   4.488   3.141   2.296
    1C        C  305   4.452   3.078   2.418
    1C        C  306   4.512   3.283   2.534
    1C        C  307   4.478   3.146   2.538
    1C        C  308   4.516   3.354   2.656
    1C        C  309   4.507   3.286   2.780
    1C        C  310   4.534   3.499   2.898
    1C        C  311   4.526   3.358   2.900
    1C        C  312   4.524   3.572   3.018
    1C        C  313   4.530   3.505   3.142
    1C        C  314   4.492   3.714   3.263
    1C        C  315   4.520   3.576   3.264
    1C        C  316   4.478   3.786   3.383
    1C        C  317   4.498   3.721   3.507
    1C        C  318   4.421   3.921   3.626
    1C        C  319   4.478   3.792   3.628
    1C        C  320   4.386   3.981   3.749
    1C        C  321   4.416   3.919   3.872
    1C        C  322   4.306   4.105   3.991
    1C        C  323   4.385   3.988   3.991
    1C        C  324   4.268   4.165   4.113
    1C        C  325   4.317   4.113   4.235
    1C        C  326   4.182   4.279   4.355
    1C        C  327   4.278   4.175   4.355
    1C        C  328   4.130   4.335   4.474
    1C        C  329   4.183   4.286   4.596
    1C        C  330   4.024   4.432   4.711
    1C        C  331   4.139   4.349   4.714
    1C        C  332   3.970   4.487   4.830
    1C        C  333   4.052   4.472   4.942
    1C        C  334   4.553   3.263   2.062
    1C        C  335   4.533   3.124   2.064
    1C        C  336   4.544   3.348   2.173
    1C        C  337   4.525   3.278   2.294
    1C        C  338   4.524   3.496   2.410
    1C        C  339   4.522   3.355   2.412
    1C        C  340   4.526   3.565   2.533
    1C        C  341   4.527   3.494   2.655
    1C        C  342   4.501   3.707   2.772
    1C        C  343   4.531   3.569   2.775
    1C        C  344   4.475   3.775   2.893
    1C        C  345   4.496   3.711   3.017
    1C        C  346   4.419   3.909   3.137
    1C        C  347   4.475   3.780   3.139
    1C        C  348   4.387   3.976   3.258
    1C        C  349   4.425   3.917   3.380
    1C        C  350   4.313   4.098   3.502
    1C        C  351   4.392   3.981   3.501
    1C        C  352   4.271   4.158   3.623
    1C        C  353   4.313   4.102   3.746
    1C        C  354   4.167   4.259   3.866
    1C        C  355   4.263   4.156   3.866
    1C        C  356   4.117   4.309   3.988
    1C        C  357   4.172   4.268   4.112
    1C        C  358   4.007   4.402   4.229
    1C        C  359   4.124   4.322   4.233
    1C        C  360   3.947   4.443   4.350
    1C        C  361   4.016   4.418   4.470
    1C        C  362   3.827   4.517   4.592
    1C        C  363   3.957   4.462   4.591
    1C        C  364   3.762   4.548   4.714
    1C        C  365   3.839   4.540   4.832
    1C        C  366   3.630   4.599   4.947
    1C        C  367   3.765   4.567   4.947
    1C        C  368   4.510   3.563   2.050
    1C        C  369   4.521   3.488   2.167
    1C        C  370   4.496   3.704   2.282
    1C        C  371   4.516   3.564   2.286
    1C        C  372   4.479   3.771   2.405
    1C        C  373   4.496   3.703   2.528
    1C        C  374   4.421   3.902   2.650
    1C        C  375   4.479   3.774   2.649
    1C        C  376   4.391   3.971   2.770
    1C        C  377   4.425   3.907   2.891
    1C        C  378   4.315   4.089   3.011
    1C        C  379   4.392   3.970   3.013
    1C        C  380   4.265   4.145   3.131
    1C        C  381   4.306   4.092   3.256
    1C        C  382   4.168   4.250   3.376
    1C        C  383   4.266   4.149   3.379
    1C        C  384   4.117   4.301   3.498
    1C        C  385   4.171   4.258   3.621
    1C        C  386   4.003   4.389   3.741
    1C        C  387   4.119   4.308   3.742
    1C        C  388   3.941   4.425   3.863
    1C        C  389   4.004   4.395   3.985
    1C        C  390   3.817   4.495   4.109
    1C        C  391   3.945   4.436   4.107
    1C        C  392   3.748   4.521   4.229
    1C        C  393   3.819   4.503   4.349
    1C        C  394   3.618   4.564   4.472
    1C        C  395   3.756   4.536   4.471
    1C        C  396   3.547   4.572   4.595
    1C        C  397   3.622   4.563   4.714
    1C        C  398   3.409   4.556   4.837
    1C        C  399   3.549   4.576   4.835
    1C        C  400   3.345   4.516   4.956
    1C        C  401   4.503   3.702   2.047
    1C        C  402   4.451   3.915   2.167
    1C        C  403   4.488   3.779   2.163
    1C        C  404   4.408   3.975   2.288
    1C        C  405   4.437   3.906   2.407
    1C        C  406   4.323   4.088   2.525
    1C        C  407   4.401   3.970   2.528
    1C        C  408   4.275   4.145   2.645
    1C        C  409   4.313   4.089   2.769
    1C        C  410   4.168   4.244   2.889
    1C        C  411   4.271   4.147   2.891
    1C        C  412   4.115   4.292   3.011
    1C        C  413   4.166   4.245   3.134
    1C        C  414   3.995   4.375   3.252
    1C        C  415   4.111   4.295   3.255
    1C        C  416   3.938   4.412   3.375
    1C        C  417   3.999   4.379   3.498
    1C        C  418   3.810   4.479   3.618
    1C        C  419   3.938   4.420   3.619
    1C        C  420   3.744   4.501   3.741
    1C        C  421   3.811   4.481   3.864
    1C        C  422   3.610   4.541   3.987
    1C        C  423   3.748   4.512   3.986
    1C        C  424   3.539   4.553   4.108
    1C        C  425   3.609   4.548   4.231
    1C        C  426   3.401   4.558   4.355
    1C        C  427   3.542   4.567   4.353
    1C        C  428   3.331   4.550   4.478
    1C        C  429   3.406   4.560   4.598
    1C        C  430   3.195   4.520   4.721
    1C        C  431   3.333   4.554   4.718
    1C        C  432   3.124   4.498   4.842
    1C        C  433   3.208   4.495   4.954
    1C        C  434   4.386   4.123   2.055
    1C        C  435   4.444   3.996   2.053
    1C        C  436   4.300   4.160   2.164
    1C        C  437   4.329   4.093   2.285
    1C        C  438   4.177   4.246   2.403
    1C        C  439   4.279   4.148   2.405
    1C        C  440   4.120   4.295   2.523
    1C        C  441   4.176   4.247   2.644
    1C        C  442   4.003   4.371   2.764
    1C        C  443   4.118   4.290   2.765
    1C        C  444   3.940   4.405   2.886
    1C        C  445   3.999   4.371   3.010
    1C        C  446   3.809   4.475   3.129
    1C        C  447   3.936   4.414   3.129
    1C        C  448   3.745   4.499   3.253
    1C        C  449   3.813   4.478   3.375
    1C        C  450   3.607   4.534   3.496
    1C        C  451   3.746   4.506   3.496
    1C        C  452   3.537   4.547   3.619
    1C        C  453   3.608   4.539   3.740
    1C        C  454   3.399   4.545   3.863
    1C        C  455   3.540   4.548   3.864
    1C        C  456   3.330   4.539   3.986
    1C        C  457   3.398   4.552   4.110
    1C        C  458   3.194   4.508   4.237
    1C        C  459   3.330   4.545   4.234
    1C        C  460   3.128   4.486   4.359
    1C        C  461   3.194   4.516   4.480
    1C        C  462   2.996   4.436   4.603
    1C        C  463   3.125   4.493   4.602
    1C        C  464   2.933   4.401   4.724
    1C        C  465   2.989   4.450   4.846
    1C        C  466   2.798   4.340   4.957
    1C        C  467   2.908   4.428   4.961
    1C        C  468   4.126   4.288   2.041
    1C        C  469   4.185   4.245   2.161
    1C        C  470   4.005   4.369   2.275
    1C        C  471   4.122   4.289   2.280
    1C        C  472   3.942   4.400   2.398
    1C        C  473   4.003   4.373   2.523
    1C        C  474   3.809   4.463   2.641
    1C        C  475   3.940   4.411   2.644
    1C        C  476   3.743   4.486   2.763
    1C        C  477   3.812   4.466   2.885
    1C        C  478   3.606   4.521   3.007
    1C        C  479   3.745   4.495   3.005
    1C        C  480   3.536   4.538   3.129
    1C        C  481   3.607   4.531   3.250
    1C        C  482   3.397   4.537   3.376
    1C        C  483   3.538   4.541   3.373
    1C        C  484   3.326   4.537   3.498
    1C        C  485   3.396   4.550   3.620
    1C        C  486   3.189   4.503   3.746
    1C        C  487   3.326   4.541   3.742
    1C        C  488   3.126   4.475   3.869
    1C        C  489   3.194   4.502   3.990
    1C        C  490   3.003   4.419   4.116
    1C        C  491   3.130   4.480   4.114
    1C        C  492   2.943   4.386   4.239
    1C        C  493   3.001   4.423   4.362
    1C        C  494   2.829   4.298   4.483
    1C        C  495   2.937   4.389   4.484
    1C        C  496   2.780   4.248   4.605
    1C        C  497   2.825   4.308   4.725
    1C        C  498   2.666   4.163   4.846
    1C        C  499   2.755   4.273   4.842
    1C        C  500   2.595   4.115   4.957
    1C        C  501   4.005   4.356   2.041
    1C        C  502   3.815   4.471   2.155
    1C        C  503   3.942   4.409   2.155
    1C        C  504   3.746   4.488   2.277
    1C        C  505   3.813   4.457   2.397
    1C        C  506   3.606   4.516   2.517
    1C        C  507   3.744   4.485   2.517
    1C        C  508   3.536   4.521   2.640
    1C        C  509   3.605   4.515   2.763
    1C        C  510   3.393   4.529   2.886
    1C        C  511   3.534   4.524   2.885
    1C        C  512   3.322   4.528   3.008
    1C        C  513   3.395   4.539   3.129
    1C        C  514   3.192   4.492   3.255
    1C        C  515   3.328   4.531   3.253
    1C        C  516   3.126   4.464   3.377
    1C        C  517   3.190   4.499   3.499
    1C        C  518   3.002   4.409   3.623
    1C        C  519   3.126   4.478   3.623
    1C        C  520   2.943   4.371   3.746
    1C        C  521   3.002   4.407   3.869
    1C        C  522   2.836   4.286   3.997
    1C        C  523   2.945   4.375   3.994
    1C        C  524   2.793   4.232   4.120
    1C        C  525   2.839   4.290   4.241
    1C        C  526   2.695   4.132   4.362
    1C        C  527   2.782   4.244   4.362
    1C        C  528   2.653   4.076   4.485
    1C        C  529   2.689   4.140   4.605
    1C        C  530   2.585   3.959   4.729
    1C        C  531   2.640   4.090   4.728
    1C        C  532   2.543   3.902   4.852
    1C        C  533   2.528   3.992   4.962
    1C        C  534   3.620   4.559   2.040
    1C        C  535   3.750   4.509   2.037
    1C        C  536   3.536   4.536   2.153
    1C        C  537   3.606   4.516   2.275
    1C        C  538   3.393   4.519   2.398
    1C        C  539   3.535   4.525   2.396
    1C        C  540   3.323   4.513   2.520
    1C        C  541   3.395   4.514   2.642
    1C        C  542   3.186   4.483   2.766
    1C        C  543   3.323   4.517   2.764
    1C        C  544   3.120   4.465   2.889
    1C        C  545   3.185   4.493   3.011
    1C        C  546   2.999   4.398   3.133
    1C        C  547   3.121   4.469   3.135
    1C        C  548   2.941   4.360   3.256
    1C        C  549   3.000   4.401   3.378
    1C        C  550   2.830   4.281   3.504
    1C        C  551   2.941   4.368   3.503
    1C        C  552   2.782   4.230   3.627
    1C        C  553   2.837   4.277   3.748
    1C        C  554   2.707   4.119   3.875
    1C        C  555   2.792   4.232   3.874
    1C        C  556   2.663   4.062   3.997
    1C        C  557   2.702   4.124   4.117
    1C        C  558   2.597   3.943   4.245
    1C        C  559   2.659   4.070   4.241
    1C        C  560   2.571   3.878   4.368
    1C        C  561   2.590   3.949   4.488
    1C        C  562   2.529   3.748   4.615
    1C        C  563   2.559   3.886   4.611
    1C        C  564   2.510   3.682   4.739
    1C        C  565   2.520   3.761   4.857
    1C        C  566   2.528   3.549   4.975
    1C        C  567   2.520   3.688   4.976
    1C        C  568   3.326   4.477   2.039
    1C        C  569   3.396   4.509   2.156
    1C        C  570   3.183   4.476   2.280
    1C        C  571   3.321   4.510   2.277
    1C        C  572   3.114   4.458   2.402
    1C        C  573   3.185   4.482   2.522
    1C        C  574   2.991   4.399   2.643
    1C        C  575   3.118   4.461   2.644
    1C        C  576   2.932   4.361   2.765
    1C        C  577   2.995   4.398   2.887
    1C        C  578   2.830   4.271   3.016
    1C        C  579   2.940   4.360   3.011
    1C        C  580   2.781   4.219   3.137
    1C        C  581   2.834   4.268   3.259
    1C        C  582   2.699   4.112   3.384
    1C        C  583   2.783   4.226   3.383
    1C        C  584   2.664   4.055   3.509
    1C        C  585   2.697   4.117   3.631
    1C        C  586   2.597   3.933   3.757
    1C        C  587   2.662   4.058   3.755
    1C        C  588   2.566   3.871   3.880
    1C        C  589   2.596   3.938   4.001
    1C        C  590   2.532   3.738   4.125
    1C        C  591   2.570   3.874   4.125
    1C        C  592   2.524   3.672   4.249
    1C        C  593   2.530   3.743   4.372
    1C        C  594   2.512   3.533   4.496
    1C        C  595   2.517   3.674   4.495
    1C        C  596   2.516   3.466   4.620
    1C        C  597   2.505   3.540   4.740
    1C        C  598   2.530   3.328   4.863
    1C        C  599   2.521   3.469   4.861
    1C        C  600   2.527   3.246   4.976
    1C        C  601   3.193   4.439   2.042
    1C        C  602   2.982   4.392   2.159
    1C        C  603   3.118   4.438   2.160
    1C        C  604   2.921   4.358   2.283
    1C        C  605   2.986   4.400   2.402
    1C        C  606   2.818   4.269   2.529
    1C        C  607   2.927   4.359   2.523
    1C        C  608   2.771   4.217   2.652
    1C        C  609   2.825   4.269   2.771
    1C        C  610   2.691   4.108   2.895
    1C        C  611   2.779   4.218   2.895
    1C        C  612   2.656   4.048   3.018
    1C        C  613   2.695   4.107   3.140
    1C        C  614   2.591   3.926   3.265
    1C        C  615   2.656   4.051   3.264
    1C        C  616   2.568   3.865   3.390
    1C        C  617   2.598   3.930   3.512
    1C        C  618   2.529   3.731   3.637
    1C        C  619   2.569   3.867   3.635
    1C        C  620   2.513   3.664   3.760
    1C        C  621   2.529   3.735   3.881
    1C        C  622   2.509   3.526   4.010
    1C        C  623   2.518   3.667   4.004
    1C        C  624   2.512   3.456   4.132
    1C        C  625   2.516   3.531   4.252
    1C        C  626   2.536   3.321   4.379
    1C        C  627   2.516   3.461   4.375
    1C        C  628   2.560   3.255   4.502
    1C        C  629   2.540   3.327   4.622
    1C        C  630   2.596   3.121   4.746
    1C        C  631   2.551   3.255   4.743
    1C        C  632   2.616   3.048   4.867
    1C        C  633   2.561   3.110   4.984
    1C        C  634   2.782   4.301   2.052
    1C        C  635   2.891   4.389   2.049
    1C        C  636   2.749   4.227   2.166
    1C        C  637   2.811   4.268   2.286
    1C        C  638   2.676   4.106   2.409
    1C        C  639   2.768   4.213   2.409
    1C        C  640   2.639   4.046   2.532
    1C        C  641   2.683   4.107   2.652
    1C        C  642   2.582   3.922   2.777
    1C        C  643   2.648   4.047   2.775
    1C        C  644   2.560   3.855   2.900
    1C        C  645   2.591   3.923   3.020
    1C        C  646   2.526   3.724   3.150
    1C        C  647   2.560   3.861   3.143
    1C        C  648   2.512   3.656   3.273
    1C        C  649   2.530   3.729   3.393
    1C        C  650   2.505   3.519   3.517
    1C        C  651   2.518   3.660   3.516
    1C        C  652   2.509   3.452   3.641
    1C        C  653   2.508   3.522   3.764
    1C        C  654   2.535   3.315   3.888
    1C        C  655   2.512   3.455   3.888
    1C        C  656   2.557   3.250   4.011
    1C        C  657   2.542   3.318   4.134
    1C        C  658   2.608   3.120   4.258
    1C        C  659   2.554   3.250   4.258
    1C        C  660   2.638   3.057   4.381
    1C        C  661   2.610   3.123   4.503
    1C        C  662   2.708   2.937   4.628
    1C        C  663   2.631   3.055   4.625
    1C        C  664   2.751   2.879   4.749
    1C        C  665   2.703   2.934   4.870
    1C        C  666   2.740   2.863   4.985
    1C        C  667   2.683   4.018   2.053
    1C        C  668   2.687   4.100   2.166
    1C        C  669   2.587   3.912   2.292
    1C        C  670   2.643   4.043   2.288
    1C        C  671   2.555   3.847   2.413
    1C        C  672   2.578   3.919   2.533
    1C        C  673   2.515   3.719   2.660
    1C        C  674   2.554   3.855   2.657
    1C        C  675   2.508   3.649   2.783
    1C        C  676   2.526   3.718   2.905
    1C        C  677   2.502   3.510   3.030
    1C        C  678   2.514   3.651   3.030
    1C        C  679   2.504   3.439   3.152
    1C        C  680   2.505   3.515   3.271
    1C        C  681   2.529   3.308   3.400
    1C        C  682   2.507   3.448   3.395
    1C        C  683   2.550   3.241   3.523
    1C        C  684   2.536   3.313   3.643
    1C        C  685   2.605   3.114   3.770
    1C        C  686   2.553   3.245   3.766
    1C        C  687   2.636   3.052   3.893
    1C        C  688   2.601   3.115   4.014
    1C        C  689   2.712   2.935   4.139
    1C        C  690   2.634   3.053   4.137
    1C        C  691   2.757   2.884   4.262
    1C        C  692   2.712   2.937   4.385
    1C        C  693   2.752   2.878   4.507
    1C        C  694   2.634   3.887   2.060
    1C        C  695   2.532   3.699   2.175
    1C        C  696   2.580   3.831   2.176
    1C        C  697   2.509   3.636   2.300
    1C        C  698   2.518   3.711   2.419
    1C        C  699   2.487   3.504   2.542
    1C        C  700   2.497   3.644   2.542
    1C        C  701   2.499   3.434   2.664
    1C        C  702   2.502   3.508   2.785
    1C        C  703   2.530   3.300   2.908
    1C        C  704   2.507   3.439   2.908
    1C        C  705   2.549   3.233   3.031
    1C        C  706   2.531   3.300   3.154
    1C        C  707   2.603   3.106   3.278
    1C        C  708   2.551   3.238   3.280
    1C        C  709   2.637   3.047   3.402
    1C        C  710   2.606   3.111   3.524
    1C        C  711   2.711   2.930   3.648
    1C        C  712   2.636   3.050   3.647
    1C        C  713   2.762   2.881   3.770
    1C        C  714   2.721   2.939   3.892
    1C        C  715   2.760   2.884   4.016
    1C        C  716   2.449   3.494   2.061
    1C        C  717   2.490   3.628   2.062
    1C        C  718   2.465   3.421   2.183
    1C        C  719   2.478   3.497   2.303
    1C        C  720   2.513   3.287   2.425
    1C        C  721   2.487   3.425   2.424
    1C        C  722   2.535   3.220   2.548
    1C        C  723   2.526   3.296   2.667
    1C        C  724   2.596   3.094   2.789
    1C        C  725   2.546   3.226   2.789
    1C        C  726   2.626   3.033   2.913
    1C        C  727   2.597   3.101   3.033
    1C        C  728   2.710   2.923   3.157
    1C        C  729   2.631   3.040   3.157
    1C        C  730   2.757   2.873   3.281
    1C        C  731   2.717   2.931   3.403
    1C        C  732   2.756   2.874   3.527
    1C        C  733   2.498   3.198   2.069
    1C        C  734   2.485   3.280   2.183
    1C        C  735   2.584   3.087   2.305
    1C        C  736   2.525   3.216   2.304
    1C        C  737   2.614   3.020   2.426
    1C        C  738   2.588   3.089   2.546
    1C        C  739   2.700   2.908   2.668
    1C        C  740   2.626   3.028   2.668
    1C        C  741   2.740   2.853   2.792
    1C        C  742   2.706   2.916   2.913
    1C        C  743   2.755   2.866   3.036
    1C        C  744   2.548   3.069   2.074
    1C        C  745   2.681   2.893   2.187
    1C        C  746   2.615   3.018   2.186
    1C        C  747   2.731   2.837   2.307
    1C        C  748   2.689   2.900   2.426
    1C        C  749   2.743   2.851   2.547
    1C        C  750   2.735   2.840   2.070
    1C        C  751   3.657   2.305   1.988
    1C        O  752   3.695   2.194   2.034
    1C        O  753   3.621   2.297   1.853
    1C        C  754   4.644   3.053   1.997
    1C        O  755   4.690   3.093   1.887
    1C        O  756   4.740   2.987   2.075
    1C        C  757   4.469   4.229   1.993
    1C        O  758   4.505   4.338   2.044
    1C        O  759   4.500   4.224   1.857
    1C        C  760   3.597   4.686   1.966
    1C        O  761   3.627   4.794   2.023
    1C        O  762   3.588   4.680   1.827
    1C        C  763   2.889   4.490   1.941
    1C        O  764   2.927   4.469   1.822
    1C        O  765   2.843   4.621   1.962
    1C        C  766   2.332   3.463   1.975
    1C        O  767   2.344   3.460   1.849
    1C        O  768   2.212   3.524   2.012
    1C        C  769   4.719   3.592   5.032
    1C        O  770   4.719   3.519   5.135
    1C        O  771   4.838   3.617   4.963
    1C        C  772   4.281   4.461   5.026
    1C        O  773   4.317   4.423   5.140
    1C        O  774   4.342   4.583   4.994
    1C        C  775   4.143   2.508   5.062
    1C        O  776   4.196   2.402   5.019
    1C        O  777   4.213   2.572   5.165
    1C        C  778   2.889   4.543   5.053
    1C        O  779   2.809   4.637   5.027
    1C        O  780   2.873   4.526   5.191
    1C        C  781   2.476   3.033   5.077
    1C        O  782   2.360   3.011   5.035
    1C        O  783   2.486   3.050   5.215
    1C        C  784   2.408   3.993   5.049
    1C        O  785   2.288   4.005   5.014
    1C        O  786   2.419   4.016   5.186
    1C        C  787   2.950   2.443   1.986
    1C        O  788   2.923   2.489   1.872
    1C        O  789   2.894   2.320   2.015
    1C        C  790   3.187   2.367   5.059
    1C        O  791   3.180   2.250   5.012
    1C        O  792   3.187   2.376   5.199
    1C        H  793   4.314   2.999   5.076
    1C        H  794   4.209   2.795   5.073
    1C        H  795   4.516   3.124   5.053
    1C        H  796   4.495   3.375   5.063
    1C        H  797   4.616   3.819   5.012
    1C        H  798   4.385   3.949   5.049
    1C        H  799   4.286   4.164   5.053
    1C        H  800   4.045   4.549   5.016
    1C        H  801   3.811   4.558   5.043
    1C        H  802   3.594   4.650   5.035
    1C        H  803   3.403   4.485   5.040
    1C        H  804   3.167   4.481   5.052
    1C        H  805   3.897   2.471   5.057
    1C        H  806   3.671   2.412   5.052
    1C        H  807   2.993   2.544   5.061
    1C        H  808   3.448   2.546   5.056
    1C        H  809   2.873   2.738   5.084
    1C        H  810   2.664   2.843   5.057
    1C        H  811   2.546   3.295   5.069
    1C        H  812   2.508   3.503   5.069
    1C        H  813   2.529   3.740   5.069
    1C        H  814   2.605   4.167   5.050
    1C        H  815   2.722   4.365   5.028
    1C        H  816   2.715   2.886   1.975
    1C        H  817   2.862   2.705   1.974
    1C        H  818   3.211   2.442   1.982
    1C        H  819   3.428   2.430   1.978
    1C        H  820   3.850   2.517   1.969
    1C        H  821   4.084   2.575   1.981
    1C        H  822   4.242   2.725   1.973
    1C        H  823   4.382   2.922   1.967
    1C        H  824   4.578   3.306   1.967
    1C        H  825   4.466   3.515   1.965
    1C        H  826   4.493   3.749   1.952
    1C        H  827   3.810   4.541   1.954
    1C        H  828   3.970   4.394   1.947
    1C        H  829   4.152   4.236   1.951
    1C        H  830   4.489   3.960   1.963
    1C        H  831   2.620   3.834   1.968
    1C        H  832   2.760   4.036   1.981
    1C        H  833   2.731   4.297   1.958
    1C        H  834   3.371   4.499   1.944
    1C        H  835   3.167   4.369   1.966
    1C        H  836   2.511   3.006   1.996
    1C        H  837   2.481   3.237   1.971
    1C        H  838   2.451   3.689   1.983
    2V3OU   H29  839   2.810   3.548   6.457
    2V3OU   C27  840   2.782   3.501   6.555
    2V3OU   H27  841   2.723   3.573   6.617
    2V3OU   H28  842   2.731   3.401   6.548
    2V3OU   O11  843   2.903   3.482   6.628
    2V3OU   C15  844   2.918   3.399   6.737
    2V3OU   C13  845   3.051   3.373   6.779
    2V3OU   C14  846   3.073   3.265   6.865
    2V3OU   C16  847   2.969   3.185   6.913
    2V3OU    H6  848   2.990   3.107   6.988
    2V3OU   C12  849   3.213   3.231   6.896
    2V3OU    O2  850   3.239   3.123   6.953
    2V3OU   C10  851   3.325   3.304   6.833
    2V3OU    C8  852   3.458   3.265   6.844
    2V3OU   O10  853   3.488   3.150   6.911
    2V3OU   H26  854   3.401   3.114   6.935
    2V3OU    C6  855   3.562   3.347   6.790
    2V3OU    C5  856   3.535   3.466   6.725
    2V3OU    C4  857   3.701   3.291   6.789
    2V3OU    H4  858   3.722   3.226   6.878
    2V3OU    H5  859   3.707   3.225   6.697
    2V3OU    C2  860   3.812   3.396   6.781
    2V3OU    O6  861   3.806   3.477   6.898
    2V3OU   H21  862   3.755   3.557   6.876
    2V3OU    C3  863   3.779   3.495   6.669
    2V3OU    H2  864   3.859   3.574   6.662
    2V3OU    H3  865   3.782   3.438   6.573
    2V3OU   C25  866   3.947   3.330   6.753
    2V3OU    O7  867   3.993   3.301   6.642
    2V3OU   C26  868   4.029   3.294   6.876
    2V3OU   H22  869   4.064   3.385   6.930
    2V3OU   H23  870   4.117   3.233   6.845
    2V3OU    O8  871   3.961   3.210   6.966
    2V3OU   H24  872   3.928   3.263   0.017
    2V3OU    C1  873   3.643   3.561   6.684
    2V3OU    H1  874   3.620   3.616   6.588
    2V3OU    O3  875   3.663   3.654   6.791
    2V3OU   C19  876   3.624   3.790   6.768
    2V3OU    H9  877   3.521   3.798   6.722
    2V3OU    O4  878   3.719   3.844   6.680
    2V3OU   C20  879   3.845   3.872   6.740
    2V3OU   H10  880   3.893   3.770   6.751
    2V3OU   C24  881   3.612   3.856   6.906
    2V3OU   H16  882   3.541   3.794   6.966
    2V3OU   H17  883   3.573   3.961   6.895
    2V3OU   C23  884   3.749   3.871   6.973
    2V3OU   H15  885   3.790   3.766   6.992
    2V3OU    N1  886   3.738   3.960   0.064
    2V3OU   H19  887   3.804   3.933   0.133
    2V3OU   H20  888   3.646   3.934   0.095
    2V3OU   C21  889   3.842   3.947   6.874
    2V3OU   H11  890   3.943   3.926   6.919
    2V3OU    O5  891   3.825   4.088   6.867
    2V3OU   H18  892   3.779   4.104   6.951
    2V3OU   C22  893   3.912   3.946   6.626
    2V3OU   H12  894   3.857   4.042   6.606
    2V3OU   H13  895   3.903   3.892   6.529
    2V3OU   H14  896   4.023   3.954   6.644
    2V3OU   C11  897   3.158   3.470   6.752
    2V3OU    O1  898   3.132   3.586   6.716
    2V3OU    C9  899   3.298   3.421   6.758
    2V3OU    C7  900   3.398   3.502   6.705
    2V3OU    O9  901   3.381   3.615   6.627
    2V3OU   H25  902   3.287   3.626   6.603
    2V3OU   C17  903   2.814   3.317   6.786
    2V3OU    H7  904   2.713   3.340   6.753
    2V3OU   C18  905   2.839   3.212   6.873
    2V3OU    H8  906   2.751   3.151   6.900
    3SOL     OW  907   2.545   3.376   5.422
    3SOL    HW1  908   2.494   3.314   5.362
    3SOL    HW2  909   2.494   3.460   5.435
    4SOL     OW  910   1.127   0.370   0.569
    4SOL    HW1  911   1.183   0.304   0.519
    4SOL    HW2  912   1.035   0.334   0.580
    5SOL     OW  913   3.552   1.763   0.202
    5SOL    HW1  914   3.545   1.823   0.281
    5SOL    HW2  915   3.477   1.696   0.203
    6SOL     OW  916   2.997   2.080   1.916
    6SOL    HW1  917   2.947   2.162   1.946
    6SOL    HW2  918   3.069   2.108   1.852
    7SOL     OW  919   1.727   2.929   4.497
    7SOL    HW1  920   1.722   2.955   4.593
    7SOL    HW2  921   1.800   2.982   4.452
    8SOL     OW  922   1.284   1.740   5.871
    8SOL    HW1  923   1.295   1.711   5.966
    8SOL    HW2  924   1.355   1.806   5.847
    9SOL     OW  925   1.839   2.193   5.422
    9SOL    HW1  926   1.938   2.202   5.432
    9SOL    HW2  927   1.799   2.284   5.410
   10SOL     OW  928   5.886   4.826   0.776
   10SOL    HW1  929   5.912   4.760   0.706
   10SOL    HW2  930   5.961   4.891   0.790
   11SOL     OW  931   3.280   1.084   1.006
   11SOL    HW1  932   3.327   1.089   0.918
   11SOL    HW2  933   3.242   0.992   1.019
   12SOL     OW  934   5.849   4.615   1.009
   12SOL    HW1  935   5.854   4.715   1.005
   12SOL    HW2  936   5.813   4.580   0.922
   13SOL     OW  937   4.474   6.102   1.819
   13SOL    HW1  938   4.434   6.140   1.736
   13SOL    HW2  939   4.561   6.148   1.839
   14SOL     OW  940   4.685   5.798   1.158
   14SOL    HW1  941   4.687   5.830   1.064
   14SOL    HW2  942   4.742   5.857   1.215
   15SOL     OW  943   0.225   0.240   6.937
   15SOL    HW1  944   0.129   0.237   6.967
   15SOL    HW2  945   0.252   0.335   6.921
   16SOL     OW  946   2.097   4.897   5.290
   16SOL    HW1  947   2.162   4.899   5.367
   16SOL    HW2  948   2.140   4.849   5.213
   17SOL     OW  949   0.192   2.064   4.413
   17SOL    HW1  950   0.124   2.137   4.411
   17SOL    HW2  951   0.284   2.103   4.404
   18SOL     OW  952   2.402   6.789   5.073
   18SOL    HW1  953   2.431   6.870   5.022
   18SOL    HW2  954   2.333   6.740   5.020
   19SOL     OW  955   4.210   6.070   3.311
   19SOL    HW1  956   4.254   5.989   3.273
   19SOL    HW2  957   4.114   6.071   3.285
   20SOL     OW  958   0.207   1.583   4.611
   20SOL    HW1  959   0.156   1.573   4.696
   20SOL    HW2  960   0.226   1.680   4.595
   21SOL     OW  961   2.114   3.189   1.989
   21SOL    HW1  962   2.181   3.153   1.925
   21SOL    HW2  963   2.090   3.118   2.056
   22SOL     OW  964   0.065   0.127   0.845
   22SOL    HW1  965   0.037   0.223   0.843
   22SOL    HW2  966   0.163   0.121   0.864
   23SOL     OW  967   0.636   5.233   0.477
   23SOL    HW1  968   0.573   5.247   0.553
   23SOL    HW2  969   0.677   5.142   0.484
   24SOL     OW  970   4.570   0.970   5.834
   24SOL    HW1  971   4.559   0.908   5.911
   24SOL    HW2  972   4.537   0.925   5.751
   25SOL     OW  973   2.331   0.361   5.636
   25SOL    HW1  974   2.386   0.438   5.604
   25SOL    HW2  975   2.240   0.365   5.594
   26SOL     OW  976   2.479   6.486   5.449
   26SOL    HW1  977   2.516   6.554   5.384
   26SOL    HW2  978   2.393   6.520   5.487
   27SOL     OW  979   0.283   0.284   1.825
   27SOL    HW1  980   0.328   0.209   1.777
   27SOL    HW2  981   0.280   0.365   1.765
   28SOL     OW  982   2.000   0.416   5.182
   28SOL    HW1  983   2.044   0.488   5.129
   28SOL    HW2  984   1.940   0.456   5.251
   29SOL     OW  985   5.355   0.603   2.221
   29SOL    HW1  986   5.411   0.523   2.240
   29SOL    HW2  987   5.278   0.577   2.162
   30SOL     OW  988   4.485   6.434   4.835
   30SOL    HW1  989   4.559   6.435   4.768
   30SOL    HW2  990   4.468   6.340   4.865
   31SOL     OW  991   5.910   4.257   4.128
   31SOL    HW1  992   5.917   4.179   4.191
   31SOL    HW2  993   5.822   4.302   4.141
   32SOL     OW  994   3.945   1.467   1.298
   32SOL    HW1  995   3.962   1.458   1.200
   32SOL    HW2  996   4.032   1.462   1.347
   33SOL     OW  997   1.769   4.899   5.354
   33SOL    HW1  998   1.684   4.941   5.322
   33SOL    HW2  999   1.846   4.938   5.303
   34SOL     OW 1000   2.434   6.908   5.454
   34SOL    HW1 1001   2.438   6.993   5.506
   34SOL    HW2 1002   2.338   6.887   5.431
   35SOL     OW 1003   0.954   3.253   4.928
   35SOL    HW1 1004   0.874   3.222   4.876
   35SOL    HW2 1005   1.027   3.280   4.865
   36SOL     OW 1006   5.670   1.126   4.794
   36SOL    HW1 1007   5.703   1.059   4.727
   36SOL    HW2 1008   5.673   1.217   4.754
   37SOL     OW 1009   1.179   5.836   3.730
   37SOL    HW1 1010   1.097   5.783   3.706
   37SOL    HW2 1011   1.153   5.912   3.790
   38SOL     OW 1012   0.810   3.533   1.915
   38SOL    HW1 1013   0.808   3.623   1.958
   38SOL    HW2 1014   0.855   3.540   1.826
   39SOL     OW 1015   6.481   5.288   1.411
   39SOL    HW1 1016   6.489   5.212   1.346
   39SOL    HW2 1017   6.396   5.337   1.393
   40SOL     OW 1018   4.281   0.559   5.424
   40SOL    HW1 1019   4.335   0.556   5.508
   40SOL    HW2 1020   4.193   0.513   5.440
   41SOL     OW 1021   0.429   3.513   0.873
   41SOL    HW1 1022   0.400   3.418   0.881
   41SOL    HW2 1023   0.413   3.560   0.961
   42SOL     OW 1024   2.663   3.662   1.000
   42SOL    HW1 1025   2.680   3.713   1.084
   42SOL    HW2 1026   2.691   3.717   0.921
   43SOL     OW 1027   5.032   0.631   3.279
   43SOL    HW1 1028   5.094   0.562   3.242
   43SOL    HW2 1029   5.063   0.722   3.252
   44SOL     OW 1030   6.899   0.846   6.778
   44SOL    HW1 1031   6.883   0.836   6.876
   44SOL    HW2 1032   6.863   0.934   6.747
   45SOL     OW 1033   2.085   3.708   4.793
   45SOL    HW1 1034   2.112   3.665   4.708
   45SOL    HW2 1035   2.088   3.641   4.867
   46SOL     OW 1036   0.795   5.962   4.705
   46SOL    HW1 1037   0.834   5.894   4.767
   46SOL    HW2 1038   0.728   6.017   4.754
   47SOL     OW 1039   0.727   4.033   6.096
   47SOL    HW1 1040   0.796   3.996   6.035
   47SOL    HW2 1041   0.745   4.130   6.112
   48SOL     OW 1042   0.917   4.118   0.222
   48SOL    HW1 1043   0.997   4.179   0.227
   48SOL    HW2 1044   0.909   4.081   0.129
   49SOL     OW 1045   4.005   0.196   6.838
   49SOL    HW1 1046   3.934   0.265   6.857
   49SOL    HW2 1047   4.091   0.225   6.880
   50SOL     OW 1048   5.021   1.993   5.740
   50SOL    HW1 1049   4.956   1.918   5.729
   50SOL    HW2 1050   5.067   1.984   5.828
   51SOL     OW 1051   1.021   6.714   1.414
   51SOL    HW1 1052   0.977   6.683   1.498
   51SOL    HW2 1053   1.039   6.812   1.420
   52SOL     OW 1054   4.912   3.348   2.710
   52SOL    HW1 1055   4.883   3.252   2.700
   52SOL    HW2 1056   4.914   3.392   2.620
   53SOL     OW 1057   4.146   6.332   1.158
   53SOL    HW1 1058   4.181   6.411   1.209
   53SOL    HW2 1059   4.055   6.309   1.192
   54SOL     OW 1060   1.008   1.211   6.354
   54SOL    HW1 1061   1.036   1.179   6.444
   54SOL    HW2 1062   0.991   1.133   6.294
   55SOL     OW 1063   2.857   3.603   6.224
   55SOL    HW1 1064   2.772   3.558   6.198
   55SOL    HW2 1065   2.933   3.538   6.217
   56SOL     OW 1066   1.955   2.406   0.032
   56SOL    HW1 1067   1.936   2.308   0.029
   56SOL    HW2 1068   1.933   2.447   6.966
   57SOL     OW 1069   3.880   6.167   1.615
   57SOL    HW1 1070   3.867   6.265   1.600
   57SOL    HW2 1071   3.918   6.153   1.707
   58SOL     OW 1072   0.848   0.468   0.385
   58SOL    HW1 1073   0.768   0.481   0.327
   58SOL    HW2 1074   0.925   0.519   0.348
   59SOL     OW 1075   4.678   3.857   6.907
   59SOL    HW1 1076   4.609   3.871   6.978
   59SOL    HW2 1077   4.722   3.944   6.885
   60SOL     OW 1078   6.339   2.496   2.177
   60SOL    HW1 1079   6.262   2.512   2.238
   60SOL    HW2 1080   6.377   2.405   2.195
   61SOL     OW 1081   1.080   4.961   2.492
   61SOL    HW1 1082   1.146   4.994   2.425
   61SOL    HW2 1083   1.017   5.035   2.516
   62SOL     OW 1084   5.075   3.974   2.955
   62SOL    HW1 1085   4.975   3.972   2.952
   62SOL    HW2 1086   5.109   3.884   2.981
   63SOL     OW 1087   4.625   0.172   5.792
   63SOL    HW1 1088   4.678   0.226   5.727
   63SOL    HW2 1089   4.554   0.229   5.832
   64SOL     OW 1090   2.106   1.555   6.636
   64SOL    HW1 1091   2.160   1.476   6.666
   64SOL    HW2 1092   2.073   1.604   6.717
   65SOL     OW 1093   0.616   5.510   5.136
   65SOL    HW1 1094   0.528   5.520   5.183
   65SOL    HW2 1095   0.643   5.414   5.136
   66SOL     OW 1096   4.526   1.596   1.287
   66SOL    HW1 1097   4.580   1.553   1.215
   66SOL    HW2 1098   4.562   1.687   1.306
   67SOL     OW 1099   0.264   2.956   3.046
   67SOL    HW1 1100   0.327   2.911   2.983
   67SOL    HW2 1101   0.300   2.951   3.139
   68SOL     OW 1102   7.003   1.307   5.839
   68SOL    HW1 1103   6.955   1.394   5.853
   68SOL    HW2 1104   6.972   1.266   5.753
   69SOL     OW 1105   1.789   0.866   5.952
   69SOL    HW1 1106   1.888   0.880   5.960
   69SOL    HW2 1107   1.762   0.788   6.009
   70SOL     OW 1108   5.098   5.157   2.827
   70SOL    HW1 1109   5.151   5.136   2.909
   70SOL    HW2 1110   5.147   5.226   2.773
   71SOL     OW 1111   5.818   1.310   5.518
   71SOL    HW1 1112   5.874   1.390   5.498
   71SOL    HW2 1113   5.722   1.338   5.527
   72SOL     OW 1114   6.632   2.094   2.326
   72SOL    HW1 1115   6.690   2.077   2.246
   72SOL    HW2 1116   6.537   2.074   2.304
   73SOL     OW 1117   2.412   1.237   0.572
   73SOL    HW1 1118   2.327   1.201   0.610
   73SOL    HW2 1119   2.471   1.267   0.646
   74SOL     OW 1120   2.873   0.857   0.201
   74SOL    HW1 1121   2.916   0.904   0.123
   74SOL    HW2 1122   2.842   0.925   0.267
   75SOL     OW 1123   2.986   3.279   1.373
   75SOL    HW1 1124   2.896   3.237   1.384
   75SOL    HW2 1125   2.976   3.379   1.373
   76SOL     OW 1126   3.176   4.968   6.210
   76SOL    HW1 1127   3.161   5.061   6.241
   76SOL    HW2 1128   3.163   4.963   6.111
   77SOL     OW 1129   0.380   4.414   5.547
   77SOL    HW1 1130   0.307   4.346   5.552
   77SOL    HW2 1131   0.456   4.386   5.605
   78SOL     OW 1132   4.591   1.415   0.443
   78SOL    HW1 1133   4.540   1.411   0.530
   78SOL    HW2 1134   4.680   1.458   0.459
   79SOL     OW 1135   1.940   4.930   4.344
   79SOL    HW1 1136   2.031   4.973   4.350
   79SOL    HW2 1137   1.912   4.901   4.436
   80SOL     OW 1138   4.556   1.969   5.175
   80SOL    HW1 1139   4.554   1.871   5.154
   80SOL    HW2 1140   4.609   2.017   5.106
   81SOL     OW 1141   2.047   5.076   2.942
   81SOL    HW1 1142   2.066   5.173   2.952
   81SOL    HW2 1143   2.105   5.024   3.005
   82SOL     OW 1144   2.626   0.159   1.000
   82SOL    HW1 1145   2.596   0.087   0.937
   82SOL    HW2 1146   2.713   0.132   1.042
   83SOL     OW 1147   6.130   2.222   3.893
   83SOL    HW1 1148   6.052   2.194   3.948
   83SOL    HW2 1149   6.099   2.242   3.800
   84SOL     OW 1150   5.297   2.042   3.035
   84SOL    HW1 1151   5.272   2.053   2.939
   84SOL    HW2 1152   5.266   2.122   3.086
   85SOL     OW 1153   2.394   5.216   2.902
   85SOL    HW1 1154   2.336   5.240   2.980
   85SOL    HW2 1155   2.483   5.184   2.935
   86SOL     OW 1156   4.951   1.164   5.334
   86SOL    HW1 1157   4.866   1.212   5.313
   86SOL    HW2 1158   4.958   1.082   5.277
   87SOL     OW 1159   2.996   2.161   6.514
   87SOL    HW1 1160   2.922   2.140   6.450
   87SOL    HW2 1161   2.986   2.104   6.596
   88SOL     OW 1162   1.235   2.030   0.106
   88SOL    HW1 1163   1.231   2.101   0.176
   88SOL    HW2 1164   1.168   2.048   0.035
   89SOL     OW 1165   4.007   4.292   5.946
   89SOL    HW1 1166   3.959   4.237   6.016
   89SOL    HW2 1167   4.013   4.387   5.976
   90SOL     OW 1168   0.128   3.888   2.139
   90SOL    HW1 1169   0.129   3.796   2.100
   90SOL    HW2 1170   0.132   3.955   2.065
   91SOL     OW 1171   5.400   4.765   0.730
   91SOL    HW1 1172   5.424   4.818   0.811
   91SOL    HW2 1173   5.473   4.699   0.710
   92SOL     OW 1174   6.709   6.183   6.935
   92SOL    HW1 1175   6.785   6.249   6.937
   92SOL    HW2 1176   6.710   6.135   6.848
   93SOL     OW 1177   2.961   3.203   2.374
   93SOL    HW1 1178   2.974   3.131   2.443
   93SOL    HW2 1179   2.960   3.292   2.419
   94SOL     OW 1180   3.848   1.221   4.414
   94SOL    HW1 1181   3.857   1.121   4.415
   94SOL    HW2 1182   3.818   1.252   4.504
   95SOL     OW 1183   0.456   6.655   3.920
   95SOL    HW1 1184   0.429   6.620   3.830
   95SOL    HW2 1185   0.509   6.739   3.910
   96SOL     OW 1186   0.734   6.975   0.713
   96SOL    HW1 1187   0.831   6.998   0.721
   96SOL    HW2 1188   0.724   6.882   0.677
   97SOL     OW 1189   3.766   4.983   4.952
   97SOL    HW1 1190   3.732   5.075   4.971
   97SOL    HW2 1191   3.826   4.953   5.026
   98SOL     OW 1192   6.734   1.858   5.156
   98SOL    HW1 1193   6.648   1.833   5.201
   98SOL    HW2 1194   6.790   1.776   5.143
   99SOL     OW 1195   5.333   4.642   5.063
   99SOL    HW1 1196   5.386   4.705   5.006
   99SOL    HW2 1197   5.394   4.569   5.095
  100SOL     OW 1198   1.779   1.895   5.507
  100SOL    HW1 1199   1.813   1.984   5.474
  100SOL    HW2 1200   1.795   1.888   5.605
  101SOL     OW 1201   5.252   2.431   2.265
  101SOL    HW1 1202   5.210   2.520   2.283
  101SOL    HW2 1203   5.291   2.430   2.173
  102SOL     OW 1204   5.000   6.662   0.643
  102SOL    HW1 1205   5.091   6.624   0.625
  102SOL    HW2 1206   5.005   6.723   0.722
  103SOL     OW 1207   2.345   2.314   1.188
  103SOL    HW1 1208   2.369   2.411   1.180
  103SOL    HW2 1209   2.417   2.266   1.239
  104SOL     OW 1210   0.996   3.801   1.797
  104SOL    HW1 1211   0.963   3.749   1.718
  104SOL    HW2 1212   0.921   3.817   1.860
  105SOL     OW 1213   0.379   1.800   4.636
  105SOL    HW1 1214   0.335   1.799   4.546
  105SOL    HW2 1215   0.331   1.864   4.696
  106SOL     OW 1216   5.625   2.659   1.147
  106SOL    HW1 1217   5.644   2.588   1.080
  106SOL    HW2 1218   5.531   2.649   1.181
  107SOL     OW 1219   4.901   0.292   2.187
  107SOL    HW1 1220   4.845   0.314   2.267
  107SOL    HW2 1221   4.964   0.218   2.209
  108SOL     OW 1222   4.397   1.156   4.866
  108SOL    HW1 1223   4.451   1.072   4.870
  108SOL    HW2 1224   4.331   1.157   4.941
  109SOL     OW 1225   2.133   1.473   4.411
  109SOL    HW1 1226   2.096   1.385   4.380
  109SOL    HW2 1227   2.126   1.479   4.510
  110SOL     OW 1228   4.496   4.912   5.504
  110SOL    HW1 1229   4.505   4.825   5.553
  110SOL    HW2 1230   4.568   4.974   5.534
  111SOL     OW 1231   6.891   3.541   0.388
  111SOL    HW1 1232   6.880   3.494   0.300
  111SOL    HW2 1233   6.883   3.476   0.463
  112SOL     OW 1234   3.614   6.397   5.020
  112SOL    HW1 1235   3.552   6.324   5.049
  112SOL    HW2 1236   3.634   6.456   5.099
  113SOL     OW 1237   1.284   4.547   2.276
  113SOL    HW1 1238   1.218   4.599   2.330
  113SOL    HW2 1239   1.339   4.489   2.337
  114SOL     OW 1240   6.671   1.856   1.788
  114SOL    HW1 1241   6.653   1.786   1.718
  114SOL    HW2 1242   6.639   1.823   1.877
  115SOL     OW 1243   4.590   0.129   3.408
  115SOL    HW1 1244   4.543   0.215   3.425
  115SOL    HW2 1245   4.558   0.060   3.472
  116SOL     OW 1246   6.087   5.742   6.495
  116SOL    HW1 1247   6.061   5.835   6.518
  116SOL    HW2 1248   6.018   5.678   6.529
  117SOL     OW 1249   1.713   1.846   0.331
  117SOL    HW1 1250   1.762   1.760   0.345
  117SOL    HW2 1251   1.766   1.906   0.271
  118SOL     OW 1252   1.150   2.746   1.553
  118SOL    HW1 1253   1.163   2.657   1.595
  118SOL    HW2 1254   1.097   2.805   1.614
  119SOL     OW 1255   4.994   5.189   4.098
  119SOL    HW1 1256   4.909   5.226   4.133
  119SOL    HW2 1257   5.070   5.215   4.158
  120SOL     OW 1258   4.956   0.742   4.131
  120SOL    HW1 1259   4.952   0.772   4.227
  120SOL    HW2 1260   4.966   0.822   4.072
  121SOL     OW 1261   6.533   5.140   5.933
  121SOL    HW1 1262   6.534   5.110   6.028
  121SOL    HW2 1263   6.612   5.104   5.885
  122SOL     OW 1264   0.335   5.578   5.718
  122SOL    HW1 1265   0.376   5.639   5.650
  122SOL    HW2 1266   0.256   5.531   5.678
  123SOL     OW 1267   0.743   1.863   1.095
  123SOL    HW1 1268   0.782   1.921   1.024
  123SOL    HW2 1269   0.665   1.813   1.057
  124SOL     OW 1270   1.602   3.620   6.875
  124SOL    HW1 1271   1.569   3.605   6.968
  124SOL    HW2 1272   1.523   3.631   6.814
  125SOL     OW 1273   4.005   3.497   1.944
  125SOL    HW1 1274   4.062   3.457   1.872
  125SOL    HW2 1275   3.913   3.460   1.938
  126SOL     OW 1276   3.611   3.273   5.252
  126SOL    HW1 1277   3.590   3.205   5.322
  126SOL    HW2 1278   3.544   3.347   5.257
  127SOL     OW 1279   0.069   4.459   6.165
  127SOL    HW1 1280   0.098   4.548   6.130
  127SOL    HW2 1281   0.147   4.411   6.205
  128SOL     OW 1282   4.780   4.280   6.340
  128SOL    HW1 1283   4.744   4.222   6.267
  128SOL    HW2 1284   4.856   4.233   6.385
  129SOL     OW 1285   1.039   5.358   2.634
  129SOL    HW1 1286   0.948   5.391   2.613
  129SOL    HW2 1287   1.089   5.338   2.549
  130SOL     OW 1288   6.412   4.218   5.179
  130SOL    HW1 1289   6.431   4.123   5.205
  130SOL    HW2 1290   6.426   4.228   5.080
  131SOL     OW 1291   0.394   2.802   1.566
  131SOL    HW1 1292   0.463   2.807   1.493
  131SOL    HW2 1293   0.432   2.841   1.650
  132SOL     OW 1294   3.509   3.820   2.043
  132SOL    HW1 1295   3.588   3.842   2.099
  132SOL    HW2 1296   3.493   3.721   2.044
  133SOL     OW 1297   4.567   4.647   6.095
  133SOL    HW1 1298   4.529   4.556   6.076
  133SOL    HW2 1299   4.509   4.694   6.161
  134SOL     OW 1300   0.600   2.068   6.774
  134SOL    HW1 1301   0.564   1.992   6.829
  134SOL    HW2 1302   0.653   2.031   6.698
  135SOL     OW 1303   4.201   4.717   4.187
  135SOL    HW1 1304   4.293   4.750   4.211
  135SOL    HW2 1305   4.156   4.682   4.269
  136SOL     OW 1306   3.383   6.220   6.472
  136SOL    HW1 1307   3.296   6.174   6.452
  136SOL    HW2 1308   3.378   6.262   6.563
  137SOL     OW 1309   1.997   4.148   0.237
  137SOL    HW1 1310   1.901   4.177   0.235
  137SOL    HW2 1311   2.039   4.167   0.148
  138SOL     OW 1312   0.233   6.716   1.885
  138SOL    HW1 1313   0.136   6.691   1.885
  138SOL    HW2 1314   0.287   6.638   1.852
  139SOL     OW 1315   1.276   0.095   1.189
  139SOL    HW1 1316   1.332   0.110   1.107
  139SOL    HW2 1317   1.245   0.000   1.192
  140SOL     OW 1318   2.795   0.397   3.342
  140SOL    HW1 1319   2.721   0.330   3.345
  140SOL    HW2 1320   2.828   0.405   3.248
  141SOL     OW 1321   2.379   2.554   0.838
  141SOL    HW1 1322   2.433   2.493   0.779
  141SOL    HW2 1323   2.350   2.634   0.785
  142SOL     OW 1324   1.493   4.239   6.298
  142SOL    HW1 1325   1.432   4.176   6.250
  142SOL    HW2 1326   1.446   4.280   6.376
  143SOL     OW 1327   4.190   6.123   2.007
  143SOL    HW1 1328   4.208   6.203   1.950
  143SOL    HW2 1329   4.217   6.143   2.102
  144SOL     OW 1330   2.466   4.893   3.217
  144SOL    HW1 1331   2.460   4.872   3.314
  144SOL    HW2 1332   2.437   4.814   3.164
  145SOL     OW 1333   6.096   6.515   2.409
  145SOL    HW1 1334   6.175   6.493   2.351
  145SOL    HW2 1335   6.123   6.581   2.479
  146SOL     OW 1336   6.146   1.483   4.530
  146SOL    HW1 1337   6.067   1.422   4.532
  146SOL    HW2 1338   6.181   1.488   4.436
  147SOL     OW 1339   5.851   6.658   5.672
  147SOL    HW1 1340   5.896   6.719   5.738
  147SOL    HW2 1341   5.807   6.583   5.721
  148SOL     OW 1342   2.044   0.523   3.826
  148SOL    HW1 1343   1.958   0.571   3.843
  148SOL    HW2 1344   2.064   0.522   3.728
  149SOL     OW 1345   2.236   1.822   5.157
  149SOL    HW1 1346   2.304   1.837   5.229
  149SOL    HW2 1347   2.147   1.804   5.198
  150SOL     OW 1348   5.258   3.382   4.300
  150SOL    HW1 1349   5.207   3.344   4.223
  150SOL    HW2 1350   5.241   3.327   4.382
  151SOL     OW 1351   6.420   2.612   1.756
  151SOL    HW1 1352   6.377   2.702   1.750
  151SOL    HW2 1353   6.518   2.623   1.773
  152SOL     OW 1354   6.086   1.390   0.138
  152SOL    HW1 1355   6.100   1.407   0.236
  152SOL    HW2 1356   5.990   1.402   0.116
  153SOL     OW 1357   1.531   1.779   3.646
  153SOL    HW1 1358   1.447   1.803   3.695
  153SOL    HW2 1359   1.512   1.776   3.547
  154SOL     OW 1360   0.026   1.924   3.175
  154SOL    HW1 1361   0.100   1.912   3.241
  154SOL    HW2 1362   7.016   1.835   3.145
  155SOL     OW 1363   6.206   5.398   3.243
  155SOL    HW1 1364   6.263   5.363   3.317
  155SOL    HW2 1365   6.245   5.369   3.155
  156SOL     OW 1366   4.262   6.918   0.694
  156SOL    HW1 1367   4.168   6.883   0.696
  156SOL    HW2 1368   4.324   6.844   0.669
  157SOL     OW 1369   5.595   1.598   0.530
  157SOL    HW1 1370   5.661   1.550   0.472
  157SOL    HW2 1371   5.505   1.595   0.487
  158SOL     OW 1372   0.848   2.714   5.660
  158SOL    HW1 1373   0.876   2.656   5.736
  158SOL    HW2 1374   0.830   2.807   5.694
  159SOL     OW 1375   0.308   5.070   6.695
  159SOL    HW1 1376   0.294   5.161   6.733
  159SOL    HW2 1377   0.398   5.035   6.724
  160SOL     OW 1378   4.213   0.003   1.937
  160SOL    HW1 1379   4.121   0.027   1.967
  160SOL    HW2 1380   4.281   0.046   1.996
  161SOL     OW 1381   5.244   6.498   1.379
  161SOL    HW1 1382   5.193   6.539   1.455
  161SOL    HW2 1383   5.181   6.474   1.306
  162SOL     OW 1384   4.307   0.114   5.119
  162SOL    HW1 1385   4.398   0.086   5.090
  162SOL    HW2 1386   4.314   0.190   5.183
  163SOL     OW 1387   1.945   4.386   2.903
  163SOL    HW1 1388   1.863   4.362   2.955
  163SOL    HW2 1389   1.963   4.315   2.835
  164SOL     OW 1390   1.882   3.102   2.470
  164SOL    HW1 1391   1.836   3.138   2.550
  164SOL    HW2 1392   1.951   3.168   2.439
  165SOL     OW 1393   0.111   6.035   5.323
  165SOL    HW1 1394   0.203   6.054   5.357
  165SOL    HW2 1395   0.092   6.095   5.245
  166SOL     OW 1396   0.542   5.469   4.069
  166SOL    HW1 1397   0.632   5.454   4.111
  166SOL    HW2 1398   0.475   5.410   4.113
  167SOL     OW 1399   0.161   1.348   3.303
  167SOL    HW1 1400   0.091   1.356   3.374
  167SOL    HW2 1401   0.251   1.336   3.345
  168SOL     OW 1402   3.418   4.089   4.676
  168SOL    HW1 1403   3.320   4.095   4.657
  168SOL    HW2 1404   3.469   4.091   4.590
  169SOL     OW 1405   4.670   2.942   6.076
  169SOL    HW1 1406   4.634   2.872   6.015
  169SOL    HW2 1407   4.755   2.980   6.038
  170SOL     OW 1408   5.825   5.236   2.894
  170SOL    HW1 1409   5.829   5.195   2.985
  170SOL    HW2 1410   5.882   5.183   2.831
  171SOL     OW 1411   3.632   2.890   0.925
  171SOL    HW1 1412   3.582   2.804   0.936
  171SOL    HW2 1413   3.584   2.948   0.860
  172SOL     OW 1414   1.911   0.247   0.266
  172SOL    HW1 1415   1.945   0.315   0.201
  172SOL    HW2 1416   1.812   0.237   0.255
  173SOL     OW 1417   5.671   1.004   5.046
  173SOL    HW1 1418   5.681   1.068   4.970
  173SOL    HW2 1419   5.592   0.945   5.031
  174SOL     OW 1420   6.153   5.405   3.579
  174SOL    HW1 1421   6.123   5.367   3.666
  174SOL    HW2 1422   6.188   5.497   3.593
  175SOL     OW 1423   0.375   5.249   1.993
  175SOL    HW1 1424   0.279   5.221   1.998
  175SOL    HW2 1425   0.380   5.344   1.963
  176SOL     OW 1426   5.842   3.685   1.074
  176SOL    HW1 1427   5.851   3.785   1.066
  176SOL    HW2 1428   5.842   3.645   0.982
  177SOL     OW 1429   5.463   2.247   3.729
  177SOL    HW1 1430   5.546   2.250   3.673
  177SOL    HW2 1431   5.410   2.331   3.714
  178SOL     OW 1432   1.138   5.268   4.830
  178SOL    HW1 1433   1.040   5.287   4.829
  178SOL    HW2 1434   1.187   5.349   4.796
  179SOL     OW 1435   3.165   4.086   1.965
  179SOL    HW1 1436   3.232   4.136   2.020
  179SOL    HW2 1437   3.155   4.130   1.876
  180SOL     OW 1438   5.423   0.372   5.545
  180SOL    HW1 1439   5.405   0.445   5.611
  180SOL    HW2 1440   5.360   0.295   5.562
  181SOL     OW 1441   3.171   5.704   5.586
  181SOL    HW1 1442   3.119   5.752   5.515
  181SOL    HW2 1443   3.168   5.606   5.568
  182SOL     OW 1444   3.272   2.599   5.316
  182SOL    HW1 1445   3.187   2.642   5.347
  182SOL    HW2 1446   3.252   2.515   5.267
  183SOL     OW 1447   1.964   0.486   2.638
  183SOL    HW1 1448   1.890   0.537   2.683
  183SOL    HW2 1449   2.005   0.542   2.566
  184SOL     OW 1450   5.688   6.438   3.767
  184SOL    HW1 1451   5.780   6.475   3.759
  184SOL    HW2 1452   5.684   6.376   3.845
  185SOL     OW 1453   0.545   6.079   5.151
  185SOL    HW1 1454   0.611   6.006   5.170
  185SOL    HW2 1455   0.524   6.128   5.236
  186SOL     OW 1456   3.578   4.757   0.325
  186SOL    HW1 1457   3.560   4.833   0.263
  186SOL    HW2 1458   3.659   4.708   0.295
  187SOL     OW 1459   3.976   5.609   0.456
  187SOL    HW1 1460   4.014   5.526   0.415
  187SOL    HW2 1461   3.929   5.663   0.387
  188SOL     OW 1462   1.384   4.150   3.501
  188SOL    HW1 1463   1.441   4.069   3.514
  188SOL    HW2 1464   1.425   4.209   3.431
  189SOL     OW 1465   6.781   3.441   6.006
  189SOL    HW1 1466   6.698   3.387   6.017
  189SOL    HW2 1467   6.759   3.531   5.967
  190SOL     OW 1468   6.298   6.031   0.208
  190SOL    HW1 1469   6.308   6.120   0.252
  190SOL    HW2 1470   6.376   6.015   0.147
  191SOL     OW 1471   1.952   3.893   6.537
  191SOL    HW1 1472   2.043   3.934   6.551
  191SOL    HW2 1473   1.940   3.817   6.600
  192SOL     OW 1474   0.982   6.559   0.306
  192SOL    HW1 1475   1.036   6.496   0.250
  192SOL    HW2 1476   0.923   6.614   0.247
  193SOL     OW 1477   2.834   0.297   1.815
  193SOL    HW1 1478   2.906   0.299   1.746
  193SOL    HW2 1479   2.780   0.213   1.803
  194SOL     OW 1480   4.411   6.573   3.372
  194SOL    HW1 1481   4.314   6.549   3.362
  194SOL    HW2 1482   4.422   6.639   3.446
  195SOL     OW 1483   3.405   0.642   0.998
  195SOL    HW1 1484   3.401   0.708   0.923
  195SOL    HW2 1485   3.390   0.690   1.085
  196SOL     OW 1486   3.818   2.876   1.278
  196SOL    HW1 1487   3.783   2.821   1.354
  196SOL    HW2 1488   3.741   2.914   1.226
  197SOL     OW 1489   0.684   6.460   1.257
  197SOL    HW1 1490   0.617   6.514   1.308
  197SOL    HW2 1491   0.663   6.463   1.160
  198SOL     OW 1492   6.307   0.899   5.324
  198SOL    HW1 1493   6.379   0.835   5.300
  198SOL    HW2 1494   6.345   0.976   5.375
  199SOL     OW 1495   1.255   0.261   2.952
  199SOL    HW1 1496   1.261   0.239   2.854
  199SOL    HW2 1497   1.256   0.361   2.964
  200SOL     OW 1498   1.631   3.203   3.076
  200SOL    HW1 1499   1.726   3.174   3.087
  200SOL    HW2 1500   1.593   3.228   3.165
  201SOL     OW 1501   5.518   1.115   6.669
  201SOL    HW1 1502   5.581   1.172   6.722
  201SOL    HW2 1503   5.532   1.132   6.572
  202SOL     OW 1504   3.831   0.633   2.565
  202SOL    HW1 1505   3.890   0.691   2.621
  202SOL    HW2 1506   3.737   0.640   2.598
  203SOL     OW 1507   5.714   2.664   1.401
  203SOL    HW1 1508   5.700   2.680   1.304
  203SOL    HW2 1509   5.626   2.654   1.447
  204SOL     OW 1510   2.448   5.969   0.710
  204SOL    HW1 1511   2.486   6.040   0.651
  204SOL    HW2 1512   2.356   5.943   0.678
  205SOL     OW 1513   5.024   0.898   0.255
  205SOL    HW1 1514   4.930   0.932   0.265
  205SOL    HW2 1515   5.080   0.966   0.209
  206SOL     OW 1516   0.227   5.641   2.237
  206SOL    HW1 1517   0.244   5.739   2.243
  206SOL    HW2 1518   0.159   5.624   2.166
  207SOL     OW 1519   6.653   2.665   5.941
  207SOL    HW1 1520   6.720   2.716   5.995
  207SOL    HW2 1521   6.567   2.658   5.992
  208SOL     OW 1522   5.120   3.476   1.304
  208SOL    HW1 1523   5.057   3.458   1.229
  208SOL    HW2 1524   5.068   3.494   1.388
  209SOL     OW 1525   6.152   0.773   3.981
  209SOL    HW1 1526   6.241   0.779   3.936
  209SOL    HW2 1527   6.132   0.860   4.027
  210SOL     OW 1528   5.377   3.083   6.887
  210SOL    HW1 1529   5.404   3.016   6.818
  210SOL    HW2 1530   5.405   3.174   6.858
  211SOL     OW 1531   6.975   4.955   2.440
  211SOL    HW1 1532   6.929   4.916   2.520
  211SOL    HW2 1533   0.033   5.006   2.469
  212SOL     OW 1534   0.708   5.096   5.537
  212SOL    HW1 1535   0.722   5.098   5.438
  212SOL    HW2 1536   0.673   5.184   5.568
  213SOL     OW 1537   4.666   2.550   1.590
  213SOL    HW1 1538   4.746   2.492   1.603
  213SOL    HW2 1539   4.696   2.645   1.582
  214SOL     OW 1540   6.827   5.812   3.672
  214SOL    HW1 1541   6.730   5.830   3.657
  214SOL    HW2 1542   6.860   5.748   3.603
  215SOL     OW 1543   3.623   2.875   3.187
  215SOL    HW1 1544   3.590   2.968   3.172
  215SOL    HW2 1545   3.635   2.830   3.098
  216SOL     OW 1546   4.046   6.775   4.885
  216SOL    HW1 1547   4.027   6.797   4.789
  216SOL    HW2 1548   4.132   6.816   4.913
  217SOL     OW 1549   6.268   2.206   4.781
  217SOL    HW1 1550   6.216   2.215   4.866
  217SOL    HW2 1551   6.290   2.109   4.766
  218SOL     OW 1552   2.361   4.929   5.406
  218SOL    HW1 1553   2.370   4.843   5.356
  218SOL    HW2 1554   2.386   5.005   5.346
  219SOL     OW 1555   3.241   6.539   6.832
  219SOL    HW1 1556   3.261   6.548   6.930
  219SOL    HW2 1557   3.303   6.472   6.791
  220SOL     OW 1558   1.530   4.765   0.401
  220SOL    HW1 1559   1.544   4.723   0.491
  220SOL    HW2 1560   1.438   4.804   0.396
  221SOL     OW 1561   6.265   4.511   4.736
  221SOL    HW1 1562   6.327   4.552   4.669
  221SOL    HW2 1563   6.191   4.574   4.756
  222SOL     OW 1564   0.781   0.175   4.950
  222SOL    HW1 1565   0.814   0.238   5.021
  222SOL    HW2 1566   0.683   0.160   4.961
  223SOL     OW 1567   5.944   5.919   1.571
  223SOL    HW1 1568   5.849   5.892   1.564
  223SOL    HW2 1569   5.952   6.018   1.559
  224SOL     OW 1570   5.548   4.167   2.288
  224SOL    HW1 1571   5.458   4.126   2.300
  224SOL    HW2 1572   5.550   4.256   2.334
  225SOL     OW 1573   4.568   6.113   0.996
  225SOL    HW1 1574   4.560   6.031   0.939
  225SOL    HW2 1575   4.479   6.159   1.001
  226SOL     OW 1576   1.197   5.399   3.026
  226SOL    HW1 1577   1.205   5.477   3.088
  226SOL    HW2 1578   1.208   5.314   3.078
  227SOL     OW 1579   1.251   3.640   3.389
  227SOL    HW1 1580   1.305   3.723   3.376
  227SOL    HW2 1581   1.307   3.560   3.369
  228SOL     OW 1582   3.607   5.675   3.653
  228SOL    HW1 1583   3.541   5.749   3.662
  228SOL    HW2 1584   3.560   5.592   3.623
  229SOL     OW 1585   5.694   6.800   2.032
  229SOL    HW1 1586   5.759   6.841   2.096
  229SOL    HW2 1587   5.601   6.815   2.065
  230SOL     OW 1588   1.372   4.626   4.865
  230SOL    HW1 1589   1.341   4.532   4.850
  230SOL    HW2 1590   1.435   4.652   4.792
  231SOL     OW 1591   0.037   2.461   6.840
  231SOL    HW1 1592   0.070   2.379   6.793
  231SOL    HW2 1593   6.960   2.458   6.846
  232SOL     OW 1594   2.267   3.111   0.442
  232SOL    HW1 1595   2.313   3.058   0.514
  232SOL    HW2 1596   2.172   3.125   0.468
  233SOL     OW 1597   3.454   0.418   0.668
  233SOL    HW1 1598   3.421   0.490   0.607
  233SOL    HW2 1599   3.380   0.388   0.728
  234SOL     OW 1600   1.831   5.295   0.764
  234SOL    HW1 1601   1.878   5.247   0.690
  234SOL    HW2 1602   1.861   5.258   0.852
  235SOL     OW 1603   4.392   2.989   5.468
  235SOL    HW1 1604   4.480   3.027   5.497
  235SOL    HW2 1605   4.408   2.913   5.406
  236SOL     OW 1606   6.944   6.889   6.802
  236SOL    HW1 1607   6.941   6.869   6.704
  236SOL    HW2 1608   6.858   6.859   6.844
  237SOL     OW 1609   6.050   0.407   2.764
  237SOL    HW1 1610   6.072   0.476   2.695
  237SOL    HW2 1611   6.074   0.442   2.855
  238SOL     OW 1612   0.199   1.683   3.447
  238SOL    HW1 1613   0.297   1.667   3.452
  238SOL    HW2 1614   0.153   1.636   3.522
  239SOL     OW 1615   6.111   4.723   6.291
  239SOL    HW1 1616   6.016   4.755   6.285
  239SOL    HW2 1617   6.113   4.632   6.333
  240SOL     OW 1618   0.005   2.932   4.157
  240SOL    HW1 1619   0.043   2.954   4.067
  240SOL    HW2 1620   0.074   2.885   4.212
  241SOL     OW 1621   6.072   2.803   4.157
  241SOL    HW1 1622   6.171   2.797   4.173
  241SOL    HW2 1623   6.026   2.731   4.209
  242SOL     OW 1624   1.934   2.299   2.750
  242SOL    HW1 1625   2.018   2.245   2.743
  242SOL    HW2 1626   1.956   2.391   2.781
  243SOL     OW 1627   5.419   1.373   6.280
  243SOL    HW1 1628   5.398   1.468   6.256
  243SOL    HW2 1629   5.476   1.333   6.208
  244SOL     OW 1630   1.621   0.882   5.682
  244SOL    HW1 1631   1.523   0.864   5.686
  244SOL    HW2 1632   1.665   0.843   5.764
  245SOL     OW 1633   5.037   1.847   4.657
  245SOL    HW1 1634   5.113   1.830   4.594
  245SOL    HW2 1635   5.027   1.770   4.719
  246SOL     OW 1636   5.200   4.027   4.520
  246SOL    HW1 1637   5.125   3.985   4.570
  246SOL    HW2 1638   5.227   4.113   4.565
  247SOL     OW 1639   1.372   0.509   2.686
  247SOL    HW1 1640   1.392   0.583   2.621
  247SOL    HW2 1641   1.435   0.515   2.764
  248SOL     OW 1642   6.564   2.957   3.158
  248SOL    HW1 1643   6.563   2.977   3.060
  248SOL    HW2 1644   6.657   2.962   3.192
  249SOL     OW 1645   1.861   6.474   4.734
  249SOL    HW1 1646   1.823   6.562   4.706
  249SOL    HW2 1647   1.857   6.410   4.658
  250SOL     OW 1648   5.912   2.349   0.513
  250SOL    HW1 1649   5.842   2.291   0.555
  250SOL    HW2 1650   5.870   2.406   0.442
  251SOL     OW 1651   2.291   6.994   2.938
  251SOL    HW1 1652   2.337   0.040   2.882
  251SOL    HW2 1653   2.342   6.908   2.932
  252SOL     OW 1654   6.705   3.353   6.968
  252SOL    HW1 1655   6.622   3.402   6.942
  252SOL    HW2 1656   6.729   3.287   6.897
  253SOL     OW 1657   2.142   4.604   5.602
  253SOL    HW1 1658   2.068   4.568   5.544
  253SOL    HW2 1659   2.139   4.560   5.691
  254SOL     OW 1660   5.305   3.339   0.073
  254SOL    HW1 1661   5.274   3.418   0.124
  254SOL    HW2 1662   5.229   3.275   0.059
  255SOL     OW 1663   4.190   2.092   1.975
  255SOL    HW1 1664   4.130   2.167   2.002
  255SOL    HW2 1665   4.136   2.008   1.967
  256SOL     OW 1666   0.192   6.273   0.983
  256SOL    HW1 1667   0.181   6.185   1.030
  256SOL    HW2 1668   0.146   6.269   0.894
  257SOL     OW 1669   2.656   6.284   6.560
  257SOL    HW1 1670   2.590   6.356   6.580
  257SOL    HW2 1671   2.727   6.283   6.630
  258SOL     OW 1672   4.900   4.798   3.965
  258SOL    HW1 1673   4.982   4.852   3.945
  258SOL    HW2 1674   4.907   4.762   4.058
  259SOL     OW 1675   6.479   1.516   2.154
  259SOL    HW1 1676   6.384   1.487   2.153
  259SOL    HW2 1677   6.523   1.484   2.238
  260SOL     OW 1678   6.331   6.864   6.118
  260SOL    HW1 1679   6.250   6.808   6.104
  260SOL    HW2 1680   6.306   6.960   6.124
  261SOL     OW 1681   6.701   1.283   3.163
  261SOL    HW1 1682   6.763   1.350   3.121
  261SOL    HW2 1683   6.729   1.267   3.257
  262SOL     OW 1684   1.660   5.511   0.761
  262SOL    HW1 1685   1.711   5.429   0.787
  262SOL    HW2 1686   1.600   5.490   0.684
  263SOL     OW 1687   0.979   4.697   5.299
  263SOL    HW1 1688   0.975   4.745   5.386
  263SOL    HW2 1689   0.895   4.715   5.247
  264SOL     OW 1690   4.402   4.493   0.471
  264SOL    HW1 1691   4.363   4.465   0.383
  264SOL    HW2 1692   4.352   4.448   0.545
  265SOL     OW 1693   3.829   5.590   4.640
  265SOL    HW1 1694   3.871   5.679   4.659
  265SOL    HW2 1695   3.730   5.601   4.629
  266SOL     OW 1696   4.763   3.512   6.856
  266SOL    HW1 1697   4.750   3.545   6.763
  266SOL    HW2 1698   4.802   3.585   6.912
  267SOL     OW 1699   3.024   1.768   6.294
  267SOL    HW1 1700   2.982   1.824   6.223
  267SOL    HW2 1701   2.985   1.792   6.383
  268SOL     OW 1702   1.488   4.494   2.833
  268SOL    HW1 1703   1.524   4.500   2.740
  268SOL    HW2 1704   1.542   4.553   2.893
  269SOL     OW 1705   2.807   1.355   5.225
  269SOL    HW1 1706   2.718   1.400   5.219
  269SOL    HW2 1707   2.858   1.370   5.141
  270SOL     OW 1708   5.500   5.680   4.827
  270SOL    HW1 1709   5.448   5.653   4.908
  270SOL    HW2 1710   5.450   5.651   4.745
  271SOL     OW 1711   2.692   0.793   0.004
  271SOL    HW1 1712   2.757   0.812   0.077
  271SOL    HW2 1713   2.619   0.862   0.005
  272SOL     OW 1714   5.955   3.971   6.673
  272SOL    HW1 1715   5.999   3.954   6.585
  272SOL    HW2 1716   5.867   4.017   6.658
  273SOL     OW 1717   0.442   5.741   4.045
  273SOL    HW1 1718   0.517   5.793   4.005
  273SOL    HW2 1719   0.461   5.643   4.034
  274SOL     OW 1720   5.189   3.091   2.590
  274SOL    HW1 1721   5.224   3.033   2.664
  274SOL    HW2 1722   5.247   3.080   2.509
  275SOL     OW 1723   5.672   5.059   5.759
  275SOL    HW1 1724   5.700   5.150   5.791
  275SOL    HW2 1725   5.680   5.055   5.660
  276SOL     OW 1726   0.204   0.207   4.541
  276SOL    HW1 1727   0.145   0.133   4.508
  276SOL    HW2 1728   0.289   0.169   4.575
  277SOL     OW 1729   3.983   3.513   5.794
  277SOL    HW1 1730   3.959   3.571   5.717
  277SOL    HW2 1731   4.072   3.539   5.830
  278SOL     OW 1732   6.105   5.134   2.079
  278SOL    HW1 1733   6.139   5.135   2.173
  278SOL    HW2 1734   6.006   5.145   2.079
  279SOL     OW 1735   6.564   3.382   3.893
  279SOL    HW1 1736   6.634   3.320   3.859
  279SOL    HW2 1737   6.598   3.429   3.975
  280SOL     OW 1738   4.284   1.048   2.342
  280SOL    HW1 1739   4.240   1.061   2.254
  280SOL    HW2 1740   4.263   0.956   2.377
  281SOL     OW 1741   5.344   5.165   6.319
  281SOL    HW1 1742   5.355   5.066   6.306
  281SOL    HW2 1743   5.254   5.183   6.358
  282SOL     OW 1744   0.857   1.783   0.140
  282SOL    HW1 1745   0.863   1.729   0.224
  282SOL    HW2 1746   0.828   1.876   0.162
  283SOL     OW 1747   6.331   3.921   2.964
  283SOL    HW1 1748   6.430   3.908   2.960
  283SOL    HW2 1749   6.304   3.988   2.895
  284SOL     OW 1750   5.686   0.090   2.589
  284SOL    HW1 1751   5.656   0.085   2.684
  284SOL    HW2 1752   5.749   0.167   2.578
  285SOL     OW 1753   5.483   6.084   6.264
  285SOL    HW1 1754   5.409   6.095   6.330
  285SOL    HW2 1755   5.542   6.008   6.293
  286SOL     OW 1756   3.463   5.711   5.569
  286SOL    HW1 1757   3.369   5.710   5.604
  286SOL    HW2 1758   3.464   5.752   5.478
  287SOL     OW 1759   4.623   6.581   0.555
  287SOL    HW1 1760   4.559   6.563   0.481
  287SOL    HW2 1761   4.716   6.591   0.518
  288SOL     OW 1762   3.587   0.872   0.158
  288SOL    HW1 1763   3.553   0.870   0.252
  288SOL    HW2 1764   3.682   0.840   0.156
  289SOL     OW 1765   6.004   5.234   4.890
  289SOL    HW1 1766   6.008   5.288   4.974
  289SOL    HW2 1767   6.089   5.182   4.880
  290SOL     OW 1768   2.708   1.148   4.648
  290SOL    HW1 1769   2.643   1.092   4.699
  290SOL    HW2 1770   2.665   1.181   4.564
  291SOL     OW 1771   5.908   1.192   5.076
  291SOL    HW1 1772   5.849   1.113   5.062
  291SOL    HW2 1773   5.961   1.208   4.993
  292SOL     OW 1774   2.650   0.882   4.429
  292SOL    HW1 1775   2.587   0.957   4.450
  292SOL    HW2 1776   2.736   0.920   4.393
  293SOL     OW 1777   5.532   0.756   3.009
  293SOL    HW1 1778   5.460   0.825   3.018
  293SOL    HW2 1779   5.599   0.767   3.082
  294SOL     OW 1780   6.698   0.887   6.304
  294SOL    HW1 1781   6.622   0.910   6.242
  294SOL    HW2 1782   6.768   0.838   6.253
  295SOL     OW 1783   0.695   0.649   5.361
  295SOL    HW1 1784   0.711   0.597   5.445
  295SOL    HW2 1785   0.659   0.739   5.385
  296SOL     OW 1786   0.179   1.697   6.765
  296SOL    HW1 1787   0.185   1.793   6.735
  296SOL    HW2 1788   0.213   1.638   6.693
  297SOL     OW 1789   5.102   4.409   3.181
  297SOL    HW1 1790   5.181   4.466   3.159
  297SOL    HW2 1791   5.039   4.460   3.239
  298SOL     OW 1792   4.072   6.051   5.423
  298SOL    HW1 1793   4.013   5.999   5.362
  298SOL    HW2 1794   4.037   6.145   5.432
  299SOL     OW 1795   6.784   1.710   6.410
  299SOL    HW1 1796   6.819   1.796   6.447
  299SOL    HW2 1797   6.861   1.648   6.392
  300SOL     OW 1798   4.366   6.560   4.454
  300SOL    HW1 1799   4.283   6.563   4.510
  300SOL    HW2 1800   4.425   6.637   4.477
  301SOL     OW 1801   6.724   6.248   5.582
  301SOL    HW1 1802   6.761   6.301   5.659
  301SOL    HW2 1803   6.787   6.174   5.559
  302SOL     OW 1804   0.923   6.142   2.533
  302SOL    HW1 1805   0.975   6.090   2.601
  302SOL    HW2 1806   0.836   6.096   2.515
  303SOL     OW 1807   4.165   5.370   2.404
  303SOL    HW1 1808   4.212   5.458   2.404
  303SOL    HW2 1809   4.211   5.306   2.342
  304SOL     OW 1810   1.519   1.423   5.228
  304SOL    HW1 1811   1.475   1.335   5.211
  304SOL    HW2 1812   1.511   1.480   5.146
  305SOL     OW 1813   3.646   1.148   0.932
  305SOL    HW1 1814   3.622   1.130   0.836
  305SOL    HW2 1815   3.641   1.246   0.950
  306SOL     OW 1816   0.525   6.459   2.394
  306SOL    HW1 1817   0.532   6.528   2.322
  306SOL    HW2 1818   0.617   6.431   2.422
  307SOL     OW 1819   3.675   3.135   4.491
  307SOL    HW1 1820   3.725   3.216   4.464
  307SOL    HW2 1821   3.599   3.161   4.551
  308SOL     OW 1822   6.676   2.863   0.453
  308SOL    HW1 1823   6.587   2.852   0.497
  308SOL    HW2 1824   6.666   2.923   0.373
  309SOL     OW 1825   1.732   5.198   0.107
  309SOL    HW1 1826   1.829   5.210   0.127
  309SOL    HW2 1827   1.691   5.287   0.085
  310SOL     OW 1828   4.235   5.847   5.393
  310SOL    HW1 1829   4.186   5.934   5.403
  310SOL    HW2 1830   4.324   5.864   5.352
  311SOL     OW 1831   1.907   6.029   1.965
  311SOL    HW1 1832   1.997   6.028   2.009
  311SOL    HW2 1833   1.837   6.051   2.032
  312SOL     OW 1834   3.518   0.542   4.552
  312SOL    HW1 1835   3.429   0.587   4.552
  312SOL    HW2 1836   3.590   0.609   4.531
  313SOL     OW 1837   3.084   3.930   3.483
  313SOL    HW1 1838   3.040   3.850   3.443
  313SOL    HW2 1839   3.055   3.941   3.578
  314SOL     OW 1840   1.894   4.329   6.285
  314SOL    HW1 1841   1.805   4.306   6.245
  314SOL    HW2 1842   1.936   4.402   6.232
  315SOL     OW 1843   6.043   0.280   3.991
  315SOL    HW1 1844   6.062   0.333   3.909
  315SOL    HW2 1845   5.956   0.310   4.031
  316SOL     OW 1846   3.898   1.061   4.826
  316SOL    HW1 1847   3.897   0.974   4.875
  316SOL    HW2 1848   3.925   1.046   4.731
  317SOL     OW 1849   0.560   1.301   1.973
  317SOL    HW1 1850   0.519   1.332   2.058
  317SOL    HW2 1851   0.526   1.357   1.897
  318SOL     OW 1852   0.762   1.669   3.881
  318SOL    HW1 1853   0.799   1.758   3.906
  318SOL    HW2 1854   0.768   1.607   3.960
  319SOL     OW 1855   0.203   1.461   1.713
  319SOL    HW1 1856   0.132   1.515   1.756
  319SOL    HW2 1857   0.175   1.365   1.709
  320SOL     OW 1858   4.916   0.880   6.378
  320SOL    HW1 1859   4.983   0.846   6.444
  320SOL    HW2 1860   4.830   0.901   6.425
  321SOL     OW 1861   4.287   3.367   0.974
  321SOL    HW1 1862   4.190   3.381   0.992
  321SOL    HW2 1863   4.298   3.323   0.884
  322SOL     OW 1864   3.141   1.310   0.544
  322SOL    HW1 1865   3.170   1.370   0.619
  322SOL    HW2 1866   3.221   1.283   0.490
  323SOL     OW 1867   0.422   4.018   1.880
  323SOL    HW1 1868   0.420   3.953   1.803
  323SOL    HW2 1869   0.487   3.986   1.949
  324SOL     OW 1870   6.827   1.064   3.721
  324SOL    HW1 1871   6.760   1.137   3.713
  324SOL    HW2 1872   6.781   0.979   3.748
  325SOL     OW 1873   6.874   2.694   0.389
  325SOL    HW1 1874   6.940   2.698   0.464
  325SOL    HW2 1875   6.800   2.759   0.406
  326SOL     OW 1876   5.979   6.191   5.915
  326SOL    HW1 1877   5.964   6.138   5.831
  326SOL    HW2 1878   5.999   6.286   5.892
  327SOL     OW 1879   3.864   6.213   6.539
  327SOL    HW1 1880   3.868   6.180   6.634
  327SOL    HW2 1881   3.804   6.153   6.486
  328SOL     OW 1882   2.655   4.848   3.659
  328SOL    HW1 1883   2.712   4.810   3.586
  328SOL    HW2 1884   2.711   4.864   3.741
  329SOL     OW 1885   2.947   3.697   2.987
  329SOL    HW1 1886   2.985   3.749   2.910
  329SOL    HW2 1887   2.895   3.619   2.953
  330SOL     OW 1888   2.220   3.634   6.688
  330SOL    HW1 1889   2.252   3.585   6.770
  330SOL    HW2 1890   2.141   3.587   6.650
  331SOL     OW 1891   4.769   5.794   4.515
  331SOL    HW1 1892   4.802   5.783   4.421
  331SOL    HW2 1893   4.847   5.800   4.577
  332SOL     OW 1894   6.175   2.183   3.047
  332SOL    HW1 1895   6.234   2.126   3.105
  332SOL    HW2 1896   6.139   2.259   3.101
  333SOL     OW 1897   2.922   6.171   4.133
  333SOL    HW1 1898   2.915   6.167   4.233
  333SOL    HW2 1899   2.984   6.099   4.102
  334SOL     OW 1900   3.534   3.419   3.703
  334SOL    HW1 1901   3.523   3.513   3.734
  334SOL    HW2 1902   3.619   3.381   3.740
  335SOL     OW 1903   4.525   1.241   6.747
  335SOL    HW1 1904   4.493   1.334   6.728
  335SOL    HW2 1905   4.482   1.178   6.682
  336SOL     OW 1906   3.542   1.737   4.350
  336SOL    HW1 1907   3.579   1.691   4.270
  336SOL    HW2 1908   3.617   1.775   4.405
  337SOL     OW 1909   1.294   1.752   5.438
  337SOL    HW1 1910   1.377   1.752   5.383
  337SOL    HW2 1911   1.244   1.837   5.424
  338SOL     OW 1912   4.768   1.914   1.624
  338SOL    HW1 1913   4.731   1.892   1.715
  338SOL    HW2 1914   4.831   1.842   1.596
  339SOL     OW 1915   3.328   4.672   5.924
  339SOL    HW1 1916   3.268   4.700   5.849
  339SOL    HW2 1917   3.384   4.594   5.895
  340SOL     OW 1918   5.510   4.675   4.815
  340SOL    HW1 1919   5.573   4.642   4.886
  340SOL    HW2 1920   5.451   4.600   4.787
  341SOL     OW 1921   5.779   0.412   1.464
  341SOL    HW1 1922   5.743   0.476   1.396
  341SOL    HW2 1923   5.856   0.453   1.512
  342SOL     OW 1924   4.747   0.399   1.195
  342SOL    HW1 1925   4.745   0.491   1.155
  342SOL    HW2 1926   4.811   0.342   1.142
  343SOL     OW 1927   6.108   0.593   1.962
  343SOL    HW1 1928   6.059   0.571   1.877
  343SOL    HW2 1929   6.078   0.532   2.035
  344SOL     OW 1930   6.398   3.016   1.649
  344SOL    HW1 1931   6.498   3.012   1.661
  344SOL    HW2 1932   6.376   2.993   1.554
  345SOL     OW 1933   0.128   3.275   3.149
  345SOL    HW1 1934   0.052   3.214   3.170
  345SOL    HW2 1935   0.121   3.306   3.054
  346SOL     OW 1936   0.643   0.731   3.317
  346SOL    HW1 1937   0.685   0.819   3.340
  346SOL    HW2 1938   0.694   0.688   3.242
  347SOL     OW 1939   1.958   4.080   1.570
  347SOL    HW1 1940   1.905   4.061   1.653
  347SOL    HW2 1941   1.897   4.082   1.491
  348SOL     OW 1942   6.350   4.723   0.961
  348SOL    HW1 1943   6.259   4.691   0.988
  348SOL    HW2 1944   6.367   4.813   1.001
  349SOL     OW 1945   6.033   5.322   6.823
  349SOL    HW1 1946   6.051   5.265   6.742
  349SOL    HW2 1947   5.995   5.410   6.793
  350SOL     OW 1948   2.561   0.541   0.581
  350SOL    HW1 1949   2.496   0.545   0.505
  350SOL    HW2 1950   2.517   0.504   0.662
  351SOL     OW 1951   4.229   4.152   0.653
  351SOL    HW1 1952   4.322   4.125   0.629
  351SOL    HW2 1953   4.228   4.251   0.672
  352SOL     OW 1954   3.800   0.924   2.856
  352SOL    HW1 1955   3.705   0.917   2.826
  352SOL    HW2 1956   3.808   0.995   2.926
  353SOL     OW 1957   2.326   6.431   0.780
  353SOL    HW1 1958   2.265   6.361   0.817
  353SOL    HW2 1959   2.377   6.474   0.854
  354SOL     OW 1960   2.858   2.401   0.727
  354SOL    HW1 1961   2.770   2.361   0.700
  354SOL    HW2 1962   2.875   2.382   0.824
  355SOL     OW 1963   7.021   2.149   2.599
  355SOL    HW1 1964   7.008   2.103   2.687
  355SOL    HW2 1965   6.933   2.155   2.551
  356SOL     OW 1966   2.773   6.757   5.520
  356SOL    HW1 1967   2.780   6.782   5.617
  356SOL    HW2 1968   2.718   6.674   5.510
  357SOL     OW 1969   6.402   6.006   4.494
  357SOL    HW1 1970   6.418   6.105   4.499
  357SOL    HW2 1971   6.312   5.989   4.454
  358SOL     OW 1972   3.399   6.282   6.737
  358SOL    HW1 1973   3.483   6.228   6.736
  358SOL    HW2 1974   3.326   6.230   6.782
  359SOL     OW 1975   2.113   2.203   1.032
  359SOL    HW1 1976   2.033   2.143   1.036
  359SOL    HW2 1977   2.132   2.240   1.123
  360SOL     OW 1978   1.799   4.927   2.606
  360SOL    HW1 1979   1.794   4.899   2.702
  360SOL    HW2 1980   1.884   4.978   2.590
  361SOL     OW 1981   6.184   2.818   2.774
  361SOL    HW1 1982   6.113   2.888   2.765
  361SOL    HW2 1983   6.151   2.743   2.830
  362SOL     OW 1984   3.947   3.064   2.965
  362SOL    HW1 1985   4.017   2.995   2.986
  362SOL    HW2 1986   3.884   3.027   2.897
  363SOL     OW 1987   4.719   5.780   1.944
  363SOL    HW1 1988   4.709   5.789   1.844
  363SOL    HW2 1989   4.666   5.852   1.989
  364SOL     OW 1990   0.874   1.196   6.887
  364SOL    HW1 1991   0.866   1.148   6.974
  364SOL    HW2 1992   0.880   1.295   6.903
  365SOL     OW 1993   4.734   0.193   3.653
  365SOL    HW1 1994   4.764   0.100   3.673
  365SOL    HW2 1995   4.680   0.193   3.568
  366SOL     OW 1996   5.726   0.899   0.149
  366SOL    HW1 1997   5.760   0.862   0.062
  366SOL    HW2 1998   5.765   0.846   0.225
  367SOL     OW 1999   6.581   6.396   6.818
  367SOL    HW1 2000   6.608   6.304   6.846
  367SOL    HW2 2001   6.498   6.391   6.762
  368SOL     OW 2002   2.541   1.146   5.077
  368SOL    HW1 2003   2.484   1.225   5.101
  368SOL    HW2 2004   2.609   1.174   5.009
  369SOL     OW 2005   5.023   3.830   6.442
  369SOL    HW1 2006   4.927   3.834   6.414
  369SOL    HW2 2007   5.055   3.735   6.437
  370SOL     OW 2008   1.401   1.746   4.005
  370SOL    HW1 2009   1.399   1.690   3.921
  370SOL    HW2 2010   1.492   1.787   4.014
  371SOL     OW 2011   3.018   5.109   0.942
  371SOL    HW1 2012   3.107   5.064   0.935
  371SOL    HW2 2013   2.963   5.085   0.862
  372SOL     OW 2014   2.474   5.823   6.091
  372SOL    HW1 2015   2.442   5.729   6.106
  372SOL    HW2 2016   2.564   5.834   6.132
  373SOL     OW 2017   5.691   4.406   2.348
  373SOL    HW1 2018   5.703   4.333   2.417
  373SOL    HW2 2019   5.705   4.495   2.392
  374SOL     OW 2020   1.965   2.875   1.910
  374SOL    HW1 2021   2.003   2.784   1.928
  374SOL    HW2 2022   2.022   2.922   1.842
  375SOL     OW 2023   0.272   5.337   4.144
  375SOL    HW1 2024   0.198   5.400   4.121
  375SOL    HW2 2025   0.294   5.346   4.241
  376SOL     OW 2026   5.246   6.989   3.726
  376SOL    HW1 2027   5.298   0.036   3.676
  376SOL    HW2 2028   5.157   6.976   3.681
  377SOL     OW 2029   2.611   3.233   6.368
  377SOL    HW1 2030   2.606   3.166   6.294
  377SOL    HW2 2031   2.603   3.325   6.330
  378SOL     OW 2032   4.227   0.963   1.142
  378SOL    HW1 2033   4.272   1.052   1.129
  378SOL    HW2 2034   4.290   0.890   1.118
  379SOL     OW 2035   3.108   3.764   0.922
  379SOL    HW1 2036   3.120   3.718   1.010
  379SOL    HW2 2037   3.105   3.696   0.849
  380SOL     OW 2038   5.322   1.840   6.657
  380SOL    HW1 2039   5.330   1.892   6.742
  380SOL    HW2 2040   5.245   1.777   6.663
  381SOL     OW 2041   0.267   3.431   2.179
  381SOL    HW1 2042   0.184   3.423   2.235
  381SOL    HW2 2043   0.250   3.395   2.088
  382SOL     OW 2044   5.857   0.150   0.657
  382SOL    HW1 2045   5.823   0.169   0.565
  382SOL    HW2 2046   5.783   0.167   0.723
  383SOL     OW 2047   5.475   2.891   1.499
  383SOL    HW1 2048   5.383   2.894   1.458
  383SOL    HW2 2049   5.534   2.957   1.452
  384SOL     OW 2050   1.499   2.915   4.352
  384SOL    HW1 2051   1.584   2.907   4.403
  384SOL    HW2 2052   1.518   2.919   4.254
  385SOL     OW 2053   4.657   3.007   6.955
  385SOL    HW1 2054   4.706   3.093   6.969
  385SOL    HW2 2055   4.593   2.993   0.008
  386SOL     OW 2056   3.176   6.250   5.664
  386SOL    HW1 2057   3.189   6.151   5.670
  386SOL    HW2 2058   3.257   6.296   5.699
  387SOL     OW 2059   1.672   6.860   3.541
  387SOL    HW1 2060   1.741   6.788   3.551
  387SOL    HW2 2061   1.618   6.843   3.459
  388SOL     OW 2062   1.911   5.611   5.913
  388SOL    HW1 2063   1.832   5.575   5.962
  388SOL    HW2 2064   1.991   5.554   5.932
  389SOL     OW 2065   4.111   1.975   6.795
  389SOL    HW1 2066   4.142   2.048   6.733
  389SOL    HW2 2067   4.186   1.911   6.811
  390SOL     OW 2068   3.462   1.429   3.747
  390SOL    HW1 2069   3.441   1.420   3.844
  390SOL    HW2 2070   3.561   1.438   3.735
  391SOL     OW 2071   0.518   0.891   0.387
  391SOL    HW1 2072   0.509   0.907   0.289
  391SOL    HW2 2073   0.530   0.978   0.434
  392SOL     OW 2074   4.353   5.343   4.250
  392SOL    HW1 2075   4.335   5.438   4.223
  392SOL    HW2 2076   4.371   5.288   4.169
  393SOL     OW 2077   5.711   2.594   5.631
  393SOL    HW1 2078   5.708   2.519   5.564
  393SOL    HW2 2079   5.618   2.618   5.658
  394SOL     OW 2080   2.262   1.243   6.936
  394SOL    HW1 2081   2.275   1.339   6.912
  394SOL    HW2 2082   2.296   1.185   6.862
  395SOL     OW 2083   0.314   2.769   0.981
  395SOL    HW1 2084   0.335   2.685   1.031
  395SOL    HW2 2085   0.222   2.799   1.006
  396SOL     OW 2086   4.151   2.499   5.562
  396SOL    HW1 2087   4.222   2.557   5.602
  396SOL    HW2 2088   4.171   2.403   5.583
  397SOL     OW 2089   4.774   6.868   6.689
  397SOL    HW1 2090   4.679   6.867   6.721
  397SOL    HW2 2091   4.836   6.851   6.765
  398SOL     OW 2092   5.661   4.189   2.543
  398SOL    HW1 2093   5.607   4.128   2.485
  398SOL    HW2 2094   5.758   4.178   2.524
  399SOL     OW 2095   2.124   5.777   1.492
  399SOL    HW1 2096   2.218   5.765   1.458
  399SOL    HW2 2097   2.122   5.759   1.590
  400SOL     OW 2098   2.308   4.659   5.996
  400SOL    HW1 2099   2.312   4.642   6.095
  400SOL    HW2 2100   2.380   4.607   5.951
  401SOL     OW 2101   6.698   1.308   1.115
  401SOL    HW1 2102   6.681   1.387   1.057
  401SOL    HW2 2103   6.630   1.305   1.189
  402SOL     OW 2104   0.342   5.576   0.726
  402SOL    HW1 2105   0.337   5.659   0.670
  402SOL    HW2 2106   0.379   5.598   0.816
  403SOL     OW 2107   5.525   4.366   0.423
  403SOL    HW1 2108   5.572   4.279   0.409
  403SOL    HW2 2109   5.482   4.365   0.513
  404SOL     OW 2110   6.498   5.747   4.500
  404SOL    HW1 2111   6.465   5.840   4.520
  404SOL    HW2 2112   6.593   5.751   4.471
  405SOL     OW 2113   1.373   1.668   1.299
  405SOL    HW1 2114   1.403   1.697   1.208
  405SOL    HW2 2115   1.377   1.745   1.362
  406SOL     OW 2116   0.925   2.809   3.832
  406SOL    HW1 2117   0.991   2.735   3.842
  406SOL    HW2 2118   0.963   2.893   3.869
  407SOL     OW 2119   2.990   2.213   3.907
  407SOL    HW1 2120   3.050   2.144   3.948
  407SOL    HW2 2121   3.029   2.245   3.821
  408SOL     OW 2122   2.509   0.184   4.020
  408SOL    HW1 2123   2.524   0.275   4.058
  408SOL    HW2 2124   2.594   0.131   4.028
  409SOL     OW 2125   0.555   5.365   4.811
  409SOL    HW1 2126   0.543   5.459   4.845
  409SOL    HW2 2127   0.640   5.328   4.848
  410SOL     OW 2128   2.442   6.700   6.489
  410SOL    HW1 2129   2.493   6.687   6.404
  410SOL    HW2 2130   2.459   6.792   6.524
  411SOL     OW 2131   0.416   4.349   5.995
  411SOL    HW1 2132   0.415   4.435   6.045
  411SOL    HW2 2133   0.391   4.274   6.057
  412SOL     OW 2134   3.623   6.151   3.430
  412SOL    HW1 2135   3.671   6.181   3.347
  412SOL    HW2 2136   3.558   6.079   3.407
  413SOL     OW 2137   2.347   0.677   1.639
  413SOL    HW1 2138   2.401   0.752   1.677
  413SOL    HW2 2139   2.395   0.590   1.653
  414SOL     OW 2140   4.410   4.818   0.821
  414SOL    HW1 2141   4.417   4.916   0.839
  414SOL    HW2 2142   4.479   4.769   0.875
  415SOL     OW 2143   3.535   6.467   2.909
  415SOL    HW1 2144   3.442   6.450   2.876
  415SOL    HW2 2145   3.543   6.563   2.934
  416SOL     OW 2146   3.600   5.643   0.254
  416SOL    HW1 2147   3.691   5.666   0.220
  416SOL    HW2 2148   3.563   5.719   0.306
  417SOL     OW 2149   5.822   4.973   1.480
  417SOL    HW1 2150   5.728   4.947   1.501
  417SOL    HW2 2151   5.830   5.073   1.480
  418SOL     OW 2152   0.298   5.076   6.396
  418SOL    HW1 2153   0.290   4.996   6.337
  418SOL    HW2 2154   0.304   5.047   6.492
  419SOL     OW 2155   5.041   5.400   6.359
  419SOL    HW1 2156   5.093   5.441   6.434
  419SOL    HW2 2157   5.053   5.301   6.359
  420SOL     OW 2158   5.770   3.445   7.022
  420SOL    HW1 2159   5.693   3.505   7.001
  420SOL    HW2 2160   5.840   3.453   6.951
  421SOL     OW 2161   1.546   6.314   5.936
  421SOL    HW1 2162   1.494   6.355   5.861
  421SOL    HW2 2163   1.618   6.256   5.898
  422SOL     OW 2164   6.212   3.584   0.456
  422SOL    HW1 2165   6.221   3.581   0.357
  422SOL    HW2 2166   6.124   3.544   0.483
  423SOL     OW 2167   1.351   3.242   5.931
  423SOL    HW1 2168   1.264   3.209   5.968
  423SOL    HW2 2169   1.341   3.259   5.833
  424SOL     OW 2170   2.239   4.224   5.893
  424SOL    HW1 2171   2.333   4.197   5.916
  424SOL    HW2 2172   2.183   4.142   5.882
  425SOL     OW 2173   2.482   0.945   0.551
  425SOL    HW1 2174   2.425   1.027   0.541
  425SOL    HW2 2175   2.424   0.868   0.578
  426SOL     OW 2176   1.129   3.305   6.779
  426SOL    HW1 2177   1.031   3.320   6.797
  426SOL    HW2 2178   1.139   3.228   6.716
  427SOL     OW 2179   4.073   3.060   0.304
  427SOL    HW1 2180   4.037   3.120   0.233
  427SOL    HW2 2181   4.085   3.113   0.389
  428SOL     OW 2182   3.548   1.140   4.537
  428SOL    HW1 2183   3.527   1.227   4.581
  428SOL    HW2 2184   3.502   1.135   4.448
  429SOL     OW 2185   3.841   5.952   6.746
  429SOL    HW1 2186   3.878   5.872   6.699
  429SOL    HW2 2187   3.906   5.982   6.817
  430SOL     OW 2188   2.922   0.967   4.368
  430SOL    HW1 2189   2.917   1.065   4.348
  430SOL    HW2 2190   2.963   0.919   4.290
  431SOL     OW 2191   3.516   0.814   5.879
  431SOL    HW1 2192   3.493   0.724   5.915
  431SOL    HW2 2193   3.554   0.871   5.952
  432SOL     OW 2194   6.614   0.965   1.086
  432SOL    HW1 2195   6.703   1.006   1.103
  432SOL    HW2 2196   6.548   1.037   1.065
  433SOL     OW 2197   3.941   6.513   4.919
  433SOL    HW1 2198   3.981   6.605   4.924
  433SOL    HW2 2199   3.962   6.473   4.830
  434SOL     OW 2200   6.973   3.742   0.816
  434SOL    HW1 2201   7.012   3.819   0.867
  434SOL    HW2 2202   0.018   3.670   0.808
  435SOL     OW 2203   3.784   3.386   0.549
  435SOL    HW1 2204   3.719   3.314   0.526
  435SOL    HW2 2205   3.736   3.459   0.599
  436SOL     OW 2206   2.551   1.358   0.938
  436SOL    HW1 2207   2.612   1.366   1.017
  436SOL    HW2 2208   2.592   1.297   0.871
  437SOL     OW 2209   6.254   6.543   6.361
  437SOL    HW1 2210   6.345   6.547   6.321
  437SOL    HW2 2211   6.210   6.457   6.337
  438SOL     OW 2212   1.145   3.576   1.367
  438SOL    HW1 2213   1.228   3.552   1.316
  438SOL    HW2 2214   1.082   3.498   1.365
  439SOL     OW 2215   6.235   4.934   1.926
  439SOL    HW1 2216   6.176   4.853   1.915
  439SOL    HW2 2217   6.190   5.000   1.985
  440SOL     OW 2218   1.062   3.211   2.603
  440SOL    HW1 2219   1.144   3.262   2.575
  440SOL    HW2 2220   1.089   3.133   2.660
  441SOL     OW 2221   6.869   1.781   2.919
  441SOL    HW1 2222   6.852   1.741   2.829
  441SOL    HW2 2223   6.796   1.844   2.942
  442SOL     OW 2224   1.286   4.945   6.754
  442SOL    HW1 2225   1.378   4.977   6.729
  442SOL    HW2 2226   1.261   4.980   6.844
  443SOL     OW 2227   0.208   5.755   5.900
  443SOL    HW1 2228   0.248   5.844   5.925
  443SOL    HW2 2229   0.266   5.711   5.832
  444SOL     OW 2230   5.492   3.041   6.491
  444SOL    HW1 2231   5.448   3.102   6.425
  444SOL    HW2 2232   5.592   3.051   6.485
  445SOL     OW 2233   1.678   4.056   3.060
  445SOL    HW1 2234   1.600   4.022   3.008
  445SOL    HW2 2235   1.647   4.125   3.126
  446SOL     OW 2236   1.631   5.191   4.832
  446SOL    HW1 2237   1.695   5.227   4.765
  446SOL    HW2 2238   1.661   5.217   4.924
  447SOL     OW 2239   0.862   6.007   0.509
  447SOL    HW1 2240   0.845   5.909   0.503
  447SOL    HW2 2241   0.784   6.051   0.554
  448SOL     OW 2242   4.693   0.854   5.287
  448SOL    HW1 2243   4.687   0.918   5.363
  448SOL    HW2 2244   4.663   0.763   5.317
  449SOL     OW 2245   6.517   0.666   4.473
  449SOL    HW1 2246   6.546   0.577   4.436
  449SOL    HW2 2247   6.461   0.652   4.555
  450SOL     OW 2248   0.307   5.809   2.902
  450SOL    HW1 2249   0.362   5.750   2.961
  450SOL    HW2 2250   0.271   5.755   2.826
  451SOL     OW 2251   5.759   3.730   4.038
  451SOL    HW1 2252   5.790   3.642   4.002
  451SOL    HW2 2253   5.826   3.765   4.103
  452SOL     OW 2254   6.143   4.709   5.999
  452SOL    HW1 2255   6.053   4.694   5.958
  452SOL    HW2 2256   6.131   4.739   6.094
  453SOL     OW 2257   4.145   1.708   6.168
  453SOL    HW1 2258   4.212   1.637   6.189
  453SOL    HW2 2259   4.059   1.688   6.216
  454SOL     OW 2260   0.532   5.993   6.993
  454SOL    HW1 2261   0.525   6.088   0.000
  454SOL    HW2 2262   0.440   5.953   6.986
  455SOL     OW 2263   5.473   2.061   4.929
  455SOL    HW1 2264   5.503   2.156   4.915
  455SOL    HW2 2265   5.390   2.044   4.875
  456SOL     OW 2266   4.240   5.851   1.082
  456SOL    HW1 2267   4.303   5.795   1.135
  456SOL    HW2 2268   4.232   5.941   1.124
  457SOL     OW 2269   0.673   4.279   1.688
  457SOL    HW1 2270   0.710   4.187   1.675
  457SOL    HW2 2271   0.576   4.272   1.713
  458SOL     OW 2272   1.147   0.071   5.732
  458SOL    HW1 2273   1.221   0.138   5.725
  458SOL    HW2 2274   1.183   7.002   5.716
  459SOL     OW 2275   1.900   0.960   3.390
  459SOL    HW1 2276   1.927   0.868   3.362
  459SOL    HW2 2277   1.801   0.963   3.401
  460SOL     OW 2278   6.780   2.293   3.107
  460SOL    HW1 2279   6.755   2.389   3.093
  460SOL    HW2 2280   6.877   2.287   3.131
  461SOL     OW 2281   5.078   4.674   6.137
  461SOL    HW1 2282   5.165   4.678   6.088
  461SOL    HW2 2283   5.002   4.690   6.074
  462SOL     OW 2284   3.742   2.410   0.335
  462SOL    HW1 2285   3.812   2.340   0.316
  462SOL    HW2 2286   3.734   2.471   0.257
  463SOL     OW 2287   6.256   6.205   1.226
  463SOL    HW1 2288   6.197   6.127   1.246
  463SOL    HW2 2289   6.349   6.173   1.209
  464SOL     OW 2290   1.644   1.749   5.878
  464SOL    HW1 2291   1.651   1.649   5.884
  464SOL    HW2 2292   1.716   1.783   5.818
  465SOL     OW 2293   0.676   3.559   5.834
  465SOL    HW1 2294   0.724   3.566   5.746
  465SOL    HW2 2295   0.677   3.464   5.865
  466SOL     OW 2296   1.764   0.545   3.181
  466SOL    HW1 2297   1.718   0.487   3.248
  466SOL    HW2 2298   1.807   0.487   3.111
  467SOL     OW 2299   1.925   1.361   5.003
  467SOL    HW1 2300   2.014   1.333   5.037
  467SOL    HW2 2301   1.931   1.456   4.970
  468SOL     OW 2302   3.819   4.042   3.374
  468SOL    HW1 2303   3.783   4.073   3.462
  468SOL    HW2 2304   3.743   4.030   3.310
  469SOL     OW 2305   3.156   6.911   6.475
  469SOL    HW1 2306   3.090   6.867   6.536
  469SOL    HW2 2307   3.215   6.841   6.434
  470SOL     OW 2308   4.214   6.855   2.809
  470SOL    HW1 2309   4.295   6.814   2.851
  470SOL    HW2 2310   4.210   6.952   2.832
  471SOL     OW 2311   2.596   2.558   3.802
  471SOL    HW1 2312   2.620   2.618   3.725
  471SOL    HW2 2313   2.661   2.483   3.806
  472SOL     OW 2314   3.611   4.078   5.181
  472SOL    HW1 2315   3.693   4.135   5.189
  472SOL    HW2 2316   3.580   4.077   5.087
  473SOL     OW 2317   0.381   4.978   4.228
  473SOL    HW1 2318   0.351   4.970   4.133
  473SOL    HW2 2319   0.382   5.075   4.254
  474SOL     OW 2320   5.341   5.317   5.247
  474SOL    HW1 2321   5.244   5.306   5.227
  474SOL    HW2 2322   5.358   5.409   5.283
  475SOL     OW 2323   2.898   6.793   6.953
  475SOL    HW1 2324   2.868   6.772   0.023
  475SOL    HW2 2325   2.919   6.891   6.947
  476SOL     OW 2326   6.676   5.681   2.769
  476SOL    HW1 2327   6.718   5.595   2.800
  476SOL    HW2 2328   6.644   5.671   2.675
  477SOL     OW 2329   1.523   4.527   3.490
  477SOL    HW1 2330   1.540   4.616   3.449
  477SOL    HW2 2331   1.610   4.483   3.512
  478SOL     OW 2332   1.528   4.774   3.662
  478SOL    HW1 2333   1.615   4.779   3.711
  478SOL    HW2 2334   1.474   4.698   3.696
  479SOL     OW 2335   4.284   1.756   2.176
  479SOL    HW1 2336   4.265   1.833   2.237
  479SOL    HW2 2337   4.203   1.699   2.169
  480SOL     OW 2338   1.754   6.580   3.971
  480SOL    HW1 2339   1.661   6.559   3.941
  480SOL    HW2 2340   1.810   6.497   3.964
  481SOL     OW 2341   1.859   0.440   0.790
  481SOL    HW1 2342   1.944   0.481   0.823
  481SOL    HW2 2343   1.879   0.365   0.727
  482SOL     OW 2344   5.688   5.847   1.011
  482SOL    HW1 2345   5.692   5.779   0.938
  482SOL    HW2 2346   5.604   5.835   1.064
  483SOL     OW 2347   5.004   1.452   3.365
  483SOL    HW1 2348   4.926   1.481   3.310
  483SOL    HW2 2349   5.000   1.353   3.380
  484SOL     OW 2350   6.129   1.958   3.645
  484SOL    HW1 2351   6.208   2.017   3.635
  484SOL    HW2 2352   6.053   1.994   3.591
  485SOL     OW 2353   2.739   6.074   0.325
  485SOL    HW1 2354   2.753   6.080   0.424
  485SOL    HW2 2355   2.731   5.978   0.298
  486SOL     OW 2356   6.106   0.581   5.710
  486SOL    HW1 2357   6.160   0.532   5.642
  486SOL    HW2 2358   6.009   0.557   5.701
  487SOL     OW 2359   6.495   2.242   6.873
  487SOL    HW1 2360   6.531   2.166   6.926
  487SOL    HW2 2361   6.432   2.296   6.930
  488SOL     OW 2362   0.947   4.610   3.466
  488SOL    HW1 2363   0.953   4.534   3.401
  488SOL    HW2 2364   0.968   4.695   3.419
  489SOL     OW 2365   3.548   5.051   6.179
  489SOL    HW1 2366   3.514   4.977   6.122
  489SOL    HW2 2367   3.474   5.085   6.238
  490SOL     OW 2368   4.992   1.000   4.456
  490SOL    HW1 2369   4.983   1.040   4.364
  490SOL    HW2 2370   4.905   1.007   4.504
  491SOL     OW 2371   0.364   3.398   3.617
  491SOL    HW1 2372   0.463   3.387   3.616
  491SOL    HW2 2373   0.334   3.426   3.708
  492SOL     OW 2374   1.727   1.584   4.584
  492SOL    HW1 2375   1.665   1.662   4.573
  492SOL    HW2 2376   1.814   1.604   4.539
  493SOL     OW 2377   5.712   3.705   4.720
  493SOL    HW1 2378   5.673   3.655   4.797
  493SOL    HW2 2379   5.681   3.800   4.722
  494SOL     OW 2380   5.722   0.945   6.415
  494SOL    HW1 2381   5.651   0.876   6.429
  494SOL    HW2 2382   5.682   1.026   6.372
  495SOL     OW 2383   5.974   4.530   0.188
  495SOL    HW1 2384   6.058   4.486   0.155
  495SOL    HW2 2385   5.992   4.575   0.276
  496SOL     OW 2386   6.052   3.551   3.110
  496SOL    HW1 2387   6.017   3.494   3.184
  496SOL    HW2 2388   5.985   3.554   3.036
  497SOL     OW 2389   4.262   6.929   4.468
  497SOL    HW1 2390   4.288   6.993   4.396
  497SOL    HW2 2391   4.164   6.910   4.462
  498SOL     OW 2392   1.749   3.442   1.187
  498SOL    HW1 2393   1.754   3.538   1.160
  498SOL    HW2 2394   1.695   3.392   1.119
  499SOL     OW 2395   3.703   1.856   5.524
  499SOL    HW1 2396   3.757   1.905   5.455
  499SOL    HW2 2397   3.757   1.846   5.608
  500SOL     OW 2398   1.124   4.869   2.771
  500SOL    HW1 2399   1.106   4.920   2.686
  500SOL    HW2 2400   1.071   4.784   2.770
  501SOL     OW 2401   0.910   4.825   6.065
  501SOL    HW1 2402   0.827   4.865   6.026
  501SOL    HW2 2403   0.948   4.758   6.001
  502SOL     OW 2404   2.229   4.918   5.927
  502SOL    HW1 2405   2.279   4.834   5.949
  502SOL    HW2 2406   2.196   4.959   6.012
  503SOL     OW 2407   6.743   5.402   4.350
  503SOL    HW1 2408   6.794   5.427   4.432
  503SOL    HW2 2409   6.653   5.446   4.351
  504SOL     OW 2410   1.435   5.169   4.324
  504SOL    HW1 2411   1.529   5.156   4.353
  504SOL    HW2 2412   1.412   5.103   4.253
  505SOL     OW 2413   3.555   6.407   4.442
  505SOL    HW1 2414   3.477   6.464   4.417
  505SOL    HW2 2415   3.522   6.317   4.472
  506SOL     OW 2416   2.196   3.244   0.758
  506SOL    HW1 2417   2.117   3.303   0.745
  506SOL    HW2 2418   2.172   3.169   0.820
  507SOL     OW 2419   3.947   1.767   4.310
  507SOL    HW1 2420   4.047   1.764   4.315
  507SOL    HW2 2421   3.911   1.674   4.306
  508SOL     OW 2422   5.562   5.369   4.653
  508SOL    HW1 2423   5.651   5.416   4.655
  508SOL    HW2 2424   5.522   5.376   4.562
  509SOL     OW 2425   4.611   3.301   1.736
  509SOL    HW1 2426   4.653   3.238   1.801
  509SOL    HW2 2427   4.682   3.339   1.676
  510SOL     OW 2428   0.999   3.773   4.316
  510SOL    HW1 2429   0.994   3.805   4.411
  510SOL    HW2 2430   1.089   3.733   4.298
  511SOL     OW 2431   0.254   6.204   1.758
  511SOL    HW1 2432   0.180   6.137   1.761
  511SOL    HW2 2433   0.342   6.157   1.747
  512SOL     OW 2434   2.115   3.975   5.915
  512SOL    HW1 2435   2.153   3.913   5.984
  512SOL    HW2 2436   2.015   3.973   5.921
  513SOL     OW 2437   0.665   5.632   4.701
  513SOL    HW1 2438   0.615   5.559   4.655
  513SOL    HW2 2439   0.761   5.604   4.711
  514SOL     OW 2440   5.227   1.836   3.452
  514SOL    HW1 2441   5.280   1.894   3.514
  514SOL    HW2 2442   5.203   1.888   3.370
  515SOL     OW 2443   2.986   5.961   6.831
  515SOL    HW1 2444   2.935   5.897   6.774
  515SOL    HW2 2445   2.923   6.023   6.878
  516SOL     OW 2446   1.946   4.813   3.492
  516SOL    HW1 2447   2.023   4.865   3.527
  516SOL    HW2 2448   1.974   4.765   3.408
  517SOL     OW 2449   4.722   0.118   6.039
  517SOL    HW1 2450   4.684   0.202   6.078
  517SOL    HW2 2451   4.700   0.114   5.941
  518SOL     OW 2452   2.035   1.648   6.886
  518SOL    HW1 2453   1.967   1.719   6.871
  518SOL    HW2 2454   1.998   1.577   6.945
  519SOL     OW 2455   0.845   6.850   0.308
  519SOL    HW1 2456   0.787   6.925   0.341
  519SOL    HW2 2457   0.795   6.799   0.238
  520SOL     OW 2458   6.119   4.403   5.194
  520SOL    HW1 2459   6.202   4.415   5.247
  520SOL    HW2 2460   6.140   4.357   5.108
  521SOL     OW 2461   6.521   0.894   0.555
  521SOL    HW1 2462   6.434   0.934   0.526
  521SOL    HW2 2463   6.518   0.877   0.654
  522SOL     OW 2464   3.392   4.058   5.432
  522SOL    HW1 2465   3.318   4.077   5.367
  522SOL    HW2 2466   3.453   3.989   5.394
  523SOL     OW 2467   6.642   6.959   3.261
  523SOL    HW1 2468   6.558   7.003   3.292
  523SOL    HW2 2469   6.706   6.952   3.337
  524SOL     OW 2470   4.041   0.416   4.339
  524SOL    HW1 2471   4.033   0.509   4.374
  524SOL    HW2 2472   4.097   0.361   4.402
  525SOL     OW 2473   3.567   2.972   6.666
  525SOL    HW1 2474   3.572   3.018   6.755
  525SOL    HW2 2475   3.476   2.987   6.626
  526SOL     OW 2476   4.900   0.213   4.415
  526SOL    HW1 2477   4.816   0.265   4.402
  526SOL    HW2 2478   4.978   0.276   4.421
  527SOL     OW 2479   0.888   1.459   6.935
  527SOL    HW1 2480   0.821   1.459   7.010
  527SOL    HW2 2481   0.879   1.543   6.882
  528SOL     OW 2482   1.498   2.065   6.491
  528SOL    HW1 2483   1.486   2.051   6.589
  528SOL    HW2 2484   1.476   2.160   6.467
  529SOL     OW 2485   0.243   5.370   4.741
  529SOL    HW1 2486   0.159   5.425   4.736
  529SOL    HW2 2487   0.312   5.419   4.795
  530SOL     OW 2488   6.934   3.129   5.452
  530SOL    HW1 2489   6.836   3.148   5.462
  530SOL    HW2 2490   6.951   3.092   5.361
  531SOL     OW 2491   0.226   6.778   0.431
  531SOL    HW1 2492   0.134   6.770   0.394
  531SOL    HW2 2493   0.288   6.813   0.361
  532SOL     OW 2494   2.095   1.223   5.688
  532SOL    HW1 2495   2.051   1.215   5.778
  532SOL    HW2 2496   2.189   1.255   5.699
  533SOL     OW 2497   4.615   0.608   5.388
  533SOL    HW1 2498   4.546   0.647   5.448
  533SOL    HW2 2499   4.574   0.537   5.331
  534SOL     OW 2500   2.514   5.574   3.472
  534SOL    HW1 2501   2.461   5.531   3.546
  534SOL    HW2 2502   2.479   5.667   3.457
  535SOL     OW 2503   7.017   3.768   2.348
  535SOL    HW1 2504   0.008   3.671   2.328
  535SOL    HW2 2505   0.060   3.822   2.296
  536SOL     OW 2506   1.774   6.037   1.386
  536SOL    HW1 2507   1.765   6.054   1.484
  536SOL    HW2 2508   1.870   6.024   1.363
  537SOL     OW 2509   2.567   0.240   3.278
  537SOL    HW1 2510   2.585   0.187   3.361
  537SOL    HW2 2511   2.567   0.179   3.199
  538SOL     OW 2512   1.668   5.290   3.713
  538SOL    HW1 2513   1.619   5.225   3.656
  538SOL    HW2 2514   1.604   5.338   3.773
  539SOL     OW 2515   1.524   5.054   1.151
  539SOL    HW1 2516   1.612   5.022   1.188
  539SOL    HW2 2517   1.507   5.147   1.182
  540SOL     OW 2518   2.879   2.664   0.663
  540SOL    HW1 2519   2.864   2.711   0.750
  540SOL    HW2 2520   2.878   2.565   0.679
  541SOL     OW 2521   5.414   5.991   5.138
  541SOL    HW1 2522   5.329   5.997   5.086
  541SOL    HW2 2523   5.491   6.016   5.080
  542SOL     OW 2524   6.089   0.184   6.315
  542SOL    HW1 2525   6.053   0.091   6.304
  542SOL    HW2 2526   6.017   0.251   6.299
  543SOL     OW 2527   6.641   0.276   2.455
  543SOL    HW1 2528   6.551   0.317   2.468
  543SOL    HW2 2529   6.653   0.200   2.519
  544SOL     OW 2530   0.637   5.218   0.865
  544SOL    HW1 2531   0.671   5.165   0.787
  544SOL    HW2 2532   0.623   5.157   0.944
  545SOL     OW 2533   2.693   1.887   3.889
  545SOL    HW1 2534   2.721   1.801   3.930
  545SOL    HW2 2535   2.676   1.954   3.961
  546SOL     OW 2536   1.177   2.586   0.035
  546SOL    HW1 2537   1.146   2.678   0.012
  546SOL    HW2 2538   1.163   2.526   6.979
  547SOL     OW 2539   3.274   2.200   0.399
  547SOL    HW1 2540   3.209   2.244   0.461
  547SOL    HW2 2541   3.348   2.264   0.378
  548SOL     OW 2542   3.106   3.487   5.821
  548SOL    HW1 2543   3.202   3.513   5.833
  548SOL    HW2 2544   3.065   3.542   5.748
  549SOL     OW 2545   6.885   4.778   1.396
  549SOL    HW1 2546   6.893   4.739   1.488
  549SOL    HW2 2547   6.789   4.796   1.376
  550SOL     OW 2548   6.442   4.112   0.976
  550SOL    HW1 2549   6.481   4.171   0.905
  550SOL    HW2 2550   6.508   4.040   1.000
  551SOL     OW 2551   0.688   0.234   0.223
  551SOL    HW1 2552   0.597   0.264   0.249
  551SOL    HW2 2553   0.716   0.156   0.278
  552SOL     OW 2554   4.336   5.286   0.430
  552SOL    HW1 2555   4.412   5.282   0.495
  552SOL    HW2 2556   4.273   5.210   0.447
  553SOL     OW 2557   0.941   2.489   1.336
  553SOL    HW1 2558   1.035   2.455   1.344
  553SOL    HW2 2559   0.916   2.538   1.419
  554SOL     OW 2560   4.720   5.211   5.078
  554SOL    HW1 2561   4.790   5.139   5.075
  554SOL    HW2 2562   4.657   5.192   5.153
  555SOL     OW 2563   1.995   4.045   5.589
  555SOL    HW1 2564   1.923   4.103   5.551
  555SOL    HW2 2565   2.084   4.091   5.578
  556SOL     OW 2566   6.297   3.849   3.395
  556SOL    HW1 2567   6.257   3.844   3.304
  556SOL    HW2 2568   6.236   3.902   3.455
  557SOL     OW 2569   6.166   5.439   5.726
  557SOL    HW1 2570   6.258   5.440   5.688
  557SOL    HW2 2571   6.171   5.431   5.826
  558SOL     OW 2572   3.687   3.902   5.819
  558SOL    HW1 2573   3.784   3.923   5.834
  558SOL    HW2 2574   3.679   3.816   5.768
  559SOL     OW 2575   5.063   5.010   6.599
  559SOL    HW1 2576   5.113   5.004   6.686
  559SOL    HW2 2577   4.968   5.033   6.616
  560SOL     OW 2578   4.880   6.572   0.436
  560SOL    HW1 2579   4.930   6.489   0.410
  560SOL    HW2 2580   4.923   6.613   0.516
  561SOL     OW 2581   4.685   6.824   2.798
  561SOL    HW1 2582   4.601   6.795   2.844
  561SOL    HW2 2583   4.665   6.900   2.737
  562SOL     OW 2584   5.478   0.464   1.095
  562SOL    HW1 2585   5.551   0.474   1.162
  562SOL    HW2 2586   5.492   0.529   1.020
  563SOL     OW 2587   3.008   0.460   5.043
  563SOL    HW1 2588   3.094   0.417   5.014
  563SOL    HW2 2589   3.027   0.549   5.084
  564SOL     OW 2590   0.815   1.377   5.537
  564SOL    HW1 2591   0.781   1.449   5.476
  564SOL    HW2 2592   0.915   1.376   5.535
  565SOL     OW 2593   4.375   3.363   5.725
  565SOL    HW1 2594   4.344   3.329   5.814
  565SOL    HW2 2595   4.301   3.356   5.659
  566SOL     OW 2596   6.881   4.213   2.255
  566SOL    HW1 2597   6.845   4.138   2.200
  566SOL    HW2 2598   6.814   4.288   2.257
  567SOL     OW 2599   3.815   3.748   6.152
  567SOL    HW1 2600   3.748   3.703   6.211
  567SOL    HW2 2601   3.792   3.845   6.143
  568SOL     OW 2602   2.874   1.394   6.152
  568SOL    HW1 2603   2.939   1.344   6.210
  568SOL    HW2 2604   2.803   1.331   6.121
  569SOL     OW 2605   2.136   4.014   6.730
  569SOL    HW1 2606   2.105   4.106   6.704
  569SOL    HW2 2607   2.143   4.009   6.830
  570SOL     OW 2608   0.658   5.182   6.584
  570SOL    HW1 2609   0.648   5.201   6.486
  570SOL    HW2 2610   0.612   5.253   6.637
  571SOL     OW 2611   4.651   6.002   2.542
  571SOL    HW1 2612   4.633   5.960   2.453
  571SOL    HW2 2613   4.674   6.098   2.530
  572SOL     OW 2614   1.870   4.367   3.814
  572SOL    HW1 2615   1.784   4.346   3.767
  572SOL    HW2 2616   1.851   4.398   3.907
  573SOL     OW 2617   4.358   2.413   6.797
  573SOL    HW1 2618   4.443   2.432   6.847
  573SOL    HW2 2619   4.346   2.481   6.725
  574SOL     OW 2620   2.546   2.150   3.405
  574SOL    HW1 2621   2.608   2.134   3.328
  574SOL    HW2 2622   2.457   2.110   3.385
  575SOL     OW 2623   4.479   2.477   5.800
  575SOL    HW1 2624   4.407   2.535   5.838
  575SOL    HW2 2625   4.468   2.384   5.835
  576SOL     OW 2626   0.345   3.705   3.657
  576SOL    HW1 2627   0.301   3.732   3.572
  576SOL    HW2 2628   0.305   3.620   3.690
  577SOL     OW 2629   3.688   1.752   3.309
  577SOL    HW1 2630   3.616   1.731   3.243
  577SOL    HW2 2631   3.663   1.715   3.398
  578SOL     OW 2632   0.118   3.522   4.853
  578SOL    HW1 2633   0.084   3.576   4.929
  578SOL    HW2 2634   0.203   3.476   4.881
  579SOL     OW 2635   4.027   3.798   1.188
  579SOL    HW1 2636   3.971   3.876   1.160
  579SOL    HW2 2637   4.074   3.760   1.109
  580SOL     OW 2638   0.011   0.168   0.096
  580SOL    HW1 2639   6.985   0.240   0.047
  580SOL    HW2 2640   6.971   0.092   0.112
  581SOL     OW 2641   3.697   3.070   3.789
  581SOL    HW1 2642   3.636   3.014   3.732
  581SOL    HW2 2643   3.763   3.116   3.730
  582SOL     OW 2644   0.095   3.505   0.725
  582SOL    HW1 2645   0.027   3.472   0.659
  582SOL    HW2 2646   0.178   3.450   0.717
  583SOL     OW 2647   2.984   0.018   6.791
  583SOL    HW1 2648   2.968   0.048   6.697
  583SOL    HW2 2649   3.079   7.012   6.801
  584SOL     OW 2650   1.803   5.293   4.642
  584SOL    HW1 2651   1.809   5.390   4.618
  584SOL    HW2 2652   1.889   5.265   4.686
  585SOL     OW 2653   5.577   1.802   5.448
  585SOL    HW1 2654   5.641   1.874   5.475
  585SOL    HW2 2655   5.488   1.842   5.428
  586SOL     OW 2656   3.314   5.099   1.150
  586SOL    HW1 2657   3.412   5.086   1.161
  586SOL    HW2 2658   3.287   5.069   1.059
  587SOL     OW 2659   2.546   2.868   6.479
  587SOL    HW1 2660   2.482   2.921   6.423
  587SOL    HW2 2661   2.625   2.924   6.502
  588SOL     OW 2662   2.247   0.416   1.897
  588SOL    HW1 2663   2.339   0.455   1.896
  588SOL    HW2 2664   2.245   0.332   1.843
  589SOL     OW 2665   4.814   5.330   2.014
  589SOL    HW1 2666   4.829   5.286   2.102
  589SOL    HW2 2667   4.732   5.293   1.971
  590SOL     OW 2668   0.490   4.614   1.818
  590SOL    HW1 2669   0.441   4.549   1.876
  590SOL    HW2 2670   0.584   4.584   1.806
  591SOL     OW 2671   2.517   0.578   2.998
  591SOL    HW1 2672   2.504   0.674   3.022
  591SOL    HW2 2673   2.607   0.565   2.959
  592SOL     OW 2674   5.261   0.204   6.583
  592SOL    HW1 2675   5.188   0.173   6.643
  592SOL    HW2 2676   5.323   0.264   6.634
  593SOL     OW 2677   0.363   0.782   4.498
  593SOL    HW1 2678   0.285   0.753   4.554
  593SOL    HW2 2679   0.361   0.882   4.489
  594SOL     OW 2680   4.983   2.486   1.334
  594SOL    HW1 2681   5.011   2.541   1.413
  594SOL    HW2 2682   4.932   2.543   1.269
  595SOL     OW 2683   2.693   6.782   3.669
  595SOL    HW1 2684   2.603   6.814   3.700
  595SOL    HW2 2685   2.690   6.683   3.658
  596SOL     OW 2686   0.601   4.874   2.726
  596SOL    HW1 2687   0.545   4.927   2.788
  596SOL    HW2 2688   0.662   4.814   2.778
  597SOL     OW 2689   4.754   1.792   5.470
  597SOL    HW1 2690   4.775   1.798   5.568
  597SOL    HW2 2691   4.656   1.772   5.458
  598SOL     OW 2692   3.717   3.686   1.862
  598SOL    HW1 2693   3.735   3.619   1.934
  598SOL    HW2 2694   3.635   3.738   1.884
  599SOL     OW 2695   6.185   5.643   3.340
  599SOL    HW1 2696   6.225   5.651   3.431
  599SOL    HW2 2697   6.211   5.554   3.301
  600SOL     OW 2698   3.199   1.994   0.240
  600SOL    HW1 2699   3.218   2.048   0.321
  600SOL    HW2 2700   3.105   1.961   0.243
  601SOL     OW 2701   1.397   5.005   1.559
  601SOL    HW1 2702   1.318   5.055   1.524
  601SOL    HW2 2703   1.368   4.916   1.593
  602SOL     OW 2704   0.068   1.233   2.736
  602SOL    HW1 2705   0.076   1.142   2.694
  602SOL    HW2 2706   0.098   1.228   2.831
  603SOL     OW 2707   4.252   1.667   2.883
  603SOL    HW1 2708   4.186   1.633   2.949
  603SOL    HW2 2709   4.312   1.734   2.927
  604SOL     OW 2710   1.995   2.779   5.710
  604SOL    HW1 2711   2.048   2.743   5.786
  604SOL    HW2 2712   1.925   2.841   5.744
  605SOL     OW 2713   5.268   0.090   4.455
  605SOL    HW1 2714   5.360   0.056   4.435
  605SOL    HW2 2715   5.211   0.015   4.487
  606SOL     OW 2716   2.329   6.876   2.232
  606SOL    HW1 2717   2.329   6.875   2.332
  606SOL    HW2 2718   2.242   6.911   2.199
  607SOL     OW 2719   3.730   6.669   4.547
  607SOL    HW1 2720   3.643   6.718   4.548
  607SOL    HW2 2721   3.713   6.571   4.552
  608SOL     OW 2722   6.643   2.922   0.803
  608SOL    HW1 2723   6.726   2.974   0.823
  608SOL    HW2 2724   6.567   2.986   0.788
  609SOL     OW 2725   3.514   4.115   4.927
  609SOL    HW1 2726   3.490   4.100   4.831
  609SOL    HW2 2727   3.593   4.175   4.933
  610SOL     OW 2728   6.764   2.099   5.299
  610SOL    HW1 2729   6.818   2.105   5.383
  610SOL    HW2 2730   6.772   2.006   5.261
  611SOL     OW 2731   6.678   0.097   0.537
  611SOL    HW1 2732   6.756   0.057   0.488
  611SOL    HW2 2733   6.595   0.084   0.484
  612SOL     OW 2734   1.782   4.330   6.552
  612SOL    HW1 2735   1.747   4.237   6.540
  612SOL    HW2 2736   1.849   4.351   6.480
  613SOL     OW 2737   3.888   1.284   6.581
  613SOL    HW1 2738   3.975   1.284   6.630
  613SOL    HW2 2739   3.824   1.221   6.626
  614SOL     OW 2740   4.990   2.958   0.638
  614SOL    HW1 2741   5.031   2.868   0.629
  614SOL    HW2 2742   5.053   3.027   0.602
  615SOL     OW 2743   5.886   5.249   1.100
  615SOL    HW1 2744   5.903   5.347   1.107
  615SOL    HW2 2745   5.885   5.222   1.004
  616SOL     OW 2746   5.424   1.133   4.889
  616SOL    HW1 2747   5.376   1.215   4.861
  616SOL    HW2 2748   5.519   1.138   4.860
  617SOL     OW 2749   6.179   0.345   4.935
  617SOL    HW1 2750   6.215   0.264   4.981
  617SOL    HW2 2751   6.099   0.379   4.986
  618SOL     OW 2752   5.289   4.378   1.069
  618SOL    HW1 2753   5.249   4.360   0.980
  618SOL    HW2 2754   5.291   4.293   1.123
  619SOL     OW 2755   1.239   0.018   0.121
  619SOL    HW1 2756   1.240   0.114   0.093
  619SOL    HW2 2757   1.146   7.005   0.113
  620SOL     OW 2758   4.622   1.832   1.344
  620SOL    HW1 2759   4.706   1.856   1.295
  620SOL    HW2 2760   4.606   1.898   1.417
  621SOL     OW 2761   1.778   6.544   6.164
  621SOL    HW1 2762   1.681   6.520   6.170
  621SOL    HW2 2763   1.814   6.559   6.257
  622SOL     OW 2764   0.561   2.709   5.868
  622SOL    HW1 2765   0.471   2.689   5.905
  622SOL    HW2 2766   0.582   2.806   5.883
  623SOL     OW 2767   6.132   0.973   2.728
  623SOL    HW1 2768   6.223   0.978   2.769
  623SOL    HW2 2769   6.082   0.896   2.767
  624SOL     OW 2770   6.019   0.583   6.024
  624SOL    HW1 2771   6.017   0.652   6.096
  624SOL    HW2 2772   5.985   0.622   5.939
  625SOL     OW 2773   3.321   0.736   1.243
  625SOL    HW1 2774   3.223   0.749   1.257
  625SOL    HW2 2775   3.371   0.763   1.325
  626SOL     OW 2776   0.087   0.138   4.047
  626SOL    HW1 2777   0.090   0.117   3.949
  626SOL    HW2 2778   0.101   0.236   4.060
  627SOL     OW 2779   6.337   4.045   5.870
  627SOL    HW1 2780   6.412   3.988   5.837
  627SOL    HW2 2781   6.355   4.140   5.846
  628SOL     OW 2782   3.568   4.625   6.913
  628SOL    HW1 2783   3.504   4.660   6.981
  628SOL    HW2 2784   3.556   4.675   6.827
  629SOL     OW 2785   2.174   6.960   0.162
  629SOL    HW1 2786   2.238   6.902   0.112
  629SOL    HW2 2787   2.211   6.982   0.252
  630SOL     OW 2788   6.556   2.068   0.223
  630SOL    HW1 2789   6.510   2.123   0.291
  630SOL    HW2 2790   6.653   2.057   0.248
  631SOL     OW 2791   1.837   3.897   2.099
  631SOL    HW1 2792   1.920   3.853   2.067
  631SOL    HW2 2793   1.857   3.950   2.181
  632SOL     OW 2794   3.907   5.075   1.162
  632SOL    HW1 2795   3.984   5.047   1.104
  632SOL    HW2 2796   3.928   5.054   1.257
  633SOL     OW 2797   1.457   5.718   6.569
  633SOL    HW1 2798   1.398   5.751   6.643
  633SOL    HW2 2799   1.445   5.778   6.489
  634SOL     OW 2800   2.017   3.554   5.560
  634SOL    HW1 2801   1.972   3.642   5.547
  634SOL    HW2 2802   2.090   3.543   5.492
  635SOL     OW 2803   0.376   5.877   6.600
  635SOL    HW1 2804   0.294   5.909   6.553
  635SOL    HW2 2805   0.454   5.933   6.572
  636SOL     OW 2806   1.250   2.375   4.756
  636SOL    HW1 2807   1.301   2.457   4.781
  636SOL    HW2 2808   1.309   2.314   4.703
  637SOL     OW 2809   6.062   1.063   1.431
  637SOL    HW1 2810   6.158   1.065   1.460
  637SOL    HW2 2811   6.004   1.033   1.506
  638SOL     OW 2812   6.997   3.866   5.320
  638SOL    HW1 2813   0.043   3.876   5.248
  638SOL    HW2 2814   0.006   3.799   5.387
  639SOL     OW 2815   6.220   3.311   0.859
  639SOL    HW1 2816   6.302   3.366   0.845
  639SOL    HW2 2817   6.205   3.296   0.957
  640SOL     OW 2818   6.261   4.124   2.801
  640SOL    HW1 2819   6.204   4.061   2.748
  640SOL    HW2 2820   6.207   4.205   2.824
  641SOL     OW 2821   2.670   6.027   4.187
  641SOL    HW1 2822   2.639   5.965   4.115
  641SOL    HW2 2823   2.727   5.976   4.252
  642SOL     OW 2824   0.963   5.244   4.134
  642SOL    HW1 2825   1.033   5.229   4.203
  642SOL    HW2 2826   0.912   5.327   4.155
  643SOL     OW 2827   3.997   4.825   0.003
  643SOL    HW1 2828   3.925   4.758   7.013
  643SOL    HW2 2829   4.071   4.784   0.058
  644SOL     OW 2830   5.673   0.716   4.557
  644SOL    HW1 2831   5.601   0.749   4.619
  644SOL    HW2 2832   5.647   0.627   4.521
  645SOL     OW 2833   3.734   5.796   2.743
  645SOL    HW1 2834   3.677   5.718   2.767
  645SOL    HW2 2835   3.746   5.855   2.823
  646SOL     OW 2836   3.448   0.864   5.241
  646SOL    HW1 2837   3.478   0.921   5.318
  646SOL    HW2 2838   3.439   0.770   5.272
  647SOL     OW 2839   1.642   2.269   6.681
  647SOL    HW1 2840   1.678   2.321   6.759
  647SOL    HW2 2841   1.607   2.181   6.713
  648SOL     OW 2842   5.164   2.564   3.836
  648SOL    HW1 2843   5.237   2.577   3.904
  648SOL    HW2 2844   5.078   2.548   3.883
  649SOL     OW 2845   3.914   6.116   1.228
  649SOL    HW1 2846   3.951   6.023   1.227
  649SOL    HW2 2847   3.831   6.120   1.171
  650SOL     OW 2848   2.407   3.640   1.683
  650SOL    HW1 2849   2.398   3.553   1.731
  650SOL    HW2 2850   2.340   3.705   1.718
  651SOL     OW 2851   0.135   1.624   3.198
  651SOL    HW1 2852   0.155   1.656   3.290
  651SOL    HW2 2853   0.164   1.528   3.189
  652SOL     OW 2854   3.703   6.073   0.737
  652SOL    HW1 2855   3.771   6.019   0.687
  652SOL    HW2 2856   3.648   6.012   0.795
  653SOL     OW 2857   1.662   0.336   2.879
  653SOL    HW1 2858   1.687   0.433   2.878
  653SOL    HW2 2859   1.734   0.283   2.835
  654SOL     OW 2860   1.494   0.187   6.384
  654SOL    HW1 2861   1.437   0.163   6.462
  654SOL    HW2 2862   1.509   0.107   6.327
  655SOL     OW 2863   1.540   3.880   1.808
  655SOL    HW1 2864   1.444   3.891   1.783
  655SOL    HW2 2865   1.581   3.809   1.750
  656SOL     OW 2866   2.089   0.753   0.222
  656SOL    HW1 2867   2.048   0.732   0.133
  656SOL    HW2 2868   2.018   0.761   0.291
  657SOL     OW 2869   3.393   3.254   4.096
  657SOL    HW1 2870   3.345   3.323   4.042
  657SOL    HW2 2871   3.327   3.203   4.151
  658SOL     OW 2872   2.599   0.274   5.085
  658SOL    HW1 2873   2.670   0.267   5.155
  658SOL    HW2 2874   2.509   0.259   5.128
  659SOL     OW 2875   1.876   4.453   6.773
  659SOL    HW1 2876   1.853   4.410   6.686
  659SOL    HW2 2877   1.793   4.472   6.825
  660SOL     OW 2878   5.732   3.302   2.511
  660SOL    HW1 2879   5.680   3.327   2.593
  660SOL    HW2 2880   5.744   3.202   2.509
  661SOL     OW 2881   4.700   5.604   4.172
  661SOL    HW1 2882   4.653   5.690   4.190
  661SOL    HW2 2883   4.646   5.550   4.107
  662SOL     OW 2884   6.702   3.008   0.221
  662SOL    HW1 2885   6.671   3.103   0.220
  662SOL    HW2 2886   6.668   2.961   0.139
  663SOL     OW 2887   1.681   4.298   6.110
  663SOL    HW1 2888   1.611   4.274   6.176
  663SOL    HW2 2889   1.654   4.265   6.019
  664SOL     OW 2890   2.429   0.124   5.915
  664SOL    HW1 2891   2.460   0.066   5.840
  664SOL    HW2 2892   2.339   0.092   5.946
  665SOL     OW 2893   2.428   4.454   3.350
  665SOL    HW1 2894   2.521   4.488   3.353
  665SOL    HW2 2895   2.364   4.531   3.346
  666SOL     OW 2896   3.180   0.455   0.087
  666SOL    HW1 2897   3.114   0.494   0.023
  666SOL    HW2 2898   3.133   0.399   0.155
  667SOL     OW 2899   2.124   3.252   2.441
  667SOL    HW1 2900   2.100   3.284   2.533
  667SOL    HW2 2901   2.180   3.170   2.449
  668SOL     OW 2902   5.388   6.780   0.378
  668SOL    HW1 2903   5.436   6.711   0.325
  668SOL    HW2 2904   5.429   6.869   0.363
  669SOL     OW 2905   6.312   5.906   1.989
  669SOL    HW1 2906   6.302   5.832   1.921
  669SOL    HW2 2907   6.396   5.893   2.040
  670SOL     OW 2908   3.601   4.083   3.195
  670SOL    HW1 2909   3.603   4.060   3.098
  670SOL    HW2 2910   3.526   4.148   3.212
  671SOL     OW 2911   1.258   0.239   6.995
  671SOL    HW1 2912   1.246   0.309   0.043
  671SOL    HW2 2913   1.257   0.283   6.905
  672SOL     OW 2914   0.285   2.633   2.868
  672SOL    HW1 2915   0.298   2.535   2.857
  672SOL    HW2 2916   0.295   2.678   2.779
  673SOL     OW 2917   4.855   0.639   6.173
  673SOL    HW1 2918   4.911   0.684   6.243
  673SOL    HW2 2919   4.814   0.708   6.114
  674SOL     OW 2920   6.809   2.865   3.999
  674SOL    HW1 2921   6.759   2.952   3.993
  674SOL    HW2 2922   6.871   2.868   4.078
  675SOL     OW 2923   6.072   6.912   3.660
  675SOL    HW1 2924   6.044   6.914   3.756
  675SOL    HW2 2925   6.026   6.836   3.613
  676SOL     OW 2926   3.265   4.361   5.349
  676SOL    HW1 2927   3.220   4.450   5.362
  676SOL    HW2 2928   3.319   4.339   5.430
  677SOL     OW 2929   5.413   6.405   0.643
  677SOL    HW1 2930   5.416   6.382   0.545
  677SOL    HW2 2931   5.367   6.493   0.655
  678SOL     OW 2932   1.820   0.222   6.441
  678SOL    HW1 2933   1.865   0.256   6.358
  678SOL    HW2 2934   1.721   0.214   6.424
  679SOL     OW 2935   0.420   0.061   2.665
  679SOL    HW1 2936   0.388   0.034   2.756
  679SOL    HW2 2937   0.343   0.097   2.612
  680SOL     OW 2938   6.085   3.430   3.709
  680SOL    HW1 2939   6.152   3.387   3.769
  680SOL    HW2 2940   6.121   3.436   3.616
  681SOL     OW 2941   0.596   5.245   3.278
  681SOL    HW1 2942   0.630   5.268   3.369
  681SOL    HW2 2943   0.673   5.241   3.214
  682SOL     OW 2944   0.661   0.011   5.360
  682SOL    HW1 2945   0.649   0.094   5.305
  682SOL    HW2 2946   0.674   6.956   5.299
  683SOL     OW 2947   5.252   1.853   1.844
  683SOL    HW1 2948   5.163   1.841   1.888
  683SOL    HW2 2949   5.324   1.835   1.910
  684SOL     OW 2950   6.770   5.437   6.712
  684SOL    HW1 2951   6.796   5.389   6.796
  684SOL    HW2 2952   6.671   5.447   6.709
  685SOL     OW 2953   6.106   0.684   4.830
  685SOL    HW1 2954   6.103   0.689   4.930
  685SOL    HW2 2955   6.116   0.776   4.793
  686SOL     OW 2956   5.566   4.305   0.810
  686SOL    HW1 2957   5.572   4.219   0.861
  686SOL    HW2 2958   5.503   4.293   0.733
  687SOL     OW 2959   5.113   3.119   6.971
  687SOL    HW1 2960   5.202   3.090   6.936
  687SOL    HW2 2961   5.071   3.044   7.023
  688SOL     OW 2962   0.381   2.715   5.007
  688SOL    HW1 2963   0.354   2.642   5.071
  688SOL    HW2 2964   0.417   2.793   5.059
  689SOL     OW 2965   5.504   4.830   4.532
  689SOL    HW1 2966   5.414   4.787   4.532
  689SOL    HW2 2967   5.497   4.925   4.562
  690SOL     OW 2968   0.046   2.602   4.497
  690SOL    HW1 2969   0.064   2.671   4.427
  690SOL    HW2 2970   0.126   2.594   4.557
  691SOL     OW 2971   1.405   2.821   6.469
  691SOL    HW1 2972   1.353   2.788   6.548
  691SOL    HW2 2973   1.496   2.780   6.469
  692SOL     OW 2974   2.505   0.485   4.055
  692SOL    HW1 2975   2.505   0.490   3.956
  692SOL    HW2 2976   2.416   0.513   4.091
  693SOL     OW 2977   5.992   1.249   3.120
  693SOL    HW1 2978   5.944   1.162   3.117
  693SOL    HW2 2979   6.010   1.274   3.215
  694SOL     OW 2980   1.250   0.400   2.269
  694SOL    HW1 2981   1.177   0.442   2.322
  694SOL    HW2 2982   1.335   0.451   2.284
  695SOL     OW 2983   4.449   5.904   6.533
  695SOL    HW1 2984   4.394   5.839   6.481
  695SOL    HW2 2985   4.431   5.893   6.631
  696SOL     OW 2986   5.647   6.045   2.524
  696SOL    HW1 2987   5.621   6.007   2.435
  696SOL    HW2 2988   5.569   6.042   2.586
  697SOL     OW 2989   1.257   4.320   3.130
  697SOL    HW1 2990   1.328   4.308   3.199
  697SOL    HW2 2991   1.282   4.271   3.046
  698SOL     OW 2992   4.639   6.847   3.908
  698SOL    HW1 2993   4.550   6.885   3.932
  698SOL    HW2 2994   4.710   6.894   3.961
  699SOL     OW 2995   2.188   5.782   6.445
  699SOL    HW1 2996   2.162   5.834   6.364
  699SOL    HW2 2997   2.179   5.684   6.426
  700SOL     OW 2998   1.370   2.603   4.819
  700SOL    HW1 2999   1.381   2.681   4.880
  700SOL    HW2 3000   1.456   2.585   4.771
  701SOL     OW 3001   0.868   5.030   6.276
  701SOL    HW1 3002   0.859   4.989   6.367
  701SOL    HW2 3003   0.895   4.960   6.210
  702SOL     OW 3004   5.647   6.327   5.728
  702SOL    HW1 3005   5.629   6.257   5.798
  702SOL    HW2 3006   5.685   6.283   5.646
  703SOL     OW 3007   6.111   3.727   6.101
  703SOL    HW1 3008   6.151   3.648   6.054
  703SOL    HW2 3009   6.045   3.695   6.169
  704SOL     OW 3010   2.331   0.115   2.037
  704SOL    HW1 3011   2.414   0.077   2.078
  704SOL    HW2 3012   2.310   0.203   2.080
  705SOL     OW 3013   1.343   1.924   4.607
  705SOL    HW1 3014   1.432   1.907   4.564
  705SOL    HW2 3015   1.276   1.859   4.571
  706SOL     OW 3016   5.946   3.354   3.252
  706SOL    HW1 3017   5.868   3.312   3.300
  706SOL    HW2 3018   5.954   3.314   3.161
  707SOL     OW 3019   4.935   3.242   2.991
  707SOL    HW1 3020   4.887   3.276   2.910
  707SOL    HW2 3021   4.942   3.316   3.058
  708SOL     OW 3022   5.391   0.984   1.817
  708SOL    HW1 3023   5.324   0.996   1.891
  708SOL    HW2 3024   5.404   1.071   1.770
  709SOL     OW 3025   1.528   3.492   6.344
  709SOL    HW1 3026   1.518   3.415   6.407
  709SOL    HW2 3027   1.613   3.541   6.363
  710SOL     OW 3028   3.199   3.654   3.780
  710SOL    HW1 3029   3.233   3.712   3.706
  710SOL    HW2 3030   3.157   3.711   3.851
  711SOL     OW 3031   1.625   1.066   3.701
  711SOL    HW1 3032   1.667   1.124   3.631
  711SOL    HW2 3033   1.539   1.108   3.733
  712SOL     OW 3034   0.275   4.862   3.973
  712SOL    HW1 3035   0.351   4.808   3.936
  712SOL    HW2 3036   0.268   4.948   3.923
  713SOL     OW 3037   2.232   3.852   5.688
  713SOL    HW1 3038   2.221   3.912   5.608
  713SOL    HW2 3039   2.166   3.878   5.758
  714SOL     OW 3040   5.001   4.930   4.461
  714SOL    HW1 3041   5.049   4.864   4.403
  714SOL    HW2 3042   4.903   4.922   4.446
  715SOL     OW 3043   6.686   0.379   5.697
  715SOL    HW1 3044   6.708   0.357   5.792
  715SOL    HW2 3045   6.630   0.462   5.693
  716SOL     OW 3046   6.221   5.738   0.180
  716SOL    HW1 3047   6.199   5.834   0.165
  716SOL    HW2 3048   6.176   5.681   0.111
  717SOL     OW 3049   5.824   2.926   5.344
  717SOL    HW1 3050   5.808   3.017   5.306
  717SOL    HW2 3051   5.739   2.892   5.386
  718SOL     OW 3052   3.599   3.519   0.906
  718SOL    HW1 3053   3.604   3.558   0.814
  718SOL    HW2 3054   3.562   3.426   0.902
  719SOL     OW 3055   6.914   4.327   0.249
  719SOL    HW1 3056   6.874   4.380   0.324
  719SOL    HW2 3057   7.014   4.328   0.258
  720SOL     OW 3058   4.066   0.963   5.712
  720SOL    HW1 3059   4.101   0.958   5.618
  720SOL    HW2 3060   4.143   0.968   5.775
  721SOL     OW 3061   1.981   0.691   5.126
  721SOL    HW1 3062   1.979   0.791   5.117
  721SOL    HW2 3063   1.920   0.663   5.200
  722SOL     OW 3064   4.529   1.670   5.123
  722SOL    HW1 3065   4.493   1.611   5.051
  722SOL    HW2 3066   4.629   1.665   5.124
  723SOL     OW 3067   0.238   3.744   1.860
  723SOL    HW1 3068   0.337   3.730   1.863
  723SOL    HW2 3069   0.193   3.682   1.924
  724SOL     OW 3070   0.485   2.636   4.335
  724SOL    HW1 3071   0.402   2.581   4.323
  724SOL    HW2 3072   0.539   2.600   4.411
  725SOL     OW 3073   2.328   5.168   2.232
  725SOL    HW1 3074   2.399   5.219   2.184
  725SOL    HW2 3075   2.342   5.070   2.217
  726SOL     OW 3076   5.532   5.961   0.140
  726SOL    HW1 3077   5.588   6.021   0.082
  726SOL    HW2 3078   5.587   5.929   0.218
  727SOL     OW 3079   1.347   4.808   4.345
  727SOL    HW1 3080   1.326   4.856   4.430
  727SOL    HW2 3081   1.390   4.871   4.280
  728SOL     OW 3082   6.290   2.169   6.075
  728SOL    HW1 3083   6.351   2.112   6.130
  728SOL    HW2 3084   6.345   2.223   6.011
  729SOL     OW 3085   4.138   1.108   0.491
  729SOL    HW1 3086   4.192   1.174   0.543
  729SOL    HW2 3087   4.065   1.156   0.442
  730SOL     OW 3088   6.040   1.039   3.736
  730SOL    HW1 3089   6.138   1.057   3.743
  730SOL    HW2 3090   6.024   0.941   3.738
  731SOL     OW 3091   0.490   2.064   3.526
  731SOL    HW1 3092   0.552   2.051   3.604
  731SOL    HW2 3093   0.511   1.997   3.455
  732SOL     OW 3094   0.253   4.346   3.961
  732SOL    HW1 3095   0.172   4.295   3.932
  732SOL    HW2 3096   0.299   4.382   3.880
  733SOL     OW 3097   5.362   4.483   4.666
  733SOL    HW1 3098   5.454   4.445   4.672
  733SOL    HW2 3099   5.294   4.410   4.677
  734SOL     OW 3100   0.873   0.349   0.076
  734SOL    HW1 3101   0.805   0.311   0.139
  734SOL    HW2 3102   0.884   0.286   7.022
  735SOL     OW 3103   3.235   4.553   0.209
  735SOL    HW1 3104   3.174   4.481   0.177
  735SOL    HW2 3105   3.259   4.536   0.305
  736SOL     OW 3106   5.455   1.809   2.022
  736SOL    HW1 3107   5.433   1.749   2.099
  736SOL    HW2 3108   5.554   1.826   2.021
  737SOL     OW 3109   5.203   3.872   0.199
  737SOL    HW1 3110   5.138   3.832   0.135
  737SOL    HW2 3111   5.156   3.936   0.259
  738SOL     OW 3112   6.932   3.470   4.191
  738SOL    HW1 3113   7.018   3.437   4.228
  738SOL    HW2 3114   6.938   3.568   4.172
  739SOL     OW 3115   4.756   5.803   6.201
  739SOL    HW1 3116   4.670   5.761   6.230
  739SOL    HW2 3117   4.827   5.734   6.197
  740SOL     OW 3118   5.907   6.876   0.469
  740SOL    HW1 3119   5.826   6.863   0.527
  740SOL    HW2 3120   5.989   6.874   0.526
  741SOL     OW 3121   1.303   0.469   3.859
  741SOL    HW1 3122   1.228   0.432   3.914
  741SOL    HW2 3123   1.365   0.521   3.918
  742SOL     OW 3124   1.230   6.273   2.201
  742SOL    HW1 3125   1.138   6.239   2.224
  742SOL    HW2 3126   1.290   6.263   2.281
  743SOL     OW 3127   1.426   3.271   2.330
  743SOL    HW1 3128   1.432   3.350   2.269
  743SOL    HW2 3129   1.342   3.220   2.310
  744SOL     OW 3130   6.761   4.896   0.966
  744SOL    HW1 3131   6.796   4.804   0.983
  744SOL    HW2 3132   6.812   4.939   0.891
  745SOL     OW 3133   1.264   6.595   1.469
  745SOL    HW1 3134   1.312   6.607   1.382
  745SOL    HW2 3135   1.176   6.643   1.466
  746SOL     OW 3136   3.067   0.100   3.445
  746SOL    HW1 3137   3.073   0.066   3.351
  746SOL    HW2 3138   2.998   0.047   3.494
  747SOL     OW 3139   0.406   4.058   0.516
  747SOL    HW1 3140   0.500   4.086   0.533
  747SOL    HW2 3141   0.369   4.012   0.597
  748SOL     OW 3142   3.705   4.081   3.634
  748SOL    HW1 3143   3.714   3.986   3.664
  748SOL    HW2 3144   3.775   4.137   3.680
  749SOL     OW 3145   4.622   3.121   5.547
  749SOL    HW1 3146   4.606   3.142   5.643
  749SOL    HW2 3147   4.630   3.206   5.495
  750SOL     OW 3148   3.157   3.100   1.807
  750SOL    HW1 3149   3.080   3.151   1.769
  750SOL    HW2 3150   3.206   3.156   1.873
  751SOL     OW 3151   5.612   1.211   0.560
  751SOL    HW1 3152   5.585   1.115   0.572
  751SOL    HW2 3153   5.641   1.249   0.647
  752SOL     OW 3154   4.415   0.559   2.388
  752SOL    HW1 3155   4.366   0.478   2.422
  752SOL    HW2 3156   4.351   0.636   2.382
  753SOL     OW 3157   3.226   1.805   1.549
  753SOL    HW1 3158   3.187   1.738   1.612
  753SOL    HW2 3159   3.152   1.849   1.498
  754SOL     OW 3160   5.211   4.967   6.843
  754SOL    HW1 3161   5.223   5.062   6.874
  754SOL    HW2 3162   5.297   4.932   6.807
  755SOL     OW 3163   5.827   4.995   2.448
  755SOL    HW1 3164   5.728   4.989   2.463
  755SOL    HW2 3165   5.856   4.924   2.384
  756SOL     OW 3166   2.542   6.645   4.673
  756SOL    HW1 3167   2.513   6.674   4.581
  756SOL    HW2 3168   2.475   6.581   4.710
  757SOL     OW 3169   7.020   1.052   4.394
  757SOL    HW1 3170   0.072   1.074   4.331
  757SOL    HW2 3171   0.034   1.025   4.483
  758SOL     OW 3172   3.989   1.763   0.174
  758SOL    HW1 3173   4.046   1.765   0.092
  758SOL    HW2 3174   3.900   1.723   0.152
  759SOL     OW 3175   2.274   0.450   1.158
  759SOL    HW1 3176   2.180   0.418   1.153
  759SOL    HW2 3177   2.335   0.371   1.168
  760SOL     OW 3178   4.965   1.277   5.585
  760SOL    HW1 3179   4.891   1.242   5.643
  760SOL    HW2 3180   4.953   1.242   5.492
  761SOL     OW 3181   5.059   0.798   6.640
  761SOL    HW1 3182   5.040   0.806   6.738
  761SOL    HW2 3183   5.149   0.836   6.621
  762SOL     OW 3184   2.501   4.575   4.753
  762SOL    HW1 3185   2.453   4.488   4.766
  762SOL    HW2 3186   2.523   4.614   4.842
  763SOL     OW 3187   0.518   4.356   1.178
  763SOL    HW1 3188   0.470   4.404   1.252
  763SOL    HW2 3189   0.514   4.412   1.095
  764SOL     OW 3190   6.043   1.533   2.263
  764SOL    HW1 3191   6.092   1.489   2.338
  764SOL    HW2 3192   6.104   1.545   2.185
  765SOL     OW 3193   0.908   6.385   2.768
  765SOL    HW1 3194   0.946   6.461   2.821
  765SOL    HW2 3195   0.965   6.369   2.687
  766SOL     OW 3196   0.398   6.004   0.304
  766SOL    HW1 3197   0.452   5.924   0.331
  766SOL    HW2 3198   0.324   6.018   0.370
  767SOL     OW 3199   5.763   6.672   1.548
  767SOL    HW1 3200   5.790   6.718   1.464
  767SOL    HW2 3201   5.680   6.620   1.533
  768SOL     OW 3202   2.751   6.327   4.823
  768SOL    HW1 3203   2.785   6.234   4.838
  768SOL    HW2 3204   2.699   6.356   4.904
  769SOL     OW 3205   3.457   0.787   0.421
  769SOL    HW1 3206   3.403   0.707   0.393
  769SOL    HW2 3207   3.405   0.870   0.406
  770SOL     OW 3208   4.249   4.967   5.375
  770SOL    HW1 3209   4.183   5.040   5.394
  770SOL    HW2 3210   4.325   4.974   5.439
  771SOL     OW 3211   0.286   6.811   4.753
  771SOL    HW1 3212   0.202   6.834   4.704
  771SOL    HW2 3213   0.283   6.715   4.780
  772SOL     OW 3214   0.644   3.194   6.353
  772SOL    HW1 3215   0.685   3.127   6.416
  772SOL    HW2 3216   0.705   3.272   6.343
  773SOL     OW 3217   0.179   3.201   2.006
  773SOL    HW1 3218   0.262   3.153   2.034
  773SOL    HW2 3219   0.106   3.183   2.072
  774SOL     OW 3220   1.550   1.518   1.869
  774SOL    HW1 3221   1.478   1.586   1.857
  774SOL    HW2 3222   1.626   1.538   1.808
  775SOL     OW 3223   1.829   2.582   4.135
  775SOL    HW1 3224   1.894   2.569   4.210
  775SOL    HW2 3225   1.737   2.566   4.168
  776SOL     OW 3226   2.399   1.395   5.098
  776SOL    HW1 3227   2.332   1.417   5.170
  776SOL    HW2 3228   2.481   1.450   5.111
  777SOL     OW 3229   4.678   0.569   6.726
  777SOL    HW1 3230   4.762   0.518   6.747
  777SOL    HW2 3231   4.681   0.602   6.632
  778SOL     OW 3232   5.137   5.994   5.212
  778SOL    HW1 3233   5.229   6.025   5.238
  778SOL    HW2 3234   5.103   6.050   5.137
  779SOL     OW 3235   0.868   7.012   2.514
  779SOL    HW1 3236   0.787   6.958   2.536
  779SOL    HW2 3237   0.842   0.067   2.457
  780SOL     OW 3238   5.864   2.644   5.239
  780SOL    HW1 3239   5.861   2.590   5.323
  780SOL    HW2 3240   5.804   2.723   5.248
  781SOL     OW 3241   1.246   3.939   0.351
  781SOL    HW1 3242   1.221   3.874   0.423
  781SOL    HW2 3243   1.344   3.931   0.332
  782SOL     OW 3244   0.246   5.162   0.477
  782SOL    HW1 3245   0.283   5.073   0.451
  782SOL    HW2 3246   0.168   5.150   0.538
  783SOL     OW 3247   1.276   5.534   0.578
  783SOL    HW1 3248   1.291   5.559   0.674
  783SOL    HW2 3249   1.202   5.589   0.540
  784SOL     OW 3250   5.165   5.782   3.090
  784SOL    HW1 3251   5.115   5.818   3.169
  784SOL    HW2 3252   5.245   5.839   3.073
  785SOL     OW 3253   6.640   2.548   3.097
  785SOL    HW1 3254   6.630   2.619   3.027
  785SOL    HW2 3255   6.550   2.523   3.132
  786SOL     OW 3256   6.024   6.896   1.283
  786SOL    HW1 3257   6.013   6.834   1.360
  786SOL    HW2 3258   6.097   6.863   1.223
  787SOL     OW 3259   4.680   1.011   5.528
  787SOL    HW1 3260   4.643   1.095   5.487
  787SOL    HW2 3261   4.725   1.033   5.614
  788SOL     OW 3262   6.583   4.968   3.165
  788SOL    HW1 3263   6.545   5.008   3.248
  788SOL    HW2 3264   6.575   4.869   3.169
  789SOL     OW 3265   6.053   2.705   0.260
  789SOL    HW1 3266   6.101   2.732   0.344
  789SOL    HW2 3267   6.076   2.610   0.239
  790SOL     OW 3268   2.683   0.674   4.231
  790SOL    HW1 3269   2.629   0.591   4.215
  790SOL    HW2 3270   2.657   0.714   4.319
  791SOL     OW 3271   3.402   1.294   3.509
  791SOL    HW1 3272   3.442   1.351   3.581
  791SOL    HW2 3273   3.442   1.319   3.421
  792SOL     OW 3274   5.093   0.562   3.817
  792SOL    HW1 3275   5.123   0.637   3.759
  792SOL    HW2 3276   5.022   0.510   3.770
  793SOL     OW 3277   0.654   6.709   6.751
  793SOL    HW1 3278   0.672   6.621   6.794
  793SOL    HW2 3279   0.564   6.743   6.780
  794SOL     OW 3280   3.464   5.229   4.984
  794SOL    HW1 3281   3.562   5.218   4.970
  794SOL    HW2 3282   3.434   5.169   5.059
  795SOL     OW 3283   5.015   5.470   0.021
  795SOL    HW1 3284   5.007   5.475   0.121
  795SOL    HW2 3285   4.940   5.521   7.002
  796SOL     OW 3286   1.402   1.948   6.238
  796SOL    HW1 3287   1.450   2.001   6.308
  796SOL    HW2 3288   1.410   1.994   6.150
  797SOL     OW 3289   5.998   3.137   5.667
  797SOL    HW1 3290   6.074   3.183   5.623
  797SOL    HW2 3291   6.029   3.050   5.706
  798SOL     OW 3292   6.172   0.364   4.239
  798SOL    HW1 3293   6.098   0.432   4.237
  798SOL    HW2 3294   6.172   0.312   4.154
  799SOL     OW 3295   6.752   4.199   3.871
  799SOL    HW1 3296   6.688   4.250   3.814
  799SOL    HW2 3297   6.774   4.252   3.952
  800SOL     OW 3298   0.325   2.536   2.224
  800SOL    HW1 3299   0.273   2.454   2.200
  800SOL    HW2 3300   0.368   2.523   2.313
  801SOL     OW 3301   0.105   3.673   3.435
  801SOL    HW1 3302   0.182   3.697   3.375
  801SOL    HW2 3303   0.021   3.716   3.401
  802SOL     OW 3304   6.637   0.640   0.705
  802SOL    HW1 3305   6.613   0.645   0.608
  802SOL    HW2 3306   6.621   0.729   0.748
  803SOL     OW 3307   2.242   6.409   4.509
  803SOL    HW1 3308   2.319   6.397   4.572
  803SOL    HW2 3309   2.193   6.494   4.532
  804SOL     OW 3310   5.708   5.622   0.837
  804SOL    HW1 3311   5.798   5.618   0.794
  804SOL    HW2 3312   5.658   5.537   0.818
  805SOL     OW 3313   2.386   2.303   6.149
  805SOL    HW1 3314   2.456   2.364   6.187
  805SOL    HW2 3315   2.361   2.235   6.217
  806SOL     OW 3316   4.150   6.411   0.091
  806SOL    HW1 3317   4.135   6.363   0.177
  806SOL    HW2 3318   4.109   6.502   0.096
  807SOL     OW 3319   6.775   1.040   3.057
  807SOL    HW1 3320   6.745   1.118   3.111
  807SOL    HW2 3321   6.731   0.957   3.092
  808SOL     OW 3322   5.764   3.933   5.054
  808SOL    HW1 3323   5.786   3.939   5.152
  808SOL    HW2 3324   5.701   3.856   5.039
  809SOL     OW 3325   6.981   5.741   5.746
  809SOL    HW1 3326   6.915   5.668   5.761
  809SOL    HW2 3327   0.028   5.737   5.817
  810SOL     OW 3328   5.455   4.959   5.888
  810SOL    HW1 3329   5.406   4.930   5.806
  810SOL    HW2 3330   5.533   5.015   5.861
  811SOL     OW 3331   2.840   4.770   2.492
  811SOL    HW1 3332   2.858   4.741   2.398
  811SOL    HW2 3333   2.872   4.864   2.504
  812SOL     OW 3334   0.070   0.289   2.941
  812SOL    HW1 3335   0.057   0.297   2.842
  812SOL    HW2 3336   0.132   0.360   2.973
  813SOL     OW 3337   5.125   4.658   2.152
  813SOL    HW1 3338   5.101   4.593   2.080
  813SOL    HW2 3339   5.090   4.749   2.128
  814SOL     OW 3340   5.223   5.007   1.709
  814SOL    HW1 3341   5.212   5.001   1.610
  814SOL    HW2 3342   5.188   4.924   1.752
  815SOL     OW 3343   0.971   1.231   1.097
  815SOL    HW1 3344   0.952   1.203   1.191
  815SOL    HW2 3345   1.010   1.154   1.047
  816SOL     OW 3346   6.331   0.725   1.032
  816SOL    HW1 3347   6.358   0.729   0.936
  816SOL    HW2 3348   6.269   0.801   1.052
  817SOL     OW 3349   0.273   2.113   2.552
  817SOL    HW1 3350   0.176   2.102   2.574
  817SOL    HW2 3351   0.292   2.071   2.463
  818SOL     OW 3352   5.516   1.895   3.180
  818SOL    HW1 3353   5.528   1.803   3.143
  818SOL    HW2 3354   5.427   1.931   3.151
  819SOL     OW 3355   0.518   5.023   2.925
  819SOL    HW1 3356   0.481   5.029   3.018
  819SOL    HW2 3357   0.546   5.114   2.894
  820SOL     OW 3358   2.537   3.112   6.043
  820SOL    HW1 3359   2.481   3.030   6.041
  820SOL    HW2 3360   2.484   3.190   6.011
  821SOL     OW 3361   1.412   4.218   0.520
  821SOL    HW1 3362   1.436   4.260   0.432
  821SOL    HW2 3363   1.492   4.218   0.579
  822SOL     OW 3364   0.593   3.246   5.632
  822SOL    HW1 3365   0.559   3.167   5.582
  822SOL    HW2 3366   0.654   3.299   5.574
  823SOL     OW 3367   4.754   4.181   1.542
  823SOL    HW1 3368   4.713   4.136   1.621
  823SOL    HW2 3369   4.801   4.264   1.572
  824SOL     OW 3370   6.368   3.785   6.530
  824SOL    HW1 3371   6.418   3.744   6.454
  824SOL    HW2 3372   6.339   3.878   6.505
  825SOL     OW 3373   2.420   3.060   1.619
  825SOL    HW1 3374   2.503   3.022   1.659
  825SOL    HW2 3375   2.393   3.006   1.540
  826SOL     OW 3376   1.271   1.511   6.790
  826SOL    HW1 3377   1.271   1.601   6.832
  826SOL    HW2 3378   1.292   1.520   6.692
  827SOL     OW 3379   4.018   4.382   1.089
  827SOL    HW1 3380   4.062   4.471   1.074
  827SOL    HW2 3381   3.923   4.386   1.059
  828SOL     OW 3382   5.783   1.675   5.611
  828SOL    HW1 3383   5.696   1.677   5.561
  828SOL    HW2 3384   5.854   1.634   5.553
  829SOL     OW 3385   4.420   4.546   5.770
  829SOL    HW1 3386   4.437   4.492   5.852
  829SOL    HW2 3387   4.364   4.492   5.706
  830SOL     OW 3388   4.159   3.526   6.538
  830SOL    HW1 3389   4.097   3.450   6.516
  830SOL    HW2 3390   4.165   3.588   6.460
  831SOL     OW 3391   5.384   2.166   5.628
  831SOL    HW1 3392   5.430   2.219   5.556
  831SOL    HW2 3393   5.301   2.214   5.657
  832SOL     OW 3394   3.136   1.396   5.531
  832SOL    HW1 3395   3.151   1.416   5.628
  832SOL    HW2 3396   3.074   1.464   5.493
  833SOL     OW 3397   1.088   0.726   5.171
  833SOL    HW1 3398   1.022   0.659   5.136
  833SOL    HW2 3399   1.180   0.700   5.142
  834SOL     OW 3400   2.961   4.484   5.717
  834SOL    HW1 3401   2.961   4.582   5.696
  834SOL    HW2 3402   2.902   4.435   5.652
  835SOL     OW 3403   3.800   1.736   3.005
  835SOL    HW1 3404   3.795   1.735   3.105
  835SOL    HW2 3405   3.856   1.660   2.973
  836SOL     OW 3406   2.083   1.128   5.434
  836SOL    HW1 3407   2.169   1.094   5.396
  836SOL    HW2 3408   2.092   1.136   5.533
  837SOL     OW 3409   4.112   1.433   4.173
  837SOL    HW1 3410   4.205   1.470   4.181
  837SOL    HW2 3411   4.105   1.379   4.089
  838SOL     OW 3412   0.508   6.135   2.296
  838SOL    HW1 3413   0.557   6.109   2.379
  838SOL    HW2 3414   0.460   6.221   2.312
  839SOL     OW 3415   2.043   1.828   2.093
  839SOL    HW1 3416   1.955   1.792   2.123
  839SOL    HW2 3417   2.117   1.774   2.132
  840SOL     OW 3418   2.064   0.678   4.815
  840SOL    HW1 3419   2.031   0.662   4.908
  840SOL    HW2 3420   2.084   0.776   4.803
  841SOL     OW 3421   6.960   2.976   0.291
  841SOL    HW1 3422   6.950   2.892   0.344
  841SOL    HW2 3423   6.871   3.000   0.251
  842SOL     OW 3424   3.889   4.873   4.374
  842SOL    HW1 3425   3.866   4.886   4.277
  842SOL    HW2 3426   3.819   4.916   4.431
  843SOL     OW 3427   0.112   2.900   1.092
  843SOL    HW1 3428   0.192   2.959   1.106
  843SOL    HW2 3429   0.035   2.936   1.145
  844SOL     OW 3430   5.502   4.315   6.128
  844SOL    HW1 3431   5.490   4.218   6.149
  844SOL    HW2 3432   5.436   4.369   6.181
  845SOL     OW 3433   2.113   4.860   5.686
  845SOL    HW1 3434   2.156   4.869   5.776
  845SOL    HW2 3435   2.144   4.776   5.642
  846SOL     OW 3436   5.181   1.766   7.014
  846SOL    HW1 3437   5.245   1.842   7.005
  846SOL    HW2 3438   5.120   1.782   0.069
  847SOL     OW 3439   4.965   3.782   1.667
  847SOL    HW1 3440   5.054   3.793   1.710
  847SOL    HW2 3441   4.894   3.774   1.737
  848SOL     OW 3442   5.651   6.947   5.640
  848SOL    HW1 3443   5.732   6.938   5.583
  848SOL    HW2 3444   5.570   6.956   5.582
  849SOL     OW 3445   0.997   0.164   3.456
  849SOL    HW1 3446   1.002   0.256   3.493
  849SOL    HW2 3447   1.066   0.106   3.501
  850SOL     OW 3448   2.884   0.943   2.824
  850SOL    HW1 3449   2.919   0.962   2.732
  850SOL    HW2 3450   2.892   1.025   2.881
  851SOL     OW 3451   6.583   1.724   6.235
  851SOL    HW1 3452   6.553   1.629   6.230
  851SOL    HW2 3453   6.670   1.728   6.285
  852SOL     OW 3454   3.692   5.027   4.506
  852SOL    HW1 3455   3.655   4.970   4.579
  852SOL    HW2 3456   3.724   5.114   4.543
  853SOL     OW 3457   1.235   3.992   0.941
  853SOL    HW1 3458   1.174   4.058   0.896
  853SOL    HW2 3459   1.245   3.912   0.882
  854SOL     OW 3460   6.735   4.341   1.016
  854SOL    HW1 3461   6.805   4.284   0.973
  854SOL    HW2 3462   6.648   4.329   0.968
  855SOL     OW 3463   4.812   0.332   0.421
  855SOL    HW1 3464   4.804   0.306   0.325
  855SOL    HW2 3465   4.777   0.258   0.479
  856SOL     OW 3466   1.860   1.103   5.285
  856SOL    HW1 3467   1.807   1.188   5.283
  856SOL    HW2 3468   1.933   1.111   5.353
  857SOL     OW 3469   6.710   4.619   2.438
  857SOL    HW1 3470   6.738   4.695   2.497
  857SOL    HW2 3471   6.678   4.543   2.495
  858SOL     OW 3472   3.733   3.375   1.930
  858SOL    HW1 3473   3.638   3.350   1.915
  858SOL    HW2 3474   3.793   3.311   1.882
  859SOL     OW 3475   6.597   3.760   1.447
  859SOL    HW1 3476   6.631   3.800   1.532
  859SOL    HW2 3477   6.582   3.832   1.380
  860SOL     OW 3478   1.671   3.934   6.285
  860SOL    HW1 3479   1.690   3.980   6.198
  860SOL    HW2 3480   1.605   3.860   6.271
  861SOL     OW 3481   4.355   4.806   6.571
  861SOL    HW1 3482   4.314   4.749   6.643
  861SOL    HW2 3483   4.289   4.817   6.496
  862SOL     OW 3484   4.144   4.846   3.711
  862SOL    HW1 3485   4.159   4.776   3.641
  862SOL    HW2 3486   4.173   4.935   3.675
  863SOL     OW 3487   6.884   3.028   1.158
  863SOL    HW1 3488   6.827   3.108   1.177
  863SOL    HW2 3489   6.826   2.947   1.145
  864SOL     OW 3490   1.312   6.443   1.690
  864SOL    HW1 3491   1.317   6.495   1.605
  864SOL    HW2 3492   1.254   6.492   1.756
  865SOL     OW 3493   0.925   1.370   3.830
  865SOL    HW1 3494   0.826   1.383   3.827
  865SOL    HW2 3495   0.948   1.308   3.904
  866SOL     OW 3496   3.855   0.948   2.017
  866SOL    HW1 3497   3.949   0.916   2.008
  866SOL    HW2 3498   3.854   1.037   2.062
  867SOL     OW 3499   3.368   1.556   6.689
  867SOL    HW1 3500   3.294   1.566   6.622
  867SOL    HW2 3501   3.417   1.470   6.671
  868SOL     OW 3502   4.870   1.998   3.448
  868SOL    HW1 3503   4.848   2.091   3.420
  868SOL    HW2 3504   4.807   1.934   3.405
  869SOL     OW 3505   6.483   3.417   0.813
  869SOL    HW1 3506   6.471   3.434   0.716
  869SOL    HW2 3507   6.517   3.501   0.858
  870SOL     OW 3508   6.085   1.789   0.832
  870SOL    HW1 3509   6.162   1.836   0.876
  870SOL    HW2 3510   6.110   1.764   0.738
  871SOL     OW 3511   0.331   4.312   0.808
  871SOL    HW1 3512   0.278   4.314   0.723
  871SOL    HW2 3513   0.275   4.351   0.882
  872SOL     OW 3514   6.348   1.715   1.844
  872SOL    HW1 3515   6.398   1.778   1.904
  872SOL    HW2 3516   6.270   1.762   1.805
  873SOL     OW 3517   4.178   0.255   3.992
  873SOL    HW1 3518   4.179   0.180   3.926
  873SOL    HW2 3519   4.087   0.296   3.994
  874SOL     OW 3520   1.204   3.518   6.199
  874SOL    HW1 3521   1.179   3.575   6.277
  874SOL    HW2 3522   1.238   3.430   6.233
  875SOL     OW 3523   6.262   6.019   6.740
  875SOL    HW1 3524   6.354   6.003   6.703
  875SOL    HW2 3525   6.251   6.116   6.761
  876SOL     OW 3526   2.610   2.391   1.953
  876SOL    HW1 3527   2.706   2.370   1.973
  876SOL    HW2 3528   2.598   2.400   1.854
  877SOL     OW 3529   6.086   5.541   6.000
  877SOL    HW1 3530   6.050   5.464   6.053
  877SOL    HW2 3531   6.078   5.625   6.053
  878SOL     OW 3532   4.442   2.965   1.195
  878SOL    HW1 3533   4.371   2.991   1.130
  878SOL    HW2 3534   4.403   2.961   1.287
  879SOL     OW 3535   5.210   3.070   3.289
  879SOL    HW1 3536   5.196   3.078   3.191
  879SOL    HW2 3537   5.308   3.071   3.309
  880SOL     OW 3538   4.054   0.083   1.011
  880SOL    HW1 3539   4.051   7.017   1.057
  880SOL    HW2 3540   4.137   0.131   1.038
  881SOL     OW 3541   4.571   5.753   3.298
  881SOL    HW1 3542   4.499   5.762   3.229
  881SOL    HW2 3543   4.532   5.773   3.388
  882SOL     OW 3544   0.995   2.218   5.147
  882SOL    HW1 3545   0.974   2.316   5.135
  882SOL    HW2 3546   0.955   2.186   5.232
  883SOL     OW 3547   2.871   5.051   6.851
  883SOL    HW1 3548   2.801   5.003   6.798
  883SOL    HW2 3549   2.935   4.985   6.889
  884SOL     OW 3550   4.509   4.316   1.490
  884SOL    HW1 3551   4.420   4.297   1.532
  884SOL    HW2 3552   4.558   4.230   1.474
  885SOL     OW 3553   3.959   5.732   6.593
  885SOL    HW1 3554   4.001   5.643   6.582
  885SOL    HW2 3555   3.968   5.784   6.508
  886SOL     OW 3556   3.916   2.673   6.446
  886SOL    HW1 3557   3.837   2.621   6.478
  886SOL    HW2 3558   3.934   2.749   6.508
  887SOL     OW 3559   6.344   6.328   4.804
  887SOL    HW1 3560   6.298   6.248   4.843
  887SOL    HW2 3561   6.436   6.337   4.842
  888SOL     OW 3562   6.352   1.301   3.849
  888SOL    HW1 3563   6.349   1.291   3.749
  888SOL    HW2 3564   6.337   1.396   3.873
  889SOL     OW 3565   0.448   0.178   4.680
  889SOL    HW1 3566   0.464   0.183   4.778
  889SOL    HW2 3567   0.517   0.233   4.632
  890SOL     OW 3568   2.667   3.404   0.494
  890SOL    HW1 3569   2.587   3.354   0.528
  890SOL    HW2 3570   2.712   3.350   0.424
  891SOL     OW 3571   6.449   3.037   5.589
  891SOL    HW1 3572   6.531   3.039   5.531
  891SOL    HW2 3573   6.475   3.010   5.681
  892SOL     OW 3574   2.414   4.514   2.007
  892SOL    HW1 3575   2.370   4.596   1.969
  892SOL    HW2 3576   2.494   4.542   2.061
  893SOL     OW 3577   2.099   0.702   1.740
  893SOL    HW1 3578   2.062   0.792   1.719
  893SOL    HW2 3579   2.191   0.694   1.703
  894SOL     OW 3580   1.248   5.342   3.859
  894SOL    HW1 3581   1.320   5.366   3.794
  894SOL    HW2 3582   1.262   5.248   3.890
  895SOL     OW 3583   2.548   1.142   4.397
  895SOL    HW1 3584   2.582   1.187   4.315
  895SOL    HW2 3585   2.449   1.151   4.402
  896SOL     OW 3586   4.639   0.104   2.950
  896SOL    HW1 3587   4.567   0.139   3.010
  896SOL    HW2 3588   4.660   0.171   2.879
  897SOL     OW 3589   6.295   0.996   6.816
  897SOL    HW1 3590   6.223   0.960   6.875
  897SOL    HW2 3591   6.379   1.009   6.869
  898SOL     OW 3592   5.402   5.804   3.344
  898SOL    HW1 3593   5.442   5.844   3.427
  898SOL    HW2 3594   5.317   5.757   3.367
  899SOL     OW 3595   1.873   4.619   0.094
  899SOL    HW1 3596   1.950   4.556   0.105
  899SOL    HW2 3597   1.802   4.575   0.038
  900SOL     OW 3598   0.111   5.794   3.486
  900SOL    HW1 3599   0.176   5.724   3.457
  900SOL    HW2 3600   0.024   5.780   3.439
  901SOL     OW 3601   6.402   2.210   3.349
  901SOL    HW1 3602   6.382   2.197   3.446
  901SOL    HW2 3603   6.359   2.137   3.296
  902SOL     OW 3604   1.555   5.751   6.915
  902SOL    HW1 3605   1.611   5.699   6.850
  902SOL    HW2 3606   1.614   5.795   6.982
  903SOL     OW 3607   1.381   4.658   6.877
  903SOL    HW1 3608   1.387   4.753   6.848
  903SOL    HW2 3609   1.303   4.614   6.831
  904SOL     OW 3610   1.219   2.197   4.257
  904SOL    HW1 3611   1.160   2.226   4.333
  904SOL    HW2 3612   1.166   2.139   4.195
  905SOL     OW 3613   6.532   3.834   3.565
  905SOL    HW1 3614   6.516   3.761   3.631
  905SOL    HW2 3615   6.459   3.835   3.497
  906SOL     OW 3616   0.055   3.363   5.522
  906SOL    HW1 3617   7.008   3.297   5.497
  906SOL    HW2 3618   0.146   3.321   5.515
  907SOL     OW 3619   6.741   4.442   2.955
  907SOL    HW1 3620   6.825   4.396   2.924
  907SOL    HW2 3621   6.672   4.374   2.977
  908SOL     OW 3622   2.389   1.213   3.274
  908SOL    HW1 3623   2.297   1.209   3.234
  908SOL    HW2 3624   2.388   1.273   3.354
  909SOL     OW 3625   2.866   6.715   2.421
  909SOL    HW1 3626   2.898   6.738   2.329
  909SOL    HW2 3627   2.834   6.798   2.467
  910SOL     OW 3628   1.597   0.714   1.899
  910SOL    HW1 3629   1.561   0.788   1.955
  910SOL    HW2 3630   1.520   0.665   1.856
  911SOL     OW 3631   1.230   2.588   1.223
  911SOL    HW1 3632   1.216   2.514   1.290
  911SOL    HW2 3633   1.319   2.576   1.179
  912SOL     OW 3634   2.482   0.812   1.039
  912SOL    HW1 3635   2.496   0.724   0.993
  912SOL    HW2 3636   2.570   0.856   1.053
  913SOL     OW 3637   2.260   1.088   1.700
  913SOL    HW1 3638   2.237   1.183   1.676
  913SOL    HW2 3639   2.179   1.044   1.738
  914SOL     OW 3640   3.302   4.935   2.541
  914SOL    HW1 3641   3.398   4.920   2.563
  914SOL    HW2 3642   3.245   4.908   2.619
  915SOL     OW 3643   3.549   2.018   1.509
  915SOL    HW1 3644   3.550   1.956   1.587
  915SOL    HW2 3645   3.608   2.097   1.528
  916SOL     OW 3646   0.065   3.959   2.646
  916SOL    HW1 3647   0.130   4.030   2.672
  916SOL    HW2 3648   0.112   3.890   2.590
  917SOL     OW 3649   4.226   0.475   4.983
  917SOL    HW1 3650   4.248   0.558   4.931
  917SOL    HW2 3651   4.126   0.467   4.992
  918SOL     OW 3652   0.209   2.476   5.109
  918SOL    HW1 3653   0.125   2.530   5.110
  918SOL    HW2 3654   0.239   2.458   5.203
  919SOL     OW 3655   1.040   0.181   0.972
  919SOL    HW1 3656   1.080   0.148   1.057
  919SOL    HW2 3657   1.005   0.274   0.986
  920SOL     OW 3658   1.086   1.734   2.784
  920SOL    HW1 3659   1.010   1.792   2.755
  920SOL    HW2 3660   1.164   1.750   2.724
  921SOL     OW 3661   4.254   4.477   0.218
  921SOL    HW1 3662   4.185   4.441   0.282
  921SOL    HW2 3663   4.208   4.519   0.140
  922SOL     OW 3664   2.529   5.605   6.482
  922SOL    HW1 3665   2.483   5.690   6.509
  922SOL    HW2 3666   2.468   5.528   6.496
  923SOL     OW 3667   3.693   1.175   0.268
  923SOL    HW1 3668   3.659   1.263   0.235
  923SOL    HW2 3669   3.645   1.101   0.221
  924SOL     OW 3670   4.981   5.345   1.200
  924SOL    HW1 3671   4.992   5.384   1.291
  924SOL    HW2 3672   5.024   5.255   1.197
  925SOL     OW 3673   5.834   2.056   1.861
  925SOL    HW1 3674   5.899   2.126   1.831
  925SOL    HW2 3675   5.743   2.096   1.868
  926SOL     OW 3676   4.671   5.748   1.652
  926SOL    HW1 3677   4.711   5.658   1.638
  926SOL    HW2 3678   4.606   5.768   1.578
  927SOL     OW 3679   5.254   5.332   5.704
  927SOL    HW1 3680   5.162   5.372   5.702
  927SOL    HW2 3681   5.256   5.261   5.775
  928SOL     OW 3682   6.262   1.162   2.018
  928SOL    HW1 3683   6.318   1.205   1.948
  928SOL    HW2 3684   6.187   1.112   1.975
  929SOL     OW 3685   6.546   2.083   2.828
  929SOL    HW1 3686   6.507   2.068   2.738
  929SOL    HW2 3687   6.644   2.062   2.826
  930SOL     OW 3688   5.925   4.139   2.447
  930SOL    HW1 3689   5.883   4.090   2.371
  930SOL    HW2 3690   6.023   4.123   2.448
  931SOL     OW 3691   0.262   2.692   0.417
  931SOL    HW1 3692   0.222   2.634   0.347
  931SOL    HW2 3693   0.342   2.646   0.456
  932SOL     OW 3694   4.326   6.513   0.423
  932SOL    HW1 3695   4.266   6.590   0.400
  932SOL    HW2 3696   4.301   6.477   0.513
  933SOL     OW 3697   0.594   6.910   3.231
  933SOL    HW1 3698   0.690   6.884   3.226
  933SOL    HW2 3699   0.538   6.828   3.243
  934SOL     OW 3700   4.419   1.655   4.784
  934SOL    HW1 3701   4.455   1.590   4.850
  934SOL    HW2 3702   4.380   1.733   4.833
  935SOL     OW 3703   0.888   4.044   4.272
  935SOL    HW1 3704   0.917   4.080   4.360
  935SOL    HW2 3705   0.912   3.948   4.266
  936SOL     OW 3706   1.106   1.052   0.933
  936SOL    HW1 3707   1.110   1.119   0.859
  936SOL    HW2 3708   1.169   0.977   0.913
  937SOL     OW 3709   4.901   1.713   3.251
  937SOL    HW1 3710   4.949   1.796   3.279
  937SOL    HW2 3711   4.945   1.676   3.170
  938SOL     OW 3712   0.519   0.934   6.111
  938SOL    HW1 3713   0.483   0.914   6.203
  938SOL    HW2 3714   0.512   0.852   6.055
  939SOL     OW 3715   0.358   1.065   4.629
  939SOL    HW1 3716   0.284   1.105   4.682
  939SOL    HW2 3717   0.416   1.009   4.689
  940SOL     OW 3718   6.181   0.096   3.511
  940SOL    HW1 3719   6.194   0.190   3.544
  940SOL    HW2 3720   6.120   0.047   3.573
  941SOL     OW 3721   5.978   2.603   4.768
  941SOL    HW1 3722   5.910   2.588   4.697
  941SOL    HW2 3723   5.940   2.576   4.857
  942SOL     OW 3724   4.212   6.704   6.158
  942SOL    HW1 3725   4.125   6.654   6.164
  942SOL    HW2 3726   4.210   6.783   6.219
  943SOL     OW 3727   5.036   2.132   6.538
  943SOL    HW1 3728   5.128   2.131   6.576
  943SOL    HW2 3729   5.029   2.204   6.469
  944SOL     OW 3730   5.349   4.567   4.014
  944SOL    HW1 3731   5.323   4.479   4.053
  944SOL    HW2 3732   5.300   4.640   4.062
  945SOL     OW 3733   6.666   3.137   6.466
  945SOL    HW1 3734   6.720   3.108   6.387
  945SOL    HW2 3735   6.612   3.218   6.441
  946SOL     OW 3736   6.003   2.974   6.138
  946SOL    HW1 3737   6.004   3.064   6.095
  946SOL    HW2 3738   5.908   2.943   6.150
  947SOL     OW 3739   1.798   1.992   6.358
  947SOL    HW1 3740   1.714   1.966   6.404
  947SOL    HW2 3741   1.793   1.965   6.261
  948SOL     OW 3742   3.672   1.423   1.378
  948SOL    HW1 3743   3.641   1.517   1.390
  948SOL    HW2 3744   3.769   1.423   1.354
  949SOL     OW 3745   5.045   4.868   5.861
  949SOL    HW1 3746   4.988   4.892   5.939
  949SOL    HW2 3747   5.010   4.913   5.779
  950SOL     OW 3748   3.741   5.173   0.486
  950SOL    HW1 3749   3.740   5.271   0.464
  950SOL    HW2 3750   3.679   5.125   0.426
  951SOL     OW 3751   0.495   3.749   3.030
  951SOL    HW1 3752   0.463   3.667   3.077
  951SOL    HW2 3753   0.437   3.826   3.054
  952SOL     OW 3754   4.152   1.189   0.840
  952SOL    HW1 3755   4.215   1.161   0.913
  952SOL    HW2 3756   4.197   1.257   0.782
  953SOL     OW 3757   4.555   6.448   5.956
  953SOL    HW1 3758   4.459   6.439   5.927
  953SOL    HW2 3759   4.558   6.487   6.048
  954SOL     OW 3760   0.026   6.366   1.652
  954SOL    HW1 3761   0.047   6.319   1.566
  954SOL    HW2 3762   6.983   6.311   1.704
  955SOL     OW 3763   1.503   6.796   3.732
  955SOL    HW1 3764   1.566   6.830   3.662
  955SOL    HW2 3765   1.410   6.796   3.695
  956SOL     OW 3766   1.843   2.849   1.244
  956SOL    HW1 3767   1.746   2.827   1.242
  956SOL    HW2 3768   1.895   2.775   1.202
  957SOL     OW 3769   2.844   6.454   4.134
  957SOL    HW1 3770   2.824   6.483   4.228
  957SOL    HW2 3771   2.880   6.361   4.135
  958SOL     OW 3772   4.381   2.137   6.753
  958SOL    HW1 3773   4.438   2.092   6.822
  958SOL    HW2 3774   4.394   2.236   6.760
  959SOL     OW 3775   1.667   4.055   0.526
  959SOL    HW1 3776   1.606   4.017   0.457
  959SOL    HW2 3777   1.676   4.154   0.512
  960SOL     OW 3778   1.715   3.610   5.513
  960SOL    HW1 3779   1.782   3.683   5.501
  960SOL    HW2 3780   1.757   3.522   5.488
  961SOL     OW 3781   3.659   6.592   6.377
  961SOL    HW1 3782   3.653   6.609   6.475
  961SOL    HW2 3783   3.694   6.674   6.331
  962SOL     OW 3784   0.315   0.584   3.973
  962SOL    HW1 3785   0.329   0.598   3.875
  962SOL    HW2 3786   0.399   0.603   4.023
  963SOL     OW 3787   5.822   0.059   3.542
  963SOL    HW1 3788   5.727   0.073   3.514
  963SOL    HW2 3789   5.875   0.025   3.464
  964SOL     OW 3790   6.067   4.296   1.844
  964SOL    HW1 3791   6.055   4.200   1.819
  964SOL    HW2 3792   6.007   4.353   1.787
  965SOL     OW 3793   1.590   2.445   0.224
  965SOL    HW1 3794   1.550   2.423   0.134
  965SOL    HW2 3795   1.689   2.456   0.214
  966SOL     OW 3796   4.987   2.566   1.962
  966SOL    HW1 3797   4.987   2.479   1.914
  966SOL    HW2 3798   4.937   2.557   2.048
  967SOL     OW 3799   0.607   5.930   2.960
  967SOL    HW1 3800   0.674   5.946   3.033
  967SOL    HW2 3801   0.635   5.979   2.878
  968SOL     OW 3802   0.519   4.183   0.934
  968SOL    HW1 3803   0.493   4.165   1.029
  968SOL    HW2 3804   0.440   4.219   0.884
  969SOL     OW 3805   3.313   6.741   6.324
  969SOL    HW1 3806   3.324   6.758   6.226
  969SOL    HW2 3807   3.350   6.651   6.346
  970SOL     OW 3808   5.374   3.836   5.983
  970SOL    HW1 3809   5.305   3.771   5.951
  970SOL    HW2 3810   5.410   3.806   6.071
  971SOL     OW 3811   0.579   1.698   6.809
  971SOL    HW1 3812   0.678   1.709   6.797
  971SOL    HW2 3813   0.545   1.766   6.874
  972SOL     OW 3814   3.611   6.969   6.383
  972SOL    HW1 3815   3.569   6.901   6.444
  972SOL    HW2 3816   3.631   0.030   6.435
  973SOL     OW 3817   6.577   3.364   6.232
  973SOL    HW1 3818   6.555   3.436   6.165
  973SOL    HW2 3819   6.543   3.390   6.322
  974SOL     OW 3820   2.234   0.572   4.110
  974SOL    HW1 3821   2.227   0.545   4.206
  974SOL    HW2 3822   2.163   0.639   4.089
  975SOL     OW 3823   3.035   6.631   4.140
  975SOL    HW1 3824   2.969   6.563   4.109
  975SOL    HW2 3825   3.088   6.665   4.062
  976SOL     OW 3826   0.378   5.559   4.927
  976SOL    HW1 3827   0.297   5.562   4.986
  976SOL    HW2 3828   0.420   5.649   4.923
  977SOL     OW 3829   0.384   1.818   2.045
  977SOL    HW1 3830   0.383   1.813   1.945
  977SOL    HW2 3831   0.340   1.737   2.082
  978SOL     OW 3832   6.290   2.615   3.938
  978SOL    HW1 3833   6.231   2.686   3.900
  978SOL    HW2 3834   6.379   2.655   3.961
  979SOL     OW 3835   5.757   1.317   2.615
  979SOL    HW1 3836   5.777   1.382   2.542
  979SOL    HW2 3837   5.691   1.249   2.583
  980SOL     OW 3838   6.132   6.091   5.419
  980SOL    HW1 3839   6.220   6.137   5.419
  980SOL    HW2 3840   6.138   6.007   5.472
  981SOL     OW 3841   6.158   3.149   6.921
  981SOL    HW1 3842   6.169   3.246   6.902
  981SOL    HW2 3843   6.227   3.097   6.871
  982SOL     OW 3844   1.658   4.508   6.924
  982SOL    HW1 3845   1.591   4.439   6.953
  982SOL    HW2 3846   1.617   4.599   6.933
  983SOL     OW 3847   5.694   1.537   3.709
  983SOL    HW1 3848   5.764   1.484   3.757
  983SOL    HW2 3849   5.738   1.604   3.648
  984SOL     OW 3850   4.883   3.279   5.069
  984SOL    HW1 3851   4.909   3.190   5.104
  984SOL    HW2 3852   4.792   3.303   5.103
  985SOL     OW 3853   2.086   4.113   0.655
  985SOL    HW1 3854   2.026   4.040   0.624
  985SOL    HW2 3855   2.181   4.082   0.654
  986SOL     OW 3856   5.836   4.639   4.699
  986SOL    HW1 3857   5.866   4.584   4.778
  986SOL    HW2 3858   5.850   4.736   4.718
  987SOL     OW 3859   2.490   1.338   2.950
  987SOL    HW1 3860   2.446   1.378   2.871
  987SOL    HW2 3861   2.502   1.408   3.021
  988SOL     OW 3862   3.696   3.605   1.421
  988SOL    HW1 3863   3.780   3.653   1.447
  988SOL    HW2 3864   3.655   3.563   1.502
  989SOL     OW 3865   1.097   1.031   5.482
  989SOL    HW1 3866   1.166   0.961   5.465
  989SOL    HW2 3867   1.142   1.118   5.504
  990SOL     OW 3868   3.949   6.093   1.856
  990SOL    HW1 3869   3.879   6.054   1.916
  990SOL    HW2 3870   4.039   6.079   1.896
  991SOL     OW 3871   6.129   1.733   6.358
  991SOL    HW1 3872   6.152   1.728   6.261
  991SOL    HW2 3873   6.068   1.811   6.373
  992SOL     OW 3874   0.266   2.444   0.222
  992SOL    HW1 3875   0.184   2.501   0.219
  992SOL    HW2 3876   0.253   2.369   0.287
  993SOL     OW 3877   3.920   6.694   4.354
  993SOL    HW1 3878   3.910   6.616   4.293
  993SOL    HW2 3879   3.851   6.690   4.426
  994SOL     OW 3880   3.223   3.932   3.894
  994SOL    HW1 3881   3.153   3.974   3.836
  994SOL    HW2 3882   3.312   3.970   3.870
  995SOL     OW 3883   1.672   1.715   5.098
  995SOL    HW1 3884   1.727   1.713   5.182
  995SOL    HW2 3885   1.711   1.651   5.032
  996SOL     OW 3886   2.757   3.048   0.810
  996SOL    HW1 3887   2.667   3.071   0.849
  996SOL    HW2 3888   2.828   3.098   0.860
  997SOL     OW 3889   6.548   1.332   0.548
  997SOL    HW1 3890   6.537   1.259   0.614
  997SOL    HW2 3891   6.478   1.324   0.477
  998SOL     OW 3892   4.351   6.497   3.880
  998SOL    HW1 3893   4.339   6.523   3.976
  998SOL    HW2 3894   4.420   6.555   3.838
  999SOL     OW 3895   0.194   4.749   6.458
  999SOL    HW1 3896   0.209   4.795   6.370
  999SOL    HW2 3897   0.099   4.762   6.487
 1000SOL     OW 3898   3.951   1.681   5.720
 1000SOL    HW1 3899   3.867   1.631   5.741
 1000SOL    HW2 3900   3.973   1.742   5.796
 1001SOL     OW 3901   5.222   0.568   4.735
 1001SOL    HW1 3902   5.260   0.487   4.690
 1001SOL    HW2 3903   5.296   0.629   4.763
 1002SOL     OW 3904   0.359   1.318   0.350
 1002SOL    HW1 3905   0.333   1.240   0.293
 1002SOL    HW2 3906   0.277   1.371   0.373
 1003SOL     OW 3907   4.821   5.214   2.266
 1003SOL    HW1 3908   4.755   5.206   2.341
 1003SOL    HW2 3909   4.885   5.137   2.270
 1004SOL     OW 3910   6.062   5.837   6.816
 1004SOL    HW1 3911   6.133   5.897   6.780
 1004SOL    HW2 3912   6.017   5.882   6.894
 1005SOL     OW 3913   5.125   6.534   2.736
 1005SOL    HW1 3914   5.058   6.574   2.674
 1005SOL    HW2 3915   5.178   6.464   2.688
 1006SOL     OW 3916   1.758   5.848   0.046
 1006SOL    HW1 3917   1.793   5.872   0.136
 1006SOL    HW2 3918   1.829   5.864   7.000
 1007SOL     OW 3919   5.843   2.365   2.948
 1007SOL    HW1 3920   5.782   2.296   2.986
 1007SOL    HW2 3921   5.923   2.320   2.908
 1008SOL     OW 3922   3.581   1.230   5.410
 1008SOL    HW1 3923   3.482   1.213   5.403
 1008SOL    HW2 3924   3.600   1.323   5.379
 1009SOL     OW 3925   3.604   6.232   5.732
 1009SOL    HW1 3926   3.542   6.283   5.792
 1009SOL    HW2 3927   3.671   6.294   5.692
 1010SOL     OW 3928   5.026   6.294   6.010
 1010SOL    HW1 3929   5.040   6.309   5.913
 1010SOL    HW2 3930   5.072   6.210   6.038
 1011SOL     OW 3931   2.398   4.981   4.871
 1011SOL    HW1 3932   2.474   5.007   4.931
 1011SOL    HW2 3933   2.337   4.918   4.919
 1012SOL     OW 3934   2.804   6.032   0.574
 1012SOL    HW1 3935   2.743   5.983   0.636
 1012SOL    HW2 3936   2.885   5.976   0.555
 1013SOL     OW 3937   0.875   0.267   0.555
 1013SOL    HW1 3938   0.888   0.343   0.492
 1013SOL    HW2 3939   0.811   0.201   0.516
 1014SOL     OW 3940   6.036   6.529   6.698
 1014SOL    HW1 3941   5.983   6.482   6.768
 1014SOL    HW2 3942   6.102   6.591   6.741
 1015SOL     OW 3943   2.609   0.108   4.711
 1015SOL    HW1 3944   2.611   0.203   4.744
 1015SOL    HW2 3945   2.636   0.105   4.615
 1016SOL     OW 3946   4.184   3.418   1.741
 1016SOL    HW1 3947   4.123   3.419   1.662
 1016SOL    HW2 3948   4.243   3.337   1.736
 1017SOL     OW 3949   4.838   6.724   6.138
 1017SOL    HW1 3950   4.779   6.792   6.182
 1017SOL    HW2 3951   4.832   6.733   6.039
 1018SOL     OW 3952   1.058   1.818   1.363
 1018SOL    HW1 3953   1.057   1.764   1.447
 1018SOL    HW2 3954   1.040   1.759   1.285
 1019SOL     OW 3955   5.996   0.282   0.101
 1019SOL    HW1 3956   5.983   0.251   0.006
 1019SOL    HW2 3957   6.069   0.230   0.143
 1020SOL     OW 3958   3.872   1.732   1.360
 1020SOL    HW1 3959   3.951   1.782   1.396
 1020SOL    HW2 3960   3.895   1.635   1.353
 1021SOL     OW 3961   5.299   1.572   1.509
 1021SOL    HW1 3962   5.221   1.521   1.545
 1021SOL    HW2 3963   5.282   1.670   1.520
 1022SOL     OW 3964   2.831   3.629   7.022
 1022SOL    HW1 3965   2.785   3.674   0.075
 1022SOL    HW2 3966   2.890   3.695   6.975
 1023SOL     OW 3967   6.779   1.164   4.399
 1023SOL    HW1 3968   6.860   1.115   4.367
 1023SOL    HW2 3969   6.763   1.244   4.341
 1024SOL     OW 3970   6.612   2.771   4.251
 1024SOL    HW1 3971   6.604   2.848   4.188
 1024SOL    HW2 3972   6.650   2.692   4.203
 1025SOL     OW 3973   2.376   4.376   1.558
 1025SOL    HW1 3974   2.460   4.420   1.523
 1025SOL    HW2 3975   2.395   4.335   1.647
 1026SOL     OW 3976   0.528   3.462   6.828
 1026SOL    HW1 3977   0.520   3.432   6.923
 1026SOL    HW2 3978   0.520   3.562   6.823
 1027SOL     OW 3979   1.932   4.596   1.327
 1027SOL    HW1 3980   2.029   4.572   1.319
 1027SOL    HW2 3981   1.924   4.687   1.369
 1028SOL     OW 3982   0.668   4.861   0.271
 1028SOL    HW1 3983   0.731   4.839   0.197
 1028SOL    HW2 3984   0.643   4.958   0.267
 1029SOL     OW 3985   3.777   0.462   4.619
 1029SOL    HW1 3986   3.738   0.455   4.527
 1029SOL    HW2 3987   3.707   0.441   4.687
 1030SOL     OW 3988   4.242   4.823   5.057
 1030SOL    HW1 3989   4.147   4.843   5.078
 1030SOL    HW2 3990   4.252   4.726   5.035
 1031SOL     OW 3991   2.503   5.961   0.972
 1031SOL    HW1 3992   2.498   5.961   0.872
 1031SOL    HW2 3993   2.445   6.035   1.008
 1032SOL     OW 3994   1.082   2.634   4.782
 1032SOL    HW1 3995   1.136   2.709   4.743
 1032SOL    HW2 3996   1.061   2.567   4.712
 1033SOL     OW 3997   3.072   0.019   2.151
 1033SOL    HW1 3998   3.146   0.079   2.121
 1033SOL    HW2 3999   3.038   6.989   2.073
 1034SOL     OW 4000   0.143   5.068   3.011
 1034SOL    HW1 4001   0.098   4.979   3.019
 1034SOL    HW2 4002   0.119   5.124   3.090
 1035SOL     OW 4003   2.906   2.295   3.455
 1035SOL    HW1 4004   2.853   2.325   3.534
 1035SOL    HW2 4005   2.994   2.260   3.485
 1036SOL     OW 4006   4.690   6.476   6.723
 1036SOL    HW1 4007   4.779   6.513   6.749
 1036SOL    HW2 4008   4.701   6.381   6.695
 1037SOL     OW 4009   3.777   1.213   5.858
 1037SOL    HW1 4010   3.876   1.231   5.852
 1037SOL    HW2 4011   3.741   1.196   5.767
 1038SOL     OW 4012   3.277   1.791   4.785
 1038SOL    HW1 4013   3.269   1.705   4.835
 1038SOL    HW2 4014   3.317   1.861   4.844
 1039SOL     OW 4015   5.426   2.094   2.015
 1039SOL    HW1 4016   5.440   1.995   2.004
 1039SOL    HW2 4017   5.423   2.117   2.112
 1040SOL     OW 4018   6.193   5.068   4.830
 1040SOL    HW1 4019   6.291   5.080   4.840
 1040SOL    HW2 4020   6.174   5.002   4.758
 1041SOL     OW 4021   1.627   6.918   4.441
 1041SOL    HW1 4022   1.618   6.874   4.352
 1041SOL    HW2 4023   1.619   6.850   4.513
 1042SOL     OW 4024   4.248   4.795   0.138
 1042SOL    HW1 4025   4.292   4.826   0.054
 1042SOL    HW2 4026   4.313   4.742   0.192
 1043SOL     OW 4027   4.510   0.369   6.170
 1043SOL    HW1 4028   4.420   0.326   6.167
 1043SOL    HW2 4029   4.531   0.395   6.265
 1044SOL     OW 4030   3.989   3.124   4.148
 1044SOL    HW1 4031   3.921   3.052   4.135
 1044SOL    HW2 4032   4.014   3.129   4.244
 1045SOL     OW 4033   1.765   1.341   2.466
 1045SOL    HW1 4034   1.859   1.311   2.477
 1045SOL    HW2 4035   1.704   1.261   2.465
 1046SOL     OW 4036   2.792   1.008   1.976
 1046SOL    HW1 4037   2.698   1.005   2.010
 1046SOL    HW2 4038   2.836   1.092   2.007
 1047SOL     OW 4039   0.302   6.296   2.459
 1047SOL    HW1 4040   0.349   6.257   2.538
 1047SOL    HW2 4041   0.361   6.363   2.415
 1048SOL     OW 4042   0.208   3.956   5.152
 1048SOL    HW1 4043   0.279   3.947   5.083
 1048SOL    HW2 4044   0.201   4.051   5.181
 1049SOL     OW 4045   0.752   3.945   5.425
 1049SOL    HW1 4046   0.724   4.037   5.401
 1049SOL    HW2 4047   0.762   3.938   5.525
 1050SOL     OW 4048   3.083   0.602   1.494
 1050SOL    HW1 4049   3.012   0.671   1.509
 1050SOL    HW2 4050   3.173   0.642   1.516
 1051SOL     OW 4051   5.142   3.177   1.828
 1051SOL    HW1 4052   5.126   3.268   1.868
 1051SOL    HW2 4053   5.104   3.107   1.888
 1052SOL     OW 4054   2.283   6.408   3.732
 1052SOL    HW1 4055   2.323   6.500   3.741
 1052SOL    HW2 4056   2.221   6.406   3.653
 1053SOL     OW 4057   3.607   5.714   3.225
 1053SOL    HW1 4058   3.682   5.697   3.288
 1053SOL    HW2 4059   3.545   5.782   3.263
 1054SOL     OW 4060   3.253   6.002   5.368
 1054SOL    HW1 4061   3.305   6.032   5.447
 1054SOL    HW2 4062   3.162   5.972   5.397
 1055SOL     OW 4063   3.346   4.909   4.912
 1055SOL    HW1 4064   3.367   4.968   4.991
 1055SOL    HW2 4065   3.342   4.814   4.942
 1056SOL     OW 4066   2.975   6.086   0.116
 1056SOL    HW1 4067   2.922   6.088   0.201
 1056SOL    HW2 4068   2.981   5.992   0.083
 1057SOL     OW 4069   3.737   3.896   1.279
 1057SOL    HW1 4070   3.710   3.814   1.328
 1057SOL    HW2 4071   3.717   3.885   1.182
 1058SOL     OW 4072   2.420   0.609   2.187
 1058SOL    HW1 4073   2.407   0.510   2.184
 1058SOL    HW2 4074   2.464   0.634   2.272
 1059SOL     OW 4075   3.690   0.634   0.340
 1059SOL    HW1 4076   3.698   0.541   0.376
 1059SOL    HW2 4077   3.630   0.688   0.399
 1060SOL     OW 4078   3.704   1.604   4.131
 1060SOL    HW1 4079   3.757   1.615   4.046
 1060SOL    HW2 4080   3.708   1.509   4.160
 1061SOL     OW 4081   2.642   5.447   1.429
 1061SOL    HW1 4082   2.566   5.469   1.368
 1061SOL    HW2 4083   2.638   5.506   1.510
 1062SOL     OW 4084   5.946   4.200   5.266
 1062SOL    HW1 4085   5.953   4.138   5.188
 1062SOL    HW2 4086   6.006   4.279   5.252
 1063SOL     OW 4087   4.298   2.074   6.004
 1063SOL    HW1 4088   4.199   2.084   5.999
 1063SOL    HW2 4089   4.320   1.993   6.058
 1064SOL     OW 4090   0.539   2.759   2.353
 1064SOL    HW1 4091   0.451   2.792   2.320
 1064SOL    HW2 4092   0.597   2.736   2.274
 1065SOL     OW 4093   3.860   5.737   0.192
 1065SOL    HW1 4094   3.818   5.815   0.144
 1065SOL    HW2 4095   3.958   5.735   0.172
 1066SOL     OW 4096   5.554   6.507   3.413
 1066SOL    HW1 4097   5.554   6.578   3.343
 1066SOL    HW2 4098   5.554   6.549   3.503
 1067SOL     OW 4099   3.513   4.546   0.983
 1067SOL    HW1 4100   3.557   4.632   0.958
 1067SOL    HW2 4101   3.416   4.551   0.959
 1068SOL     OW 4102   1.323   5.079   2.264
 1068SOL    HW1 4103   1.343   4.989   2.303
 1068SOL    HW2 4104   1.293   5.069   2.170
 1069SOL     OW 4105   4.017   3.662   2.996
 1069SOL    HW1 4106   3.978   3.743   3.040
 1069SOL    HW2 4107   3.958   3.632   2.922
 1070SOL     OW 4108   1.248   6.240   0.137
 1070SOL    HW1 4109   1.168   6.189   0.104
 1070SOL    HW2 4110   1.236   6.258   0.235
 1071SOL     OW 4111   4.421   4.953   3.846
 1071SOL    HW1 4112   4.340   4.915   3.803
 1071SOL    HW2 4113   4.476   4.880   3.886
 1072SOL     OW 4114   4.285   5.060   3.316
 1072SOL    HW1 4115   4.193   5.086   3.286
 1072SOL    HW2 4116   4.348   5.136   3.302
 1073SOL     OW 4117   2.752   5.585   4.094
 1073SOL    HW1 4118   2.790   5.540   4.014
 1073SOL    HW2 4119   2.824   5.636   4.141
 1074SOL     OW 4120   2.604   4.936   3.994
 1074SOL    HW1 4121   2.508   4.940   3.968
 1074SOL    HW2 4122   2.615   4.976   4.085
 1075SOL     OW 4123   1.201   4.500   2.884
 1075SOL    HW1 4124   1.215   4.502   2.983
 1075SOL    HW2 4125   1.276   4.451   2.841
 1076SOL     OW 4126   4.897   4.023   3.620
 1076SOL    HW1 4127   4.970   4.092   3.611
 1076SOL    HW2 4128   4.861   4.002   3.529
 1077SOL     OW 4129   4.046   0.507   2.010
 1077SOL    HW1 4130   3.973   0.523   2.077
 1077SOL    HW2 4131   4.129   0.553   2.040
 1078SOL     OW 4132   6.308   2.384   1.867
 1078SOL    HW1 4133   6.367   2.463   1.854
 1078SOL    HW2 4134   6.328   2.340   1.954
 1079SOL     OW 4135   1.635   5.134   3.276
 1079SOL    HW1 4136   1.735   5.131   3.283
 1079SOL    HW2 4137   1.595   5.129   3.367
 1080SOL     OW 4138   2.338   5.207   4.361
 1080SOL    HW1 4139   2.343   5.300   4.325
 1080SOL    HW2 4140   2.336   5.210   4.461
 1081SOL     OW 4141   1.270   0.582   0.687
 1081SOL    HW1 4142   1.220   0.662   0.654
 1081SOL    HW2 4143   1.222   0.499   0.660
 1082SOL     OW 4144   2.149   0.765   1.369
 1082SOL    HW1 4145   2.215   0.739   1.299
 1082SOL    HW2 4146   2.197   0.785   1.454
 1083SOL     OW 4147   3.507   4.127   2.202
 1083SOL    HW1 4148   3.546   4.121   2.110
 1083SOL    HW2 4149   3.504   4.223   2.230
 1084SOL     OW 4150   5.878   4.096   1.476
 1084SOL    HW1 4151   5.799   4.071   1.421
 1084SOL    HW2 4152   5.858   4.079   1.573
 1085SOL     OW 4153   1.496   6.358   3.660
 1085SOL    HW1 4154   1.496   6.414   3.577
 1085SOL    HW2 4155   1.535   6.269   3.639
 1086SOL     OW 4156   2.695   6.445   2.735
 1086SOL    HW1 4157   2.696   6.354   2.694
 1086SOL    HW2 4158   2.692   6.437   2.834
 1087SOL     OW 4159   3.550   3.114   5.451
 1087SOL    HW1 4160   3.583   3.031   5.407
 1087SOL    HW2 4161   3.522   3.094   5.545
 1088SOL     OW 4162   6.653   5.367   2.286
 1088SOL    HW1 4163   6.715   5.288   2.287
 1088SOL    HW2 4164   6.686   5.434   2.220
 1089SOL     OW 4165   6.927   0.961   3.319
 1089SOL    HW1 4166   7.014   0.923   3.288
 1089SOL    HW2 4167   6.857   0.890   3.317
 1090SOL     OW 4168   3.023   1.952   6.842
 1090SOL    HW1 4169   3.055   1.984   6.932
 1090SOL    HW2 4170   2.954   2.015   6.807
 1091SOL     OW 4171   1.469   2.058   5.994
 1091SOL    HW1 4172   1.456   2.011   5.907
 1091SOL    HW2 4173   1.567   2.071   6.010
 1092SOL     OW 4174   2.729   4.855   1.003
 1092SOL    HW1 4175   2.721   4.922   0.928
 1092SOL    HW2 4176   2.723   4.903   1.091
 1093SOL     OW 4177   6.802   1.568   1.658
 1093SOL    HW1 4178   6.817   1.552   1.560
 1093SOL    HW2 4179   6.704   1.584   1.674
 1094SOL     OW 4180   0.479   6.139   2.736
 1094SOL    HW1 4181   0.434   6.083   2.805
 1094SOL    HW2 4182   0.461   6.236   2.754
 1095SOL     OW 4183   1.760   2.931   5.005
 1095SOL    HW1 4184   1.752   2.857   4.937
 1095SOL    HW2 4185   1.856   2.943   5.029
 1096SOL     OW 4186   3.492   2.920   2.218
 1096SOL    HW1 4187   3.466   2.851   2.151
 1096SOL    HW2 4188   3.575   2.966   2.188
 1097SOL     OW 4189   3.128   5.004   5.904
 1097SOL    HW1 4190   3.041   5.050   5.886
 1097SOL    HW2 4191   3.204   5.066   5.885
 1098SOL     OW 4192   2.859   0.280   2.485
 1098SOL    HW1 4193   2.876   0.302   2.389
 1098SOL    HW2 4194   2.854   0.365   2.538
 1099SOL     OW 4195   3.250   0.590   1.956
 1099SOL    HW1 4196   3.223   0.565   1.864
 1099SOL    HW2 4197   3.253   0.690   1.964
 1100SOL     OW 4198   0.006   0.472   0.255
 1100SOL    HW1 4199   7.003   0.407   0.184
 1100SOL    HW2 4200   0.057   0.548   0.214
 1101SOL     OW 4201   5.795   4.459   0.794
 1101SOL    HW1 4202   5.714   4.400   0.798
 1101SOL    HW2 4203   5.864   4.418   0.734
 1102SOL     OW 4204   6.894   4.529   4.366
 1102SOL    HW1 4205   6.956   4.454   4.345
 1102SOL    HW2 4206   6.808   4.493   4.403
 1103SOL     OW 4207   0.814   2.811   6.402
 1103SOL    HW1 4208   0.791   2.899   6.442
 1103SOL    HW2 4209   0.757   2.740   6.444
 1104SOL     OW 4210   2.932   5.022   5.619
 1104SOL    HW1 4211   2.922   5.081   5.699
 1104SOL    HW2 4212   3.018   5.042   5.573
 1105SOL     OW 4213   3.926   5.521   0.933
 1105SOL    HW1 4214   3.921   5.438   0.990
 1105SOL    HW2 4215   3.833   5.555   0.917
 1106SOL     OW 4216   1.044   2.523   6.458
 1106SOL    HW1 4217   1.028   2.434   6.417
 1106SOL    HW2 4218   1.032   2.595   6.389
 1107SOL     OW 4219   6.716   6.488   1.614
 1107SOL    HW1 4220   6.755   6.454   1.528
 1107SOL    HW2 4221   6.783   6.477   1.687
 1108SOL     OW 4222   1.394   0.794   6.602
 1108SOL    HW1 4223   1.359   0.813   6.693
 1108SOL    HW2 4224   1.377   0.872   6.542
 1109SOL     OW 4225   4.011   1.428   3.415
 1109SOL    HW1 4226   4.064   1.386   3.342
 1109SOL    HW2 4227   4.062   1.425   3.501
 1110SOL     OW 4228   3.798   3.485   3.264
 1110SOL    HW1 4229   3.761   3.578   3.256
 1110SOL    HW2 4230   3.761   3.442   3.346
 1111SOL     OW 4231   4.082   0.215   6.563
 1111SOL    HW1 4232   4.029   0.237   6.645
 1111SOL    HW2 4233   4.024   0.225   6.482
 1112SOL     OW 4234   0.412   1.402   2.822
 1112SOL    HW1 4235   0.323   1.442   2.804
 1112SOL    HW2 4236   0.452   1.370   2.735
 1113SOL     OW 4237   0.690   5.277   2.050
 1113SOL    HW1 4238   0.745   5.285   2.133
 1113SOL    HW2 4239   0.600   5.239   2.074
 1114SOL     OW 4240   5.722   0.774   5.488
 1114SOL    HW1 4241   5.808   0.769   5.539
 1114SOL    HW2 4242   5.654   0.713   5.530
 1115SOL     OW 4243   1.882   4.686   0.359
 1115SOL    HW1 4244   1.863   4.663   0.263
 1115SOL    HW2 4245   1.915   4.604   0.407
 1116SOL     OW 4246   2.917   6.760   6.070
 1116SOL    HW1 4247   2.966   6.705   6.003
 1116SOL    HW2 4248   2.977   6.834   6.101
 1117SOL     OW 4249   3.118   2.516   0.373
 1117SOL    HW1 4250   3.180   2.438   0.373
 1117SOL    HW2 4251   3.025   2.486   0.391
 1118SOL     OW 4252   2.031   1.970   1.374
 1118SOL    HW1 4253   2.037   1.897   1.442
 1118SOL    HW2 4254   1.941   1.968   1.331
 1119SOL     OW 4255   3.703   3.719   3.580
 1119SOL    HW1 4256   3.663   3.674   3.499
 1119SOL    HW2 4257   3.645   3.702   3.659
 1120SOL     OW 4258   3.234   1.278   3.238
 1120SOL    HW1 4259   3.197   1.186   3.233
 1120SOL    HW2 4260   3.169   1.338   3.285
 1121SOL     OW 4261   5.007   3.714   2.566
 1121SOL    HW1 4262   4.947   3.778   2.517
 1121SOL    HW2 4263   5.098   3.755   2.576
 1122SOL     OW 4264   4.768   4.784   0.120
 1122SOL    HW1 4265   4.832   4.708   0.108
 1122SOL    HW2 4266   4.812   4.856   0.175
 1123SOL     OW 4267   4.293   0.348   2.169
 1123SOL    HW1 4268   4.263   0.444   2.172
 1123SOL    HW2 4269   4.337   0.324   2.256
 1124SOL     OW 4270   2.634   5.204   3.399
 1124SOL    HW1 4271   2.674   5.210   3.491
 1124SOL    HW2 4272   2.706   5.181   3.333
 1125SOL     OW 4273   3.486   4.480   5.744
 1125SOL    HW1 4274   3.504   4.396   5.693
 1125SOL    HW2 4275   3.564   4.542   5.734
 1126SOL     OW 4276   6.152   0.414   2.201
 1126SOL    HW1 4277   6.230   0.475   2.207
 1126SOL    HW2 4278   6.069   0.463   2.230
 1127SOL     OW 4279   2.763   5.575   6.142
 1127SOL    HW1 4280   2.716   5.649   6.189
 1127SOL    HW2 4281   2.860   5.598   6.131
 1128SOL     OW 4282   2.762   1.286   5.492
 1128SOL    HW1 4283   2.773   1.188   5.508
 1128SOL    HW2 4284   2.789   1.308   5.398
 1129SOL     OW 4285   4.385   5.940   6.837
 1129SOL    HW1 4286   4.320   5.877   6.796
 1129SOL    HW2 4287   4.366   6.033   6.806
 1130SOL     OW 4288   1.197   4.613   5.584
 1130SOL    HW1 4289   1.118   4.563   5.548
 1130SOL    HW2 4290   1.167   4.705   5.612
 1131SOL     OW 4291   1.401   4.416   5.947
 1131SOL    HW1 4292   1.326   4.413   5.882
 1131SOL    HW2 4293   1.368   4.453   6.034
 1132SOL     OW 4294   5.200   6.798   4.477
 1132SOL    HW1 4295   5.149   6.728   4.528
 1132SOL    HW2 4296   5.271   6.755   4.422
 1133SOL     OW 4297   0.060   1.820   0.155
 1133SOL    HW1 4298   6.987   1.794   0.167
 1133SOL    HW2 4299   0.067   1.890   0.084
 1134SOL     OW 4300   0.146   3.805   6.095
 1134SOL    HW1 4301   0.165   3.711   6.067
 1134SOL    HW2 4302   0.176   3.868   6.024
 1135SOL     OW 4303   6.675   2.237   4.074
 1135SOL    HW1 4304   6.742   2.165   4.051
 1135SOL    HW2 4305   6.582   2.200   4.065
 1136SOL     OW 4306   4.215   5.672   3.983
 1136SOL    HW1 4307   4.286   5.622   3.933
 1136SOL    HW2 4308   4.203   5.762   3.940
 1137SOL     OW 4309   0.558   0.715   6.418
 1137SOL    HW1 4310   0.640   0.751   6.463
 1137SOL    HW2 4311   0.501   0.791   6.388
 1138SOL     OW 4312   0.728   2.218   5.641
 1138SOL    HW1 4313   0.716   2.302   5.693
 1138SOL    HW2 4314   0.792   2.158   5.688
 1139SOL     OW 4315   0.483   0.349   2.894
 1139SOL    HW1 4316   0.494   0.275   2.960
 1139SOL    HW2 4317   0.395   0.394   2.909
 1140SOL     OW 4318   4.191   1.763   3.361
 1140SOL    HW1 4319   4.216   1.835   3.297
 1140SOL    HW2 4320   4.096   1.734   3.345
 1141SOL     OW 4321   0.391   0.131   5.801
 1141SOL    HW1 4322   0.434   0.078   5.727
 1141SOL    HW2 4323   0.439   0.111   5.887
 1142SOL     OW 4324   5.443   6.730   5.796
 1142SOL    HW1 4325   5.354   6.686   5.785
 1142SOL    HW2 4326   5.470   6.773   5.710
 1143SOL     OW 4327   5.380   2.557   1.262
 1143SOL    HW1 4328   5.306   2.543   1.196
 1143SOL    HW2 4329   5.409   2.468   1.298
 1144SOL     OW 4330   1.048   6.560   4.853
 1144SOL    HW1 4331   1.120   6.526   4.793
 1144SOL    HW2 4332   0.995   6.630   4.806
 1145SOL     OW 4333   3.043   5.009   5.135
 1145SOL    HW1 4334   3.049   5.095   5.186
 1145SOL    HW2 4335   3.083   4.935   5.189
 1146SOL     OW 4336   5.918   2.363   2.153
 1146SOL    HW1 4337   5.999   2.307   2.135
 1146SOL    HW2 4338   5.928   2.451   2.107
 1147SOL     OW 4339   6.599   3.839   2.922
 1147SOL    HW1 4340   6.644   3.851   3.010
 1147SOL    HW2 4341   6.667   3.824   2.851
 1148SOL     OW 4342   6.039   6.469   5.930
 1148SOL    HW1 4343   6.060   6.462   5.832
 1148SOL    HW2 4344   6.120   6.446   5.983
 1149SOL     OW 4345   4.898   3.471   2.461
 1149SOL    HW1 4346   4.954   3.551   2.484
 1149SOL    HW2 4347   4.930   3.432   2.374
 1150SOL     OW 4348   2.998   5.661   5.205
 1150SOL    HW1 4349   2.949   5.683   5.121
 1150SOL    HW2 4350   2.934   5.654   5.281
 1151SOL     OW 4351   1.873   5.740   0.480
 1151SOL    HW1 4352   1.815   5.795   0.541
 1151SOL    HW2 4353   1.900   5.656   0.526
 1152SOL     OW 4354   6.552   1.055   3.452
 1152SOL    HW1 4355   6.633   1.112   3.457
 1152SOL    HW2 4356   6.578   0.961   3.428
 1153SOL     OW 4357   0.758   4.531   1.828
 1153SOL    HW1 4358   0.793   4.609   1.776
 1153SOL    HW2 4359   0.794   4.446   1.790
 1154SOL     OW 4360   1.423   3.478   2.112
 1154SOL    HW1 4361   1.465   3.423   2.040
 1154SOL    HW2 4362   1.473   3.564   2.122
 1155SOL     OW 4363   5.250   1.009   2.036
 1155SOL    HW1 4364   5.314   0.953   2.088
 1155SOL    HW2 4365   5.158   0.998   2.073
 1156SOL     OW 4366   2.975   1.514   3.907
 1156SOL    HW1 4367   2.924   1.583   3.960
 1156SOL    HW2 4368   3.072   1.541   3.903
 1157SOL     OW 4369   1.967   3.678   3.355
 1157SOL    HW1 4370   2.017   3.647   3.436
 1157SOL    HW2 4371   1.952   3.777   3.361
 1158SOL     OW 4372   4.898   5.523   5.235
 1158SOL    HW1 4373   4.822   5.496   5.176
 1158SOL    HW2 4374   4.953   5.443   5.258
 1159SOL     OW 4375   6.463   4.359   3.256
 1159SOL    HW1 4376   6.424   4.277   3.215
 1159SOL    HW2 4377   6.555   4.339   3.290
 1160SOL     OW 4378   3.292   2.298   1.290
 1160SOL    HW1 4379   3.194   2.314   1.295
 1160SOL    HW2 4380   3.339   2.358   1.354
 1161SOL     OW 4381   4.309   1.399   2.458
 1161SOL    HW1 4382   4.396   1.410   2.409
 1161SOL    HW2 4383   4.306   1.309   2.501
 1162SOL     OW 4384   3.635   4.553   1.391
 1162SOL    HW1 4385   3.678   4.600   1.313
 1162SOL    HW2 4386   3.546   4.595   1.409
 1163SOL     OW 4387   4.396   6.739   3.579
 1163SOL    HW1 4388   4.445   6.680   3.643
 1163SOL    HW2 4389   4.298   6.719   3.584
 1164SOL     OW 4390   6.853   4.065   4.725
 1164SOL    HW1 4391   6.866   4.164   4.730
 1164SOL    HW2 4392   6.900   4.029   4.645
 1165SOL     OW 4393   0.220   4.986   2.718
 1165SOL    HW1 4394   0.236   5.060   2.652
 1165SOL    HW2 4395   0.203   5.024   2.808
 1166SOL     OW 4396   3.325   1.191   5.420
 1166SOL    HW1 4397   3.252   1.134   5.458
 1166SOL    HW2 4398   3.307   1.287   5.441
 1167SOL     OW 4399   4.649   1.471   5.517
 1167SOL    HW1 4400   4.745   1.483   5.490
 1167SOL    HW2 4401   4.594   1.543   5.477
 1168SOL     OW 4402   5.733   1.422   4.160
 1168SOL    HW1 4403   5.636   1.417   4.182
 1168SOL    HW2 4404   5.761   1.518   4.156
 1169SOL     OW 4405   2.136   2.483   0.962
 1169SOL    HW1 4406   2.154   2.390   0.996
 1169SOL    HW2 4407   2.213   2.513   0.905
 1170SOL     OW 4408   2.660   1.158   1.669
 1170SOL    HW1 4409   2.651   1.204   1.757
 1170SOL    HW2 4410   2.739   1.194   1.619
 1171SOL     OW 4411   5.019   0.690   0.762
 1171SOL    HW1 4412   4.981   0.618   0.821
 1171SOL    HW2 4413   4.983   0.679   0.669
 1172SOL     OW 4414   3.541   3.527   5.750
 1172SOL    HW1 4415   3.473   3.510   5.821
 1172SOL    HW2 4416   3.630   3.544   5.793
 1173SOL     OW 4417   5.390   5.815   0.432
 1173SOL    HW1 4418   5.459   5.747   0.408
 1173SOL    HW2 4419   5.336   5.782   0.510
 1174SOL     OW 4420   3.946   6.570   6.138
 1174SOL    HW1 4421   3.984   6.488   6.096
 1174SOL    HW2 4422   3.879   6.544   6.207
 1175SOL     OW 4423   6.925   5.457   5.124
 1175SOL    HW1 4424   6.864   5.530   5.093
 1175SOL    HW2 4425   6.903   5.372   5.077
 1176SOL     OW 4426   6.404   2.910   1.377
 1176SOL    HW1 4427   6.310   2.881   1.392
 1176SOL    HW2 4428   6.450   2.842   1.319
 1177SOL     OW 4429   6.922   3.161   5.177
 1177SOL    HW1 4430   6.855   3.157   5.103
 1177SOL    HW2 4431   6.965   3.251   5.178
 1178SOL     OW 4432   4.847   4.467   2.239
 1178SOL    HW1 4433   4.839   4.393   2.173
 1178SOL    HW2 4434   4.922   4.527   2.213
 1179SOL     OW 4435   1.721   5.564   6.185
 1179SOL    HW1 4436   1.690   5.511   6.106
 1179SOL    HW2 4437   1.659   5.548   6.262
 1180SOL     OW 4438   2.051   1.383   4.094
 1180SOL    HW1 4439   2.062   1.291   4.054
 1180SOL    HW2 4440   2.090   1.451   4.032
 1181SOL     OW 4441   0.989   4.258   1.950
 1181SOL    HW1 4442   1.035   4.346   1.966
 1181SOL    HW2 4443   1.029   4.214   1.870
 1182SOL     OW 4444   6.861   3.971   3.811
 1182SOL    HW1 4445   6.829   4.057   3.851
 1182SOL    HW2 4446   6.957   3.980   3.783
 1183SOL     OW 4447   4.167   6.109   0.538
 1183SOL    HW1 4448   4.246   6.139   0.486
 1183SOL    HW2 4449   4.091   6.172   0.523
 1184SOL     OW 4450   4.229   3.181   6.462
 1184SOL    HW1 4451   4.243   3.084   6.444
 1184SOL    HW2 4452   4.174   3.193   6.545
 1185SOL     OW 4453   3.614   1.162   6.487
 1185SOL    HW1 4454   3.695   1.116   6.523
 1185SOL    HW2 4455   3.617   1.162   6.387
 1186SOL     OW 4456   4.054   6.336   5.101
 1186SOL    HW1 4457   3.999   6.254   5.081
 1186SOL    HW2 4458   4.042   6.402   5.027
 1187SOL     OW 4459   0.651   2.580   4.560
 1187SOL    HW1 4460   0.608   2.637   4.630
 1187SOL    HW2 4461   0.751   2.589   4.566
 1188SOL     OW 4462   2.311   0.979   5.097
 1188SOL    HW1 4463   2.402   1.015   5.082
 1188SOL    HW2 4464   2.317   0.892   5.147
 1189SOL     OW 4465   1.502   0.905   1.475
 1189SOL    HW1 4466   1.488   1.002   1.453
 1189SOL    HW2 4467   1.415   0.865   1.502
 1190SOL     OW 4468   2.751   6.401   1.168
 1190SOL    HW1 4469   2.758   6.464   1.090
 1190SOL    HW2 4470   2.813   6.431   1.240
 1191SOL     OW 4471   1.786   4.001   1.768
 1191SOL    HW1 4472   1.687   3.997   1.755
 1191SOL    HW2 4473   1.808   4.076   1.832
 1192SOL     OW 4474   3.758   5.813   2.434
 1192SOL    HW1 4475   3.831   5.758   2.396
 1192SOL    HW2 4476   3.751   5.796   2.533
 1193SOL     OW 4477   3.744   2.146   3.622
 1193SOL    HW1 4478   3.810   2.163   3.550
 1193SOL    HW2 4479   3.660   2.198   3.603
 1194SOL     OW 4480   6.580   2.632   2.194
 1194SOL    HW1 4481   6.594   2.726   2.224
 1194SOL    HW2 4482   6.482   2.613   2.187
 1195SOL     OW 4483   4.692   0.637   6.475
 1195SOL    HW1 4484   4.626   0.707   6.447
 1195SOL    HW2 4485   4.760   0.625   6.403
 1196SOL     OW 4486   1.472   5.847   3.643
 1196SOL    HW1 4487   1.554   5.812   3.689
 1196SOL    HW2 4488   1.396   5.848   3.708
 1197SOL     OW 4489   3.903   5.093   0.050
 1197SOL    HW1 4490   3.948   5.004   0.040
 1197SOL    HW2 4491   3.888   5.133   6.982
 1198SOL     OW 4492   3.099   1.675   3.468
 1198SOL    HW1 4493   3.194   1.674   3.498
 1198SOL    HW2 4494   3.048   1.742   3.522
 1199SOL     OW 4495   3.473   4.018   3.793
 1199SOL    HW1 4496   3.548   3.974   3.843
 1199SOL    HW2 4497   3.508   4.060   3.710
 1200SOL     OW 4498   4.765   4.082   1.004
 1200SOL    HW1 4499   4.708   4.060   1.083
 1200SOL    HW2 4500   4.793   3.998   0.957
 1201SOL     OW 4501   2.050   1.386   5.340
 1201SOL    HW1 4502   1.956   1.381   5.306
 1201SOL    HW2 4503   2.074   1.300   5.385
 1202SOL     OW 4504   5.554   6.144   4.217
 1202SOL    HW1 4505   5.485   6.111   4.151
 1202SOL    HW2 4506   5.588   6.066   4.270
 1203SOL     OW 4507   4.889   0.445   1.738
 1203SOL    HW1 4508   4.843   0.431   1.650
 1203SOL    HW2 4509   4.855   0.378   1.804
 1204SOL     OW 4510   2.879   0.566   0.224
 1204SOL    HW1 4511   2.781   0.547   0.215
 1204SOL    HW2 4512   2.896   0.663   0.204
 1205SOL     OW 4513   1.010   2.685   6.245
 1205SOL    HW1 4514   0.941   2.749   6.279
 1205SOL    HW2 4515   1.085   2.736   6.203
 1206SOL     OW 4516   6.226   2.108   5.505
 1206SOL    HW1 4517   6.269   2.190   5.543
 1206SOL    HW2 4518   6.274   2.082   5.421
 1207SOL     OW 4519   5.977   5.961   5.769
 1207SOL    HW1 4520   5.889   5.914   5.778
 1207SOL    HW2 4521   6.034   5.913   5.702
 1208SOL     OW 4522   4.029   3.755   3.761
 1208SOL    HW1 4523   3.986   3.841   3.788
 1208SOL    HW2 4524   3.995   3.682   3.820
 1209SOL     OW 4525   0.410   3.601   4.491
 1209SOL    HW1 4526   0.428   3.679   4.431
 1209SOL    HW2 4527   0.448   3.620   4.582
 1210SOL     OW 4528   2.595   0.246   4.379
 1210SOL    HW1 4529   2.552   0.336   4.371
 1210SOL    HW2 4530   2.678   0.254   4.435
 1211SOL     OW 4531   6.898   3.885   3.401
 1211SOL    HW1 4532   6.857   3.842   3.321
 1211SOL    HW2 4533   6.827   3.928   3.456
 1212SOL     OW 4534   1.018   3.590   2.623
 1212SOL    HW1 4535   1.061   3.581   2.713
 1212SOL    HW2 4536   1.085   3.619   2.556
 1213SOL     OW 4537   6.471   3.701   5.126
 1213SOL    HW1 4538   6.561   3.701   5.169
 1213SOL    HW2 4539   6.459   3.785   5.074
 1214SOL     OW 4540   0.544   2.105   0.773
 1214SOL    HW1 4541   0.620   2.153   0.730
 1214SOL    HW2 4542   0.551   2.007   0.754
 1215SOL     OW 4543   1.276   0.267   1.755
 1215SOL    HW1 4544   1.176   0.277   1.753
 1215SOL    HW2 4545   1.303   0.192   1.694
 1216SOL     OW 4546   1.804   6.915   0.889
 1216SOL    HW1 4547   1.716   6.955   0.914
 1216SOL    HW2 4548   1.812   6.910   0.789
 1217SOL     OW 4549   1.178   2.658   3.541
 1217SOL    HW1 4550   1.160   2.560   3.545
 1217SOL    HW2 4551   1.201   2.691   3.633
 1218SOL     OW 4552   6.855   4.504   3.935
 1218SOL    HW1 4553   6.910   4.469   4.011
 1218SOL    HW2 4554   6.766   4.532   3.969
 1219SOL     OW 4555   1.512   5.512   3.009
 1219SOL    HW1 4556   1.524   5.414   2.990
 1219SOL    HW2 4557   1.425   5.542   2.969
 1220SOL     OW 4558   6.210   4.797   3.021
 1220SOL    HW1 4559   6.287   4.759   3.072
 1220SOL    HW2 4560   6.236   4.887   2.985
 1221SOL     OW 4561   4.662   5.133   0.820
 1221SOL    HW1 4562   4.700   5.077   0.746
 1221SOL    HW2 4563   4.579   5.090   0.855
 1222SOL     OW 4564   0.057   4.717   1.016
 1222SOL    HW1 4565   0.093   4.743   1.106
 1222SOL    HW2 4566   6.983   4.692   1.025
 1223SOL     OW 4567   1.100   3.993   5.200
 1223SOL    HW1 4568   1.158   4.068   5.169
 1223SOL    HW2 4569   1.048   4.022   5.280
 1224SOL     OW 4570   4.047   5.338   1.998
 1224SOL    HW1 4571   4.023   5.282   1.919
 1224SOL    HW2 4572   3.987   5.316   2.075
 1225SOL     OW 4573   5.350   1.988   6.372
 1225SOL    HW1 4574   5.284   1.986   6.447
 1225SOL    HW2 4575   5.335   1.909   6.313
 1226SOL     OW 4576   6.072   5.241   1.300
 1226SOL    HW1 4577   6.002   5.223   1.230
 1226SOL    HW2 4578   6.046   5.196   1.385
 1227SOL     OW 4579   6.375   4.468   0.500
 1227SOL    HW1 4580   6.335   4.556   0.527
 1227SOL    HW2 4581   6.474   4.477   0.492
 1228SOL     OW 4582   4.196   3.829   5.231
 1228SOL    HW1 4583   4.178   3.774   5.150
 1228SOL    HW2 4584   4.197   3.771   5.312
 1229SOL     OW 4585   1.460   5.598   1.822
 1229SOL    HW1 4586   1.451   5.503   1.851
 1229SOL    HW2 4587   1.493   5.653   1.899
 1230SOL     OW 4588   5.759   4.529   0.438
 1230SOL    HW1 4589   5.796   4.507   0.348
 1230SOL    HW2 4590   5.670   4.485   0.449
 1231SOL     OW 4591   2.200   0.819   0.892
 1231SOL    HW1 4592   2.293   0.825   0.929
 1231SOL    HW2 4593   2.148   0.900   0.920
 1232SOL     OW 4594   2.120   2.010   5.871
 1232SOL    HW1 4595   2.118   2.096   5.820
 1232SOL    HW2 4596   2.172   1.942   5.819
 1233SOL     OW 4597   6.827   5.253   4.983
 1233SOL    HW1 4598   6.858   5.162   4.955
 1233SOL    HW2 4599   6.757   5.285   4.920
 1234SOL     OW 4600   6.849   4.672   5.041
 1234SOL    HW1 4601   6.768   4.672   5.100
 1234SOL    HW2 4602   6.897   4.585   5.052
 1235SOL     OW 4603   6.514   4.952   0.168
 1235SOL    HW1 4604   6.422   4.942   0.130
 1235SOL    HW2 4605   6.509   5.000   0.256
 1236SOL     OW 4606   0.073   1.207   3.016
 1236SOL    HW1 4607   0.074   1.271   3.092
 1236SOL    HW2 4608   0.018   1.127   3.041
 1237SOL     OW 4609   0.589   0.520   5.676
 1237SOL    HW1 4610   0.605   0.616   5.702
 1237SOL    HW2 4611   0.566   0.467   5.758
 1238SOL     OW 4612   0.415   0.520   4.374
 1238SOL    HW1 4613   0.500   0.488   4.334
 1238SOL    HW2 4614   0.411   0.620   4.369
 1239SOL     OW 4615   4.423   5.322   3.367
 1239SOL    HW1 4616   4.395   5.372   3.449
 1239SOL    HW2 4617   4.519   5.342   3.347
 1240SOL     OW 4618   1.063   3.852   2.160
 1240SOL    HW1 4619   1.119   3.933   2.142
 1240SOL    HW2 4620   1.122   3.773   2.174
 1241SOL     OW 4621   3.040   5.682   6.143
 1241SOL    HW1 4622   3.016   5.709   6.236
 1241SOL    HW2 4623   3.094   5.754   6.100
 1242SOL     OW 4624   2.186   5.937   0.618
 1242SOL    HW1 4625   2.096   5.960   0.655
 1242SOL    HW2 4626   2.186   5.842   0.588
 1243SOL     OW 4627   0.873   4.539   4.174
 1243SOL    HW1 4628   0.798   4.594   4.137
 1243SOL    HW2 4629   0.837   4.468   4.234
 1244SOL     OW 4630   5.871   6.500   4.871
 1244SOL    HW1 4631   5.962   6.484   4.908
 1244SOL    HW2 4632   5.827   6.574   4.922
 1245SOL     OW 4633   3.672   6.617   1.564
 1245SOL    HW1 4634   3.685   6.578   1.473
 1245SOL    HW2 4635   3.739   6.579   1.627
 1246SOL     OW 4636   4.995   2.121   2.964
 1246SOL    HW1 4637   5.052   2.181   3.020
 1246SOL    HW2 4638   5.048   2.040   2.938
 1247SOL     OW 4639   4.490   6.252   2.909
 1247SOL    HW1 4640   4.510   6.186   2.982
 1247SOL    HW2 4641   4.559   6.324   2.910
 1248SOL     OW 4642   0.330   0.842   5.143
 1248SOL    HW1 4643   0.353   0.849   5.046
 1248SOL    HW2 4644   0.259   0.772   5.155
 1249SOL     OW 4645   6.397   6.745   0.188
 1249SOL    HW1 4646   6.449   6.679   0.133
 1249SOL    HW2 4647   6.305   6.708   0.206
 1250SOL     OW 4648   0.749   4.611   4.936
 1250SOL    HW1 4649   0.659   4.647   4.909
 1250SOL    HW2 4650   0.737   4.521   4.976
 1251SOL     OW 4651   1.810   0.367   3.475
 1251SOL    HW1 4652   1.857   0.302   3.415
 1251SOL    HW2 4653   1.714   0.373   3.450
 1252SOL     OW 4654   3.144   4.820   6.598
 1252SOL    HW1 4655   3.157   4.907   6.647
 1252SOL    HW2 4656   3.108   4.751   6.661
 1253SOL     OW 4657   2.962   5.608   0.621
 1253SOL    HW1 4658   2.916   5.582   0.706
 1253SOL    HW2 4659   2.898   5.660   0.563
 1254SOL     OW 4660   6.563   1.042   4.172
 1254SOL    HW1 4661   6.495   1.101   4.217
 1254SOL    HW2 4662   6.653   1.060   4.212
 1255SOL     OW 4663   5.697   2.173   6.588
 1255SOL    HW1 4664   5.687   2.077   6.563
 1255SOL    HW2 4665   5.673   2.186   6.684
 1256SOL     OW 4666   6.812   6.216   6.426
 1256SOL    HW1 4667   6.836   6.124   6.395
 1256SOL    HW2 4668   6.895   6.270   6.435
 1257SOL     OW 4669   6.790   6.564   2.213
 1257SOL    HW1 4670   6.755   6.502   2.142
 1257SOL    HW2 4671   6.746   6.543   2.300
 1258SOL     OW 4672   5.073   5.131   6.363
 1258SOL    HW1 4673   5.067   5.079   6.448
 1258SOL    HW2 4674   5.037   5.076   6.287
 1259SOL     OW 4675   6.104   6.708   4.329
 1259SOL    HW1 4676   6.203   6.725   4.332
 1259SOL    HW2 4677   6.068   6.707   4.423
 1260SOL     OW 4678   3.141   0.355   0.834
 1260SOL    HW1 4679   3.104   0.343   0.742
 1260SOL    HW2 4680   3.187   0.271   0.862
 1261SOL     OW 4681   1.178   3.597   5.246
 1261SOL    HW1 4682   1.106   3.617   5.312
 1261SOL    HW2 4683   1.266   3.588   5.294
 1262SOL     OW 4684   4.739   6.644   0.106
 1262SOL    HW1 4685   4.826   6.596   0.104
 1262SOL    HW2 4686   4.666   6.580   0.129
 1263SOL     OW 4687   6.911   0.968   1.290
 1263SOL    HW1 4688   6.989   0.909   1.312
 1263SOL    HW2 4689   6.827   0.927   1.326
 1264SOL     OW 4690   5.874   2.620   4.356
 1264SOL    HW1 4691   5.831   2.594   4.442
 1264SOL    HW2 4692   5.938   2.549   4.327
 1265SOL     OW 4693   6.114   6.012   3.689
 1265SOL    HW1 4694   6.098   6.002   3.788
 1265SOL    HW2 4695   6.042   6.070   3.650
 1266SOL     OW 4696   2.358   1.041   4.800
 1266SOL    HW1 4697   2.305   0.993   4.870
 1266SOL    HW2 4698   2.351   0.992   4.713
 1267SOL     OW 4699   6.930   4.392   1.911
 1267SOL    HW1 4700   0.000   4.427   1.899
 1267SOL    HW2 4701   6.920   4.308   1.857
 1268SOL     OW 4702   6.017   5.101   6.339
 1268SOL    HW1 4703   6.097   5.042   6.333
 1268SOL    HW2 4704   5.934   5.046   6.332
 1269SOL     OW 4705   1.050   3.895   5.610
 1269SOL    HW1 4706   0.995   3.851   5.681
 1269SOL    HW2 4707   1.140   3.918   5.647
 1270SOL     OW 4708   1.105   2.598   3.914
 1270SOL    HW1 4709   1.191   2.547   3.923
 1270SOL    HW2 4710   1.029   2.534   3.920
 1271SOL     OW 4711   5.224   4.582   2.904
 1271SOL    HW1 4712   5.319   4.564   2.930
 1271SOL    HW2 4713   5.188   4.502   2.855
 1272SOL     OW 4714   5.753   0.169   0.922
 1272SOL    HW1 4715   5.692   0.246   0.904
 1272SOL    HW2 4716   5.753   0.148   1.020
 1273SOL     OW 4717   2.513   6.266   4.181
 1273SOL    HW1 4718   2.558   6.177   4.189
 1273SOL    HW2 4719   2.507   6.291   4.084
 1274SOL     OW 4720   5.631   2.143   1.424
 1274SOL    HW1 4721   5.572   2.062   1.428
 1274SOL    HW2 4722   5.606   2.206   1.498
 1275SOL     OW 4723   3.595   1.448   3.331
 1275SOL    HW1 4724   3.630   1.506   3.405
 1275SOL    HW2 4725   3.575   1.505   3.252
 1276SOL     OW 4726   5.278   6.582   3.244
 1276SOL    HW1 4727   5.210   6.528   3.194
 1276SOL    HW2 4728   5.311   6.531   3.323
 1277SOL     OW 4729   0.743   1.972   5.188
 1277SOL    HW1 4730   0.727   1.874   5.202
 1277SOL    HW2 4731   0.802   1.985   5.108
 1278SOL     OW 4732   2.503   1.606   4.403
 1278SOL    HW1 4733   2.480   1.695   4.442
 1278SOL    HW2 4734   2.532   1.544   4.477
 1279SOL     OW 4735   1.740   4.384   0.506
 1279SOL    HW1 4736   1.713   4.369   0.601
 1279SOL    HW2 4737   1.828   4.430   0.503
 1280SOL     OW 4738   0.627   6.552   2.968
 1280SOL    HW1 4739   0.629   6.575   2.871
 1280SOL    HW2 4740   0.710   6.504   2.994
 1281SOL     OW 4741   1.246   6.130   4.028
 1281SOL    HW1 4742   1.148   6.140   4.042
 1281SOL    HW2 4743   1.269   6.149   3.933
 1282SOL     OW 4744   1.686   6.914   2.445
 1282SOL    HW1 4745   1.766   6.854   2.439
 1282SOL    HW2 4746   1.652   6.916   2.539
 1283SOL     OW 4747   5.512   4.796   5.354
 1283SOL    HW1 4748   5.580   4.830   5.289
 1283SOL    HW2 4749   5.447   4.868   5.375
 1284SOL     OW 4750   2.639   2.378   2.991
 1284SOL    HW1 4751   2.693   2.373   3.076
 1284SOL    HW2 4752   2.671   2.308   2.928
 1285SOL     OW 4753   6.186   2.535   5.459
 1285SOL    HW1 4754   6.101   2.585   5.475
 1285SOL    HW2 4755   6.198   2.467   5.531
 1286SOL     OW 4756   5.214   5.394   1.088
 1286SOL    HW1 4757   5.274   5.416   1.165
 1286SOL    HW2 4758   5.120   5.389   1.120
 1287SOL     OW 4759   5.889   3.473   6.044
 1287SOL    HW1 4760   5.875   3.492   5.947
 1287SOL    HW2 4761   5.923   3.555   6.090
 1288SOL     OW 4762   6.829   2.930   3.112
 1288SOL    HW1 4763   6.804   2.931   3.015
 1288SOL    HW2 4764   6.881   3.013   3.134
 1289SOL     OW 4765   0.389   5.048   3.199
 1289SOL    HW1 4766   0.303   5.086   3.166
 1289SOL    HW2 4767   0.451   5.123   3.224
 1290SOL     OW 4768   7.002   0.237   1.834
 1290SOL    HW1 4769   0.079   0.244   1.833
 1290SOL    HW2 4770   6.963   0.329   1.842
 1291SOL     OW 4771   1.805   5.394   1.660
 1291SOL    HW1 4772   1.767   5.483   1.684
 1291SOL    HW2 4773   1.856   5.402   1.575
 1292SOL     OW 4774   1.504   0.040   0.225
 1292SOL    HW1 4775   1.559   6.982   0.201
 1292SOL    HW2 4776   1.416   0.035   0.178
 1293SOL     OW 4777   6.747   1.094   6.754
 1293SOL    HW1 4778   6.683   1.152   6.704
 1293SOL    HW2 4779   6.819   1.150   6.794
 1294SOL     OW 4780   0.413   1.688   4.267
 1294SOL    HW1 4781   0.344   1.721   4.331
 1294SOL    HW2 4782   0.496   1.663   4.318
 1295SOL     OW 4783   5.128   4.061   0.379
 1295SOL    HW1 4784   5.075   3.982   0.412
 1295SOL    HW2 4785   5.069   4.142   0.378
 1296SOL     OW 4786   3.788   0.780   0.546
 1296SOL    HW1 4787   3.777   0.733   0.634
 1296SOL    HW2 4788   3.796   0.712   0.473
 1297SOL     OW 4789   5.279   0.717   6.024
 1297SOL    HW1 4790   5.185   0.682   6.030
 1297SOL    HW2 4791   5.321   0.717   6.114
 1298SOL     OW 4792   6.040   2.723   2.995
 1298SOL    HW1 4793   6.032   2.777   3.079
 1298SOL    HW2 4794   5.949   2.710   2.955
 1299SOL     OW 4795   1.601   4.432   4.373
 1299SOL    HW1 4796   1.528   4.471   4.316
 1299SOL    HW2 4797   1.642   4.354   4.325
 1300SOL     OW 4798   3.523   3.383   3.144
 1300SOL    HW1 4799   3.497   3.319   3.073
 1300SOL    HW2 4800   3.560   3.466   3.103
 1301SOL     OW 4801   0.564   0.606   1.623
 1301SOL    HW1 4802   0.489   0.671   1.635
 1301SOL    HW2 4803   0.571   0.580   1.527
 1302SOL     OW 4804   2.821   5.429   5.665
 1302SOL    HW1 4805   2.783   5.488   5.737
 1302SOL    HW2 4806   2.751   5.365   5.635
 1303SOL     OW 4807   2.753   6.986   1.584
 1303SOL    HW1 4808   2.768   0.040   1.521
 1303SOL    HW2 4809   2.836   6.970   1.637
 1304SOL     OW 4810   3.566   0.883   5.634
 1304SOL    HW1 4811   3.550   0.856   5.729
 1304SOL    HW2 4812   3.480   0.874   5.582
 1305SOL     OW 4813   5.984   6.254   4.393
 1305SOL    HW1 4814   5.957   6.158   4.405
 1305SOL    HW2 4815   5.969   6.303   4.479
 1306SOL     OW 4816   1.491   5.458   3.794
 1306SOL    HW1 4817   1.553   5.531   3.822
 1306SOL    HW2 4818   1.439   5.488   3.714
 1307SOL     OW 4819   1.214   0.801   5.409
 1307SOL    HW1 4820   1.190   0.726   5.471
 1307SOL    HW2 4821   1.161   0.793   5.325
 1308SOL     OW 4822   4.077   6.463   3.814
 1308SOL    HW1 4823   4.046   6.373   3.844
 1308SOL    HW2 4824   4.177   6.464   3.806
 1309SOL     OW 4825   6.581   3.029   4.096
 1309SOL    HW1 4826   6.496   3.006   4.049
 1309SOL    HW2 4827   6.629   3.101   4.045
 1310SOL     OW 4828   5.201   4.086   5.983
 1310SOL    HW1 4829   5.227   4.162   5.924
 1310SOL    HW2 4830   5.271   4.015   5.979
 1311SOL     OW 4831   5.514   4.715   0.208
 1311SOL    HW1 4832   5.513   4.791   0.143
 1311SOL    HW2 4833   5.580   4.645   0.177
 1312SOL     OW 4834   6.201   1.561   2.027
 1312SOL    HW1 4835   6.233   1.645   1.983
 1312SOL    HW2 4836   6.232   1.482   1.974
 1313SOL     OW 4837   4.097   5.190   5.070
 1313SOL    HW1 4838   4.189   5.155   5.088
 1313SOL    HW2 4839   4.094   5.229   4.977
 1314SOL     OW 4840   6.994   1.593   6.283
 1314SOL    HW1 4841   6.974   1.496   6.296
 1314SOL    HW2 4842   0.067   1.603   6.256
 1315SOL     OW 4843   1.131   6.897   3.926
 1315SOL    HW1 4844   1.123   6.994   3.904
 1315SOL    HW2 4845   1.186   6.886   4.009
 1316SOL     OW 4846   3.342   5.781   4.263
 1316SOL    HW1 4847   3.428   5.731   4.264
 1316SOL    HW2 4848   3.323   5.817   4.355
 1317SOL     OW 4849   0.420   3.515   3.276
 1317SOL    HW1 4850   0.459   3.431   3.238
 1317SOL    HW2 4851   0.329   3.530   3.237
 1318SOL     OW 4852   0.656   6.619   2.702
 1318SOL    HW1 4853   0.709   6.563   2.639
 1318SOL    HW2 4854   0.635   6.707   2.658
 1319SOL     OW 4855   0.145   6.541   1.019
 1319SOL    HW1 4856   0.203   6.591   1.083
 1319SOL    HW2 4857   0.181   6.448   1.006
 1320SOL     OW 4858   6.231   4.787   5.360
 1320SOL    HW1 4859   6.312   4.773   5.417
 1320SOL    HW2 4860   6.259   4.815   5.268
 1321SOL     OW 4861   3.677   1.061   1.398
 1321SOL    HW1 4862   3.697   1.051   1.300
 1321SOL    HW2 4863   3.612   1.136   1.412
 1322SOL     OW 4864   5.163   1.196   6.149
 1322SOL    HW1 4865   5.214   1.127   6.097
 1322SOL    HW2 4866   5.172   1.177   6.246
 1323SOL     OW 4867   6.877   0.349   4.560
 1323SOL    HW1 4868   6.829   0.428   4.597
 1323SOL    HW2 4869   6.826   0.312   4.482
 1324SOL     OW 4870   1.417   2.344   0.756
 1324SOL    HW1 4871   1.448   2.286   0.681
 1324SOL    HW2 4872   1.433   2.440   0.733
 1325SOL     OW 4873   4.748   5.317   3.650
 1325SOL    HW1 4874   4.814   5.247   3.622
 1325SOL    HW2 4875   4.668   5.273   3.691
 1326SOL     OW 4876   5.220   4.160   4.268
 1326SOL    HW1 4877   5.217   4.096   4.345
 1326SOL    HW2 4878   5.148   4.137   4.202
 1327SOL     OW 4879   3.438   6.096   3.782
 1327SOL    HW1 4880   3.503   6.059   3.848
 1327SOL    HW2 4881   3.406   6.185   3.814
 1328SOL     OW 4882   2.645   1.801   1.874
 1328SOL    HW1 4883   2.593   1.795   1.789
 1328SOL    HW2 4884   2.618   1.882   1.925
 1329SOL     OW 4885   0.887   5.842   1.775
 1329SOL    HW1 4886   0.822   5.777   1.736
 1329SOL    HW2 4887   0.894   5.922   1.714
 1330SOL     OW 4888   6.422   6.243   1.564
 1330SOL    HW1 4889   6.417   6.237   1.663
 1330SOL    HW2 4890   6.392   6.334   1.534
 1331SOL     OW 4891   0.671   1.873   1.587
 1331SOL    HW1 4892   0.670   1.863   1.487
 1331SOL    HW2 4893   0.730   1.949   1.612
 1332SOL     OW 4894   4.263   1.728   0.160
 1332SOL    HW1 4895   4.181   1.756   0.210
 1332SOL    HW2 4896   4.287   1.634   0.185
 1333SOL     OW 4897   4.033   3.486   5.272
 1333SOL    HW1 4898   4.098   3.533   5.332
 1333SOL    HW2 4899   3.964   3.440   5.328
 1334SOL     OW 4900   2.085   3.332   3.818
 1334SOL    HW1 4901   2.095   3.422   3.860
 1334SOL    HW2 4902   2.019   3.338   3.743
 1335SOL     OW 4903   2.119   5.903   3.622
 1335SOL    HW1 4904   2.162   5.960   3.691
 1335SOL    HW2 4905   2.154   5.810   3.629
 1336SOL     OW 4906   0.062   6.600   4.546
 1336SOL    HW1 4907   0.102   6.590   4.637
 1336SOL    HW2 4908   0.118   6.664   4.492
 1337SOL     OW 4909   2.730   0.216   6.729
 1337SOL    HW1 4910   2.784   0.236   6.811
 1337SOL    HW2 4911   2.788   0.170   6.661
 1338SOL     OW 4912   3.846   4.388   0.561
 1338SOL    HW1 4913   3.822   4.485   0.560
 1338SOL    HW2 4914   3.814   4.346   0.646
 1339SOL     OW 4915   0.356   4.338   6.430
 1339SOL    HW1 4916   0.345   4.260   6.491
 1339SOL    HW2 4917   0.347   4.423   6.483
 1340SOL     OW 4918   2.600   1.613   5.880
 1340SOL    HW1 4919   2.658   1.541   5.843
 1340SOL    HW2 4920   2.625   1.631   5.975
 1341SOL     OW 4921   5.177   1.589   3.790
 1341SOL    HW1 4922   5.091   1.632   3.761
 1341SOL    HW2 4923   5.254   1.648   3.764
 1342SOL     OW 4924   0.562   5.754   0.361
 1342SOL    HW1 4925   0.618   5.814   0.304
 1342SOL    HW2 4926   0.553   5.664   0.317
 1343SOL     OW 4927   3.187   5.963   3.261
 1343SOL    HW1 4928   3.132   5.938   3.341
 1343SOL    HW2 4929   3.146   6.041   3.215
 1344SOL     OW 4930   4.517   1.364   2.295
 1344SOL    HW1 4931   4.479   1.323   2.213
 1344SOL    HW2 4932   4.535   1.461   2.279
 1345SOL     OW 4933   6.538   5.503   1.726
 1345SOL    HW1 4934   6.443   5.527   1.707
 1345SOL    HW2 4935   6.553   5.406   1.708
 1346SOL     OW 4936   6.627   1.911   3.098
 1346SOL    HW1 4937   6.636   1.967   3.180
 1346SOL    HW2 4938   6.561   1.954   3.036
 1347SOL     OW 4939   4.132   0.912   3.570
 1347SOL    HW1 4940   4.102   1.006   3.585
 1347SOL    HW2 4941   4.069   0.849   3.617
 1348SOL     OW 4942   5.524   6.458   4.809
 1348SOL    HW1 4943   5.610   6.463   4.759
 1348SOL    HW2 4944   5.471   6.380   4.778
 1349SOL     OW 4945   5.312   1.358   6.584
 1349SOL    HW1 4946   5.350   1.386   6.672
 1349SOL    HW2 4947   5.368   1.395   6.510
 1350SOL     OW 4948   4.074   1.621   4.581
 1350SOL    HW1 4949   4.107   1.535   4.621
 1350SOL    HW2 4950   3.997   1.602   4.520
 1351SOL     OW 4951   1.220   1.684   4.516
 1351SOL    HW1 4952   1.131   1.730   4.520
 1351SOL    HW2 4953   1.214   1.595   4.562
 1352SOL     OW 4954   1.260   6.489   4.686
 1352SOL    HW1 4955   1.250   6.457   4.592
 1352SOL    HW2 4956   1.314   6.422   4.738
 1353SOL     OW 4957   2.800   3.097   5.889
 1353SOL    HW1 4958   2.843   3.186   5.878
 1353SOL    HW2 4959   2.715   3.107   5.941
 1354SOL     OW 4960   0.468   6.452   6.837
 1354SOL    HW1 4961   0.452   6.532   6.895
 1354SOL    HW2 4962   0.566   6.445   6.817
 1355SOL     OW 4963   4.744   3.421   0.387
 1355SOL    HW1 4964   4.713   3.507   0.346
 1355SOL    HW2 4965   4.671   3.384   0.445
 1356SOL     OW 4966   4.124   3.261   2.636
 1356SOL    HW1 4967   4.055   3.240   2.567
 1356SOL    HW2 4968   4.181   3.181   2.653
 1357SOL     OW 4969   3.977   2.461   5.972
 1357SOL    HW1 4970   3.991   2.542   6.029
 1357SOL    HW2 4971   3.975   2.380   6.031
 1358SOL     OW 4972   2.020   3.055   4.740
 1358SOL    HW1 4973   2.084   2.986   4.776
 1358SOL    HW2 4974   2.060   3.146   4.752
 1359SOL     OW 4975   0.956   1.482   6.630
 1359SOL    HW1 4976   1.001   1.398   6.659
 1359SOL    HW2 4977   1.008   1.561   6.663
 1360SOL     OW 4978   2.879   3.790   4.786
 1360SOL    HW1 4979   2.789   3.819   4.818
 1360SOL    HW2 4980   2.949   3.821   4.851
 1361SOL     OW 4981   1.084   6.187   1.227
 1361SOL    HW1 4982   1.015   6.131   1.272
 1361SOL    HW2 4983   1.056   6.283   1.229
 1362SOL     OW 4984   3.582   0.995   6.261
 1362SOL    HW1 4985   3.566   1.038   6.172
 1362SOL    HW2 4986   3.500   1.005   6.317
 1363SOL     OW 4987   6.420   5.561   1.074
 1363SOL    HW1 4988   6.411   5.648   1.122
 1363SOL    HW2 4989   6.352   5.497   1.109
 1364SOL     OW 4990   1.258   3.240   1.067
 1364SOL    HW1 4991   1.317   3.160   1.076
 1364SOL    HW2 4992   1.163   3.210   1.053
 1365SOL     OW 4993   1.497   3.045   6.317
 1365SOL    HW1 4994   1.453   2.970   6.366
 1365SOL    HW2 4995   1.555   3.009   6.245
 1366SOL     OW 4996   4.199   1.087   2.085
 1366SOL    HW1 4997   4.187   1.008   2.024
 1366SOL    HW2 4998   4.144   1.163   2.051
 1367SOL     OW 4999   1.528   0.140   4.079
 1367SOL    HW1 5000   1.473   0.100   4.006
 1367SOL    HW2 5001   1.623   0.108   4.071
 1368SOL     OW 5002   2.201   5.914   4.815
 1368SOL    HW1 5003   2.157   6.002   4.832
 1368SOL    HW2 5004   2.162   5.873   4.732
 1369SOL     OW 5005   2.728   5.635   3.262
 1369SOL    HW1 5006   2.736   5.576   3.182
 1369SOL    HW2 5007   2.647   5.608   3.314
 1370SOL     OW 5008   6.409   2.978   2.891
 1370SOL    HW1 5009   6.331   2.932   2.849
 1370SOL    HW2 5010   6.377   3.059   2.940
 1371SOL     OW 5011   6.516   1.802   6.779
 1371SOL    HW1 5012   6.485   1.852   6.699
 1371SOL    HW2 5013   6.614   1.783   6.770
 1372SOL     OW 5014   4.967   2.108   2.294
 1372SOL    HW1 5015   4.939   2.146   2.383
 1372SOL    HW2 5016   4.950   2.009   2.293
 1373SOL     OW 5017   4.167   2.654   1.054
 1373SOL    HW1 5018   4.144   2.715   1.130
 1373SOL    HW2 5019   4.258   2.614   1.070
 1374SOL     OW 5020   3.215   3.421   3.975
 1374SOL    HW1 5021   3.127   3.429   4.022
 1374SOL    HW2 5022   3.219   3.488   3.901
 1375SOL     OW 5023   6.416   3.795   5.547
 1375SOL    HW1 5024   6.369   3.728   5.489
 1375SOL    HW2 5025   6.352   3.868   5.573
 1376SOL     OW 5026   2.705   4.674   6.469
 1376SOL    HW1 5027   2.691   4.646   6.374
 1376SOL    HW2 5028   2.792   4.721   6.478
 1377SOL     OW 5029   1.180   2.015   4.000
 1377SOL    HW1 5030   1.263   1.973   3.966
 1377SOL    HW2 5031   1.158   2.095   3.944
 1378SOL     OW 5032   5.025   2.777   3.702
 1378SOL    HW1 5033   4.956   2.766   3.630
 1378SOL    HW2 5034   5.060   2.688   3.729
 1379SOL     OW 5035   5.252   5.269   6.628
 1379SOL    HW1 5036   5.279   5.200   6.561
 1379SOL    HW2 5037   5.324   5.338   6.634
 1380SOL     OW 5038   6.566   6.950   3.653
 1380SOL    HW1 5039   6.536   6.858   3.676
 1380SOL    HW2 5040   6.495   7.016   3.679
 1381SOL     OW 5041   6.725   2.751   6.289
 1381SOL    HW1 5042   6.768   2.665   6.262
 1381SOL    HW2 5043   6.660   2.779   6.218
 1382SOL     OW 5044   4.563   2.199   5.424
 1382SOL    HW1 5045   4.634   2.141   5.383
 1382SOL    HW2 5046   4.479   2.145   5.436
 1383SOL     OW 5047   5.458   0.012   0.445
 1383SOL    HW1 5048   5.406   0.097   0.435
 1383SOL    HW2 5049   5.533   0.011   0.379
 1384SOL     OW 5050   5.725   1.889   2.342
 1384SOL    HW1 5051   5.813   1.929   2.367
 1384SOL    HW2 5052   5.710   1.899   2.243
 1385SOL     OW 5053   6.798   6.857   2.206
 1385SOL    HW1 5054   6.783   6.762   2.180
 1385SOL    HW2 5055   6.891   6.884   2.181
 1386SOL     OW 5056   1.658   0.544   3.908
 1386SOL    HW1 5057   1.740   0.545   3.966
 1386SOL    HW2 5058   1.642   0.450   3.876
 1387SOL     OW 5059   1.165   5.545   1.437
 1387SOL    HW1 5060   1.134   5.597   1.516
 1387SOL    HW2 5061   1.265   5.547   1.433
 1388SOL     OW 5062   6.345   0.500   1.453
 1388SOL    HW1 5063   6.429   0.457   1.422
 1388SOL    HW2 5064   6.365   0.560   1.531
 1389SOL     OW 5065   6.433   0.391   0.768
 1389SOL    HW1 5066   6.448   0.296   0.796
 1389SOL    HW2 5067   6.474   0.452   0.835
 1390SOL     OW 5068   1.433   1.276   4.377
 1390SOL    HW1 5069   1.426   1.375   4.379
 1390SOL    HW2 5070   1.443   1.245   4.283
 1391SOL     OW 5071   0.708   3.618   3.940
 1391SOL    HW1 5072   0.644   3.682   3.898
 1391SOL    HW2 5073   0.735   3.651   4.031
 1392SOL     OW 5074   5.298   5.684   4.043
 1392SOL    HW1 5075   5.307   5.584   4.036
 1392SOL    HW2 5076   5.349   5.727   3.968
 1393SOL     OW 5077   3.526   4.737   6.664
 1393SOL    HW1 5078   3.449   4.689   6.621
 1393SOL    HW2 5079   3.533   4.829   6.625
 1394SOL     OW 5080   1.173   6.907   6.438
 1394SOL    HW1 5081   1.091   6.854   6.459
 1394SOL    HW2 5082   1.199   6.962   6.518
 1395SOL     OW 5083   4.079   5.203   6.498
 1395SOL    HW1 5084   4.169   5.161   6.512
 1395SOL    HW2 5085   4.026   5.149   6.433
 1396SOL     OW 5086   4.836   5.833   2.644
 1396SOL    HW1 5087   4.797   5.744   2.619
 1396SOL    HW2 5088   4.775   5.906   2.614
 1397SOL     OW 5089   5.801   6.078   4.681
 1397SOL    HW1 5090   5.774   6.009   4.613
 1397SOL    HW2 5091   5.879   6.044   4.733
 1398SOL     OW 5092   1.691   0.059   5.374
 1398SOL    HW1 5093   1.741   0.136   5.414
 1398SOL    HW2 5094   1.594   0.065   5.399
 1399SOL     OW 5095   2.648   5.419   2.327
 1399SOL    HW1 5096   2.615   5.483   2.397
 1399SOL    HW2 5097   2.693   5.470   2.253
 1400SOL     OW 5098   1.577   0.696   3.481
 1400SOL    HW1 5099   1.483   0.671   3.458
 1400SOL    HW2 5100   1.637   0.617   3.463
 1401SOL     OW 5101   7.018   2.242   4.345
 1401SOL    HW1 5102   7.016   2.338   4.316
 1401SOL    HW2 5103   6.950   2.190   4.294
 1402SOL     OW 5104   5.379   2.475   6.956
 1402SOL    HW1 5105   5.395   2.464   0.031
 1402SOL    HW2 5106   5.344   2.568   6.938
 1403SOL     OW 5107   3.865   1.196   2.109
 1403SOL    HW1 5108   3.933   1.240   2.050
 1403SOL    HW2 5109   3.881   1.224   2.204
 1404SOL     OW 5110   4.641   1.079   6.188
 1404SOL    HW1 5111   4.660   1.141   6.111
 1404SOL    HW2 5112   4.683   1.116   6.271
 1405SOL     OW 5113   3.375   2.775   0.498
 1405SOL    HW1 5114   3.419   2.712   0.434
 1405SOL    HW2 5115   3.384   2.739   0.591
 1406SOL     OW 5116   0.624   3.335   1.924
 1406SOL    HW1 5117   0.593   3.307   2.015
 1406SOL    HW2 5118   0.671   3.423   1.929
 1407SOL     OW 5119   6.735   2.215   2.546
 1407SOL    HW1 5120   6.734   2.176   2.454
 1407SOL    HW2 5121   6.648   2.261   2.564
 1408SOL     OW 5122   6.721   4.452   6.927
 1408SOL    HW1 5123   6.814   4.469   6.961
 1408SOL    HW2 5124   6.699   4.519   6.856
 1409SOL     OW 5125   7.012   1.256   3.954
 1409SOL    HW1 5126   0.066   1.284   3.896
 1409SOL    HW2 5127   6.942   1.212   3.898
 1410SOL     OW 5128   0.322   1.934   6.480
 1410SOL    HW1 5129   0.373   1.853   6.507
 1410SOL    HW2 5130   0.267   1.914   6.398
 1411SOL     OW 5131   1.626   1.417   1.248
 1411SOL    HW1 5132   1.719   1.393   1.276
 1411SOL    HW2 5133   1.628   1.502   1.195
 1412SOL     OW 5134   2.072   1.893   0.647
 1412SOL    HW1 5135   2.164   1.877   0.685
 1412SOL    HW2 5136   2.077   1.964   0.577
 1413SOL     OW 5137   3.184   6.888   3.326
 1413SOL    HW1 5138   3.240   6.965   3.294
 1413SOL    HW2 5139   3.241   6.807   3.337
 1414SOL     OW 5140   1.586   0.647   2.557
 1414SOL    HW1 5141   1.539   0.730   2.587
 1414SOL    HW2 5142   1.682   0.651   2.583
 1415SOL     OW 5143   5.636   6.723   4.491
 1415SOL    HW1 5144   5.670   6.769   4.573
 1415SOL    HW2 5145   5.714   6.691   4.437
 1416SOL     OW 5146   4.801   5.785   3.832
 1416SOL    HW1 5147   4.886   5.819   3.873
 1416SOL    HW2 5148   4.813   5.689   3.806
 1417SOL     OW 5149   3.458   3.054   5.700
 1417SOL    HW1 5150   3.464   2.956   5.716
 1417SOL    HW2 5151   3.363   3.084   5.707
 1418SOL     OW 5152   3.573   4.112   4.058
 1418SOL    HW1 5153   3.542   4.166   3.980
 1418SOL    HW2 5154   3.632   4.037   4.027
 1419SOL     OW 5155   3.322   5.774   3.939
 1419SOL    HW1 5156   3.372   5.839   3.996
 1419SOL    HW2 5157   3.336   5.682   3.975
 1420SOL     OW 5158   0.312   6.944   3.250
 1420SOL    HW1 5159   0.259   6.945   3.334
 1420SOL    HW2 5160   0.404   6.981   3.268
 1421SOL     OW 5161   3.540   1.135   3.221
 1421SOL    HW1 5162   3.486   1.057   3.188
 1421SOL    HW2 5163   3.482   1.215   3.230
 1422SOL     OW 5164   2.576   5.698   0.433
 1422SOL    HW1 5165   2.582   5.601   0.454
 1422SOL    HW2 5166   2.579   5.751   0.518
 1423SOL     OW 5167   4.745   0.312   2.418
 1423SOL    HW1 5168   4.705   0.377   2.482
 1423SOL    HW2 5169   4.710   0.220   2.438
 1424SOL     OW 5170   6.568   5.580   2.085
 1424SOL    HW1 5171   6.562   5.592   1.986
 1424SOL    HW2 5172   6.508   5.505   2.112
 1425SOL     OW 5173   1.888   0.181   4.337
 1425SOL    HW1 5174   1.801   0.162   4.383
 1425SOL    HW2 5175   1.893   0.279   4.315
 1426SOL     OW 5176   1.746   1.129   5.979
 1426SOL    HW1 5177   1.741   1.030   5.991
 1426SOL    HW2 5178   1.763   1.173   6.067
 1427SOL     OW 5179   5.005   2.665   6.298
 1427SOL    HW1 5180   5.052   2.660   6.386
 1427SOL    HW2 5181   5.002   2.760   6.267
 1428SOL     OW 5182   5.539   0.641   0.869
 1428SOL    HW1 5183   5.441   0.660   0.868
 1428SOL    HW2 5184   5.589   0.725   0.889
 1429SOL     OW 5185   5.547   5.701   1.379
 1429SOL    HW1 5186   5.484   5.674   1.451
 1429SOL    HW2 5187   5.593   5.786   1.406
 1430SOL     OW 5188   2.941   5.027   2.510
 1430SOL    HW1 5189   3.035   5.028   2.477
 1430SOL    HW2 5190   2.894   5.109   2.478
 1431SOL     OW 5191   2.192   1.110   0.617
 1431SOL    HW1 5192   2.159   1.159   0.698
 1431SOL    HW2 5193   2.123   1.112   0.546
 1432SOL     OW 5194   3.109   6.923   1.278
 1432SOL    HW1 5195   3.162   6.842   1.301
 1432SOL    HW2 5196   3.122   6.992   1.349
 1433SOL     OW 5197   5.043   6.865   3.602
 1433SOL    HW1 5198   4.971   6.928   3.574
 1433SOL    HW2 5199   5.028   6.776   3.559
 1434SOL     OW 5200   0.621   1.002   5.159
 1434SOL    HW1 5201   0.531   1.012   5.119
 1434SOL    HW2 5202   0.686   0.972   5.089
 1435SOL     OW 5203   6.836   2.093   3.821
 1435SOL    HW1 5204   6.813   2.015   3.880
 1435SOL    HW2 5205   6.806   2.074   3.727
 1436SOL     OW 5206   5.487   3.417   1.264
 1436SOL    HW1 5207   5.443   3.506   1.278
 1436SOL    HW2 5208   5.451   3.352   1.331
 1437SOL     OW 5209   4.698   0.533   2.584
 1437SOL    HW1 5210   4.627   0.598   2.556
 1437SOL    HW2 5211   4.784   0.555   2.538
 1438SOL     OW 5212   2.903   6.781   2.157
 1438SOL    HW1 5213   2.964   6.808   2.082
 1438SOL    HW2 5214   2.808   6.778   2.124
 1439SOL     OW 5215   0.717   5.671   2.624
 1439SOL    HW1 5216   0.682   5.694   2.715
 1439SOL    HW2 5217   0.773   5.589   2.630
 1440SOL     OW 5218   2.278   2.803   1.334
 1440SOL    HW1 5219   2.375   2.823   1.350
 1440SOL    HW2 5220   2.233   2.784   1.421
 1441SOL     OW 5221   4.951   6.404   6.515
 1441SOL    HW1 5222   4.890   6.350   6.457
 1441SOL    HW2 5223   4.948   6.500   6.486
 1442SOL     OW 5224   4.986   5.666   1.608
 1442SOL    HW1 5225   4.947   5.719   1.684
 1442SOL    HW2 5226   4.914   5.612   1.565
 1443SOL     OW 5227   6.972   2.512   2.353
 1443SOL    HW1 5228   6.986   2.418   2.324
 1443SOL    HW2 5229   6.888   2.519   2.406
 1444SOL     OW 5230   0.526   6.916   4.824
 1444SOL    HW1 5231   0.437   6.891   4.785
 1444SOL    HW2 5232   0.587   6.947   4.752
 1445SOL     OW 5233   0.584   2.243   1.254
 1445SOL    HW1 5234   0.661   2.265   1.194
 1445SOL    HW2 5235   0.507   2.211   1.200
 1446SOL     OW 5236   6.268   5.365   1.678
 1446SOL    HW1 5237   6.237   5.270   1.678
 1446SOL    HW2 5238   6.289   5.393   1.584
 1447SOL     OW 5239   0.162   6.781   3.934
 1447SOL    HW1 5240   0.250   6.813   3.968
 1447SOL    HW2 5241   0.101   6.763   4.011
 1448SOL     OW 5242   1.719   0.872   5.313
 1448SOL    HW1 5243   1.746   0.966   5.295
 1448SOL    HW2 5244   1.619   0.866   5.313
 1449SOL     OW 5245   1.949   3.404   2.284
 1449SOL    HW1 5246   1.910   3.344   2.214
 1449SOL    HW2 5247   2.004   3.350   2.348
 1450SOL     OW 5248   3.187   2.069   2.596
 1450SOL    HW1 5249   3.249   2.078   2.519
 1450SOL    HW2 5250   3.239   2.070   2.682
 1451SOL     OW 5251   4.021   1.771   2.703
 1451SOL    HW1 5252   4.099   1.723   2.744
 1451SOL    HW2 5253   3.961   1.704   2.658
 1452SOL     OW 5254   4.122   3.031   5.461
 1452SOL    HW1 5255   4.209   3.001   5.423
 1452SOL    HW2 5256   4.119   3.012   5.559
 1453SOL     OW 5257   1.767   3.051   4.744
 1453SOL    HW1 5258   1.743   3.019   4.836
 1453SOL    HW2 5259   1.863   3.032   4.726
 1454SOL     OW 5260   3.338   2.081   2.371
 1454SOL    HW1 5261   3.281   2.102   2.291
 1454SOL    HW2 5262   3.430   2.117   2.357
 1455SOL     OW 5263   6.992   5.824   2.743
 1455SOL    HW1 5264   6.994   5.907   2.800
 1455SOL    HW2 5265   6.898   5.790   2.738
 1456SOL     OW 5266   6.239   6.176   3.501
 1456SOL    HW1 5267   6.147   6.202   3.474
 1456SOL    HW2 5268   6.235   6.126   3.588
 1457SOL     OW 5269   1.121   5.428   5.637
 1457SOL    HW1 5270   1.100   5.515   5.593
 1457SOL    HW2 5271   1.043   5.397   5.690
 1458SOL     OW 5272   0.053   5.738   4.833
 1458SOL    HW1 5273   0.094   5.714   4.921
 1458SOL    HW2 5274   0.027   5.834   4.834
 1459SOL     OW 5275   6.920   6.052   5.501
 1459SOL    HW1 5276   6.848   5.990   5.470
 1459SOL    HW2 5277   6.992   6.058   5.431
 1460SOL     OW 5278   1.712   6.531   5.053
 1460SOL    HW1 5279   1.733   6.451   4.997
 1460SOL    HW2 5280   1.794   6.556   5.106
 1461SOL     OW 5281   5.866   3.840   3.342
 1461SOL    HW1 5282   5.955   3.856   3.300
 1461SOL    HW2 5283   5.873   3.850   3.441
 1462SOL     OW 5284   0.871   1.737   2.216
 1462SOL    HW1 5285   0.959   1.784   2.217
 1462SOL    HW2 5286   0.800   1.801   2.188
 1463SOL     OW 5287   2.079   4.593   6.880
 1463SOL    HW1 5288   2.169   4.570   6.843
 1463SOL    HW2 5289   2.008   4.563   6.816
 1464SOL     OW 5290   1.054   4.122   5.480
 1464SOL    HW1 5291   1.027   4.031   5.513
 1464SOL    HW2 5292   0.980   4.187   5.496
 1465SOL     OW 5293   1.800   3.220   5.483
 1465SOL    HW1 5294   1.734   3.267   5.425
 1465SOL    HW2 5295   1.859   3.161   5.428
 1466SOL     OW 5296   5.563   1.114   2.585
 1466SOL    HW1 5297   5.541   1.022   2.551
 1466SOL    HW2 5298   5.481   1.158   2.619
 1467SOL     OW 5299   0.380   0.554   3.710
 1467SOL    HW1 5300   0.460   0.592   3.756
 1467SOL    HW2 5301   0.372   0.594   3.619
 1468SOL     OW 5302   3.635   6.742   4.066
 1468SOL    HW1 5303   3.553   6.688   4.086
 1468SOL    HW2 5304   3.684   6.700   3.990
 1469SOL     OW 5305   5.233   4.674   3.191
 1469SOL    HW1 5306   5.152   4.725   3.163
 1469SOL    HW2 5307   5.256   4.696   3.286
 1470SOL     OW 5308   6.035   1.357   1.595
 1470SOL    HW1 5309   5.948   1.318   1.566
 1470SOL    HW2 5310   6.027   1.391   1.689
 1471SOL     OW 5311   5.131   6.218   0.204
 1471SOL    HW1 5312   5.218   6.172   0.221
 1471SOL    HW2 5313   5.078   6.165   0.137
 1472SOL     OW 5314   2.286   0.524   7.009
 1472SOL    HW1 5315   2.276   0.594   6.939
 1472SOL    HW2 5316   2.299   0.567   0.075
 1473SOL     OW 5317   1.470   5.889   3.383
 1473SOL    HW1 5318   1.475   5.889   3.483
 1473SOL    HW2 5319   1.514   5.806   3.348
 1474SOL     OW 5320   1.480   4.504   1.594
 1474SOL    HW1 5321   1.398   4.447   1.590
 1474SOL    HW2 5322   1.558   4.448   1.620
 1475SOL     OW 5323   6.621   6.953   6.390
 1475SOL    HW1 5324   6.591   6.871   6.438
 1475SOL    HW2 5325   6.680   6.928   6.313
 1476SOL     OW 5326   6.291   0.023   6.780
 1476SOL    HW1 5327   6.295   0.044   6.682
 1476SOL    HW2 5328   6.248   6.957   6.793
 1477SOL     OW 5329   3.598   4.174   1.931
 1477SOL    HW1 5330   3.671   4.112   1.901
 1477SOL    HW2 5331   3.607   4.261   1.882
 1478SOL     OW 5332   4.250   3.758   6.197
 1478SOL    HW1 5333   4.160   3.759   6.242
 1478SOL    HW2 5334   4.270   3.666   6.163
 1479SOL     OW 5335   4.175   4.608   1.065
 1479SOL    HW1 5336   4.159   4.609   0.966
 1479SOL    HW2 5337   4.235   4.683   1.091
 1480SOL     OW 5338   2.677   2.115   3.662
 1480SOL    HW1 5339   2.628   2.115   3.574
 1480SOL    HW2 5340   2.610   2.108   3.737
 1481SOL     OW 5341   4.119   1.611   5.521
 1481SOL    HW1 5342   4.074   1.636   5.606
 1481SOL    HW2 5343   4.207   1.658   5.514
 1482SOL     OW 5344   6.805   1.146   0.878
 1482SOL    HW1 5345   6.796   1.176   0.973
 1482SOL    HW2 5346   6.831   1.223   0.821
 1483SOL     OW 5347   6.162   6.375   0.305
 1483SOL    HW1 5348   6.225   6.373   0.227
 1483SOL    HW2 5349   6.199   6.321   0.380
 1484SOL     OW 5350   3.406   6.425   5.726
 1484SOL    HW1 5351   3.385   6.498   5.660
 1484SOL    HW2 5352   3.398   6.462   5.819
 1485SOL     OW 5353   5.434   3.812   3.288
 1485SOL    HW1 5354   5.342   3.772   3.293
 1485SOL    HW2 5355   5.496   3.747   3.245
 1486SOL     OW 5356   6.395   6.260   4.557
 1486SOL    HW1 5357   6.400   6.284   4.653
 1486SOL    HW2 5358   6.370   6.341   4.503
 1487SOL     OW 5359   5.807   0.248   6.452
 1487SOL    HW1 5360   5.805   0.303   6.535
 1487SOL    HW2 5361   5.806   0.307   6.371
 1488SOL     OW 5362   6.740   2.596   2.489
 1488SOL    HW1 5363   6.705   2.618   2.580
 1488SOL    HW2 5364   6.757   2.681   2.439
 1489SOL     OW 5365   3.227   5.453   6.860
 1489SOL    HW1 5366   3.308   5.417   6.906
 1489SOL    HW2 5367   3.225   5.419   6.766
 1490SOL     OW 5368   5.991   2.793   2.076
 1490SOL    HW1 5369   5.963   2.869   2.018
 1490SOL    HW2 5370   6.087   2.771   2.058
 1491SOL     OW 5371   5.617   3.700   4.467
 1491SOL    HW1 5372   5.643   3.789   4.432
 1491SOL    HW2 5373   5.684   3.671   4.537
 1492SOL     OW 5374   1.323   2.774   1.895
 1492SOL    HW1 5375   1.280   2.822   1.819
 1492SOL    HW2 5376   1.270   2.691   1.917
 1493SOL     OW 5377   6.411   1.975   6.489
 1493SOL    HW1 5378   6.372   1.884   6.502
 1493SOL    HW2 5379   6.337   2.041   6.477
 1494SOL     OW 5380   1.596   3.246   6.470
 1494SOL    HW1 5381   1.695   3.259   6.476
 1494SOL    HW2 5382   1.575   3.183   6.397
 1495SOL     OW 5383   6.140   3.994   4.080
 1495SOL    HW1 5384   6.107   3.903   4.106
 1495SOL    HW2 5385   6.096   4.063   4.137
 1496SOL     OW 5386   6.793   5.544   5.811
 1496SOL    HW1 5387   6.802   5.480   5.735
 1496SOL    HW2 5388   6.696   5.558   5.831
 1497SOL     OW 5389   4.712   2.656   2.740
 1497SOL    HW1 5390   4.661   2.647   2.654
 1497SOL    HW2 5391   4.739   2.752   2.752
 1498SOL     OW 5392   3.751   4.129   0.665
 1498SOL    HW1 5393   3.657   4.104   0.687
 1498SOL    HW2 5394   3.781   4.076   0.586
 1499SOL     OW 5395   1.428   4.570   4.233
 1499SOL    HW1 5396   1.408   4.515   4.152
 1499SOL    HW2 5397   1.360   4.643   4.242
 1500SOL     OW 5398   2.515   5.793   1.559
 1500SOL    HW1 5399   2.556   5.772   1.647
 1500SOL    HW2 5400   2.561   5.873   1.519
 1501SOL     OW 5401   5.591   1.651   1.382
 1501SOL    HW1 5402   5.568   1.575   1.442
 1501SOL    HW2 5403   5.589   1.621   1.286
 1502SOL     OW 5404   0.721   6.402   6.028
 1502SOL    HW1 5405   0.657   6.443   6.093
 1502SOL    HW2 5406   0.769   6.325   6.071
 1503SOL     OW 5407   6.471   6.200   2.258
 1503SOL    HW1 5408   6.402   6.239   2.197
 1503SOL    HW2 5409   6.427   6.155   2.335
 1504SOL     OW 5410   1.330   0.423   3.566
 1504SOL    HW1 5411   1.346   0.452   3.661
 1504SOL    HW2 5412   1.337   0.324   3.561
 1505SOL     OW 5413   6.730   4.377   4.860
 1505SOL    HW1 5414   6.808   4.419   4.907
 1505SOL    HW2 5415   6.764   4.319   4.785
 1506SOL     OW 5416   1.119   1.238   0.748
 1506SOL    HW1 5417   1.046   1.269   0.687
 1506SOL    HW2 5418   1.163   1.317   0.790
 1507SOL     OW 5419   2.157   2.504   3.932
 1507SOL    HW1 5420   2.252   2.507   3.963
 1507SOL    HW2 5421   2.155   2.508   3.832
 1508SOL     OW 5422   1.576   0.507   1.162
 1508SOL    HW1 5423   1.506   0.522   1.092
 1508SOL    HW2 5424   1.558   0.567   1.240
 1509SOL     OW 5425   4.229   0.733   4.792
 1509SOL    HW1 5426   4.149   0.686   4.755
 1509SOL    HW2 5427   4.289   0.762   4.717
 1510SOL     OW 5428   2.547   6.712   5.289
 1510SOL    HW1 5429   2.482   6.744   5.221
 1510SOL    HW2 5430   2.534   6.762   5.374
 1511SOL     OW 5431   3.848   4.211   5.196
 1511SOL    HW1 5432   3.884   4.296   5.235
 1511SOL    HW2 5433   3.897   4.133   5.234
 1512SOL     OW 5434   5.188   6.728   0.888
 1512SOL    HW1 5435   5.240   6.737   0.973
 1512SOL    HW2 5436   5.117   6.799   0.886
 1513SOL     OW 5437   3.100   6.337   5.426
 1513SOL    HW1 5438   3.103   6.320   5.524
 1513SOL    HW2 5439   3.191   6.325   5.387
 1514SOL     OW 5440   3.014   1.559   0.077
 1514SOL    HW1 5441   3.090   1.510   0.034
 1514SOL    HW2 5442   2.935   1.497   0.084
 1515SOL     OW 5443   3.570   0.561   1.332
 1515SOL    HW1 5444   3.546   0.639   1.389
 1515SOL    HW2 5445   3.626   0.592   1.255
 1516SOL     OW 5446   0.135   6.653   6.756
 1516SOL    HW1 5447   0.038   6.641   6.734
 1516SOL    HW2 5448   0.189   6.583   6.709
 1517SOL     OW 5449   2.080   6.030   2.580
 1517SOL    HW1 5450   2.019   5.964   2.537
 1517SOL    HW2 5451   2.172   5.992   2.585
 1518SOL     OW 5452   2.504   2.318   6.659
 1518SOL    HW1 5453   2.541   2.290   6.748
 1518SOL    HW2 5454   2.580   2.344   6.599
 1519SOL     OW 5455   0.623   4.488   6.722
 1519SOL    HW1 5456   0.542   4.430   6.715
 1519SOL    HW2 5457   0.600   4.571   6.772
 1520SOL     OW 5458   0.507   0.207   3.362
 1520SOL    HW1 5459   0.567   0.287   3.371
 1520SOL    HW2 5460   0.413   0.233   3.386
 1521SOL     OW 5461   2.556   5.011   7.015
 1521SOL    HW1 5462   2.595   4.966   6.935
 1521SOL    HW2 5463   2.457   5.002   7.014
 1522SOL     OW 5464   6.458   6.076   4.014
 1522SOL    HW1 5465   6.375   6.039   4.055
 1522SOL    HW2 5466   6.462   6.175   4.029
 1523SOL     OW 5467   2.528   6.719   0.405
 1523SOL    HW1 5468   2.583   6.796   0.374
 1523SOL    HW2 5469   2.513   6.655   0.330
 1524SOL     OW 5470   1.746   2.124   4.487
 1524SOL    HW1 5471   1.682   2.052   4.462
 1524SOL    HW2 5472   1.835   2.106   4.446
 1525SOL     OW 5473   6.145   4.033   0.353
 1525SOL    HW1 5474   6.053   4.066   0.372
 1525SOL    HW2 5475   6.207   4.063   0.426
 1526SOL     OW 5476   0.721   1.323   2.275
 1526SOL    HW1 5477   0.724   1.418   2.307
 1526SOL    HW2 5478   0.802   1.306   2.218
 1527SOL     OW 5479   5.049   1.299   4.752
 1527SOL    HW1 5480   4.967   1.315   4.697
 1527SOL    HW2 5481   5.083   1.206   4.733
 1528SOL     OW 5482   3.167   3.103   2.211
 1528SOL    HW1 5483   3.079   3.148   2.218
 1528SOL    HW2 5484   3.180   3.042   2.289
 1529SOL     OW 5485   4.313   0.788   5.785
 1529SOL    HW1 5486   4.237   0.730   5.756
 1529SOL    HW2 5487   4.350   0.755   5.872
 1530SOL     OW 5488   2.626   6.796   2.122
 1530SOL    HW1 5489   2.585   6.857   2.190
 1530SOL    HW2 5490   2.576   6.803   2.035
 1531SOL     OW 5491   5.769   6.337   4.644
 1531SOL    HW1 5492   5.769   6.242   4.675
 1531SOL    HW2 5493   5.805   6.395   4.717
 1532SOL     OW 5494   3.077   5.605   2.283
 1532SOL    HW1 5495   3.078   5.531   2.215
 1532SOL    HW2 5496   3.143   5.675   2.256
 1533SOL     OW 5497   5.608   5.772   1.730
 1533SOL    HW1 5498   5.675   5.714   1.777
 1533SOL    HW2 5499   5.569   5.837   1.795
 1534SOL     OW 5500   2.604   5.267   6.580
 1534SOL    HW1 5501   2.669   5.327   6.533
 1534SOL    HW2 5502   2.518   5.316   6.595
 1535SOL     OW 5503   5.230   5.248   3.545
 1535SOL    HW1 5504   5.147   5.303   3.554
 1535SOL    HW2 5505   5.280   5.249   3.632
 1536SOL     OW 5506   3.756   4.837   6.386
 1536SOL    HW1 5507   3.694   4.907   6.420
 1536SOL    HW2 5508   3.839   4.835   6.443
 1537SOL     OW 5509   2.676   6.099   2.034
 1537SOL    HW1 5510   2.726   6.109   2.120
 1537SOL    HW2 5511   2.675   6.186   1.985
 1538SOL     OW 5512   2.672   1.477   0.522
 1538SOL    HW1 5513   2.751   1.453   0.464
 1538SOL    HW2 5514   2.589   1.477   0.466
 1539SOL     OW 5515   0.116   2.963   0.707
 1539SOL    HW1 5516   0.132   2.865   0.692
 1539SOL    HW2 5517   0.019   2.978   0.724
 1540SOL     OW 5518   3.836   5.582   3.790
 1540SOL    HW1 5519   3.885   5.664   3.762
 1540SOL    HW2 5520   3.739   5.592   3.769
 1541SOL     OW 5521   4.540   2.605   5.590
 1541SOL    HW1 5522   4.476   2.680   5.579
 1541SOL    HW2 5523   4.528   2.562   5.679
 1542SOL     OW 5524   0.998   4.636   2.777
 1542SOL    HW1 5525   1.085   4.593   2.802
 1542SOL    HW2 5526   0.924   4.571   2.792
 1543SOL     OW 5527   4.108   4.947   1.079
 1543SOL    HW1 5528   4.167   4.877   1.119
 1543SOL    HW2 5529   4.144   4.973   0.989
 1544SOL     OW 5530   3.821   2.938   3.401
 1544SOL    HW1 5531   3.775   2.860   3.358
 1544SOL    HW2 5532   3.788   3.023   3.360
 1545SOL     OW 5533   6.238   4.292   0.802
 1545SOL    HW1 5534   6.249   4.209   0.856
 1545SOL    HW2 5535   6.142   4.319   0.801
 1546SOL     OW 5536   6.543   6.432   5.650
 1546SOL    HW1 5537   6.628   6.385   5.625
 1546SOL    HW2 5538   6.483   6.368   5.697
 1547SOL     OW 5539   1.296   2.697   6.711
 1547SOL    HW1 5540   1.197   2.715   6.711
 1547SOL    HW2 5541   1.337   2.735   6.794
 1548SOL     OW 5542   6.813   2.365   0.364
 1548SOL    HW1 5543   6.868   2.352   0.447
 1548SOL    HW2 5544   6.739   2.430   0.383
 1549SOL     OW 5545   4.579   0.086   4.204
 1549SOL    HW1 5546   4.660   0.032   4.225
 1549SOL    HW2 5547   4.605   0.181   4.188
 1550SOL     OW 5548   2.984   3.955   4.487
 1550SOL    HW1 5549   2.897   3.928   4.529
 1550SOL    HW2 5550   3.036   4.010   4.552
 1551SOL     OW 5551   0.110   5.242   5.971
 1551SOL    HW1 5552   0.150   5.252   5.880
 1551SOL    HW2 5553   0.178   5.267   6.041
 1552SOL     OW 5554   2.468   4.140   1.411
 1552SOL    HW1 5555   2.368   4.146   1.414
 1552SOL    HW2 5556   2.498   4.052   1.446
 1553SOL     OW 5557   1.396   2.372   5.741
 1553SOL    HW1 5558   1.406   2.360   5.643
 1553SOL    HW2 5559   1.307   2.336   5.770
 1554SOL     OW 5560   4.345   1.897   3.534
 1554SOL    HW1 5561   4.275   1.845   3.486
 1554SOL    HW2 5562   4.327   1.995   3.524
 1555SOL     OW 5563   6.242   4.407   5.561
 1555SOL    HW1 5564   6.291   4.324   5.535
 1555SOL    HW2 5565   6.268   4.482   5.499
 1556SOL     OW 5566   2.329   1.022   5.369
 1556SOL    HW1 5567   2.319   0.928   5.402
 1556SOL    HW2 5568   2.321   1.023   5.269
 1557SOL     OW 5569   1.268   1.660   6.122
 1557SOL    HW1 5570   1.236   1.705   6.205
 1557SOL    HW2 5571   1.348   1.603   6.142
 1558SOL     OW 5572   6.689   6.929   4.213
 1558SOL    HW1 5573   6.684   6.864   4.137
 1558SOL    HW2 5574   6.652   6.886   4.295
 1559SOL     OW 5575   1.465   1.244   6.240
 1559SOL    HW1 5576   1.410   1.201   6.169
 1559SOL    HW2 5577   1.556   1.203   6.241
 1560SOL     OW 5578   0.107   0.207   1.487
 1560SOL    HW1 5579   0.131   0.137   1.556
 1560SOL    HW2 5580   0.008   0.223   1.489
 1561SOL     OW 5581   5.939   6.352   1.854
 1561SOL    HW1 5582   6.006   6.384   1.787
 1561SOL    HW2 5583   5.966   6.380   1.946
 1562SOL     OW 5584   5.931   7.013   4.394
 1562SOL    HW1 5585   6.006   0.057   4.396
 1562SOL    HW2 5586   5.953   6.936   4.454
 1563SOL     OW 5587   2.455   0.083   6.347
 1563SOL    HW1 5588   2.433   7.008   6.342
 1563SOL    HW2 5589   2.526   0.104   6.280
 1564SOL     OW 5590   1.666   2.484   2.715
 1564SOL    HW1 5591   1.666   2.389   2.746
 1564SOL    HW2 5592   1.586   2.532   2.753
 1565SOL     OW 5593   6.256   4.051   1.574
 1565SOL    HW1 5594   6.309   4.073   1.656
 1565SOL    HW2 5595   6.318   4.015   1.504
 1566SOL     OW 5596   5.723   4.189   2.087
 1566SOL    HW1 5597   5.650   4.164   2.150
 1566SOL    HW2 5598   5.724   4.289   2.075
 1567SOL     OW 5599   6.750   5.371   5.611
 1567SOL    HW1 5600   6.833   5.384   5.556
 1567SOL    HW2 5601   6.673   5.351   5.550
 1568SOL     OW 5602   0.402   6.151   1.284
 1568SOL    HW1 5603   0.453   6.163   1.199
 1568SOL    HW2 5604   0.309   6.188   1.273
 1569SOL     OW 5605   3.834   5.573   4.945
 1569SOL    HW1 5606   3.743   5.535   4.956
 1569SOL    HW2 5607   3.834   5.640   4.871
 1570SOL     OW 5608   2.666   2.416   1.407
 1570SOL    HW1 5609   2.631   2.436   1.316
 1570SOL    HW2 5610   2.747   2.357   1.399
 1571SOL     OW 5611   0.413   3.041   6.274
 1571SOL    HW1 5612   0.444   2.948   6.255
 1571SOL    HW2 5613   0.491   3.104   6.274
 1572SOL     OW 5614   0.609   5.785   4.451
 1572SOL    HW1 5615   0.606   5.773   4.551
 1572SOL    HW2 5616   0.524   5.829   4.421
 1573SOL     OW 5617   4.444   0.708   6.861
 1573SOL    HW1 5618   4.518   0.668   6.806
 1573SOL    HW2 5619   4.483   0.771   6.928
 1574SOL     OW 5620   5.003   3.361   2.224
 1574SOL    HW1 5621   5.102   3.369   2.216
 1574SOL    HW2 5622   4.963   3.335   2.136
 1575SOL     OW 5623   3.274   2.633   0.013
 1575SOL    HW1 5624   3.339   2.675   6.973
 1575SOL    HW2 5625   3.291   2.535   0.019
 1576SOL     OW 5626   5.792   5.168   3.166
 1576SOL    HW1 5627   5.711   5.190   3.220
 1576SOL    HW2 5628   5.874   5.204   3.212
 1577SOL     OW 5629   1.916   0.915   0.653
 1577SOL    HW1 5630   1.877   0.891   0.742
 1577SOL    HW2 5631   1.921   1.015   0.645
 1578SOL     OW 5632   5.618   6.650   5.007
 1578SOL    HW1 5633   5.582   6.619   4.919
 1578SOL    HW2 5634   5.557   6.719   5.046
 1579SOL     OW 5635   6.323   1.686   3.204
 1579SOL    HW1 5636   6.294   1.702   3.110
 1579SOL    HW2 5637   6.388   1.610   3.206
 1580SOL     OW 5638   2.904   3.921   5.932
 1580SOL    HW1 5639   2.840   3.910   6.008
 1580SOL    HW2 5640   2.979   3.981   5.960
 1581SOL     OW 5641   6.201   3.347   4.295
 1581SOL    HW1 5642   6.127   3.301   4.245
 1581SOL    HW2 5643   6.162   3.400   4.371
 1582SOL     OW 5644   6.424   6.367   3.963
 1582SOL    HW1 5645   6.406   6.451   4.015
 1582SOL    HW2 5646   6.346   6.346   3.905
 1583SOL     OW 5647   2.892   3.221   1.077
 1583SOL    HW1 5648   2.989   3.197   1.087
 1583SOL    HW2 5649   2.883   3.320   1.078
 1584SOL     OW 5650   1.539   6.938   6.667
 1584SOL    HW1 5651   1.479   6.995   6.723
 1584SOL    HW2 5652   1.484   6.880   6.606
 1585SOL     OW 5653   5.876   1.094   5.814
 1585SOL    HW1 5654   5.920   1.107   5.725
 1585SOL    HW2 5655   5.864   0.996   5.831
 1586SOL     OW 5656   4.061   3.329   2.950
 1586SOL    HW1 5657   4.081   3.343   2.853
 1586SOL    HW2 5658   4.031   3.235   2.965
 1587SOL     OW 5659   1.850   6.871   5.567
 1587SOL    HW1 5660   1.866   6.963   5.533
 1587SOL    HW2 5661   1.907   6.855   5.648
 1588SOL     OW 5662   0.372   3.783   0.780
 1588SOL    HW1 5663   0.414   3.694   0.799
 1588SOL    HW2 5664   0.442   3.846   0.748
 1589SOL     OW 5665   5.115   5.104   2.459
 1589SOL    HW1 5666   5.190   5.063   2.511
 1589SOL    HW2 5667   5.072   5.033   2.402
 1590SOL     OW 5668   2.428   6.380   4.692
 1590SOL    HW1 5669   2.383   6.324   4.761
 1590SOL    HW2 5670   2.523   6.351   4.681
 1591SOL     OW 5671   2.133   3.715   0.361
 1591SOL    HW1 5672   2.120   3.616   0.362
 1591SOL    HW2 5673   2.070   3.756   0.295
 1592SOL     OW 5674   3.709   3.672   4.312
 1592SOL    HW1 5675   3.642   3.745   4.329
 1592SOL    HW2 5676   3.718   3.658   4.214
 1593SOL     OW 5677   0.949   4.832   3.931
 1593SOL    HW1 5678   0.952   4.738   3.963
 1593SOL    HW2 5679   1.025   4.883   3.970
 1594SOL     OW 5680   0.488   5.294   2.733
 1594SOL    HW1 5681   0.399   5.306   2.778
 1594SOL    HW2 5682   0.479   5.318   2.636
 1595SOL     OW 5683   6.874   3.570   5.007
 1595SOL    HW1 5684   6.786   3.562   4.959
 1595SOL    HW2 5685   6.920   3.654   4.979
 1596SOL     OW 5686   3.334   5.025   6.429
 1596SOL    HW1 5687   3.302   4.955   6.365
 1596SOL    HW2 5688   3.287   5.111   6.410
 1597SOL     OW 5689   2.056   6.552   1.351
 1597SOL    HW1 5690   2.139   6.536   1.298
 1597SOL    HW2 5691   2.064   6.638   1.401
 1598SOL     OW 5692   6.882   5.365   1.967
 1598SOL    HW1 5693   6.829   5.282   1.950
 1598SOL    HW2 5694   6.838   5.443   1.923
 1599SOL     OW 5695   3.195   5.188   0.079
 1599SOL    HW1 5696   3.111   5.230   0.113
 1599SOL    HW2 5697   3.261   5.260   0.057
 1600SOL     OW 5698   3.573   1.569   5.082
 1600SOL    HW1 5699   3.592   1.580   5.180
 1600SOL    HW2 5700   3.481   1.531   5.070
 1601SOL     OW 5701   1.591   5.557   5.060
 1601SOL    HW1 5702   1.545   5.480   5.016
 1601SOL    HW2 5703   1.527   5.633   5.068
 1602SOL     OW 5704   0.226   3.258   1.659
 1602SOL    HW1 5705   0.281   3.205   1.594
 1602SOL    HW2 5706   0.146   3.295   1.611
 1603SOL     OW 5707   5.743   0.140   1.375
 1603SOL    HW1 5708   5.759   0.230   1.416
 1603SOL    HW2 5709   5.823   0.113   1.321
 1604SOL     OW 5710   1.055   5.093   3.511
 1604SOL    HW1 5711   1.039   5.054   3.421
 1604SOL    HW2 5712   1.143   5.141   3.513
 1605SOL     OW 5713   5.114   5.246   1.992
 1605SOL    HW1 5714   5.134   5.258   2.089
 1605SOL    HW2 5715   5.015   5.249   1.977
 1606SOL     OW 5716   6.396   5.101   4.539
 1606SOL    HW1 5717   6.376   5.007   4.510
 1606SOL    HW2 5718   6.345   5.122   4.622
 1607SOL     OW 5719   6.195   3.559   1.442
 1607SOL    HW1 5720   6.168   3.468   1.471
 1607SOL    HW2 5721   6.119   3.603   1.394
 1608SOL     OW 5722   1.950   6.862   1.114
 1608SOL    HW1 5723   1.894   6.879   1.033
 1608SOL    HW2 5724   1.999   6.946   1.139
 1609SOL     OW 5725   6.098   2.520   5.193
 1609SOL    HW1 5726   6.132   2.511   5.287
 1609SOL    HW2 5727   6.015   2.575   5.192
 1610SOL     OW 5728   4.193   0.099   3.331
 1610SOL    HW1 5729   4.204   0.112   3.430
 1610SOL    HW2 5730   4.183   0.188   3.287
 1611SOL     OW 5731   4.416   3.652   1.489
 1611SOL    HW1 5732   4.443   3.557   1.505
 1611SOL    HW2 5733   4.377   3.661   1.397
 1612SOL     OW 5734   3.293   0.177   4.463
 1612SOL    HW1 5735   3.232   0.118   4.411
 1612SOL    HW2 5736   3.388   0.152   4.444
 1613SOL     OW 5737   2.398   0.007   1.290
 1613SOL    HW1 5738   2.393   0.039   1.385
 1613SOL    HW2 5739   2.427   6.934   1.288
 1614SOL     OW 5740   6.328   1.878   5.755
 1614SOL    HW1 5741   6.287   1.930   5.680
 1614SOL    HW2 5742   6.268   1.802   5.780
 1615SOL     OW 5743   6.702   5.647   5.094
 1615SOL    HW1 5744   6.651   5.562   5.083
 1615SOL    HW2 5745   6.639   5.724   5.092
 1616SOL     OW 5746   2.174   2.382   5.073
 1616SOL    HW1 5747   2.084   2.423   5.090
 1616SOL    HW2 5748   2.167   2.314   5.000
 1617SOL     OW 5749   3.049   0.707   2.644
 1617SOL    HW1 5750   2.986   0.631   2.627
 1617SOL    HW2 5751   3.116   0.681   2.713
 1618SOL     OW 5752   5.358   2.897   1.850
 1618SOL    HW1 5753   5.405   2.972   1.896
 1618SOL    HW2 5754   5.296   2.934   1.781
 1619SOL     OW 5755   1.961   3.083   4.486
 1619SOL    HW1 5756   1.946   3.181   4.479
 1619SOL    HW2 5757   1.980   3.059   4.582
 1620SOL     OW 5758   3.583   5.806   1.492
 1620SOL    HW1 5759   3.618   5.752   1.569
 1620SOL    HW2 5760   3.572   5.901   1.520
 1621SOL     OW 5761   2.687   2.668   1.536
 1621SOL    HW1 5762   2.661   2.663   1.633
 1621SOL    HW2 5763   2.699   2.576   1.500
 1622SOL     OW 5764   2.243   2.674   5.462
 1622SOL    HW1 5765   2.267   2.603   5.396
 1622SOL    HW2 5766   2.153   2.711   5.440
 1623SOL     OW 5767   2.178   2.317   4.650
 1623SOL    HW1 5768   2.135   2.331   4.561
 1623SOL    HW2 5769   2.107   2.317   4.721
 1624SOL     OW 5770   1.892   0.758   0.433
 1624SOL    HW1 5771   1.880   0.827   0.504
 1624SOL    HW2 5772   1.819   0.767   0.365
 1625SOL     OW 5773   1.583   0.037   0.973
 1625SOL    HW1 5774   1.487   0.062   0.962
 1625SOL    HW2 5775   1.623   0.092   1.046
 1626SOL     OW 5776   2.425   4.032   6.060
 1626SOL    HW1 5777   2.509   4.068   6.101
 1626SOL    HW2 5778   2.360   4.010   6.133
 1627SOL     OW 5779   4.967   4.298   2.983
 1627SOL    HW1 5780   5.023   4.342   3.053
 1627SOL    HW2 5781   5.023   4.281   2.902
 1628SOL     OW 5782   3.915   3.326   0.181
 1628SOL    HW1 5783   3.957   3.354   0.268
 1628SOL    HW2 5784   3.818   3.308   0.196
 1629SOL     OW 5785   2.070   2.490   3.102
 1629SOL    HW1 5786   2.131   2.566   3.080
 1629SOL    HW2 5787   2.094   2.452   3.191
 1630SOL     OW 5788   5.717   4.470   4.241
 1630SOL    HW1 5789   5.695   4.519   4.326
 1630SOL    HW2 5790   5.635   4.461   4.185
 1631SOL     OW 5791   0.818   0.919   5.559
 1631SOL    HW1 5792   0.910   0.913   5.520
 1631SOL    HW2 5793   0.751   0.896   5.488
 1632SOL     OW 5794   3.613   6.775   6.585
 1632SOL    HW1 5795   3.687   6.814   6.640
 1632SOL    HW2 5796   3.525   6.797   6.627
 1633SOL     OW 5797   6.824   3.991   2.736
 1633SOL    HW1 5798   6.917   3.973   2.705
 1633SOL    HW2 5799   6.775   4.045   2.668
 1634SOL     OW 5800   3.788   0.387   1.200
 1634SOL    HW1 5801   3.789   0.480   1.163
 1634SOL    HW2 5802   3.862   0.334   1.158
 1635SOL     OW 5803   2.327   4.235   3.942
 1635SOL    HW1 5804   2.252   4.287   3.901
 1635SOL    HW2 5805   2.353   4.160   3.880
 1636SOL     OW 5806   2.197   6.823   0.960
 1636SOL    HW1 5807   2.237   6.739   0.997
 1636SOL    HW2 5808   2.120   6.851   1.017
 1637SOL     OW 5809   0.818   3.026   2.153
 1637SOL    HW1 5810   0.888   3.095   2.134
 1637SOL    HW2 5811   0.819   3.004   2.251
 1638SOL     OW 5812   0.443   2.388   5.879
 1638SOL    HW1 5813   0.402   2.374   5.789
 1638SOL    HW2 5814   0.541   2.408   5.868
 1639SOL     OW 5815   3.499   5.187   3.410
 1639SOL    HW1 5816   3.402   5.204   3.392
 1639SOL    HW2 5817   3.520   5.091   3.394
 1640SOL     OW 5818   5.595   6.816   0.892
 1640SOL    HW1 5819   5.611   6.722   0.863
 1640SOL    HW2 5820   5.682   6.866   0.894
 1641SOL     OW 5821   6.569   2.687   4.494
 1641SOL    HW1 5822   6.595   2.713   4.401
 1641SOL    HW2 5823   6.634   2.726   4.559
 1642SOL     OW 5824   0.640   2.499   0.977
 1642SOL    HW1 5825   0.552   2.451   0.981
 1642SOL    HW2 5826   0.637   2.578   1.038
 1643SOL     OW 5827   4.833   0.161   5.362
 1643SOL    HW1 5828   4.856   0.245   5.312
 1643SOL    HW2 5829   4.734   0.149   5.364
 1644SOL     OW 5830   3.799   1.417   0.908
 1644SOL    HW1 5831   3.787   1.372   0.819
 1644SOL    HW2 5832   3.711   1.448   0.942
 1645SOL     OW 5833   2.312   5.657   5.693
 1645SOL    HW1 5834   2.373   5.601   5.637
 1645SOL    HW2 5835   2.232   5.683   5.639
 1646SOL     OW 5836   2.932   3.375   0.593
 1646SOL    HW1 5837   2.959   3.418   0.507
 1646SOL    HW2 5838   2.832   3.371   0.598
 1647SOL     OW 5839   6.240   2.696   2.024
 1647SOL    HW1 5840   6.307   2.748   1.972
 1647SOL    HW2 5841   6.286   2.627   2.079
 1648SOL     OW 5842   2.853   0.538   3.825
 1648SOL    HW1 5843   2.772   0.478   3.829
 1648SOL    HW2 5844   2.828   0.626   3.785
 1649SOL     OW 5845   2.839   0.477   4.430
 1649SOL    HW1 5846   2.850   0.517   4.339
 1649SOL    HW2 5847   2.860   0.379   4.427
 1650SOL     OW 5848   2.763   6.830   4.456
 1650SOL    HW1 5849   2.783   6.839   4.554
 1650SOL    HW2 5850   2.677   6.780   4.444
 1651SOL     OW 5851   1.527   6.821   2.248
 1651SOL    HW1 5852   1.562   6.858   2.334
 1651SOL    HW2 5853   1.478   6.735   2.266
 1652SOL     OW 5854   3.967   3.347   0.959
 1652SOL    HW1 5855   3.923   3.258   0.968
 1652SOL    HW2 5856   3.951   3.401   1.042
 1653SOL     OW 5857   1.147   4.285   0.880
 1653SOL    HW1 5858   1.133   4.287   0.780
 1653SOL    HW2 5859   1.243   4.269   0.900
 1654SOL     OW 5860   0.628   2.360   3.912
 1654SOL    HW1 5861   0.581   2.301   3.847
 1654SOL    HW2 5862   0.588   2.348   4.003
 1655SOL     OW 5863   4.299   4.249   5.358
 1655SOL    HW1 5864   4.373   4.183   5.373
 1655SOL    HW2 5865   4.320   4.306   5.279
 1656SOL     OW 5866   6.940   3.178   2.145
 1656SOL    HW1 5867   6.883   3.139   2.072
 1656SOL    HW2 5868   6.884   3.238   2.201
 1657SOL     OW 5869   0.727   0.557   6.157
 1657SOL    HW1 5870   0.771   0.515   6.078
 1657SOL    HW2 5871   0.651   0.614   6.126
 1658SOL     OW 5872   6.063   7.007   3.272
 1658SOL    HW1 5873   6.136   7.012   3.204
 1658SOL    HW2 5874   6.094   0.025   3.357
 1659SOL     OW 5875   6.095   2.731   6.095
 1659SOL    HW1 5876   6.071   2.826   6.117
 1659SOL    HW2 5877   6.052   2.669   6.160
 1660SOL     OW 5878   2.485   5.740   3.801
 1660SOL    HW1 5879   2.389   5.727   3.827
 1660SOL    HW2 5880   2.524   5.652   3.773
 1661SOL     OW 5881   2.620   0.965   3.425
 1661SOL    HW1 5882   2.540   0.910   3.451
 1661SOL    HW2 5883   2.611   0.994   3.330
 1662SOL     OW 5884   0.374   1.444   3.831
 1662SOL    HW1 5885   0.400   1.541   3.829
 1662SOL    HW2 5886   0.393   1.407   3.922
 1663SOL     OW 5887   0.964   0.508   3.327
 1663SOL    HW1 5888   0.952   0.603   3.296
 1663SOL    HW2 5889   0.910   0.447   3.269
 1664SOL     OW 5890   1.702   5.979   3.884
 1664SOL    HW1 5891   1.631   6.029   3.932
 1664SOL    HW2 5892   1.792   6.015   3.911
 1665SOL     OW 5893   0.207   1.115   4.217
 1665SOL    HW1 5894   0.162   1.134   4.130
 1665SOL    HW2 5895   0.217   1.200   4.269
 1666SOL     OW 5896   6.130   1.872   0.160
 1666SOL    HW1 5897   6.173   1.843   0.075
 1666SOL    HW2 5898   6.159   1.965   0.182
 1667SOL     OW 5899   6.293   0.021   0.846
 1667SOL    HW1 5900   6.382   0.049   0.884
 1667SOL    HW2 5901   6.294   6.946   0.828
 1668SOL     OW 5902   2.450   6.999   4.890
 1668SOL    HW1 5903   2.489   7.022   4.800
 1668SOL    HW2 5904   2.351   7.009   4.886
 1669SOL     OW 5905   4.933   5.596   6.182
 1669SOL    HW1 5906   4.967   5.529   6.249
 1669SOL    HW2 5907   4.847   5.563   6.143
 1670SOL     OW 5908   6.709   3.680   6.824
 1670SOL    HW1 5909   6.734   3.683   6.727
 1670SOL    HW2 5910   6.783   3.717   6.879
 1671SOL     OW 5911   6.453   4.028   1.367
 1671SOL    HW1 5912   6.384   4.056   1.300
 1671SOL    HW2 5913   6.514   4.105   1.386
 1672SOL     OW 5914   2.213   4.327   3.246
 1672SOL    HW1 5915   2.292   4.369   3.290
 1672SOL    HW2 5916   2.233   4.312   3.149
 1673SOL     OW 5917   6.425   3.422   3.388
 1673SOL    HW1 5918   6.504   3.483   3.388
 1673SOL    HW2 5919   6.448   3.339   3.337
 1674SOL     OW 5920   2.303   6.100   0.399
 1674SOL    HW1 5921   2.250   6.028   0.444
 1674SOL    HW2 5922   2.388   6.116   0.449
 1675SOL     OW 5923   5.191   2.461   6.536
 1675SOL    HW1 5924   5.113   2.440   6.477
 1675SOL    HW2 5925   5.239   2.376   6.558
 1676SOL     OW 5926   2.861   1.739   3.232
 1676SOL    HW1 5927   2.772   1.706   3.203
 1676SOL    HW2 5928   2.881   1.706   3.324
 1677SOL     OW 5929   5.254   7.017   5.878
 1677SOL    HW1 5930   5.202   6.932   5.889
 1677SOL    HW2 5931   5.344   6.996   5.840
 1678SOL     OW 5932   4.421   6.557   2.061
 1678SOL    HW1 5933   4.420   6.616   1.980
 1678SOL    HW2 5934   4.356   6.593   2.128
 1679SOL     OW 5935   6.488   4.490   0.132
 1679SOL    HW1 5936   6.525   4.581   0.150
 1679SOL    HW2 5937   6.529   4.425   0.196
 1680SOL     OW 5938   0.148   2.070   6.017
 1680SOL    HW1 5939   0.230   2.075   5.959
 1680SOL    HW2 5940   0.079   2.015   5.971
 1681SOL     OW 5941   4.697   5.086   1.398
 1681SOL    HW1 5942   4.631   5.085   1.322
 1681SOL    HW2 5943   4.757   5.006   1.390
 1682SOL     OW 5944   0.445   3.738   5.834
 1682SOL    HW1 5945   0.527   3.681   5.832
 1682SOL    HW2 5946   0.460   3.818   5.893
 1683SOL     OW 5947   6.041   5.520   5.319
 1683SOL    HW1 5948   5.974   5.497   5.389
 1683SOL    HW2 5949   6.133   5.508   5.355
 1684SOL     OW 5950   0.733   0.027   4.586
 1684SOL    HW1 5951   0.714   0.124   4.594
 1684SOL    HW2 5952   0.831   0.012   4.575
 1685SOL     OW 5953   1.242   2.312   6.876
 1685SOL    HW1 5954   1.155   2.263   6.870
 1685SOL    HW2 5955   1.255   2.366   6.793
 1686SOL     OW 5956   1.476   0.435   6.275
 1686SOL    HW1 5957   1.383   0.448   6.240
 1686SOL    HW2 5958   1.479   0.352   6.331
 1687SOL     OW 5959   2.752   6.937   2.551
 1687SOL    HW1 5960   2.684   6.879   2.596
 1687SOL    HW2 5961   2.803   6.989   2.619
 1688SOL     OW 5962   0.160   1.720   2.679
 1688SOL    HW1 5963   0.254   1.750   2.662
 1688SOL    HW2 5964   0.153   1.685   2.772
 1689SOL     OW 5965   2.270   1.889   1.257
 1689SOL    HW1 5966   2.197   1.956   1.263
 1689SOL    HW2 5967   2.233   1.798   1.273
 1690SOL     OW 5968   1.287   1.754   0.021
 1690SOL    HW1 5969   1.367   1.724   0.073
 1690SOL    HW2 5970   1.246   1.834   0.066
 1691SOL     OW 5971   4.699   4.485   3.663
 1691SOL    HW1 5972   4.648   4.496   3.749
 1691SOL    HW2 5973   4.765   4.559   3.654
 1692SOL     OW 5974   0.633   6.112   3.880
 1692SOL    HW1 5975   0.614   6.189   3.940
 1692SOL    HW2 5976   0.549   6.084   3.834
 1693SOL     OW 5977   3.978   2.227   4.203
 1693SOL    HW1 5978   4.033   2.159   4.156
 1693SOL    HW2 5979   3.919   2.273   4.137
 1694SOL     OW 5980   6.353   6.497   5.290
 1694SOL    HW1 5981   6.418   6.561   5.332
 1694SOL    HW2 5982   6.265   6.544   5.277
 1695SOL     OW 5983   3.684   1.421   6.435
 1695SOL    HW1 5984   3.769   1.380   6.468
 1695SOL    HW2 5985   3.626   1.447   6.512
 1696SOL     OW 5986   3.558   5.829   2.243
 1696SOL    HW1 5987   3.649   5.822   2.284
 1696SOL    HW2 5988   3.489   5.805   2.311
 1697SOL     OW 5989   1.887   1.624   1.833
 1697SOL    HW1 5990   1.849   1.697   1.891
 1697SOL    HW2 5991   1.912   1.546   1.889
 1698SOL     OW 5992   5.099   1.681   6.626
 1698SOL    HW1 5993   5.074   1.608   6.562
 1698SOL    HW2 5994   5.066   1.657   6.717
 1699SOL     OW 5995   2.543   5.022   1.471
 1699SOL    HW1 5996   2.474   5.070   1.526
 1699SOL    HW2 5997   2.609   4.977   1.532
 1700SOL     OW 5998   5.830   3.223   4.773
 1700SOL    HW1 5999   5.749   3.167   4.758
 1700SOL    HW2 6000   5.911   3.164   4.773
 1701SOL     OW 6001   5.443   3.221   4.645
 1701SOL    HW1 6002   5.493   3.158   4.704
 1701SOL    HW2 6003   5.470   3.207   4.550
 1702SOL     OW 6004   5.320   2.617   1.556
 1702SOL    HW1 6005   5.388   2.656   1.495
 1702SOL    HW2 6006   5.331   2.655   1.648
 1703SOL     OW 6007   2.214   4.001   1.545
 1703SOL    HW1 6008   2.253   4.052   1.621
 1703SOL    HW2 6009   2.115   3.995   1.555
 1704SOL     OW 6010   6.467   1.893   2.200
 1704SOL    HW1 6011   6.406   1.936   2.133
 1704SOL    HW2 6012   6.535   1.838   2.153
 1705SOL     OW 6013   3.715   3.001   1.928
 1705SOL    HW1 6014   3.644   2.934   1.906
 1705SOL    HW2 6015   3.745   2.987   2.022
 1706SOL     OW 6016   2.824   0.549   6.263
 1706SOL    HW1 6017   2.778   0.463   6.286
 1706SOL    HW2 6018   2.800   0.619   6.330
 1707SOL     OW 6019   4.777   1.339   2.459
 1707SOL    HW1 6020   4.694   1.337   2.403
 1707SOL    HW2 6021   4.855   1.312   2.403
 1708SOL     OW 6022   0.595   3.966   0.794
 1708SOL    HW1 6023   0.653   3.906   0.850
 1708SOL    HW2 6024   0.552   4.035   0.853
 1709SOL     OW 6025   3.044   5.049   4.104
 1709SOL    HW1 6026   3.039   5.148   4.120
 1709SOL    HW2 6027   3.071   5.003   4.189
 1710SOL     OW 6028   6.482   3.909   4.942
 1710SOL    HW1 6029   6.447   3.887   4.851
 1710SOL    HW2 6030   6.478   4.008   4.956
 1711SOL     OW 6031   0.717   4.323   6.096
 1711SOL    HW1 6032   0.728   4.329   6.195
 1711SOL    HW2 6033   0.627   4.358   6.071
 1712SOL     OW 6034   1.818   4.328   2.075
 1712SOL    HW1 6035   1.873   4.411   2.068
 1712SOL    HW2 6036   1.861   4.254   2.023
 1713SOL     OW 6037   2.185   3.609   0.987
 1713SOL    HW1 6038   2.116   3.625   0.917
 1713SOL    HW2 6039   2.233   3.695   1.006
 1714SOL     OW 6040   4.433   0.827   0.639
 1714SOL    HW1 6041   4.333   0.827   0.629
 1714SOL    HW2 6042   4.459   0.893   0.709
 1715SOL     OW 6043   1.810   3.716   3.707
 1715SOL    HW1 6044   1.908   3.714   3.726
 1715SOL    HW2 6045   1.766   3.783   3.768
 1716SOL     OW 6046   0.102   6.864   0.683
 1716SOL    HW1 6047   0.158   6.797   0.634
 1716SOL    HW2 6048   0.141   6.955   0.671
 1717SOL     OW 6049   3.361   1.024   0.350
 1717SOL    HW1 6050   3.372   1.036   0.251
 1717SOL    HW2 6051   3.351   1.114   0.393
 1718SOL     OW 6052   1.621   3.928   5.405
 1718SOL    HW1 6053   1.600   3.840   5.448
 1718SOL    HW2 6054   1.701   3.918   5.346
 1719SOL     OW 6055   2.619   2.626   0.555
 1719SOL    HW1 6056   2.712   2.657   0.573
 1719SOL    HW2 6057   2.611   2.529   0.580
 1720SOL     OW 6058   0.060   1.783   2.095
 1720SOL    HW1 6059   0.074   1.688   2.121
 1720SOL    HW2 6060   0.079   1.795   1.998
 1721SOL     OW 6061   0.774   5.759   4.236
 1721SOL    HW1 6062   0.738   5.786   4.147
 1721SOL    HW2 6063   0.702   5.764   4.304
 1722SOL     OW 6064   4.535   0.301   1.796
 1722SOL    HW1 6065   4.526   0.203   1.783
 1722SOL    HW2 6066   4.557   0.320   1.892
 1723SOL     OW 6067   5.873   0.958   3.333
 1723SOL    HW1 6068   5.808   1.030   3.355
 1723SOL    HW2 6069   5.966   0.991   3.348
 1724SOL     OW 6070   5.562   6.878   0.092
 1724SOL    HW1 6071   5.589   6.882   0.189
 1724SOL    HW2 6072   5.616   6.944   0.040
 1725SOL     OW 6073   4.279   5.613   2.443
 1725SOL    HW1 6074   4.342   5.611   2.521
 1725SOL    HW2 6075   4.301   5.690   2.384
 1726SOL     OW 6076   6.012   4.625   5.316
 1726SOL    HW1 6077   6.035   4.532   5.286
 1726SOL    HW2 6078   6.095   4.673   5.343
 1727SOL     OW 6079   2.671   4.710   5.858
 1727SOL    HW1 6080   2.595   4.757   5.814
 1727SOL    HW2 6081   2.644   4.617   5.883
 1728SOL     OW 6082   4.984   6.231   3.677
 1728SOL    HW1 6083   4.925   6.209   3.754
 1728SOL    HW2 6084   4.931   6.228   3.592
 1729SOL     OW 6085   6.650   3.337   3.606
 1729SOL    HW1 6086   6.698   3.349   3.520
 1729SOL    HW2 6087   6.601   3.422   3.629
 1730SOL     OW 6088   4.639   2.557   5.110
 1730SOL    HW1 6089   4.713   2.524   5.168
 1730SOL    HW2 6090   4.571   2.484   5.099
 1731SOL     OW 6091   0.558   6.640   6.230
 1731SOL    HW1 6092   0.470   6.595   6.213
 1731SOL    HW2 6093   0.597   6.606   6.315
 1732SOL     OW 6094   1.516   4.217   6.662
 1732SOL    HW1 6095   1.600   4.162   6.659
 1732SOL    HW2 6096   1.536   4.309   6.628
 1733SOL     OW 6097   1.739   4.061   6.500
 1733SOL    HW1 6098   1.812   4.009   6.544
 1733SOL    HW2 6099   1.723   4.025   6.408
 1734SOL     OW 6100   5.322   3.939   0.508
 1734SOL    HW1 6101   5.292   3.875   0.578
 1734SOL    HW2 6102   5.243   3.971   0.455
 1735SOL     OW 6103   4.994   4.999   0.009
 1735SOL    HW1 6104   5.035   5.053   0.082
 1735SOL    HW2 6105   5.065   4.952   6.980
 1736SOL     OW 6106   3.996   3.460   0.403
 1736SOL    HW1 6107   3.920   3.455   0.468
 1736SOL    HW2 6108   4.069   3.399   0.433
 1737SOL     OW 6109   0.919   6.610   2.955
 1737SOL    HW1 6110   0.929   6.626   3.053
 1737SOL    HW2 6111   0.943   6.692   2.904
 1738SOL     OW 6112   0.457   1.361   2.217
 1738SOL    HW1 6113   0.402   1.299   2.273
 1738SOL    HW2 6114   0.554   1.343   2.232
 1739SOL     OW 6115   4.019   1.510   7.013
 1739SOL    HW1 6116   3.948   1.555   6.959
 1739SOL    HW2 6117   3.999   1.521   0.087
 1740SOL     OW 6118   0.873   1.748   6.874
 1740SOL    HW1 6119   0.865   1.757   6.973
 1740SOL    HW2 6120   0.970   1.756   6.848
 1741SOL     OW 6121   0.877   0.571   2.492
 1741SOL    HW1 6122   0.882   0.475   2.520
 1741SOL    HW2 6123   0.811   0.619   2.549
 1742SOL     OW 6124   6.021   6.258   3.382
 1742SOL    HW1 6125   5.996   6.209   3.298
 1742SOL    HW2 6126   5.961   6.337   3.393
 1743SOL     OW 6127   4.444   1.474   6.617
 1743SOL    HW1 6128   4.416   1.431   6.531
 1743SOL    HW2 6129   4.520   1.536   6.599
 1744SOL     OW 6130   4.086   6.438   1.530
 1744SOL    HW1 6131   4.177   6.472   1.508
 1744SOL    HW2 6132   4.045   6.398   1.448
 1745SOL     OW 6133   0.389   1.974   5.165
 1745SOL    HW1 6134   0.389   1.880   5.131
 1745SOL    HW2 6135   0.402   2.037   5.089
 1746SOL     OW 6136   2.904   1.444   0.377
 1746SOL    HW1 6137   2.970   1.378   0.412
 1746SOL    HW2 6138   2.895   1.433   0.278
 1747SOL     OW 6139   4.298   0.033   4.731
 1747SOL    HW1 6140   4.295   7.011   4.642
 1747SOL    HW2 6141   4.391   0.064   4.750
 1748SOL     OW 6142   5.394   0.755   1.393
 1748SOL    HW1 6143   5.374   0.714   1.482
 1748SOL    HW2 6144   5.328   0.722   1.325
 1749SOL     OW 6145   5.233   6.976   6.152
 1749SOL    HW1 6146   5.139   6.998   6.177
 1749SOL    HW2 6147   5.248   6.995   6.055
 1750SOL     OW 6148   3.585   1.206   2.892
 1750SOL    HW1 6149   3.507   1.147   2.869
 1750SOL    HW2 6150   3.654   1.153   2.941
 1751SOL     OW 6151   2.662   5.751   4.699
 1751SOL    HW1 6152   2.626   5.818   4.763
 1751SOL    HW2 6153   2.587   5.698   4.659
 1752SOL     OW 6154   6.911   2.572   6.145
 1752SOL    HW1 6155   6.999   2.553   6.188
 1752SOL    HW2 6156   6.923   2.580   6.046
 1753SOL     OW 6157   1.483   0.094   2.140
 1753SOL    HW1 6158   1.502   0.009   2.189
 1753SOL    HW2 6159   1.420   0.077   2.064
 1754SOL     OW 6160   2.950   3.722   3.361
 1754SOL    HW1 6161   2.876   3.746   3.298
 1754SOL    HW2 6162   2.982   3.629   3.341
 1755SOL     OW 6163   0.343   4.126   6.630
 1755SOL    HW1 6164   0.289   4.046   6.657
 1755SOL    HW2 6165   0.328   4.200   6.695
 1756SOL     OW 6166   5.536   5.445   6.006
 1756SOL    HW1 6167   5.633   5.427   5.990
 1756SOL    HW2 6168   5.485   5.359   6.010
 1757SOL     OW 6169   4.034   0.381   4.742
 1757SOL    HW1 6170   3.963   0.380   4.672
 1757SOL    HW2 6171   4.030   0.295   4.794
 1758SOL     OW 6172   2.310   1.121   2.937
 1758SOL    HW1 6173   2.373   1.195   2.959
 1758SOL    HW2 6174   2.332   1.041   2.992
 1759SOL     OW 6175   6.575   5.614   6.014
 1759SOL    HW1 6176   6.526   5.696   6.045
 1759SOL    HW2 6177   6.516   5.561   5.953
 1760SOL     OW 6178   4.594   6.227   3.509
 1760SOL    HW1 6179   4.568   6.144   3.558
 1760SOL    HW2 6180   4.565   6.307   3.561
 1761SOL     OW 6181   6.477   3.131   0.901
 1761SOL    HW1 6182   6.479   3.231   0.905
 1761SOL    HW2 6183   6.471   3.095   0.994
 1762SOL     OW 6184   5.935   2.234   6.974
 1762SOL    HW1 6185   5.983   2.192   6.897
 1762SOL    HW2 6186   5.886   2.162   0.002
 1763SOL     OW 6187   1.955   1.969   4.127
 1763SOL    HW1 6188   1.955   1.884   4.074
 1763SOL    HW2 6189   1.921   2.044   4.070
 1764SOL     OW 6190   6.690   4.569   3.603
 1764SOL    HW1 6191   6.696   4.583   3.504
 1764SOL    HW2 6192   6.780   4.542   3.638
 1765SOL     OW 6193   2.396   2.644   6.371
 1765SOL    HW1 6194   2.441   2.561   6.339
 1765SOL    HW2 6195   2.465   2.711   6.398
 1766SOL     OW 6196   5.988   4.242   5.913
 1766SOL    HW1 6197   6.027   4.322   5.958
 1766SOL    HW2 6198   5.999   4.162   5.972
 1767SOL     OW 6199   0.101   4.351   1.204
 1767SOL    HW1 6200   0.150   4.297   1.273
 1767SOL    HW2 6201   0.047   4.422   1.249
 1768SOL     OW 6202   6.418   0.100   3.354
 1768SOL    HW1 6203   6.337   0.110   3.412
 1768SOL    HW2 6204   6.481   0.175   3.372
 1769SOL     OW 6205   4.627   0.586   4.285
 1769SOL    HW1 6206   4.537   0.553   4.314
 1769SOL    HW2 6207   4.621   0.684   4.263
 1770SOL     OW 6208   3.453   5.604   6.051
 1770SOL    HW1 6209   3.553   5.601   6.051
 1770SOL    HW2 6210   3.418   5.549   5.975
 1771SOL     OW 6211   5.182   5.288   6.932
 1771SOL    HW1 6212   5.176   5.290   6.833
 1771SOL    HW2 6213   5.112   5.347   6.972
 1772SOL     OW 6214   2.131   6.068   2.148
 1772SOL    HW1 6215   2.189   6.071   2.067
 1772SOL    HW2 6216   2.179   6.110   2.225
 1773SOL     OW 6217   1.792   6.441   0.094
 1773SOL    HW1 6218   1.694   6.434   0.112
 1773SOL    HW2 6219   1.809   6.514   0.028
 1774SOL     OW 6220   2.775   5.845   1.142
 1774SOL    HW1 6221   2.717   5.765   1.128
 1774SOL    HW2 6222   2.748   5.918   1.079
 1775SOL     OW 6223   0.566   5.466   0.295
 1775SOL    HW1 6224   0.468   5.486   0.283
 1775SOL    HW2 6225   0.577   5.383   0.348
 1776SOL     OW 6226   3.316   6.482   5.129
 1776SOL    HW1 6227   3.286   6.427   5.051
 1776SOL    HW2 6228   3.337   6.422   5.206
 1777SOL     OW 6229   4.526   6.658   6.615
 1777SOL    HW1 6230   4.525   6.728   6.686
 1777SOL    HW2 6231   4.571   6.576   6.650
 1778SOL     OW 6232   1.044   3.524   5.967
 1778SOL    HW1 6233   1.104   3.555   5.893
 1778SOL    HW2 6234   1.090   3.539   6.055
 1779SOL     OW 6235   4.080   5.970   4.985
 1779SOL    HW1 6236   4.145   5.899   5.011
 1779SOL    HW2 6237   4.036   6.007   5.067
 1780SOL     OW 6238   3.987   2.265   6.518
 1780SOL    HW1 6239   3.920   2.291   6.587
 1780SOL    HW2 6240   3.990   2.166   6.509
 1781SOL     OW 6241   1.621   6.462   3.399
 1781SOL    HW1 6242   1.672   6.381   3.372
 1781SOL    HW2 6243   1.678   6.521   3.455
 1782SOL     OW 6244   3.054   1.166   5.163
 1782SOL    HW1 6245   2.966   1.169   5.211
 1782SOL    HW2 6246   3.058   1.242   5.098
 1783SOL     OW 6247   1.935   5.583   6.941
 1783SOL    HW1 6248   1.877   5.564   7.020
 1783SOL    HW2 6249   1.977   5.673   6.952
 1784SOL     OW 6250   1.019   6.536   6.258
 1784SOL    HW1 6251   1.092   6.566   6.321
 1784SOL    HW2 6252   0.994   6.612   6.198
 1785SOL     OW 6253   6.827   4.824   2.624
 1785SOL    HW1 6254   6.883   4.800   2.703
 1785SOL    HW2 6255   6.745   4.872   2.655
 1786SOL     OW 6256   4.403   2.478   1.853
 1786SOL    HW1 6257   4.412   2.425   1.769
 1786SOL    HW2 6258   4.413   2.417   1.932
 1787SOL     OW 6259   4.595   0.159   4.837
 1787SOL    HW1 6260   4.683   0.183   4.797
 1787SOL    HW2 6261   4.540   0.241   4.850
 1788SOL     OW 6262   1.512   4.975   5.206
 1788SOL    HW1 6263   1.420   4.972   5.169
 1788SOL    HW2 6264   1.535   5.070   5.229
 1789SOL     OW 6265   5.192   6.003   1.159
 1789SOL    HW1 6266   5.258   6.038   1.092
 1789SOL    HW2 6267   5.163   5.911   1.132
 1790SOL     OW 6268   2.094   6.621   3.238
 1790SOL    HW1 6269   2.178   6.597   3.189
 1790SOL    HW2 6270   2.027   6.547   3.228
 1791SOL     OW 6271   1.107   0.002   3.029
 1791SOL    HW1 6272   1.053   0.083   3.009
 1791SOL    HW2 6273   1.204   0.021   3.009
 1792SOL     OW 6274   0.212   4.099   4.123
 1792SOL    HW1 6275   0.292   4.040   4.128
 1792SOL    HW2 6276   0.242   4.195   4.120
 1793SOL     OW 6277   6.985   0.586   4.270
 1793SOL    HW1 6278   0.032   0.636   4.219
 1793SOL    HW2 6279   0.006   0.518   4.329
 1794SOL     OW 6280   4.452   6.261   6.494
 1794SOL    HW1 6281   4.503   6.344   6.476
 1794SOL    HW2 6282   4.354   6.280   6.489
 1795SOL     OW 6283   0.928   2.972   6.694
 1795SOL    HW1 6284   0.928   2.995   6.792
 1795SOL    HW2 6285   0.983   2.890   6.679
 1796SOL     OW 6286   4.368   0.380   5.223
 1796SOL    HW1 6287   4.340   0.413   5.133
 1796SOL    HW2 6288   4.331   0.441   5.293
 1797SOL     OW 6289   0.301   0.570   2.411
 1797SOL    HW1 6290   0.383   0.609   2.370
 1797SOL    HW2 6291   0.320   0.543   2.505
 1798SOL     OW 6292   5.820   1.771   3.071
 1798SOL    HW1 6293   5.834   1.787   3.169
 1798SOL    HW2 6294   5.723   1.756   3.053
 1799SOL     OW 6295   2.804   6.646   1.030
 1799SOL    HW1 6296   2.800   6.676   0.934
 1799SOL    HW2 6297   2.818   6.725   1.089
 1800SOL     OW 6298   2.894   4.722   2.212
 1800SOL    HW1 6299   2.982   4.678   2.230
 1800SOL    HW2 6300   2.855   4.686   2.128
 1801SOL     OW 6301   5.637   6.321   0.748
 1801SOL    HW1 6302   5.649   6.232   0.791
 1801SOL    HW2 6303   5.545   6.327   0.709
 1802SOL     OW 6304   5.806   5.610   4.316
 1802SOL    HW1 6305   5.742   5.548   4.270
 1802SOL    HW2 6306   5.868   5.649   4.248
 1803SOL     OW 6307   6.230   4.707   0.528
 1803SOL    HW1 6308   6.130   4.700   0.521
 1803SOL    HW2 6309   6.262   4.782   0.470
 1804SOL     OW 6310   3.017   4.127   6.247
 1804SOL    HW1 6311   2.975   4.217   6.249
 1804SOL    HW2 6312   2.965   4.065   6.306
 1805SOL     OW 6313   0.065   2.595   0.224
 1805SOL    HW1 6314   7.000   2.606   0.269
 1805SOL    HW2 6315   0.076   2.666   0.154
 1806SOL     OW 6316   6.740   6.479   0.528
 1806SOL    HW1 6317   6.724   6.428   0.613
 1806SOL    HW2 6318   6.653   6.515   0.494
 1807SOL     OW 6319   6.907   1.571   5.787
 1807SOL    HW1 6320   6.821   1.577   5.838
 1807SOL    HW2 6321   6.933   1.662   5.756
 1808SOL     OW 6322   2.229   4.931   4.273
 1808SOL    HW1 6323   2.271   5.018   4.301
 1808SOL    HW2 6324   2.296   4.857   4.283
 1809SOL     OW 6325   4.061   0.296   5.965
 1809SOL    HW1 6326   4.021   0.204   5.964
 1809SOL    HW2 6327   4.092   0.319   5.872
 1810SOL     OW 6328   3.751   6.293   4.056
 1810SOL    HW1 6329   3.652   6.286   4.069
 1810SOL    HW2 6330   3.781   6.386   4.077
 1811SOL     OW 6331   4.633   5.375   3.006
 1811SOL    HW1 6332   4.644   5.438   3.083
 1811SOL    HW2 6333   4.608   5.284   3.041
 1812SOL     OW 6334   4.648   4.719   5.126
 1812SOL    HW1 6335   4.744   4.694   5.110
 1812SOL    HW2 6336   4.621   4.792   5.063
 1813SOL     OW 6337   0.545   6.683   4.988
 1813SOL    HW1 6338   0.557   6.749   4.914
 1813SOL    HW2 6339   0.626   6.625   4.995
 1814SOL     OW 6340   4.100   6.807   2.566
 1814SOL    HW1 6341   4.152   6.807   2.652
 1814SOL    HW2 6342   4.121   6.725   2.513
 1815SOL     OW 6343   0.339   1.130   2.941
 1815SOL    HW1 6344   0.253   1.143   2.989
 1815SOL    HW2 6345   0.374   1.218   2.910
 1816SOL     OW 6346   1.387   5.142   0.235
 1816SOL    HW1 6347   1.329   5.117   0.313
 1816SOL    HW2 6348   1.483   5.123   0.256
 1817SOL     OW 6349   1.353   4.202   1.820
 1817SOL    HW1 6350   1.344   4.271   1.749
 1817SOL    HW2 6351   1.407   4.239   1.896
 1818SOL     OW 6352   0.390   2.002   3.145
 1818SOL    HW1 6353   0.383   2.026   3.048
 1818SOL    HW2 6354   0.313   2.041   3.195
 1819SOL     OW 6355   1.588   4.167   2.343
 1819SOL    HW1 6356   1.671   4.152   2.396
 1819SOL    HW2 6357   1.608   4.156   2.245
 1820SOL     OW 6358   5.797   6.486   2.359
 1820SOL    HW1 6359   5.760   6.558   2.418
 1820SOL    HW2 6360   5.897   6.490   2.361
 1821SOL     OW 6361   1.449   2.321   3.228
 1821SOL    HW1 6362   1.366   2.373   3.206
 1821SOL    HW2 6363   1.447   2.234   3.179
 1822SOL     OW 6364   3.352   3.472   2.216
 1822SOL    HW1 6365   3.256   3.500   2.207
 1822SOL    HW2 6366   3.394   3.522   2.291
 1823SOL     OW 6367   3.485   6.682   2.491
 1823SOL    HW1 6368   3.502   6.752   2.421
 1823SOL    HW2 6369   3.539   6.704   2.573
 1824SOL     OW 6370   4.919   1.350   1.949
 1824SOL    HW1 6371   5.004   1.327   1.998
 1824SOL    HW2 6372   4.869   1.419   2.001
 1825SOL     OW 6373   0.485   0.140   1.534
 1825SOL    HW1 6374   0.434   0.223   1.513
 1825SOL    HW2 6375   0.462   0.069   1.468
 1826SOL     OW 6376   2.414   5.177   6.082
 1826SOL    HW1 6377   2.320   5.162   6.111
 1826SOL    HW2 6378   2.414   5.221   5.992
 1827SOL     OW 6379   5.541   0.482   0.488
 1827SOL    HW1 6380   5.473   0.449   0.553
 1827SOL    HW2 6381   5.501   0.555   0.432
 1828SOL     OW 6382   3.090   2.783   0.104
 1828SOL    HW1 6383   3.067   2.746   0.194
 1828SOL    HW2 6384   3.168   2.732   0.066
 1829SOL     OW 6385   5.420   5.376   2.446
 1829SOL    HW1 6386   5.355   5.442   2.408
 1829SOL    HW2 6387   5.499   5.424   2.483
 1830SOL     OW 6388   4.493   0.554   4.546
 1830SOL    HW1 6389   4.483   0.652   4.534
 1830SOL    HW2 6390   4.408   0.516   4.582
 1831SOL     OW 6391   4.817   0.985   3.142
 1831SOL    HW1 6392   4.842   0.891   3.164
 1831SOL    HW2 6393   4.799   0.992   3.044
 1832SOL     OW 6394   6.303   2.743   6.698
 1832SOL    HW1 6395   6.212   2.764   6.663
 1832SOL    HW2 6396   6.349   2.680   6.635
 1833SOL     OW 6397   5.889   1.883   6.127
 1833SOL    HW1 6398   5.962   1.905   6.062
 1833SOL    HW2 6399   5.915   1.914   6.218
 1834SOL     OW 6400   2.518   3.948   0.034
 1834SOL    HW1 6401   2.453   3.876   0.010
 1834SOL    HW2 6402   2.562   3.983   6.974
 1835SOL     OW 6403   2.320   4.759   0.578
 1835SOL    HW1 6404   2.311   4.680   0.638
 1835SOL    HW2 6405   2.296   4.733   0.484
 1836SOL     OW 6406   0.574   6.511   0.570
 1836SOL    HW1 6407   0.563   6.562   0.655
 1836SOL    HW2 6408   0.484   6.491   0.532
 1837SOL     OW 6409   6.924   3.115   4.343
 1837SOL    HW1 6410   6.946   3.205   4.307
 1837SOL    HW2 6411   6.955   3.045   4.278
 1838SOL     OW 6412   1.069   3.148   4.307
 1838SOL    HW1 6413   0.999   3.134   4.377
 1838SOL    HW2 6414   1.140   3.078   4.316
 1839SOL     OW 6415   1.763   1.158   6.773
 1839SOL    HW1 6416   1.752   1.256   6.790
 1839SOL    HW2 6417   1.830   1.144   6.700
 1840SOL     OW 6418   0.995   5.377   1.283
 1840SOL    HW1 6419   1.055   5.419   1.351
 1840SOL    HW2 6420   0.937   5.447   1.242
 1841SOL     OW 6421   1.961   2.909   4.213
 1841SOL    HW1 6422   2.006   2.820   4.213
 1841SOL    HW2 6423   1.992   2.962   4.291
 1842SOL     OW 6424   1.806   5.390   6.442
 1842SOL    HW1 6425   1.856   5.387   6.356
 1842SOL    HW2 6426   1.863   5.435   6.512
 1843SOL     OW 6427   4.936   2.278   5.494
 1843SOL    HW1 6428   5.011   2.257   5.557
 1843SOL    HW2 6429   4.849   2.275   5.544
 1844SOL     OW 6430   5.522   5.006   3.634
 1844SOL    HW1 6431   5.578   5.077   3.591
 1844SOL    HW2 6432   5.520   4.926   3.575
 1845SOL     OW 6433   5.445   6.461   1.040
 1845SOL    HW1 6434   5.510   6.501   0.976
 1845SOL    HW2 6435   5.385   6.533   1.076
 1846SOL     OW 6436   3.712   1.125   5.617
 1846SOL    HW1 6437   3.691   1.027   5.611
 1846SOL    HW2 6438   3.650   1.176   5.558
 1847SOL     OW 6439   1.436   5.936   6.368
 1847SOL    HW1 6440   1.490   5.995   6.308
 1847SOL    HW2 6441   1.339   5.959   6.358
 1848SOL     OW 6442   2.239   1.745   4.294
 1848SOL    HW1 6443   2.194   1.676   4.350
 1848SOL    HW2 6444   2.338   1.734   4.300
 1849SOL     OW 6445   2.629   1.028   5.320
 1849SOL    HW1 6446   2.603   1.088   5.244
 1849SOL    HW2 6447   2.567   1.044   5.397
 1850SOL     OW 6448   4.940   2.251   1.215
 1850SOL    HW1 6449   4.979   2.335   1.251
 1850SOL    HW2 6450   4.938   2.181   1.288
 1851SOL     OW 6451   6.371   4.542   2.879
 1851SOL    HW1 6452   6.400   4.446   2.881
 1851SOL    HW2 6453   6.310   4.559   2.956
 1852SOL     OW 6454   5.552   1.842   5.982
 1852SOL    HW1 6455   5.501   1.849   5.896
 1852SOL    HW2 6456   5.496   1.795   6.051
 1853SOL     OW 6457   1.652   5.035   0.322
 1853SOL    HW1 6458   1.677   5.084   0.239
 1853SOL    HW2 6459   1.698   4.946   0.324
 1854SOL     OW 6460   2.319   5.181   4.647
 1854SOL    HW1 6461   2.370   5.119   4.706
 1854SOL    HW2 6462   2.314   5.271   4.690
 1855SOL     OW 6463   6.397   4.491   1.834
 1855SOL    HW1 6464   6.487   4.535   1.843
 1855SOL    HW2 6465   6.368   4.493   1.739
 1856SOL     OW 6466   5.261   2.732   0.197
 1856SOL    HW1 6467   5.315   2.695   0.272
 1856SOL    HW2 6468   5.184   2.672   0.178
 1857SOL     OW 6469   5.535   1.391   3.367
 1857SOL    HW1 6470   5.496   1.421   3.280
 1857SOL    HW2 6471   5.464   1.391   3.437
 1858SOL     OW 6472   5.428   3.706   2.319
 1858SOL    HW1 6473   5.483   3.627   2.347
 1858SOL    HW2 6474   5.439   3.779   2.386
 1859SOL     OW 6475   5.913   2.153   4.048
 1859SOL    HW1 6476   5.859   2.071   4.034
 1859SOL    HW2 6477   5.858   2.234   4.026
 1860SOL     OW 6478   3.749   2.156   5.145
 1860SOL    HW1 6479   3.809   2.166   5.066
 1860SOL    HW2 6480   3.670   2.101   5.120
 1861SOL     OW 6481   4.666   6.860   2.137
 1861SOL    HW1 6482   4.611   6.852   2.220
 1861SOL    HW2 6483   4.611   6.833   2.058
 1862SOL     OW 6484   3.015   2.591   1.092
 1862SOL    HW1 6485   3.080   2.602   1.017
 1862SOL    HW2 6486   2.945   2.524   1.067
 1863SOL     OW 6487   2.166   1.629   1.340
 1863SOL    HW1 6488   2.216   1.548   1.310
 1863SOL    HW2 6489   2.159   1.629   1.439
 1864SOL     OW 6490   0.093   6.474   3.335
 1864SOL    HW1 6491   0.111   6.520   3.248
 1864SOL    HW2 6492   0.163   6.499   3.402
 1865SOL     OW 6493   5.932   2.999   6.954
 1865SOL    HW1 6494   5.956   2.903   6.962
 1865SOL    HW2 6495   6.015   3.054   6.950
 1866SOL     OW 6496   6.285   5.674   1.841
 1866SOL    HW1 6497   6.200   5.670   1.789
 1866SOL    HW2 6498   6.307   5.583   1.875
 1867SOL     OW 6499   1.760   4.124   6.781
 1867SOL    HW1 6500   1.801   4.033   6.770
 1867SOL    HW2 6501   1.793   4.165   6.866
 1868SOL     OW 6502   6.413   4.200   5.502
 1868SOL    HW1 6503   6.470   4.136   5.553
 1868SOL    HW2 6504   6.443   4.203   5.407
 1869SOL     OW 6505   5.820   1.388   5.217
 1869SOL    HW1 6506   5.734   1.355   5.255
 1869SOL    HW2 6507   5.860   1.317   5.159
 1870SOL     OW 6508   1.816   3.570   5.231
 1870SOL    HW1 6509   1.770   3.482   5.219
 1870SOL    HW2 6510   1.901   3.570   5.179
 1871SOL     OW 6511   2.054   1.372   1.046
 1871SOL    HW1 6512   2.084   1.288   1.002
 1871SOL    HW2 6513   2.014   1.433   0.978
 1872SOL     OW 6514   1.404   5.258   6.518
 1872SOL    HW1 6515   1.458   5.340   6.501
 1872SOL    HW2 6516   1.338   5.245   6.443
 1873SOL     OW 6517   5.839   6.225   6.618
 1873SOL    HW1 6518   5.831   6.310   6.566
 1873SOL    HW2 6519   5.775   6.227   6.695
 1874SOL     OW 6520   0.987   4.270   2.912
 1874SOL    HW1 6521   1.009   4.207   2.837
 1874SOL    HW2 6522   0.984   4.364   2.876
 1875SOL     OW 6523   0.377   0.332   2.301
 1875SOL    HW1 6524   0.374   0.357   2.204
 1875SOL    HW2 6525   0.342   0.408   2.355
 1876SOL     OW 6526   1.778   5.862   4.320
 1876SOL    HW1 6527   1.699   5.842   4.261
 1876SOL    HW2 6528   1.780   5.960   4.340
 1877SOL     OW 6529   0.058   0.393   4.740
 1877SOL    HW1 6530   6.993   0.409   4.696
 1877SOL    HW2 6531   0.126   0.370   4.670
 1878SOL     OW 6532   6.243   3.228   5.589
 1878SOL    HW1 6533   6.258   3.326   5.585
 1878SOL    HW2 6534   6.330   3.180   5.576
 1879SOL     OW 6535   2.083   5.913   5.358
 1879SOL    HW1 6536   2.023   5.885   5.283
 1879SOL    HW2 6537   2.083   6.012   5.366
 1880SOL     OW 6538   6.603   0.481   4.258
 1880SOL    HW1 6539   6.660   0.549   4.212
 1880SOL    HW2 6540   6.566   0.418   4.191
 1881SOL     OW 6541   0.749   2.416   6.925
 1881SOL    HW1 6542   0.696   2.501   6.927
 1881SOL    HW2 6543   0.802   2.412   6.840
 1882SOL     OW 6544   0.727   6.385   0.127
 1882SOL    HW1 6545   0.764   6.474   0.153
 1882SOL    HW2 6546   0.672   6.348   0.203
 1883SOL     OW 6547   0.320   2.434   4.324
 1883SOL    HW1 6548   0.321   2.406   4.419
 1883SOL    HW2 6549   0.225   2.441   4.292
 1884SOL     OW 6550   6.005   1.789   1.245
 1884SOL    HW1 6551   6.095   1.762   1.282
 1884SOL    HW2 6552   5.961   1.709   1.204
 1885SOL     OW 6553   2.989   1.186   4.648
 1885SOL    HW1 6554   3.032   1.096   4.642
 1885SOL    HW2 6555   2.890   1.175   4.650
 1886SOL     OW 6556   0.590   6.689   3.415
 1886SOL    HW1 6557   0.578   6.658   3.321
 1886SOL    HW2 6558   0.687   6.711   3.430
 1887SOL     OW 6559   2.354   5.407   6.613
 1887SOL    HW1 6560   2.296   5.453   6.546
 1887SOL    HW2 6561   2.298   5.353   6.675
 1888SOL     OW 6562   2.064   0.460   3.562
 1888SOL    HW1 6563   2.114   0.373   3.571
 1888SOL    HW2 6564   1.990   0.449   3.496
 1889SOL     OW 6565   0.379   3.483   2.503
 1889SOL    HW1 6566   0.404   3.575   2.475
 1889SOL    HW2 6567   0.447   3.418   2.467
 1890SOL     OW 6568   1.865   5.758   4.853
 1890SOL    HW1 6569   1.834   5.852   4.865
 1890SOL    HW2 6570   1.794   5.705   4.807
 1891SOL     OW 6571   3.733   3.511   4.035
 1891SOL    HW1 6572   3.743   3.437   4.102
 1891SOL    HW2 6573   3.765   3.480   3.946
 1892SOL     OW 6574   0.091   0.948   2.705
 1892SOL    HW1 6575   0.188   0.941   2.684
 1892SOL    HW2 6576   0.042   0.871   2.663
 1893SOL     OW 6577   3.071   3.405   3.674
 1893SOL    HW1 6578   3.126   3.489   3.676
 1893SOL    HW2 6579   3.074   3.362   3.764
 1894SOL     OW 6580   2.874   2.689   5.591
 1894SOL    HW1 6581   2.843   2.777   5.554
 1894SOL    HW2 6582   2.922   2.705   5.677
 1895SOL     OW 6583   0.971   6.189   1.740
 1895SOL    HW1 6584   1.022   6.131   1.676
 1895SOL    HW2 6585   1.020   6.193   1.827
 1896SOL     OW 6586   6.648   2.551   0.958
 1896SOL    HW1 6587   6.722   2.611   0.929
 1896SOL    HW2 6588   6.563   2.602   0.965
 1897SOL     OW 6589   2.459   4.503   3.049
 1897SOL    HW1 6590   2.424   4.458   3.132
 1897SOL    HW2 6591   2.407   4.586   3.031
 1898SOL     OW 6592   1.844   5.861   1.758
 1898SOL    HW1 6593   1.902   5.899   1.685
 1898SOL    HW2 6594   1.863   5.907   1.844
 1899SOL     OW 6595   7.010   0.735   2.123
 1899SOL    HW1 6596   0.024   0.681   2.199
 1899SOL    HW2 6597   6.923   0.695   2.094
 1900SOL     OW 6598   3.178   6.093   6.256
 1900SOL    HW1 6599   3.127   6.125   6.336
 1900SOL    HW2 6600   3.167   5.994   6.246
 1901SOL     OW 6601   3.940   3.167   2.436
 1901SOL    HW1 6602   3.988   3.233   2.379
 1901SOL    HW2 6603   3.951   3.075   2.398
 1902SOL     OW 6604   1.250   6.886   5.410
 1902SOL    HW1 6605   1.291   6.883   5.502
 1902SOL    HW2 6606   1.312   6.842   5.345
 1903SOL     OW 6607   0.490   2.314   4.148
 1903SOL    HW1 6608   0.422   2.383   4.172
 1903SOL    HW2 6609   0.566   2.318   4.213
 1904SOL     OW 6610   5.729   5.991   2.100
 1904SOL    HW1 6611   5.809   5.949   2.057
 1904SOL    HW2 6612   5.745   6.089   2.112
 1905SOL     OW 6613   0.403   2.929   3.276
 1905SOL    HW1 6614   0.356   2.853   3.321
 1905SOL    HW2 6615   0.397   3.011   3.332
 1906SOL     OW 6616   0.598   6.491   3.613
 1906SOL    HW1 6617   0.503   6.466   3.634
 1906SOL    HW2 6618   0.600   6.550   3.532
 1907SOL     OW 6619   6.876   2.904   0.623
 1907SOL    HW1 6620   6.824   2.945   0.699
 1907SOL    HW2 6621   6.828   2.922   0.537
 1908SOL     OW 6622   4.579   0.509   1.603
 1908SOL    HW1 6623   4.568   0.424   1.654
 1908SOL    HW2 6624   4.489   0.552   1.590
 1909SOL     OW 6625   6.429   5.336   4.835
 1909SOL    HW1 6626   6.413   5.386   4.920
 1909SOL    HW2 6627   6.411   5.396   4.757
 1910SOL     OW 6628   0.146   6.568   4.835
 1910SOL    HW1 6629   0.156   6.470   4.850
 1910SOL    HW2 6630   0.112   6.612   4.918
 1911SOL     OW 6631   5.814   6.002   3.851
 1911SOL    HW1 6632   5.818   6.003   3.751
 1911SOL    HW2 6633   5.768   6.085   3.883
 1912SOL     OW 6634   3.744   4.897   2.300
 1912SOL    HW1 6635   3.777   4.908   2.394
 1912SOL    HW2 6636   3.650   4.862   2.302
 1913SOL     OW 6637   2.855   4.041   6.618
 1913SOL    HW1 6638   2.904   4.123   6.647
 1913SOL    HW2 6639   2.914   3.962   6.628
 1914SOL     OW 6640   4.511   4.734   0.278
 1914SOL    HW1 6641   4.588   4.797   0.265
 1914SOL    HW2 6642   4.518   4.691   0.367
 1915SOL     OW 6643   4.393   1.559   6.866
 1915SOL    HW1 6644   4.349   1.648   6.879
 1915SOL    HW2 6645   4.404   1.541   6.768
 1916SOL     OW 6646   3.500   1.652   3.165
 1916SOL    HW1 6647   3.511   1.626   3.069
 1916SOL    HW2 6648   3.413   1.698   3.177
 1917SOL     OW 6649   2.681   3.896   1.423
 1917SOL    HW1 6650   2.706   3.983   1.465
 1917SOL    HW2 6651   2.688   3.823   1.492
 1918SOL     OW 6652   4.845   3.111   4.068
 1918SOL    HW1 6653   4.831   3.206   4.038
 1918SOL    HW2 6654   4.870   3.055   3.989
 1919SOL     OW 6655   6.365   0.820   6.465
 1919SOL    HW1 6656   6.464   0.825   6.463
 1919SOL    HW2 6657   6.335   0.768   6.545
 1920SOL     OW 6658   4.670   3.485   0.683
 1920SOL    HW1 6659   4.601   3.457   0.616
 1920SOL    HW2 6660   4.684   3.411   0.749
 1921SOL     OW 6661   2.800   2.066   6.698
 1921SOL    HW1 6662   2.799   2.154   6.746
 1921SOL    HW2 6663   2.708   2.028   6.697
 1922SOL     OW 6664   3.670   3.258   4.111
 1922SOL    HW1 6665   3.581   3.263   4.066
 1922SOL    HW2 6666   3.715   3.172   4.087
 1923SOL     OW 6667   3.153   0.161   4.085
 1923SOL    HW1 6668   3.092   0.152   4.006
 1923SOL    HW2 6669   3.173   0.258   4.101
 1924SOL     OW 6670   5.110   1.047   1.236
 1924SOL    HW1 6671   5.092   1.142   1.261
 1924SOL    HW2 6672   5.058   0.986   1.298
 1925SOL     OW 6673   1.196   4.633   1.114
 1925SOL    HW1 6674   1.124   4.645   1.045
 1925SOL    HW2 6675   1.280   4.603   1.068
 1926SOL     OW 6676   2.479   6.776   1.273
 1926SOL    HW1 6677   2.564   6.726   1.288
 1926SOL    HW2 6678   2.414   6.718   1.225
 1927SOL     OW 6679   1.909   4.881   1.466
 1927SOL    HW1 6680   1.961   4.964   1.484
 1927SOL    HW2 6681   1.811   4.900   1.473
 1928SOL     OW 6682   1.411   4.234   2.887
 1928SOL    HW1 6683   1.465   4.161   2.846
 1928SOL    HW2 6684   1.452   4.323   2.865
 1929SOL     OW 6685   3.279   0.560   3.217
 1929SOL    HW1 6686   3.233   0.471   3.211
 1929SOL    HW2 6687   3.210   0.632   3.228
 1930SOL     OW 6688   3.282   3.780   6.953
 1930SOL    HW1 6689   3.276   3.682   6.971
 1930SOL    HW2 6690   3.330   3.825   0.005
 1931SOL     OW 6691   5.653   3.371   3.323
 1931SOL    HW1 6692   5.598   3.317   3.386
 1931SOL    HW2 6693   5.650   3.467   3.349
 1932SOL     OW 6694   4.707   1.133   1.899
 1932SOL    HW1 6695   4.779   1.194   1.932
 1932SOL    HW2 6696   4.619   1.179   1.904
 1933SOL     OW 6697   1.804   1.075   1.159
 1933SOL    HW1 6698   1.819   1.171   1.182
 1933SOL    HW2 6699   1.720   1.066   1.106
 1934SOL     OW 6700   6.219   0.630   0.330
 1934SOL    HW1 6701   6.250   0.538   0.353
 1934SOL    HW2 6702   6.144   0.624   0.264
 1935SOL     OW 6703   5.665   5.393   3.337
 1935SOL    HW1 6704   5.715   5.473   3.306
 1935SOL    HW2 6705   5.567   5.409   3.330
 1936SOL     OW 6706   6.046   2.900   6.669
 1936SOL    HW1 6707   6.064   2.998   6.668
 1936SOL    HW2 6708   5.961   2.883   6.719
 1937SOL     OW 6709   1.084   5.079   6.629
 1937SOL    HW1 6710   1.071   5.156   6.692
 1937SOL    HW2 6711   1.177   5.044   6.637
 1938SOL     OW 6712   6.931   1.251   6.858
 1938SOL    HW1 6713   6.934   1.304   6.942
 1938SOL    HW2 6714   7.023   1.215   6.838
 1939SOL     OW 6715   0.169   0.696   4.165
 1939SOL    HW1 6716   0.229   0.762   4.211
 1939SOL    HW2 6717   0.219   0.652   4.091
 1940SOL     OW 6718   0.820   5.449   2.439
 1940SOL    HW1 6719   0.850   5.518   2.374
 1940SOL    HW2 6720   0.828   5.358   2.399
 1941SOL     OW 6721   6.359   0.851   3.847
 1941SOL    HW1 6722   6.435   0.836   3.911
 1941SOL    HW2 6723   6.391   0.904   3.769
 1942SOL     OW 6724   0.955   6.669   1.689
 1942SOL    HW1 6725   0.935   6.766   1.696
 1942SOL    HW2 6726   1.017   6.641   1.762
 1943SOL     OW 6727   1.160   4.315   3.934
 1943SOL    HW1 6728   1.187   4.313   3.838
 1943SOL    HW2 6729   1.121   4.226   3.959
 1944SOL     OW 6730   0.079   3.753   3.871
 1944SOL    HW1 6731   0.087   3.822   3.799
 1944SOL    HW2 6732   0.046   3.795   3.955
 1945SOL     OW 6733   4.527   1.617   2.198
 1945SOL    HW1 6734   4.455   1.684   2.186
 1945SOL    HW2 6735   4.574   1.634   2.285
 1946SOL     OW 6736   5.999   4.608   6.708
 1946SOL    HW1 6737   6.046   4.524   6.736
 1946SOL    HW2 6738   5.903   4.603   6.736
 1947SOL     OW 6739   5.315   6.023   2.318
 1947SOL    HW1 6740   5.408   5.987   2.311
 1947SOL    HW2 6741   5.315   6.120   2.293
 1948SOL     OW 6742   4.852   2.968   3.004
 1948SOL    HW1 6743   4.850   2.903   3.080
 1948SOL    HW2 6744   4.893   3.054   3.034
 1949SOL     OW 6745   3.146   4.454   6.143
 1949SOL    HW1 6746   3.101   4.536   6.179
 1949SOL    HW2 6747   3.184   4.400   6.218
 1950SOL     OW 6748   3.982   3.088   4.456
 1950SOL    HW1 6749   3.961   3.141   4.538
 1950SOL    HW2 6750   3.967   2.991   4.474
 1951SOL     OW 6751   0.981   5.134   6.028
 1951SOL    HW1 6752   0.913   5.062   6.011
 1951SOL    HW2 6753   0.940   5.207   6.083
 1952SOL     OW 6754   5.606   3.606   6.851
 1952SOL    HW1 6755   5.520   3.569   6.886
 1952SOL    HW2 6756   5.600   3.706   6.847
 1953SOL     OW 6757   0.103   0.982   6.279
 1953SOL    HW1 6758   0.068   0.895   6.314
 1953SOL    HW2 6759   0.063   1.001   6.189
 1954SOL     OW 6760   3.996   6.758   3.215
 1954SOL    HW1 6761   4.022   6.703   3.136
 1954SOL    HW2 6762   4.010   6.855   3.195
 1955SOL     OW 6763   0.189   3.502   3.845
 1955SOL    HW1 6764   0.144   3.591   3.858
 1955SOL    HW2 6765   0.222   3.469   3.934
 1956SOL     OW 6766   4.759   1.199   1.473
 1956SOL    HW1 6767   4.742   1.167   1.566
 1956SOL    HW2 6768   4.678   1.247   1.439
 1957SOL     OW 6769   0.556   3.662   4.726
 1957SOL    HW1 6770   0.544   3.572   4.768
 1957SOL    HW2 6771   0.635   3.707   4.767
 1958SOL     OW 6772   5.670   1.836   0.285
 1958SOL    HW1 6773   5.730   1.906   0.323
 1958SOL    HW2 6774   5.603   1.879   0.224
 1959SOL     OW 6775   1.908   1.414   6.112
 1959SOL    HW1 6776   1.836   1.407   6.044
 1959SOL    HW2 6777   1.961   1.497   6.096
 1960SOL     OW 6778   4.796   4.318   2.003
 1960SOL    HW1 6779   4.696   4.316   2.010
 1960SOL    HW2 6780   4.830   4.225   1.987
 1961SOL     OW 6781   6.716   3.794   4.532
 1961SOL    HW1 6782   6.628   3.746   4.528
 1961SOL    HW2 6783   6.741   3.810   4.627
 1962SOL     OW 6784   0.257   0.181   2.501
 1962SOL    HW1 6785   0.163   0.206   2.477
 1962SOL    HW2 6786   0.320   0.221   2.434
 1963SOL     OW 6787   0.686   1.113   6.735
 1963SOL    HW1 6788   0.621   1.187   6.720
 1963SOL    HW2 6789   0.762   1.146   6.791
 1964SOL     OW 6790   5.446   3.053   0.702
 1964SOL    HW1 6791   5.409   3.034   0.792
 1964SOL    HW2 6792   5.521   3.118   0.710
 1965SOL     OW 6793   5.757   5.104   4.788
 1965SOL    HW1 6794   5.842   5.152   4.811
 1965SOL    HW2 6795   5.698   5.166   4.736
 1966SOL     OW 6796   1.901   4.785   6.798
 1966SOL    HW1 6797   1.858   4.856   6.853
 1966SOL    HW2 6798   1.916   4.704   6.853
 1967SOL     OW 6799   6.366   3.029   3.734
 1967SOL    HW1 6800   6.425   2.958   3.696
 1967SOL    HW2 6801   6.349   3.010   3.831
 1968SOL     OW 6802   2.795   1.485   5.680
 1968SOL    HW1 6803   2.793   1.420   5.604
 1968SOL    HW2 6804   2.850   1.448   5.755
 1969SOL     OW 6805   0.329   6.471   1.802
 1969SOL    HW1 6806   0.285   6.382   1.789
 1969SOL    HW2 6807   0.428   6.459   1.805
 1970SOL     OW 6808   5.166   4.349   2.753
 1970SOL    HW1 6809   5.141   4.356   2.657
 1970SOL    HW2 6810   5.260   4.316   2.760
 1971SOL     OW 6811   1.188   5.580   4.378
 1971SOL    HW1 6812   1.210   5.600   4.283
 1971SOL    HW2 6813   1.115   5.641   4.409
 1972SOL     OW 6814   5.319   2.467   3.643
 1972SOL    HW1 6815   5.230   2.481   3.688
 1972SOL    HW2 6816   5.375   2.549   3.656
 1973SOL     OW 6817   4.535   2.013   6.957
 1973SOL    HW1 6818   4.624   1.969   6.945
 1973SOL    HW2 6819   4.547   2.096   7.012
 1974SOL     OW 6820   2.106   6.200   4.364
 1974SOL    HW1 6821   2.183   6.135   4.365
 1974SOL    HW2 6822   2.139   6.289   4.395
 1975SOL     OW 6823   1.771   2.143   2.608
 1975SOL    HW1 6824   1.824   2.208   2.663
 1975SOL    HW2 6825   1.830   2.102   2.539
 1976SOL     OW 6826   2.642   0.534   4.621
 1976SOL    HW1 6827   2.734   0.533   4.581
 1976SOL    HW2 6828   2.645   0.498   4.714
 1977SOL     OW 6829   1.249   4.459   0.390
 1977SOL    HW1 6830   1.190   4.386   0.355
 1977SOL    HW2 6831   1.344   4.440   0.365
 1978SOL     OW 6832   2.760   0.545   2.541
 1978SOL    HW1 6833   2.735   0.634   2.581
 1978SOL    HW2 6834   2.722   0.538   2.449
 1979SOL     OW 6835   5.560   2.722   0.148
 1979SOL    HW1 6836   5.495   2.785   0.190
 1979SOL    HW2 6837   5.651   2.737   0.185
 1980SOL     OW 6838   4.161   6.793   1.287
 1980SOL    HW1 6839   4.220   6.818   1.364
 1980SOL    HW2 6840   4.185   6.701   1.255
 1981SOL     OW 6841   4.444   2.697   1.652
 1981SOL    HW1 6842   4.471   2.607   1.686
 1981SOL    HW2 6843   4.501   2.768   1.695
 1982SOL     OW 6844   3.174   1.584   6.184
 1982SOL    HW1 6845   3.160   1.589   6.085
 1982SOL    HW2 6846   3.120   1.656   6.229
 1983SOL     OW 6847   6.887   2.037   0.740
 1983SOL    HW1 6848   6.948   2.010   0.815
 1983SOL    HW2 6849   6.908   1.984   0.658
 1984SOL     OW 6850   4.661   3.317   6.297
 1984SOL    HW1 6851   4.564   3.339   6.293
 1984SOL    HW2 6852   4.683   3.280   6.388
 1985SOL     OW 6853   5.145   5.645   5.329
 1985SOL    HW1 6854   5.059   5.608   5.295
 1985SOL    HW2 6855   5.220   5.582   5.305
 1986SOL     OW 6856   3.304   3.183   3.279
 1986SOL    HW1 6857   3.364   3.263   3.268
 1986SOL    HW2 6858   3.316   3.144   3.370
 1987SOL     OW 6859   1.557   2.156   1.870
 1987SOL    HW1 6860   1.593   2.067   1.898
 1987SOL    HW2 6861   1.588   2.226   1.935
 1988SOL     OW 6862   1.050   1.444   2.384
 1988SOL    HW1 6863   0.973   1.504   2.406
 1988SOL    HW2 6864   1.109   1.434   2.464
 1989SOL     OW 6865   3.266   5.178   3.628
 1989SOL    HW1 6866   3.212   5.209   3.550
 1989SOL    HW2 6867   3.222   5.209   3.713
 1990SOL     OW 6868   4.671   0.191   0.595
 1990SOL    HW1 6869   4.671   0.199   0.695
 1990SOL    HW2 6870   4.632   0.103   0.569
 1991SOL     OW 6871   3.028   5.120   2.228
 1991SOL    HW1 6872   3.093   5.153   2.296
 1991SOL    HW2 6873   2.936   5.151   2.252
 1992SOL     OW 6874   0.501   1.008   3.110
 1992SOL    HW1 6875   0.423   1.046   3.060
 1992SOL    HW2 6876   0.551   0.945   3.050
 1993SOL     OW 6877   1.497   0.893   1.089
 1993SOL    HW1 6878   1.518   0.988   1.064
 1993SOL    HW2 6879   1.511   0.880   1.187
 1994SOL     OW 6880   3.099   3.551   1.463
 1994SOL    HW1 6881   3.056   3.640   1.452
 1994SOL    HW2 6882   3.174   3.557   1.529
 1995SOL     OW 6883   6.326   0.561   3.994
 1995SOL    HW1 6884   6.415   0.574   4.038
 1995SOL    HW2 6885   6.264   0.634   4.021
 1996SOL     OW 6886   4.426   0.043   0.851
 1996SOL    HW1 6887   4.362   7.020   0.790
 1996SOL    HW2 6888   4.519   0.012   0.831
 1997SOL     OW 6889   2.686   1.798   2.916
 1997SOL    HW1 6890   2.743   1.879   2.903
 1997SOL    HW2 6891   2.657   1.763   2.827
 1998SOL     OW 6892   2.435   3.521   0.935
 1998SOL    HW1 6893   2.343   3.557   0.948
 1998SOL    HW2 6894   2.502   3.594   0.953
 1999SOL     OW 6895   0.524   7.007   5.625
 1999SOL    HW1 6896   0.575   7.019   5.539
 1999SOL    HW2 6897   0.555   6.923   5.670
 2000SOL     OW 6898   4.046   4.276   6.530
 2000SOL    HW1 6899   4.123   4.217   6.506
 2000SOL    HW2 6900   3.978   4.275   6.456
 2001SOL     OW 6901   1.249   1.728   0.307
 2001SOL    HW1 6902   1.338   1.751   0.348
 2001SOL    HW2 6903   1.200   1.813   0.285
 2002SOL     OW 6904   5.685   4.357   6.740
 2002SOL    HW1 6905   5.664   4.418   6.664
 2002SOL    HW2 6906   5.775   4.378   6.777
 2003SOL     OW 6907   0.060   5.208   1.627
 2003SOL    HW1 6908   0.048   5.307   1.631
 2003SOL    HW2 6909   0.120   5.184   1.551
 2004SOL     OW 6910   2.998   0.743   2.975
 2004SOL    HW1 6911   2.948   0.813   2.924
 2004SOL    HW2 6912   3.088   0.730   2.933
 2005SOL     OW 6913   1.504   6.326   0.109
 2005SOL    HW1 6914   1.565   6.252   0.138
 2005SOL    HW2 6915   1.410   6.292   0.102
 2006SOL     OW 6916   6.108   0.214   1.999
 2006SOL    HW1 6917   6.129   0.298   2.049
 2006SOL    HW2 6918   6.011   0.193   2.007
 2007SOL     OW 6919   5.501   4.674   5.621
 2007SOL    HW1 6920   5.532   4.715   5.535
 2007SOL    HW2 6921   5.441   4.737   5.669
 2008SOL     OW 6922   1.904   2.634   2.826
 2008SOL    HW1 6923   1.819   2.616   2.776
 2008SOL    HW2 6924   1.974   2.664   2.762
 2009SOL     OW 6925   5.734   0.081   3.785
 2009SOL    HW1 6926   5.774   0.033   3.864
 2009SOL    HW2 6927   5.791   0.065   3.705
 2010SOL     OW 6928   6.571   1.058   1.682
 2010SOL    HW1 6929   6.640   1.102   1.624
 2010SOL    HW2 6930   6.614   0.983   1.733
 2011SOL     OW 6931   0.702   0.343   5.456
 2011SOL    HW1 6932   0.787   0.396   5.457
 2011SOL    HW2 6933   0.664   0.338   5.548
 2012SOL     OW 6934   0.598   2.573   0.246
 2012SOL    HW1 6935   0.630   2.558   0.152
 2012SOL    HW2 6936   0.599   2.487   0.296
 2013SOL     OW 6937   0.675   2.425   2.244
 2013SOL    HW1 6938   0.707   2.331   2.227
 2013SOL    HW2 6939   0.637   2.431   2.336
 2014SOL     OW 6940   3.885   2.145   3.094
 2014SOL    HW1 6941   3.918   2.238   3.076
 2014SOL    HW2 6942   3.946   2.079   3.051
 2015SOL     OW 6943   3.456   6.040   1.133
 2015SOL    HW1 6944   3.375   6.015   1.186
 2015SOL    HW2 6945   3.449   6.135   1.103
 2016SOL     OW 6946   2.199   0.551   4.369
 2016SOL    HW1 6947   2.170   0.635   4.415
 2016SOL    HW2 6948   2.179   0.472   4.426
 2017SOL     OW 6949   0.868   6.449   4.459
 2017SOL    HW1 6950   0.770   6.469   4.449
 2017SOL    HW2 6951   0.881   6.351   4.476
 2018SOL     OW 6952   0.341   1.644   5.128
 2018SOL    HW1 6953   0.377   1.556   5.160
 2018SOL    HW2 6954   0.374   1.662   5.035
 2019SOL     OW 6955   0.987   5.015   0.044
 2019SOL    HW1 6956   0.983   5.047   6.973
 2019SOL    HW2 6957   1.014   4.919   0.046
 2020SOL     OW 6958   2.100   6.824   1.472
 2020SOL    HW1 6959   2.054   6.809   1.559
 2020SOL    HW2 6960   2.070   6.911   1.432
 2021SOL     OW 6961   0.172   5.552   3.835
 2021SOL    HW1 6962   0.127   5.464   3.851
 2021SOL    HW2 6963   0.143   5.617   3.906
 2022SOL     OW 6964   2.110   3.463   4.300
 2022SOL    HW1 6965   2.196   3.433   4.258
 2022SOL    HW2 6966   2.033   3.422   4.251
 2023SOL     OW 6967   1.274   5.522   6.110
 2023SOL    HW1 6968   1.199   5.572   6.153
 2023SOL    HW2 6969   1.362   5.555   6.146
 2024SOL     OW 6970   6.487   5.499   3.015
 2024SOL    HW1 6971   6.398   5.454   3.015
 2024SOL    HW2 6972   6.552   5.446   3.067
 2025SOL     OW 6973   1.681   0.545   4.730
 2025SOL    HW1 6974   1.779   0.547   4.750
 2025SOL    HW2 6975   1.658   0.620   4.668
 2026SOL     OW 6976   1.664   6.477   5.623
 2026SOL    HW1 6977   1.651   6.391   5.573
 2026SOL    HW2 6978   1.761   6.490   5.642
 2027SOL     OW 6979   5.757   6.702   3.143
 2027SOL    HW1 6980   5.692   6.633   3.111
 2027SOL    HW2 6981   5.745   6.787   3.092
 2028SOL     OW 6982   2.523   6.008   4.844
 2028SOL    HW1 6983   2.423   6.007   4.838
 2028SOL    HW2 6984   2.551   6.020   4.939
 2029SOL     OW 6985   0.172   1.993   6.955
 2029SOL    HW1 6986   0.173   2.086   6.994
 2029SOL    HW2 6987   0.124   1.994   6.868
 2030SOL     OW 6988   1.160   6.360   2.600
 2030SOL    HW1 6989   1.186   6.376   2.696
 2030SOL    HW2 6990   1.223   6.293   2.560
 2031SOL     OW 6991   6.737   0.726   4.164
 2031SOL    HW1 6992   6.728   0.791   4.239
 2031SOL    HW2 6993   6.833   0.700   4.153
 2032SOL     OW 6994   2.907   2.640   5.971
 2032SOL    HW1 6995   2.978   2.652   5.902
 2032SOL    HW2 6996   2.817   2.647   5.928
 2033SOL     OW 6997   3.123   6.813   0.817
 2033SOL    HW1 6998   3.025   6.803   0.801
 2033SOL    HW2 6999   3.141   6.895   0.872
 2034SOL     OW 7000   0.802   3.744   4.814
 2034SOL    HW1 7001   0.787   3.825   4.757
 2034SOL    HW2 7002   0.853   3.770   4.896
 2035SOL     OW 7003   4.870   6.185   3.439
 2035SOL    HW1 7004   4.778   6.196   3.477
 2035SOL    HW2 7005   4.873   6.225   3.348
 2036SOL     OW 7006   6.862   3.783   5.635
 2036SOL    HW1 7007   6.926   3.724   5.585
 2036SOL    HW2 7008   6.827   3.734   5.715
 2037SOL     OW 7009   0.876   2.528   6.691
 2037SOL    HW1 7010   0.783   2.553   6.665
 2037SOL    HW2 7011   0.932   2.517   6.608
 2038SOL     OW 7012   2.283   0.871   5.716
 2038SOL    HW1 7013   2.337   0.830   5.790
 2038SOL    HW2 7014   2.209   0.926   5.755
 2039SOL     OW 7015   5.282   5.868   4.686
 2039SOL    HW1 7016   5.329   5.801   4.629
 2039SOL    HW2 7017   5.347   5.940   4.713
 2040SOL     OW 7018   3.000   1.556   0.859
 2040SOL    HW1 7019   3.085   1.532   0.813
 2040SOL    HW2 7020   2.976   1.484   0.925
 2041SOL     OW 7021   2.359   0.328   6.474
 2041SOL    HW1 7022   2.408   0.250   6.437
 2041SOL    HW2 7023   2.276   0.297   6.521
 2042SOL     OW 7024   0.240   0.592   5.264
 2042SOL    HW1 7025   0.277   0.572   5.173
 2042SOL    HW2 7026   0.294   0.543   5.332
 2043SOL     OW 7027   1.669   3.329   0.736
 2043SOL    HW1 7028   1.601   3.336   0.663
 2043SOL    HW2 7029   1.689   3.233   0.755
 2044SOL     OW 7030   2.756   1.327   2.315
 2044SOL    HW1 7031   2.837   1.269   2.321
 2044SOL    HW2 7032   2.781   1.421   2.341
 2045SOL     OW 7033   1.500   6.541   3.870
 2045SOL    HW1 7034   1.519   6.469   3.803
 2045SOL    HW2 7035   1.488   6.629   3.822
 2046SOL     OW 7036   6.856   2.104   5.586
 2046SOL    HW1 7037   6.948   2.120   5.623
 2046SOL    HW2 7038   6.789   2.121   5.658
 2047SOL     OW 7039   6.487   0.158   2.194
 2047SOL    HW1 7040   6.415   0.169   2.126
 2047SOL    HW2 7041   6.486   0.064   2.229
 2048SOL     OW 7042   2.296   0.937   3.566
 2048SOL    HW1 7043   2.202   0.966   3.584
 2048SOL    HW2 7044   2.296   0.850   3.517
 2049SOL     OW 7045   4.503   2.286   5.069
 2049SOL    HW1 7046   4.580   2.226   5.049
 2049SOL    HW2 7047   4.431   2.272   5.002
 2050SOL     OW 7048   6.598   1.244   2.668
 2050SOL    HW1 7049   6.635   1.155   2.695
 2050SOL    HW2 7050   6.525   1.230   2.601
 2051SOL     OW 7051   3.136   0.181   6.419
 2051SOL    HW1 7052   3.170   0.088   6.437
 2051SOL    HW2 7053   3.186   0.246   6.476
 2052SOL     OW 7054   0.766   4.324   0.939
 2052SOL    HW1 7055   0.702   4.247   0.939
 2052SOL    HW2 7056   0.832   4.313   1.013
 2053SOL     OW 7057   4.943   4.800   1.602
 2053SOL    HW1 7058   4.897   4.716   1.631
 2053SOL    HW2 7059   4.993   4.839   1.680
 2054SOL     OW 7060   3.049   3.766   4.015
 2054SOL    HW1 7061   3.047   3.768   4.115
 2054SOL    HW2 7062   3.124   3.824   3.982
 2055SOL     OW 7063   3.041   3.000   5.987
 2055SOL    HW1 7064   3.100   3.078   6.007
 2055SOL    HW2 7065   2.980   3.024   5.912
 2056SOL     OW 7066   2.866   5.457   1.263
 2056SOL    HW1 7067   2.792   5.449   1.330
 2056SOL    HW2 7068   2.935   5.521   1.297
 2057SOL     OW 7069   6.222   3.230   4.674
 2057SOL    HW1 7070   6.304   3.258   4.623
 2057SOL    HW2 7071   6.201   3.134   4.652
 2058SOL     OW 7072   5.238   0.749   3.678
 2058SOL    HW1 7073   5.316   0.721   3.733
 2058SOL    HW2 7074   5.242   0.847   3.660
 2059SOL     OW 7075   2.935   1.693   5.988
 2059SOL    HW1 7076   2.982   1.627   5.929
 2059SOL    HW2 7077   2.890   1.644   6.063
 2060SOL     OW 7078   1.523   2.376   6.391
 2060SOL    HW1 7079   1.614   2.344   6.416
 2060SOL    HW2 7080   1.484   2.428   6.468
 2061SOL     OW 7081   2.624   2.418   3.434
 2061SOL    HW1 7082   2.599   2.322   3.424
 2061SOL    HW2 7083   2.718   2.431   3.404
 2062SOL     OW 7084   4.509   4.780   4.319
 2062SOL    HW1 7085   4.582   4.835   4.360
 2062SOL    HW2 7086   4.474   4.716   4.387
 2063SOL     OW 7087   1.149   1.619   4.060
 2063SOL    HW1 7088   1.236   1.667   4.069
 2063SOL    HW2 7089   1.148   1.541   4.123
 2064SOL     OW 7090   0.212   4.074   4.460
 2064SOL    HW1 7091   0.115   4.057   4.479
 2064SOL    HW2 7092   0.248   4.001   4.401
 2065SOL     OW 7093   3.208   3.144   5.131
 2065SOL    HW1 7094   3.166   3.064   5.173
 2065SOL    HW2 7095   3.152   3.225   5.150
 2066SOL     OW 7096   2.572   2.376   4.620
 2066SOL    HW1 7097   2.522   2.452   4.578
 2066SOL    HW2 7098   2.508   2.303   4.644
 2067SOL     OW 7099   5.954   4.723   3.034
 2067SOL    HW1 7100   6.047   4.759   3.029
 2067SOL    HW2 7101   5.892   4.794   3.069
 2068SOL     OW 7102   2.742   6.523   4.381
 2068SOL    HW1 7103   2.650   6.562   4.374
 2068SOL    HW2 7104   2.785   6.554   4.465
 2069SOL     OW 7105   5.244   1.681   2.944
 2069SOL    HW1 7106   5.292   1.594   2.954
 2069SOL    HW2 7107   5.303   1.747   2.896
 2070SOL     OW 7108   0.472   5.736   2.085
 2070SOL    HW1 7109   0.558   5.781   2.105
 2070SOL    HW2 7110   0.396   5.791   2.119
 2071SOL     OW 7111   6.949   2.485   3.975
 2071SOL    HW1 7112   7.007   2.538   3.912
 2071SOL    HW2 7113   6.861   2.468   3.932
 2072SOL     OW 7114   5.357   2.918   5.655
 2072SOL    HW1 7115   5.426   2.887   5.722
 2072SOL    HW2 7116   5.266   2.902   5.692
 2073SOL     OW 7117   3.171   6.023   6.598
 2073SOL    HW1 7118   3.076   6.008   6.571
 2073SOL    HW2 7119   3.181   6.115   6.637
 2074SOL     OW 7120   3.584   4.239   5.537
 2074SOL    HW1 7121   3.607   4.285   5.452
 2074SOL    HW2 7122   3.500   4.185   5.524
 2075SOL     OW 7123   4.724   1.026   1.116
 2075SOL    HW1 7124   4.725   0.954   1.046
 2075SOL    HW2 7125   4.783   0.999   1.192
 2076SOL     OW 7126   6.505   0.292   3.037
 2076SOL    HW1 7127   6.425   0.300   2.978
 2076SOL    HW2 7128   6.557   0.211   3.013
 2077SOL     OW 7129   0.676   4.509   1.483
 2077SOL    HW1 7130   0.613   4.525   1.407
 2077SOL    HW2 7131   0.660   4.417   1.519
 2078SOL     OW 7132   0.724   2.602   0.755
 2078SOL    HW1 7133   0.663   2.607   0.676
 2078SOL    HW2 7134   0.689   2.534   0.819
 2079SOL     OW 7135   5.012   1.690   3.991
 2079SOL    HW1 7136   4.997   1.632   4.071
 2079SOL    HW2 7137   5.087   1.653   3.937
 2080SOL     OW 7138   2.197   2.710   4.291
 2080SOL    HW1 7139   2.266   2.731   4.361
 2080SOL    HW2 7140   2.208   2.771   4.213
 2081SOL     OW 7141   0.427   5.842   2.536
 2081SOL    HW1 7142   0.379   5.755   2.540
 2081SOL    HW2 7143   0.371   5.913   2.579
 2082SOL     OW 7144   6.647   6.709   4.058
 2082SOL    HW1 7145   6.567   6.744   4.009
 2082SOL    HW2 7146   6.618   6.640   4.124
 2083SOL     OW 7147   1.541   5.802   3.037
 2083SOL    HW1 7148   1.505   5.713   3.067
 2083SOL    HW2 7149   1.468   5.870   3.037
 2084SOL     OW 7150   6.236   2.092   1.663
 2084SOL    HW1 7151   6.170   2.159   1.697
 2084SOL    HW2 7152   6.210   2.000   1.694
 2085SOL     OW 7153   6.346   4.897   6.555
 2085SOL    HW1 7154   6.438   4.858   6.552
 2085SOL    HW2 7155   6.318   4.924   6.463
 2086SOL     OW 7156   5.534   1.442   5.539
 2086SOL    HW1 7157   5.495   1.408   5.625
 2086SOL    HW2 7158   5.493   1.393   5.462
 2087SOL     OW 7159   4.720   1.273   5.970
 2087SOL    HW1 7160   4.695   1.297   5.876
 2087SOL    HW2 7161   4.802   1.324   5.996
 2088SOL     OW 7162   0.460   4.045   5.535
 2088SOL    HW1 7163   0.489   4.070   5.443
 2088SOL    HW2 7164   0.533   4.069   5.600
 2089SOL     OW 7165   3.035   5.254   4.430
 2089SOL    HW1 7166   2.942   5.229   4.455
 2089SOL    HW2 7167   3.068   5.326   4.490
 2090SOL     OW 7168   5.807   2.495   5.962
 2090SOL    HW1 7169   5.811   2.397   5.944
 2090SOL    HW2 7170   5.715   2.529   5.946
 2091SOL     OW 7171   5.688   0.191   0.439
 2091SOL    HW1 7172   5.697   0.286   0.408
 2091SOL    HW2 7173   5.614   0.185   0.506
 2092SOL     OW 7174   3.697   3.300   2.815
 2092SOL    HW1 7175   3.788   3.270   2.845
 2092SOL    HW2 7176   3.628   3.267   2.880
 2093SOL     OW 7177   5.408   6.968   6.878
 2093SOL    HW1 7178   5.329   6.930   6.926
 2093SOL    HW2 7179   5.492   6.941   6.925
 2094SOL     OW 7180   4.448   2.666   1.102
 2094SOL    HW1 7181   4.440   2.688   1.199
 2094SOL    HW2 7182   4.508   2.732   1.057
 2095SOL     OW 7183   3.688   5.957   4.540
 2095SOL    HW1 7184   3.622   5.887   4.510
 2095SOL    HW2 7185   3.771   5.951   4.483
 2096SOL     OW 7186   3.525   0.569   3.025
 2096SOL    HW1 7187   3.573   0.622   3.095
 2096SOL    HW2 7188   3.429   0.561   3.050
 2097SOL     OW 7189   2.708   5.542   5.876
 2097SOL    HW1 7190   2.736   5.538   5.971
 2097SOL    HW2 7191   2.654   5.625   5.861
 2098SOL     OW 7192   1.328   6.917   4.150
 2098SOL    HW1 7193   1.418   6.903   4.109
 2098SOL    HW2 7194   1.339   6.962   4.239
 2099SOL     OW 7195   4.605   1.689   6.562
 2099SOL    HW1 7196   4.686   1.746   6.554
 2099SOL    HW2 7197   4.566   1.673   6.471
 2100SOL     OW 7198   4.895   0.463   0.833
 2100SOL    HW1 7199   4.947   0.421   0.759
 2100SOL    HW2 7200   4.898   0.403   0.914
 2101SOL     OW 7201   0.759   0.637   3.076
 2101SOL    HW1 7202   0.857   0.658   3.069
 2101SOL    HW2 7203   0.719   0.636   2.985
 2102SOL     OW 7204   3.787   2.987   2.741
 2102SOL    HW1 7205   3.806   3.081   2.715
 2102SOL    HW2 7206   3.737   2.941   2.667
 2103SOL     OW 7207   1.454   0.007   1.388
 2103SOL    HW1 7208   1.524   0.078   1.383
 2103SOL    HW2 7209   1.425   7.005   1.295
 2104SOL     OW 7210   1.109   4.706   2.419
 2104SOL    HW1 7211   1.043   4.640   2.455
 2104SOL    HW2 7212   1.080   4.799   2.443
 2105SOL     OW 7213   5.340   6.374   5.468
 2105SOL    HW1 7214   5.343   6.327   5.556
 2105SOL    HW2 7215   5.429   6.369   5.424
 2106SOL     OW 7216   3.645   3.919   0.989
 2106SOL    HW1 7217   3.586   3.927   0.909
 2106SOL    HW2 7218   3.724   3.862   0.967
 2107SOL     OW 7219   6.162   4.395   4.386
 2107SOL    HW1 7220   6.146   4.493   4.397
 2107SOL    HW2 7221   6.082   4.344   4.418
 2108SOL     OW 7222   3.978   6.283   5.574
 2108SOL    HW1 7223   4.054   6.285   5.509
 2108SOL    HW2 7224   4.011   6.251   5.663
 2109SOL     OW 7225   2.465   6.129   2.249
 2109SOL    HW1 7226   2.564   6.117   2.259
 2109SOL    HW2 7227   2.441   6.122   2.152
 2110SOL     OW 7228   3.881   5.874   0.575
 2110SOL    HW1 7229   3.975   5.900   0.595
 2110SOL    HW2 7230   3.862   5.887   0.478
 2111SOL     OW 7231   1.004   2.600   0.683
 2111SOL    HW1 7232   1.057   2.554   0.612
 2111SOL    HW2 7233   0.922   2.548   0.703
 2112SOL     OW 7234   0.338   0.362   6.274
 2112SOL    HW1 7235   0.429   0.339   6.309
 2112SOL    HW2 7236   0.348   0.425   6.197
 2113SOL     OW 7237   6.473   1.760   4.347
 2113SOL    HW1 7238   6.455   1.693   4.419
 2113SOL    HW2 7239   6.446   1.851   4.378
 2114SOL     OW 7240   2.678   0.646   5.443
 2114SOL    HW1 7241   2.657   0.684   5.352
 2114SOL    HW2 7242   2.745   0.705   5.488
 2115SOL     OW 7243   0.145   0.440   4.414
 2115SOL    HW1 7244   0.154   0.346   4.446
 2115SOL    HW2 7245   0.236   0.481   4.403
 2116SOL     OW 7246   2.884   6.744   6.523
 2116SOL    HW1 7247   2.795   6.741   6.568
 2116SOL    HW2 7248   2.956   6.725   6.590
 2117SOL     OW 7249   6.869   3.057   0.842
 2117SOL    HW1 7250   6.918   3.037   0.927
 2117SOL    HW2 7251   6.854   3.156   0.834
 2118SOL     OW 7252   0.086   3.313   2.891
 2118SOL    HW1 7253   0.176   3.329   2.850
 2118SOL    HW2 7254   0.020   3.378   2.852
 2119SOL     OW 7255   2.062   2.446   6.708
 2119SOL    HW1 7256   2.158   2.471   6.715
 2119SOL    HW2 7257   2.011   2.524   6.671
 2120SOL     OW 7258   6.099   1.420   0.730
 2120SOL    HW1 7259   6.198   1.431   0.738
 2120SOL    HW2 7260   6.056   1.448   0.816
 2121SOL     OW 7261   2.357   6.120   1.973
 2121SOL    HW1 7262   2.417   6.093   1.898
 2121SOL    HW2 7263   2.326   6.214   1.959
 2122SOL     OW 7264   0.204   1.894   5.484
 2122SOL    HW1 7265   0.179   1.806   5.524
 2122SOL    HW2 7266   0.187   1.892   5.386
 2123SOL     OW 7267   0.695   4.407   3.317
 2123SOL    HW1 7268   0.764   4.382   3.385
 2123SOL    HW2 7269   0.626   4.336   3.312
 2124SOL     OW 7270   5.518   3.369   6.488
 2124SOL    HW1 7271   5.517   3.467   6.470
 2124SOL    HW2 7272   5.551   3.321   6.406
 2125SOL     OW 7273   2.464   5.355   5.861
 2125SOL    HW1 7274   2.486   5.330   5.767
 2125SOL    HW2 7275   2.546   5.389   5.906
 2126SOL     OW 7276   2.232   6.149   1.683
 2126SOL    HW1 7277   2.331   6.131   1.683
 2126SOL    HW2 7278   2.215   6.241   1.717
 2127SOL     OW 7279   1.658   3.782   4.159
 2127SOL    HW1 7280   1.621   3.690   4.145
 2127SOL    HW2 7281   1.740   3.776   4.216
 2128SOL     OW 7282   5.297   3.018   0.950
 2128SOL    HW1 7283   5.221   3.077   0.922
 2128SOL    HW2 7284   5.330   3.047   1.040
 2129SOL     OW 7285   5.515   4.859   4.136
 2129SOL    HW1 7286   5.569   4.842   4.054
 2129SOL    HW2 7287   5.576   4.876   4.214
 2130SOL     OW 7288   2.438   0.177   2.881
 2130SOL    HW1 7289   2.512   0.146   2.941
 2130SOL    HW2 7290   2.475   0.235   2.809
 2131SOL     OW 7291   5.837   6.905   6.411
 2131SOL    HW1 7292   5.754   6.957   6.432
 2131SOL    HW2 7293   5.818   6.840   6.338
 2132SOL     OW 7294   3.308   1.756   0.659
 2132SOL    HW1 7295   3.219   1.774   0.617
 2132SOL    HW2 7296   3.306   1.785   0.755
 2133SOL     OW 7297   3.548   3.285   2.385
 2133SOL    HW1 7298   3.640   3.310   2.354
 2133SOL    HW2 7299   3.485   3.289   2.307
 2134SOL     OW 7300   2.631   6.716   4.915
 2134SOL    HW1 7301   2.608   6.702   4.819
 2134SOL    HW2 7302   2.549   6.709   4.971
 2135SOL     OW 7303   0.201   5.897   4.043
 2135SOL    HW1 7304   0.209   5.991   4.012
 2135SOL    HW2 7305   0.292   5.856   4.051
 2136SOL     OW 7306   0.238   4.642   3.695
 2136SOL    HW1 7307   0.149   4.688   3.700
 2136SOL    HW2 7308   0.311   4.709   3.711
 2137SOL     OW 7309   6.895   0.103   4.682
 2137SOL    HW1 7310   6.890   0.187   4.627
 2137SOL    HW2 7311   6.943   0.123   4.768
 2138SOL     OW 7312   1.166   2.182   0.318
 2138SOL    HW1 7313   1.110   2.255   0.279
 2138SOL    HW2 7314   1.215   2.216   0.398
 2139SOL     OW 7315   3.974   6.431   4.644
 2139SOL    HW1 7316   3.933   6.407   4.556
 2139SOL    HW2 7317   4.051   6.494   4.628
 2140SOL     OW 7318   0.927   5.748   3.569
 2140SOL    HW1 7319   0.876   5.791   3.494
 2140SOL    HW2 7320   0.913   5.649   3.567
 2141SOL     OW 7321   6.996   0.368   6.671
 2141SOL    HW1 7322   6.937   0.288   6.679
 2141SOL    HW2 7323   6.973   0.433   6.743
 2142SOL     OW 7324   3.950   1.277   2.970
 2142SOL    HW1 7325   3.890   1.208   3.010
 2142SOL    HW2 7326   3.920   1.296   2.876
 2143SOL     OW 7327   3.550   5.358   0.272
 2143SOL    HW1 7328   3.640   5.336   0.236
 2143SOL    HW2 7329   3.552   5.449   0.315
 2144SOL     OW 7330   1.099   1.607   2.128
 2144SOL    HW1 7331   1.187   1.607   2.175
 2144SOL    HW2 7332   1.032   1.556   2.181
 2145SOL     OW 7333   2.428   6.006   3.161
 2145SOL    HW1 7334   2.450   5.912   3.187
 2145SOL    HW2 7335   2.494   6.069   3.203
 2146SOL     OW 7336   2.994   1.913   1.449
 2146SOL    HW1 7337   2.979   2.008   1.423
 2146SOL    HW2 7338   2.920   1.881   1.507
 2147SOL     OW 7339   6.978   0.710   3.828
 2147SOL    HW1 7340   6.990   0.611   3.834
 2147SOL    HW2 7341   0.045   0.754   3.832
 2148SOL     OW 7342   6.587   4.503   4.006
 2148SOL    HW1 7343   6.538   4.426   3.965
 2148SOL    HW2 7344   6.553   4.588   3.966
 2149SOL     OW 7345   2.003   1.261   2.350
 2149SOL    HW1 7346   2.043   1.173   2.324
 2149SOL    HW2 7347   1.916   1.274   2.302
 2150SOL     OW 7348   5.721   0.758   3.208
 2150SOL    HW1 7349   5.745   0.828   3.276
 2150SOL    HW2 7350   5.727   0.667   3.250
 2151SOL     OW 7351   4.865   4.765   5.437
 2151SOL    HW1 7352   4.829   4.842   5.385
 2151SOL    HW2 7353   4.865   4.683   5.380
 2152SOL     OW 7354   6.944   6.490   2.872
 2152SOL    HW1 7355   0.014   6.466   2.898
 2152SOL    HW2 7356   6.944   6.532   2.782
 2153SOL     OW 7357   4.359   2.277   3.560
 2153SOL    HW1 7358   4.261   2.268   3.542
 2153SOL    HW2 7359   4.407   2.302   3.475
 2154SOL     OW 7360   4.375   0.324   3.691
 2154SOL    HW1 7361   4.410   0.363   3.606
 2154SOL    HW2 7362   4.438   0.344   3.766
 2155SOL     OW 7363   5.974   3.481   0.873
 2155SOL    HW1 7364   5.896   3.426   0.843
 2155SOL    HW2 7365   6.059   3.441   0.838
 2156SOL     OW 7366   5.926   5.461   2.595
 2156SOL    HW1 7367   5.878   5.500   2.674
 2156SOL    HW2 7368   6.024   5.478   2.605
 2157SOL     OW 7369   5.213   1.446   4.439
 2157SOL    HW1 7370   5.166   1.398   4.365
 2157SOL    HW2 7371   5.259   1.527   4.403
 2158SOL     OW 7372   4.629   1.008   3.731
 2158SOL    HW1 7373   4.540   0.966   3.713
 2158SOL    HW2 7374   4.617   1.107   3.742
 2159SOL     OW 7375   2.221   2.071   4.499
 2159SOL    HW1 7376   2.298   2.009   4.513
 2159SOL    HW2 7377   2.211   2.129   4.580
 2160SOL     OW 7378   2.140   4.048   1.011
 2160SOL    HW1 7379   2.147   4.093   1.100
 2160SOL    HW2 7380   2.159   4.114   0.938
 2161SOL     OW 7381   4.348   2.287   2.349
 2161SOL    HW1 7382   4.249   2.270   2.352
 2161SOL    HW2 7383   4.396   2.202   2.329
 2162SOL     OW 7384   1.779   1.280   2.850
 2162SOL    HW1 7385   1.738   1.357   2.801
 2162SOL    HW2 7386   1.790   1.203   2.788
 2163SOL     OW 7387   4.738   1.436   0.787
 2163SOL    HW1 7388   4.738   1.528   0.826
 2163SOL    HW2 7389   4.829   1.417   0.749
 2164SOL     OW 7390   6.335   0.042   2.652
 2164SOL    HW1 7391   6.381   6.991   2.602
 2164SOL    HW2 7392   6.251   0.007   2.693
 2165SOL     OW 7393   2.082   6.971   2.172
 2165SOL    HW1 7394   2.106   7.004   2.081
 2165SOL    HW2 7395   2.002   6.911   2.165
 2166SOL     OW 7396   5.812   2.589   4.985
 2166SOL    HW1 7397   5.719   2.567   5.013
 2166SOL    HW2 7398   5.871   2.596   5.066
 2167SOL     OW 7399   3.463   1.258   1.365
 2167SOL    HW1 7400   3.423   1.283   1.276
 2167SOL    HW2 7401   3.538   1.321   1.385
 2168SOL     OW 7402   5.532   6.310   4.467
 2168SOL    HW1 7403   5.560   6.274   4.378
 2168SOL    HW2 7404   5.612   6.336   4.520
 2169SOL     OW 7405   4.883   2.850   5.384
 2169SOL    HW1 7406   4.918   2.829   5.293
 2169SOL    HW2 7407   4.832   2.936   5.381
 2170SOL     OW 7408   4.611   5.594   4.632
 2170SOL    HW1 7409   4.644   5.683   4.602
 2170SOL    HW2 7410   4.646   5.575   4.724
 2171SOL     OW 7411   0.628   3.000   0.306
 2171SOL    HW1 7412   0.610   3.098   0.295
 2171SOL    HW2 7413   0.549   2.948   0.273
 2172SOL     OW 7414   2.370   0.888   3.091
 2172SOL    HW1 7415   2.318   0.837   3.160
 2172SOL    HW2 7416   2.444   0.939   3.136
 2173SOL     OW 7417   4.439   1.781   4.534
 2173SOL    HW1 7418   4.361   1.840   4.553
 2173SOL    HW2 7419   4.461   1.729   4.616
 2174SOL     OW 7420   1.427   6.119   5.611
 2174SOL    HW1 7421   1.368   6.057   5.663
 2174SOL    HW2 7422   1.379   6.205   5.593
 2175SOL     OW 7423   0.603   0.689   6.977
 2175SOL    HW1 7424   0.564   0.704   6.887
 2175SOL    HW2 7425   0.697   0.657   6.968
 2176SOL     OW 7426   2.277   2.008   2.371
 2176SOL    HW1 7427   2.358   2.001   2.429
 2176SOL    HW2 7428   2.279   1.935   2.302
 2177SOL     OW 7429   1.267   1.654   1.875
 2177SOL    HW1 7430   1.260   1.580   1.808
 2177SOL    HW2 7431   1.208   1.633   1.954
 2178SOL     OW 7432   6.117   5.575   0.543
 2178SOL    HW1 7433   6.183   5.648   0.524
 2178SOL    HW2 7434   6.157   5.510   0.606
 2179SOL     OW 7435   2.068   3.598   3.886
 2179SOL    HW1 7436   2.083   3.685   3.840
 2179SOL    HW2 7437   2.056   3.613   3.984
 2180SOL     OW 7438   3.043   3.064   2.798
 2180SOL    HW1 7439   2.952   3.100   2.817
 2180SOL    HW2 7440   3.048   3.032   2.704
 2181SOL     OW 7441   3.650   6.469   1.327
 2181SOL    HW1 7442   3.610   6.397   1.271
 2181SOL    HW2 7443   3.623   6.559   1.292
 2182SOL     OW 7444   4.580   4.202   0.160
 2182SOL    HW1 7445   4.572   4.282   0.100
 2182SOL    HW2 7446   4.676   4.177   0.169
 2183SOL     OW 7447   4.504   2.309   2.041
 2183SOL    HW1 7448   4.585   2.361   2.068
 2183SOL    HW2 7449   4.517   2.273   1.948
 2184SOL     OW 7450   4.223   2.558   5.851
 2184SOL    HW1 7451   4.177   2.646   5.864
 2184SOL    HW2 7452   4.167   2.485   5.889
 2185SOL     OW 7453   6.502   6.924   2.238
 2185SOL    HW1 7454   6.586   6.898   2.191
 2185SOL    HW2 7455   6.423   6.896   2.184
 2186SOL     OW 7456   6.525   4.810   2.878
 2186SOL    HW1 7457   6.559   4.816   2.971
 2186SOL    HW2 7458   6.513   4.714   2.853
 2187SOL     OW 7459   6.470   7.021   7.008
 2187SOL    HW1 7460   6.436   0.016   6.916
 2187SOL    HW2 7461   6.429   0.063   0.049
 2188SOL     OW 7462   4.691   2.677   3.753
 2188SOL    HW1 7463   4.644   2.658   3.839
 2188SOL    HW2 7464   4.676   2.601   3.690
 2189SOL     OW 7465   3.266   7.007   6.030
 2189SOL    HW1 7466   3.340   6.941   6.038
 2189SOL    HW2 7467   3.198   6.989   6.100
 2190SOL     OW 7468   6.203   3.313   1.195
 2190SOL    HW1 7469   6.107   3.322   1.222
 2190SOL    HW2 7470   6.244   3.404   1.187
 2191SOL     OW 7471   3.440   0.475   0.165
 2191SOL    HW1 7472   3.348   0.510   0.151
 2191SOL    HW2 7473   3.499   0.503   0.089
 2192SOL     OW 7474   3.999   6.347   2.062
 2192SOL    HW1 7475   3.934   6.301   2.001
 2192SOL    HW2 7476   3.985   6.313   2.156
 2193SOL     OW 7477   0.167   6.234   4.211
 2193SOL    HW1 7478   0.135   6.155   4.263
 2193SOL    HW2 7479   0.257   6.262   4.244
 2194SOL     OW 7480   2.292   0.007   3.202
 2194SOL    HW1 7481   2.217   0.072   3.219
 2194SOL    HW2 7482   2.303   7.017   3.104
 2195SOL     OW 7483   0.330   4.727   2.910
 2195SOL    HW1 7484   0.321   4.645   2.853
 2195SOL    HW2 7485   0.339   4.808   2.853
 2196SOL     OW 7486   4.643   3.924   6.623
 2196SOL    HW1 7487   4.647   3.866   6.704
 2196SOL    HW2 7488   4.548   3.935   6.595
 2197SOL     OW 7489   4.895   3.092   0.861
 2197SOL    HW1 7490   4.816   3.148   0.836
 2197SOL    HW2 7491   4.937   3.055   0.779
 2198SOL     OW 7492   1.029   4.563   6.809
 2198SOL    HW1 7493   0.976   4.601   6.733
 2198SOL    HW2 7494   1.097   4.499   6.774
 2199SOL     OW 7495   3.481   1.801   3.687
 2199SOL    HW1 7496   3.435   1.889   3.700
 2199SOL    HW2 7497   3.579   1.817   3.670
 2200SOL     OW 7498   4.363   0.677   4.073
 2200SOL    HW1 7499   4.388   0.588   4.109
 2200SOL    HW2 7500   4.425   0.747   4.111
 2201SOL     OW 7501   5.111   5.003   3.908
 2201SOL    HW1 7502   5.062   5.076   3.955
 2201SOL    HW2 7503   5.201   5.036   3.879
 2202SOL     OW 7504   4.592   5.945   3.904
 2202SOL    HW1 7505   4.568   5.905   3.993
 2202SOL    HW2 7506   4.667   5.892   3.864
 2203SOL     OW 7507   1.944   2.093   3.327
 2203SOL    HW1 7508   1.852   2.128   3.313
 2203SOL    HW2 7509   1.996   2.102   3.242
 2204SOL     OW 7510   4.217   2.004   1.016
 2204SOL    HW1 7511   4.135   2.051   1.050
 2204SOL    HW2 7512   4.287   2.002   1.087
 2205SOL     OW 7513   3.414   0.111   2.149
 2205SOL    HW1 7514   3.460   0.199   2.159
 2205SOL    HW2 7515   3.361   0.110   2.064
 2206SOL     OW 7516   1.544   4.805   0.065
 2206SOL    HW1 7517   1.551   4.791   0.163
 2206SOL    HW2 7518   1.448   4.821   0.040
 2207SOL     OW 7519   6.709   4.211   5.383
 2207SOL    HW1 7520   6.793   4.263   5.400
 2207SOL    HW2 7521   6.724   4.115   5.407
 2208SOL     OW 7522   6.807   5.147   2.274
 2208SOL    HW1 7523   6.785   5.053   2.296
 2208SOL    HW2 7524   6.904   5.154   2.250
 2209SOL     OW 7525   0.000   0.203   2.436
 2209SOL    HW1 7526   6.992   0.285   2.388
 2209SOL    HW2 7527   0.006   0.127   2.371
 2210SOL     OW 7528   2.645   4.610   3.338
 2210SOL    HW1 7529   2.719   4.649   3.392
 2210SOL    HW2 7530   2.653   4.640   3.243
 2211SOL     OW 7531   5.471   1.138   5.353
 2211SOL    HW1 7532   5.426   1.059   5.311
 2211SOL    HW2 7533   5.531   1.107   5.426
 2212SOL     OW 7534   2.413   5.838   6.560
 2212SOL    HW1 7535   2.334   5.816   6.504
 2212SOL    HW2 7536   2.392   5.916   6.619
 2213SOL     OW 7537   4.203   1.340   3.234
 2213SOL    HW1 7538   4.284   1.285   3.253
 2213SOL    HW2 7539   4.214   1.387   3.146
 2214SOL     OW 7540   4.135   6.986   3.583
 2214SOL    HW1 7541   4.192   7.018   3.659
 2214SOL    HW2 7542   4.129   6.886   3.586
 2215SOL     OW 7543   5.953   2.304   6.475
 2215SOL    HW1 7544   5.869   2.263   6.510
 2215SOL    HW2 7545   5.931   2.364   6.398
 2216SOL     OW 7546   3.329   1.270   2.556
 2216SOL    HW1 7547   3.264   1.259   2.631
 2216SOL    HW2 7548   3.398   1.338   2.581
 2217SOL     OW 7549   2.862   6.699   0.763
 2217SOL    HW1 7550   2.883   6.602   0.776
 2217SOL    HW2 7551   2.886   6.725   0.669
 2218SOL     OW 7552   6.290   1.116   2.279
 2218SOL    HW1 7553   6.291   1.125   2.179
 2218SOL    HW2 7554   6.199   1.086   2.308
 2219SOL     OW 7555   1.827   2.370   3.093
 2219SOL    HW1 7556   1.911   2.423   3.077
 2219SOL    HW2 7557   1.826   2.336   3.187
 2220SOL     OW 7558   2.022   6.187   3.456
 2220SOL    HW1 7559   1.924   6.169   3.457
 2220SOL    HW2 7560   2.063   6.143   3.376
 2221SOL     OW 7561   0.043   0.168   4.871
 2221SOL    HW1 7562   0.076   0.239   4.809
 2221SOL    HW2 7563   7.006   0.209   4.939
 2222SOL     OW 7564   5.227   6.145   3.258
 2222SOL    HW1 7565   5.187   6.059   3.290
 2222SOL    HW2 7566   5.318   6.156   3.297
 2223SOL     OW 7567   6.151   6.548   2.071
 2223SOL    HW1 7568   6.174   6.631   2.122
 2223SOL    HW2 7569   6.055   6.552   2.043
 2224SOL     OW 7570   0.332   5.629   1.274
 2224SOL    HW1 7571   0.361   5.575   1.195
 2224SOL    HW2 7572   0.236   5.608   1.296
 2225SOL     OW 7573   0.446   4.553   1.351
 2225SOL    HW1 7574   0.364   4.567   1.407
 2225SOL    HW2 7575   0.477   4.641   1.314
 2226SOL     OW 7576   3.393   3.784   3.191
 2226SOL    HW1 7577   3.396   3.875   3.150
 2226SOL    HW2 7578   3.307   3.739   3.167
 2227SOL     OW 7579   1.731   1.645   5.377
 2227SOL    HW1 7580   1.669   1.574   5.410
 2227SOL    HW2 7581   1.706   1.732   5.420
 2228SOL     OW 7582   1.117   4.545   4.053
 2228SOL    HW1 7583   1.032   4.526   4.102
 2228SOL    HW2 7584   1.150   4.462   4.009
 2229SOL     OW 7585   5.235   5.536   2.335
 2229SOL    HW1 7586   5.172   5.591   2.391
 2229SOL    HW2 7587   5.300   5.597   2.289
 2230SOL     OW 7588   2.017   5.350   2.941
 2230SOL    HW1 7589   1.938   5.365   3.000
 2230SOL    HW2 7590   2.047   5.437   2.901
 2231SOL     OW 7591   1.905   6.231   0.586
 2231SOL    HW1 7592   1.977   6.300   0.593
 2231SOL    HW2 7593   1.902   6.194   0.493
 2232SOL     OW 7594   6.328   2.695   3.461
 2232SOL    HW1 7595   6.356   2.723   3.369
 2232SOL    HW2 7596   6.243   2.740   3.485
 2233SOL     OW 7597   3.570   1.632   0.627
 2233SOL    HW1 7598   3.612   1.674   0.707
 2233SOL    HW2 7599   3.486   1.681   0.604
 2234SOL     OW 7600   4.359   2.423   1.337
 2234SOL    HW1 7601   4.388   2.407   1.431
 2234SOL    HW2 7602   4.427   2.386   1.274
 2235SOL     OW 7603   1.798   3.318   2.030
 2235SOL    HW1 7604   1.784   3.222   2.052
 2235SOL    HW2 7605   1.716   3.355   1.986
 2236SOL     OW 7606   1.468   3.561   5.039
 2236SOL    HW1 7607   1.370   3.576   5.022
 2236SOL    HW2 7608   1.489   3.589   5.133
 2237SOL     OW 7609   5.775   2.255   3.220
 2237SOL    HW1 7610   5.734   2.173   3.260
 2237SOL    HW2 7611   5.737   2.336   3.263
 2238SOL     OW 7612   4.914   6.247   6.760
 2238SOL    HW1 7613   4.840   6.205   6.708
 2238SOL    HW2 7614   4.971   6.302   6.699
 2239SOL     OW 7615   6.605   5.513   1.265
 2239SOL    HW1 7616   6.568   5.439   1.321
 2239SOL    HW2 7617   6.552   5.521   1.180
 2240SOL     OW 7618   0.534   3.918   1.666
 2240SOL    HW1 7619   0.553   3.825   1.635
 2240SOL    HW2 7620   0.620   3.963   1.691
 2241SOL     OW 7621   0.121   0.386   3.524
 2241SOL    HW1 7622   0.152   0.451   3.593
 2241SOL    HW2 7623   0.025   0.364   3.539
 2242SOL     OW 7624   2.026   1.576   3.041
 2242SOL    HW1 7625   1.958   1.511   3.074
 2242SOL    HW2 7626   2.069   1.540   2.958
 2243SOL     OW 7627   1.091   0.677   4.436
 2243SOL    HW1 7628   1.091   0.687   4.535
 2243SOL    HW2 7629   1.083   0.767   4.393
 2244SOL     OW 7630   3.099   0.841   4.154
 2244SOL    HW1 7631   3.083   0.922   4.099
 2244SOL    HW2 7632   3.058   0.762   4.109
 2245SOL     OW 7633   0.309   1.587   1.452
 2245SOL    HW1 7634   0.270   1.591   1.544
 2245SOL    HW2 7635   0.374   1.511   1.448
 2246SOL     OW 7636   0.872   4.753   4.731
 2246SOL    HW1 7637   0.832   4.709   4.811
 2246SOL    HW2 7638   0.962   4.713   4.713
 2247SOL     OW 7639   2.261   2.214   3.760
 2247SOL    HW1 7640   2.321   2.275   3.707
 2247SOL    HW2 7641   2.189   2.179   3.701
 2248SOL     OW 7642   4.992   4.243   5.665
 2248SOL    HW1 7643   5.049   4.325   5.665
 2248SOL    HW2 7644   4.962   4.224   5.759
 2249SOL     OW 7645   5.449   6.354   5.075
 2249SOL    HW1 7646   5.540   6.381   5.043
 2249SOL    HW2 7647   5.448   6.255   5.092
 2250SOL     OW 7648   4.609   4.943   2.871
 2250SOL    HW1 7649   4.705   4.971   2.868
 2250SOL    HW2 7650   4.571   4.944   2.778
 2251SOL     OW 7651   0.776   1.678   5.720
 2251SOL    HW1 7652   0.742   1.693   5.627
 2251SOL    HW2 7653   0.710   1.624   5.771
 2252SOL     OW 7654   4.110   1.114   5.964
 2252SOL    HW1 7655   4.078   1.151   5.876
 2252SOL    HW2 7656   4.031   1.094   6.022
 2253SOL     OW 7657   0.481   3.908   1.194
 2253SOL    HW1 7658   0.568   3.860   1.178
 2253SOL    HW2 7659   0.406   3.853   1.159
 2254SOL     OW 7660   1.362   5.544   5.795
 2254SOL    HW1 7661   1.278   5.530   5.743
 2254SOL    HW2 7662   1.340   5.554   5.892
 2255SOL     OW 7663   0.003   4.270   6.593
 2255SOL    HW1 7664   0.053   4.226   6.667
 2255SOL    HW2 7665   0.034   4.233   6.505
 2256SOL     OW 7666   2.585   5.763   2.358
 2256SOL    HW1 7667   2.656   5.813   2.407
 2256SOL    HW2 7668   2.503   5.756   2.414
 2257SOL     OW 7669   0.503   5.046   6.119
 2257SOL    HW1 7670   0.502   5.120   6.186
 2257SOL    HW2 7671   0.442   5.068   6.043
 2258SOL     OW 7672   2.042   6.544   6.100
 2258SOL    HW1 7673   1.947   6.574   6.111
 2258SOL    HW2 7674   2.044   6.459   6.047
 2259SOL     OW 7675   5.958   1.945   6.419
 2259SOL    HW1 7676   5.859   1.954   6.409
 2259SOL    HW2 7677   5.999   2.036   6.427
 2260SOL     OW 7678   4.901   3.335   1.517
 2260SOL    HW1 7679   4.832   3.343   1.445
 2260SOL    HW2 7680   4.952   3.421   1.523
 2261SOL     OW 7681   2.064   6.302   5.642
 2261SOL    HW1 7682   2.159   6.274   5.635
 2261SOL    HW2 7683   2.047   6.380   5.581
 2262SOL     OW 7684   2.446   1.915   4.529
 2262SOL    HW1 7685   2.517   1.948   4.591
 2262SOL    HW2 7686   2.460   1.956   4.439
 2263SOL     OW 7687   0.521   4.782   6.190
 2263SOL    HW1 7688   0.575   4.760   6.271
 2263SOL    HW2 7689   0.524   4.881   6.174
 2264SOL     OW 7690   3.224   3.124   4.265
 2264SOL    HW1 7691   3.306   3.097   4.316
 2264SOL    HW2 7692   3.165   3.178   4.324
 2265SOL     OW 7693   6.937   6.352   4.183
 2265SOL    HW1 7694   6.892   6.297   4.113
 2265SOL    HW2 7695   0.012   6.333   4.182
 2266SOL     OW 7696   0.166   0.124   5.451
 2266SOL    HW1 7697   0.110   0.125   5.534
 2266SOL    HW2 7698   0.151   0.209   5.400
 2267SOL     OW 7699   6.398   1.932   4.851
 2267SOL    HW1 7700   6.331   1.860   4.870
 2267SOL    HW2 7701   6.489   1.900   4.876
 2268SOL     OW 7702   0.698   0.025   0.438
 2268SOL    HW1 7703   0.616   0.083   0.442
 2268SOL    HW2 7704   0.709   7.001   0.526
 2269SOL     OW 7705   6.760   6.060   2.742
 2269SOL    HW1 7706   6.670   6.081   2.780
 2269SOL    HW2 7707   6.750   6.026   2.648
 2270SOL     OW 7708   2.957   3.266   2.980
 2270SOL    HW1 7709   2.968   3.208   3.060
 2270SOL    HW2 7710   3.034   3.329   2.974
 2271SOL     OW 7711   1.355   3.834   2.650
 2271SOL    HW1 7712   1.289   3.849   2.724
 2271SOL    HW2 7713   1.358   3.914   2.591
 2272SOL     OW 7714   4.527   0.719   6.060
 2272SOL    HW1 7715   4.612   0.699   6.011
 2272SOL    HW2 7716   4.546   0.782   6.134
 2273SOL     OW 7717   6.909   1.016   1.750
 2273SOL    HW1 7718   6.884   1.068   1.833
 2273SOL    HW2 7719   6.919   1.080   1.674
 2274SOL     OW 7720   6.510   4.943   3.608
 2274SOL    HW1 7721   6.505   4.852   3.567
 2274SOL    HW2 7722   6.530   4.935   3.706
 2275SOL     OW 7723   4.243   6.139   4.068
 2275SOL    HW1 7724   4.151   6.152   4.029
 2275SOL    HW2 7725   4.235   6.111   4.163
 2276SOL     OW 7726   3.885   5.956   3.931
 2276SOL    HW1 7727   3.828   5.889   3.978
 2276SOL    HW2 7728   3.838   5.988   3.848
 2277SOL     OW 7729   3.404   2.974   2.634
 2277SOL    HW1 7730   3.367   2.925   2.555
 2277SOL    HW2 7731   3.417   3.070   2.611
 2278SOL     OW 7732   4.258   5.073   1.918
 2278SOL    HW1 7733   4.158   5.082   1.919
 2278SOL    HW2 7734   4.294   5.117   1.835
 2279SOL     OW 7735   5.988   4.333   5.657
 2279SOL    HW1 7736   5.986   4.291   5.748
 2279SOL    HW2 7737   6.079   4.371   5.640
 2280SOL     OW 7738   5.795   0.843   5.815
 2280SOL    HW1 7739   5.849   0.805   5.740
 2280SOL    HW2 7740   5.747   0.769   5.862
 2281SOL     OW 7741   2.324   0.424   0.423
 2281SOL    HW1 7742   2.306   0.343   0.368
 2281SOL    HW2 7743   2.239   0.458   0.463
 2282SOL     OW 7744   3.182   0.370   2.472
 2282SOL    HW1 7745   3.250   0.427   2.426
 2282SOL    HW2 7746   3.200   0.274   2.451
 2283SOL     OW 7747   1.002   3.078   1.092
 2283SOL    HW1 7748   1.042   3.009   1.153
 2283SOL    HW2 7749   0.908   3.053   1.071
 2284SOL     OW 7750   1.751   2.633   0.848
 2284SOL    HW1 7751   1.808   2.679   0.779
 2284SOL    HW2 7752   1.657   2.626   0.814
 2285SOL     OW 7753   2.439   3.020   0.126
 2285SOL    HW1 7754   2.357   3.002   0.179
 2285SOL    HW2 7755   2.431   3.110   0.082
 2286SOL     OW 7756   6.445   5.506   4.079
 2286SOL    HW1 7757   6.492   5.565   4.014
 2286SOL    HW2 7758   6.400   5.431   4.030
 2287SOL     OW 7759   2.946   1.970   1.147
 2287SOL    HW1 7760   2.919   1.879   1.114
 2287SOL    HW2 7761   3.043   1.968   1.173
 2288SOL     OW 7762   3.105   5.467   4.620
 2288SOL    HW1 7763   3.191   5.507   4.650
 2288SOL    HW2 7764   3.029   5.513   4.666
 2289SOL     OW 7765   3.950   7.008   5.354
 2289SOL    HW1 7766   3.993   6.984   5.267
 2289SOL    HW2 7767   3.903   0.073   5.345
 2290SOL     OW 7768   2.276   3.853   6.544
 2290SOL    HW1 7769   2.241   3.935   6.590
 2290SOL    HW2 7770   2.252   3.772   6.597
 2291SOL     OW 7771   3.691   1.975   0.627
 2291SOL    HW1 7772   3.752   2.046   0.592
 2291SOL    HW2 7773   3.730   1.935   0.710
 2292SOL     OW 7774   5.151   2.415   2.776
 2292SOL    HW1 7775   5.185   2.401   2.683
 2292SOL    HW2 7776   5.053   2.392   2.779
 2293SOL     OW 7777   6.851   0.644   6.594
 2293SOL    HW1 7778   6.882   0.717   6.655
 2293SOL    HW2 7779   6.824   0.565   6.649
 2294SOL     OW 7780   6.936   2.850   5.337
 2294SOL    HW1 7781   6.905   2.833   5.431
 2294SOL    HW2 7782   0.013   2.842   5.333
 2295SOL     OW 7783   5.871   5.795   0.284
 2295SOL    HW1 7784   5.788   5.828   0.329
 2295SOL    HW2 7785   5.887   5.699   0.308
 2296SOL     OW 7786   3.891   5.856   4.735
 2296SOL    HW1 7787   3.815   5.895   4.683
 2296SOL    HW2 7788   3.920   5.921   4.805
 2297SOL     OW 7789   6.211   2.490   0.246
 2297SOL    HW1 7790   6.213   2.452   0.339
 2297SOL    HW2 7791   6.299   2.534   0.227
 2298SOL     OW 7792   2.210   3.970   4.754
 2298SOL    HW1 7793   2.265   3.992   4.834
 2298SOL    HW2 7794   2.167   3.881   4.766
 2299SOL     OW 7795   6.134   3.880   4.448
 2299SOL    HW1 7796   6.233   3.869   4.457
 2299SOL    HW2 7797   6.100   3.939   4.521
 2300SOL     OW 7798   3.834   1.046   2.603
 2300SOL    HW1 7799   3.833   0.993   2.688
 2300SOL    HW2 7800   3.751   1.101   2.597
 2301SOL     OW 7801   4.637   3.225   6.037
 2301SOL    HW1 7802   4.645   3.125   6.036
 2301SOL    HW2 7803   4.645   3.257   6.132
 2302SOL     OW 7804   0.334   3.841   4.809
 2302SOL    HW1 7805   0.403   3.800   4.750
 2302SOL    HW2 7806   0.306   3.775   4.879
 2303SOL     OW 7807   2.344   2.526   6.700
 2303SOL    HW1 7808   2.395   2.612   6.691
 2303SOL    HW2 7809   2.404   2.449   6.677
 2304SOL     OW 7810   3.696   0.394   3.417
 2304SOL    HW1 7811   3.635   0.316   3.433
 2304SOL    HW2 7812   3.652   0.477   3.452
 2305SOL     OW 7813   2.979   6.067   4.725
 2305SOL    HW1 7814   3.028   6.092   4.809
 2305SOL    HW2 7815   2.959   5.969   4.725
 2306SOL     OW 7816   0.918   4.618   5.707
 2306SOL    HW1 7817   0.982   4.655   5.774
 2306SOL    HW2 7818   0.828   4.606   5.750
 2307SOL     OW 7819   6.191   3.951   5.647
 2307SOL    HW1 7820   6.210   4.003   5.730
 2307SOL    HW2 7821   6.116   3.994   5.597
 2308SOL     OW 7822   0.762   6.151   2.847
 2308SOL    HW1 7823   0.674   6.174   2.807
 2308SOL    HW2 7824   0.827   6.226   2.834
 2309SOL     OW 7825   1.584   1.087   4.521
 2309SOL    HW1 7826   1.565   1.161   4.457
 2309SOL    HW2 7827   1.682   1.085   4.542
 2310SOL     OW 7828   5.142   5.899   0.746
 2310SOL    HW1 7829   5.143   5.876   0.843
 2310SOL    HW2 7830   5.079   5.976   0.730
 2311SOL     OW 7831   2.804   5.805   0.300
 2311SOL    HW1 7832   2.713   5.766   0.312
 2311SOL    HW2 7833   2.847   5.766   0.219
 2312SOL     OW 7834   2.750   5.201   1.620
 2312SOL    HW1 7835   2.763   5.103   1.638
 2312SOL    HW2 7836   2.684   5.212   1.546
 2313SOL     OW 7837   4.799   4.783   1.350
 2313SOL    HW1 7838   4.856   4.809   1.272
 2313SOL    HW2 7839   4.854   4.787   1.434
 2314SOL     OW 7840   2.144   4.868   2.377
 2314SOL    HW1 7841   2.067   4.820   2.335
 2314SOL    HW2 7842   2.131   4.874   2.476
 2315SOL     OW 7843   3.700   2.147   6.667
 2315SOL    HW1 7844   3.748   2.184   6.747
 2315SOL    HW2 7845   3.645   2.068   6.696
 2316SOL     OW 7846   6.040   3.981   1.802
 2316SOL    HW1 7847   6.115   3.992   1.737
 2316SOL    HW2 7848   6.042   3.889   1.840
 2317SOL     OW 7849   0.385   0.010   3.747
 2317SOL    HW1 7850   0.415   6.967   3.678
 2317SOL    HW2 7851   0.424   0.100   3.725
 2318SOL     OW 7852   6.448   1.796   3.447
 2318SOL    HW1 7853   6.401   1.711   3.469
 2318SOL    HW2 7854   6.518   1.778   3.378
 2319SOL     OW 7855   0.751   5.861   3.355
 2319SOL    HW1 7856   0.681   5.892   3.420
 2319SOL    HW2 7857   0.763   5.931   3.285
 2320SOL     OW 7858   6.916   4.719   3.755
 2320SOL    HW1 7859   6.928   4.679   3.664
 2320SOL    HW2 7860   6.936   4.649   3.824
 2321SOL     OW 7861   2.836   4.748   3.490
 2321SOL    HW1 7862   2.830   4.801   3.405
 2321SOL    HW2 7863   2.928   4.755   3.528
 2322SOL     OW 7864   1.956   1.752   5.257
 2322SOL    HW1 7865   1.918   1.833   5.213
 2322SOL    HW2 7866   1.888   1.712   5.318
 2323SOL     OW 7867   5.754   3.595   1.497
 2323SOL    HW1 7868   5.826   3.626   1.434
 2323SOL    HW2 7869   5.767   3.498   1.517
 2324SOL     OW 7870   0.057   5.513   4.111
 2324SOL    HW1 7871   0.005   5.596   4.094
 2324SOL    HW2 7872   0.007   5.453   4.173
 2325SOL     OW 7873   6.556   1.629   0.711
 2325SOL    HW1 7874   6.522   1.544   0.669
 2325SOL    HW2 7875   6.501   1.706   0.679
 2326SOL     OW 7876   0.627   5.144   0.176
 2326SOL    HW1 7877   0.615   5.228   0.229
 2326SOL    HW2 7878   0.662   5.167   0.085
 2327SOL     OW 7879   4.822   0.889   2.701
 2327SOL    HW1 7880   4.744   0.864   2.643
 2327SOL    HW2 7881   4.859   0.807   2.744
 2328SOL     OW 7882   6.204   5.687   3.621
 2328SOL    HW1 7883   6.256   5.690   3.706
 2328SOL    HW2 7884   6.154   5.773   3.610
 2329SOL     OW 7885   1.516   6.742   3.324
 2329SOL    HW1 7886   1.498   6.745   3.226
 2329SOL    HW2 7887   1.510   6.648   3.356
 2330SOL     OW 7888   1.817   3.862   6.782
 2330SOL    HW1 7889   1.861   3.857   6.871
 2330SOL    HW2 7890   1.744   3.793   6.776
 2331SOL     OW 7891   1.486   4.174   5.288
 2331SOL    HW1 7892   1.544   4.161   5.208
 2331SOL    HW2 7893   1.514   4.110   5.360
 2332SOL     OW 7894   6.519   3.536   6.941
 2332SOL    HW1 7895   6.492   3.593   7.018
 2332SOL    HW2 7896   6.575   3.589   6.877
 2333SOL     OW 7897   2.326   4.863   3.989
 2333SOL    HW1 7898   2.327   4.959   4.017
 2333SOL    HW2 7899   2.312   4.805   4.069
 2334SOL     OW 7900   1.975   0.320   6.239
 2334SOL    HW1 7901   2.064   0.363   6.221
 2334SOL    HW2 7902   1.939   0.282   6.154
 2335SOL     OW 7903   5.203   4.457   4.921
 2335SOL    HW1 7904   5.258   4.526   4.968
 2335SOL    HW2 7905   5.115   4.498   4.895
 2336SOL     OW 7906   4.605   1.314   5.741
 2336SOL    HW1 7907   4.635   1.370   5.664
 2336SOL    HW2 7908   4.526   1.259   5.714
 2337SOL     OW 7909   6.180   0.612   5.211
 2337SOL    HW1 7910   6.252   0.680   5.195
 2337SOL    HW2 7911   6.214   0.541   5.272
 2338SOL     OW 7912   1.889   6.656   6.974
 2338SOL    HW1 7913   1.984   6.625   6.975
 2338SOL    HW2 7914   1.885   6.752   6.946
 2339SOL     OW 7915   3.282   4.162   5.654
 2339SOL    HW1 7916   3.243   4.253   5.643
 2339SOL    HW2 7917   3.303   4.123   5.565
 2340SOL     OW 7918   4.291   5.142   3.999
 2340SOL    HW1 7919   4.316   5.073   3.930
 2340SOL    HW2 7920   4.265   5.096   4.084
 2341SOL     OW 7921   0.969   3.915   6.071
 2341SOL    HW1 7922   0.969   3.889   6.167
 2341SOL    HW2 7923   1.062   3.940   6.043
 2342SOL     OW 7924   4.736   1.283   5.218
 2342SOL    HW1 7925   4.750   1.255   5.123
 2342SOL    HW2 7926   4.728   1.383   5.223
 2343SOL     OW 7927   0.497   6.057   1.720
 2343SOL    HW1 7928   0.471   5.967   1.753
 2343SOL    HW2 7929   0.580   6.050   1.665
 2344SOL     OW 7930   1.936   0.254   2.811
 2344SOL    HW1 7931   1.972   0.161   2.808
 2344SOL    HW2 7932   1.986   0.312   2.746
 2345SOL     OW 7933   1.220   2.516   1.892
 2345SOL    HW1 7934   1.147   2.449   1.898
 2345SOL    HW2 7935   1.272   2.517   1.978
 2346SOL     OW 7936   5.876   2.938   4.824
 2346SOL    HW1 7937   5.800   2.883   4.857
 2346SOL    HW2 7938   5.874   2.942   4.724
 2347SOL     OW 7939   1.788   4.099   1.342
 2347SOL    HW1 7940   1.698   4.118   1.379
 2347SOL    HW2 7941   1.783   4.094   1.242
 2348SOL     OW 7942   3.041   7.006   1.679
 2348SOL    HW1 7943   3.130   6.962   1.690
 2348SOL    HW2 7944   3.043   0.041   1.598
 2349SOL     OW 7945   5.702   2.366   6.998
 2349SOL    HW1 7946   5.796   2.341   6.973
 2349SOL    HW2 7947   5.674   2.447   6.946
 2350SOL     OW 7948   2.451   5.526   5.455
 2350SOL    HW1 7949   2.430   5.537   5.358
 2350SOL    HW2 7950   2.543   5.489   5.466
 2351SOL     OW 7951   1.599   5.656   3.356
 2351SOL    HW1 7952   1.684   5.708   3.364
 2351SOL    HW2 7953   1.619   5.563   3.325
 2352SOL     OW 7954   5.849   6.106   6.140
 2352SOL    HW1 7955   5.886   6.132   6.051
 2352SOL    HW2 7956   5.859   6.183   6.204
 2353SOL     OW 7957   3.252   2.996   6.639
 2353SOL    HW1 7958   3.212   2.978   6.729
 2353SOL    HW2 7959   3.184   3.038   6.580
 2354SOL     OW 7960   3.082   1.641   2.459
 2354SOL    HW1 7961   3.070   1.561   2.400
 2354SOL    HW2 7962   3.065   1.725   2.407
 2355SOL     OW 7963   6.585   1.359   1.951
 2355SOL    HW1 7964   6.523   1.299   1.900
 2355SOL    HW2 7965   6.536   1.398   2.029
 2356SOL     OW 7966   3.870   5.202   3.903
 2356SOL    HW1 7967   3.946   5.259   3.936
 2356SOL    HW2 7968   3.852   5.129   3.969
 2357SOL     OW 7969   0.153   5.718   0.952
 2357SOL    HW1 7970   0.087   5.736   0.880
 2357SOL    HW2 7971   0.244   5.747   0.922
 2358SOL     OW 7972   2.063   0.941   4.788
 2358SOL    HW1 7973   2.081   1.033   4.754
 2358SOL    HW2 7974   2.013   0.946   4.875
 2359SOL     OW 7975   3.743   2.674   5.536
 2359SOL    HW1 7976   3.760   2.710   5.445
 2359SOL    HW2 7977   3.772   2.578   5.540
 2360SOL     OW 7978   3.503   4.993   1.776
 2360SOL    HW1 7979   3.552   4.957   1.697
 2360SOL    HW2 7980   3.519   4.933   1.855
 2361SOL     OW 7981   3.631   4.825   0.975
 2361SOL    HW1 7982   3.605   4.915   1.009
 2361SOL    HW2 7983   3.602   4.816   0.879
 2362SOL     OW 7984   3.192   4.902   4.286
 2362SOL    HW1 7985   3.276   4.953   4.300
 2362SOL    HW2 7986   3.210   4.804   4.300
 2363SOL     OW 7987   2.685   3.732   1.625
 2363SOL    HW1 7988   2.746   3.718   1.703
 2363SOL    HW2 7989   2.590   3.724   1.656
 2364SOL     OW 7990   4.592   0.830   2.563
 2364SOL    HW1 7991   4.519   0.895   2.544
 2364SOL    HW2 7992   4.635   0.802   2.477
 2365SOL     OW 7993   5.898   3.768   2.879
 2365SOL    HW1 7994   5.829   3.815   2.934
 2365SOL    HW2 7995   5.852   3.713   2.809
 2366SOL     OW 7996   4.344   5.252   4.863
 2366SOL    HW1 7997   4.342   5.154   4.847
 2366SOL    HW2 7998   4.367   5.271   4.958
 2367SOL     OW 7999   5.693   4.591   5.798
 2367SOL    HW1 8000   5.707   4.493   5.780
 2367SOL    HW2 8001   5.616   4.624   5.744
 2368SOL     OW 8002   5.301   1.721   5.101
 2368SOL    HW1 8003   5.281   1.627   5.129
 2368SOL    HW2 8004   5.225   1.781   5.126
 2369SOL     OW 8005   4.450   1.914   4.163
 2369SOL    HW1 8006   4.354   1.905   4.134
 2369SOL    HW2 8007   4.509   1.917   4.082
 2370SOL     OW 8008   4.053   1.862   0.442
 2370SOL    HW1 8009   4.015   1.943   0.487
 2370SOL    HW2 8010   4.017   1.856   0.349
 2371SOL     OW 8011   2.165   6.411   3.508
 2371SOL    HW1 8012   2.117   6.496   3.486
 2371SOL    HW2 8013   2.108   6.333   3.481
 2372SOL     OW 8014   5.671   6.293   6.803
 2372SOL    HW1 8015   5.635   6.249   6.885
 2372SOL    HW2 8016   5.599   6.349   6.762
 2373SOL     OW 8017   6.409   4.352   6.120
 2373SOL    HW1 8018   6.482   4.295   6.081
 2373SOL    HW2 8019   6.386   4.319   6.211
 2374SOL     OW 8020   0.767   5.289   2.712
 2374SOL    HW1 8021   0.840   5.275   2.778
 2374SOL    HW2 8022   0.680   5.302   2.761
 2375SOL     OW 8023   2.151   0.374   4.549
 2375SOL    HW1 8024   2.141   0.276   4.568
 2375SOL    HW2 8025   2.223   0.412   4.607
 2376SOL     OW 8026   6.036   3.058   4.082
 2376SOL    HW1 8027   5.946   3.097   4.066
 2376SOL    HW2 8028   6.027   2.962   4.109
 2377SOL     OW 8029   3.713   5.065   5.877
 2377SOL    HW1 8030   3.696   4.967   5.868
 2377SOL    HW2 8031   3.776   5.081   5.953
 2378SOL     OW 8032   0.594   0.046   0.915
 2378SOL    HW1 8033   0.619   7.004   0.986
 2378SOL    HW2 8034   0.650   0.031   0.834
 2379SOL     OW 8035   0.813   4.291   3.594
 2379SOL    HW1 8036   0.856   4.218   3.541
 2379SOL    HW2 8037   0.714   4.289   3.581
 2380SOL     OW 8038   4.736   5.439   6.086
 2380SOL    HW1 8039   4.696   5.392   6.007
 2380SOL    HW2 8040   4.663   5.464   6.150
 2381SOL     OW 8041   2.333   4.685   3.798
 2381SOL    HW1 8042   2.397   4.611   3.819
 2381SOL    HW2 8043   2.338   4.754   3.871
 2382SOL     OW 8044   6.132   5.918   2.178
 2382SOL    HW1 8045   6.189   5.917   2.096
 2382SOL    HW2 8046   6.130   5.827   2.218
 2383SOL     OW 8047   4.230   3.483   6.131
 2383SOL    HW1 8048   4.184   3.394   6.125
 2383SOL    HW2 8049   4.237   3.524   6.041
 2384SOL     OW 8050   1.198   2.366   3.094
 2384SOL    HW1 8051   1.106   2.397   3.121
 2384SOL    HW2 8052   1.227   2.415   3.012
 2385SOL     OW 8053   0.626   0.803   0.950
 2385SOL    HW1 8054   0.644   0.790   1.048
 2385SOL    HW2 8055   0.580   0.721   0.914
 2386SOL     OW 8056   0.096   4.922   6.737
 2386SOL    HW1 8057   0.174   4.983   6.721
 2386SOL    HW2 8058   0.050   4.904   6.650
 2387SOL     OW 8059   6.136   0.492   3.006
 2387SOL    HW1 8060   6.094   0.521   3.092
 2387SOL    HW2 8061   6.222   0.541   2.992
 2388SOL     OW 8062   2.169   5.153   3.783
 2388SOL    HW1 8063   2.255   5.123   3.741
 2388SOL    HW2 8064   2.113   5.074   3.807
 2389SOL     OW 8065   3.254   6.693   3.016
 2389SOL    HW1 8066   3.266   6.660   2.922
 2389SOL    HW2 8067   3.179   6.759   3.018
 2390SOL     OW 8068   4.907   3.407   4.691
 2390SOL    HW1 8069   4.873   3.492   4.650
 2390SOL    HW2 8070   4.929   3.342   4.619
 2391SOL     OW 8071   2.665   4.092   6.868
 2391SOL    HW1 8072   2.737   4.090   6.799
 2391SOL    HW2 8073   2.583   4.134   6.829
 2392SOL     OW 8074   3.766   5.130   5.545
 2392SOL    HW1 8075   3.775   5.198   5.473
 2392SOL    HW2 8076   3.837   5.144   5.613
 2393SOL     OW 8077   5.103   4.995   0.662
 2393SOL    HW1 8078   5.138   5.018   0.571
 2393SOL    HW2 8079   5.163   5.034   0.731
 2394SOL     OW 8080   0.012   2.347   2.873
 2394SOL    HW1 8081   7.010   2.261   2.917
 2394SOL    HW2 8082   6.956   2.383   2.824
 2395SOL     OW 8083   0.674   3.176   3.267
 2395SOL    HW1 8084   0.604   3.222   3.211
 2395SOL    HW2 8085   0.696   3.088   3.226
 2396SOL     OW 8086   0.417   0.193   5.503
 2396SOL    HW1 8087   0.322   0.165   5.491
 2396SOL    HW2 8088   0.467   0.122   5.553
 2397SOL     OW 8089   2.907   4.747   5.556
 2397SOL    HW1 8090   2.847   4.741   5.476
 2397SOL    HW2 8091   2.909   4.841   5.588
 2398SOL     OW 8092   3.800   6.198   5.039
 2398SOL    HW1 8093   3.866   6.178   4.967
 2398SOL    HW2 8094   3.744   6.277   5.013
 2399SOL     OW 8095   2.732   1.282   1.913
 2399SOL    HW1 8096   2.727   1.382   1.923
 2399SOL    HW2 8097   2.697   1.239   1.997
 2400SOL     OW 8098   0.974   2.008   6.081
 2400SOL    HW1 8099   0.949   1.939   6.149
 2400SOL    HW2 8100   0.986   1.963   5.992
 2401SOL     OW 8101   1.360   6.771   0.264
 2401SOL    HW1 8102   1.420   6.741   0.338
 2401SOL    HW2 8103   1.308   6.851   0.292
 2402SOL     OW 8104   0.848   2.895   1.461
 2402SOL    HW1 8105   0.888   2.956   1.529
 2402SOL    HW2 8106   0.901   2.900   1.376
 2403SOL     OW 8107   3.224   4.105   4.951
 2403SOL    HW1 8108   3.319   4.127   4.930
 2403SOL    HW2 8109   3.203   4.136   5.044
 2404SOL     OW 8110   6.543   2.090   1.576
 2404SOL    HW1 8111   6.574   1.998   1.600
 2404SOL    HW2 8112   6.443   2.096   1.587
 2405SOL     OW 8113   2.649   3.657   0.571
 2405SOL    HW1 8114   2.582   3.700   0.511
 2405SOL    HW2 8115   2.659   3.561   0.547
 2406SOL     OW 8116   4.953   5.856   5.440
 2406SOL    HW1 8117   5.030   5.844   5.377
 2406SOL    HW2 8118   4.973   5.930   5.504
 2407SOL     OW 8119   2.254   1.876   3.703
 2407SOL    HW1 8120   2.159   1.850   3.685
 2407SOL    HW2 8121   2.256   1.955   3.764
 2408SOL     OW 8122   4.639   6.345   5.688
 2408SOL    HW1 8123   4.631   6.389   5.777
 2408SOL    HW2 8124   4.647   6.416   5.617
 2409SOL     OW 8125   1.756   2.671   6.936
 2409SOL    HW1 8126   1.701   2.724   6.871
 2409SOL    HW2 8127   1.807   2.733   6.996
 2410SOL     OW 8128   7.016   3.259   4.808
 2410SOL    HW1 8129   0.064   3.207   4.856
 2410SOL    HW2 8130   0.024   3.354   4.796
 2411SOL     OW 8131   3.084   0.854   0.904
 2411SOL    HW1 8132   3.002   0.858   0.960
 2411SOL    HW2 8133   3.114   0.759   0.895
 2412SOL     OW 8134   3.949   2.604   0.444
 2412SOL    HW1 8135   3.885   2.529   0.426
 2412SOL    HW2 8136   3.999   2.585   0.529
 2413SOL     OW 8137   0.354   3.722   6.458
 2413SOL    HW1 8138   0.451   3.723   6.482
 2413SOL    HW2 8139   0.328   3.631   6.427
 2414SOL     OW 8140   6.026   2.121   5.204
 2414SOL    HW1 8141   6.019   2.094   5.300
 2414SOL    HW2 8142   6.044   2.041   5.147
 2415SOL     OW 8143   3.306   3.761   5.422
 2415SOL    HW1 8144   3.387   3.818   5.413
 2415SOL    HW2 8145   3.288   3.742   5.519
 2416SOL     OW 8146   6.500   3.227   3.228
 2416SOL    HW1 8147   6.492   3.134   3.263
 2416SOL    HW2 8148   6.467   3.231   3.134
 2417SOL     OW 8149   3.342   2.630   1.830
 2417SOL    HW1 8150   3.306   2.594   1.744
 2417SOL    HW2 8151   3.285   2.599   1.906
 2418SOL     OW 8152   5.990   3.386   6.440
 2418SOL    HW1 8153   6.035   3.296   6.435
 2418SOL    HW2 8154   5.920   3.384   6.511
 2419SOL     OW 8155   2.872   1.420   2.787
 2419SOL    HW1 8156   2.868   1.516   2.761
 2419SOL    HW2 8157   2.909   1.367   2.710
 2420SOL     OW 8158   0.598   2.823   1.393
 2420SOL    HW1 8159   0.688   2.859   1.415
 2420SOL    HW2 8160   0.572   2.852   1.301
 2421SOL     OW 8161   2.691   0.585   3.503
 2421SOL    HW1 8162   2.597   0.561   3.527
 2421SOL    HW2 8163   2.710   0.555   3.409
 2422SOL     OW 8164   3.967   0.100   0.345
 2422SOL    HW1 8165   4.013   0.122   0.260
 2422SOL    HW2 8166   4.035   0.089   0.418
 2423SOL     OW 8167   3.372   5.076   5.179
 2423SOL    HW1 8168   3.283   5.103   5.215
 2423SOL    HW2 8169   3.407   4.999   5.232
 2424SOL     OW 8170   5.197   0.382   6.279
 2424SOL    HW1 8171   5.233   0.473   6.261
 2424SOL    HW2 8172   5.228   0.351   6.369
 2425SOL     OW 8173   5.363   5.307   4.918
 2425SOL    HW1 8174   5.388   5.355   4.834
 2425SOL    HW2 8175   5.281   5.347   4.957
 2426SOL     OW 8176   3.158   2.059   5.183
 2426SOL    HW1 8177   3.162   2.137   5.120
 2426SOL    HW2 8178   3.089   2.076   5.253
 2427SOL     OW 8179   4.247   2.909   6.656
 2427SOL    HW1 8180   4.328   2.959   6.686
 2427SOL    HW2 8181   4.256   2.885   6.559
 2428SOL     OW 8182   1.678   1.898   1.920
 2428SOL    HW1 8183   1.621   1.876   1.998
 2428SOL    HW2 8184   1.672   1.826   1.852
 2429SOL     OW 8185   4.730   5.225   1.644
 2429SOL    HW1 8186   4.825   5.247   1.666
 2429SOL    HW2 8187   4.725   5.187   1.551
 2430SOL     OW 8188   6.932   5.823   6.632
 2430SOL    HW1 8189   6.967   5.730   6.624
 2430SOL    HW2 8190   6.868   5.828   6.709
 2431SOL     OW 8191   2.060   3.308   1.437
 2431SOL    HW1 8192   1.998   3.282   1.364
 2431SOL    HW2 8193   2.041   3.403   1.465
 2432SOL     OW 8194   3.125   5.785   3.034
 2432SOL    HW1 8195   3.127   5.873   3.080
 2432SOL    HW2 8196   3.137   5.712   3.101
 2433SOL     OW 8197   0.248   4.540   4.207
 2433SOL    HW1 8198   0.193   4.484   4.269
 2433SOL    HW2 8199   0.270   4.487   4.126
 2434SOL     OW 8200   3.754   2.099   2.755
 2434SOL    HW1 8201   3.694   2.030   2.796
 2434SOL    HW2 8202   3.824   2.126   2.822
 2435SOL     OW 8203   5.640   6.557   5.861
 2435SOL    HW1 8204   5.621   6.465   5.826
 2435SOL    HW2 8205   5.566   6.619   5.833
 2436SOL     OW 8206   0.354   3.131   0.066
 2436SOL    HW1 8207   0.327   3.120   0.162
 2436SOL    HW2 8208   0.410   3.213   0.057
 2437SOL     OW 8209   1.006   4.919   1.069
 2437SOL    HW1 8210   1.016   4.957   0.977
 2437SOL    HW2 8211   1.091   4.934   1.120
 2438SOL     OW 8212   4.101   1.890   4.668
 2438SOL    HW1 8213   4.147   1.933   4.590
 2438SOL    HW2 8214   4.089   1.793   4.650
 2439SOL     OW 8215   0.622   6.031   6.579
 2439SOL    HW1 8216   0.655   5.963   6.644
 2439SOL    HW2 8217   0.655   6.121   6.605
 2440SOL     OW 8218   6.992   2.514   5.429
 2440SOL    HW1 8219   6.921   2.514   5.499
 2440SOL    HW2 8220   6.950   2.527   5.339
 2441SOL     OW 8221   6.861   6.952   0.119
 2441SOL    HW1 8222   6.795   6.907   0.059
 2441SOL    HW2 8223   6.827   6.948   0.213
 2442SOL     OW 8224   5.628   3.097   3.542
 2442SOL    HW1 8225   5.613   3.003   3.573
 2442SOL    HW2 8226   5.724   3.108   3.516
 2443SOL     OW 8227   0.980   3.353   1.340
 2443SOL    HW1 8228   1.026   3.273   1.379
 2443SOL    HW2 8229   0.884   3.353   1.366
 2444SOL     OW 8230   3.593   5.250   2.751
 2444SOL    HW1 8231   3.661   5.200   2.806
 2444SOL    HW2 8232   3.616   5.242   2.654
 2445SOL     OW 8233   0.420   1.315   1.518
 2445SOL    HW1 8234   0.325   1.298   1.547
 2445SOL    HW2 8235   0.478   1.326   1.598
 2446SOL     OW 8236   6.422   5.480   0.800
 2446SOL    HW1 8237   6.513   5.504   0.765
 2446SOL    HW2 8238   6.410   5.520   0.891
 2447SOL     OW 8239   1.781   0.085   6.691
 2447SOL    HW1 8240   1.696   0.033   6.686
 2447SOL    HW2 8241   1.813   0.104   6.598
 2448SOL     OW 8242   4.907   0.589   4.581
 2448SOL    HW1 8243   4.950   0.594   4.671
 2448SOL    HW2 8244   4.951   0.518   4.526
 2449SOL     OW 8245   2.032   3.748   1.269
 2449SOL    HW1 8246   2.016   3.779   1.175
 2449SOL    HW2 8247   2.130   3.737   1.284
 2450SOL     OW 8248   6.826   6.265   6.128
 2450SOL    HW1 8249   6.807   6.223   6.217
 2450SOL    HW2 8250   6.813   6.364   6.134
 2451SOL     OW 8251   1.198   0.532   0.094
 2451SOL    HW1 8252   1.130   0.574   0.154
 2451SOL    HW2 8253   1.275   0.499   0.149
 2452SOL     OW 8254   1.667   2.411   3.922
 2452SOL    HW1 8255   1.730   2.462   3.980
 2452SOL    HW2 8256   1.573   2.428   3.952
 2453SOL     OW 8257   0.789   2.156   6.988
 2453SOL    HW1 8258   0.748   2.095   6.920
 2453SOL    HW2 8259   0.785   2.250   6.956
 2454SOL     OW 8260   2.096   6.432   0.587
 2454SOL    HW1 8261   2.184   6.445   0.634
 2454SOL    HW2 8262   2.081   6.506   0.522
 2455SOL     OW 8263   5.045   2.321   6.306
 2455SOL    HW1 8264   5.017   2.393   6.242
 2455SOL    HW2 8265   5.047   2.233   6.259
 2456SOL     OW 8266   1.484   3.038   5.605
 2456SOL    HW1 8267   1.402   2.989   5.636
 2456SOL    HW2 8268   1.552   3.036   5.678
 2457SOL     OW 8269   5.770   1.640   6.075
 2457SOL    HW1 8270   5.800   1.734   6.059
 2457SOL    HW2 8271   5.774   1.620   6.173
 2458SOL     OW 8272   1.266   0.046   1.593
 2458SOL    HW1 8273   1.340   0.031   1.527
 2458SOL    HW2 8274   1.267   6.996   1.662
 2459SOL     OW 8275   1.644   0.179   1.184
 2459SOL    HW1 8276   1.627   0.275   1.207
 2459SOL    HW2 8277   1.669   0.130   1.267
 2460SOL     OW 8278   0.544   1.185   4.459
 2460SOL    HW1 8279   0.537   1.110   4.524
 2460SOL    HW2 8280   0.488   1.262   4.491
 2461SOL     OW 8281   2.027   2.083   3.043
 2461SOL    HW1 8282   2.077   1.998   3.031
 2461SOL    HW2 8283   1.930   2.068   3.024
 2462SOL     OW 8284   0.407   5.318   0.634
 2462SOL    HW1 8285   0.363   5.287   0.550
 2462SOL    HW2 8286   0.389   5.416   0.647
 2463SOL     OW 8287   6.859   5.976   0.106
 2463SOL    HW1 8288   6.956   5.984   0.128
 2463SOL    HW2 8289   6.812   6.061   0.129
 2464SOL     OW 8290   0.829   2.733   4.890
 2464SOL    HW1 8291   0.918   2.704   4.854
 2464SOL    HW2 8292   0.844   2.801   4.962
 2465SOL     OW 8293   0.127   1.571   6.990
 2465SOL    HW1 8294   0.154   1.590   6.895
 2465SOL    HW2 8295   0.136   1.654   0.021
 2466SOL     OW 8296   1.141   1.744   0.937
 2466SOL    HW1 8297   1.101   1.729   0.847
 2466SOL    HW2 8298   1.068   1.756   1.005
 2467SOL     OW 8299   4.870   3.213   4.497
 2467SOL    HW1 8300   4.805   3.216   4.573
 2467SOL    HW2 8301   4.851   3.133   4.439
 2468SOL     OW 8302   3.329   6.611   4.408
 2468SOL    HW1 8303   3.389   6.673   4.460
 2468SOL    HW2 8304   3.234   6.628   4.434
 2469SOL     OW 8305   3.120   2.133   6.108
 2469SOL    HW1 8306   3.036   2.079   6.098
 2469SOL    HW2 8307   3.108   2.199   6.182
 2470SOL     OW 8308   1.952   5.199   6.269
 2470SOL    HW1 8309   1.960   5.167   6.363
 2470SOL    HW2 8310   1.927   5.123   6.209
 2471SOL     OW 8311   2.358   6.023   2.495
 2471SOL    HW1 8312   2.373   5.924   2.490
 2471SOL    HW2 8313   2.391   6.066   2.412
 2472SOL     OW 8314   5.141   0.426   2.437
 2472SOL    HW1 8315   5.207   0.429   2.361
 2472SOL    HW2 8316   5.117   0.331   2.456
 2473SOL     OW 8317   0.782   4.091   4.900
 2473SOL    HW1 8318   0.859   4.132   4.948
 2473SOL    HW2 8319   0.713   4.161   4.881
 2474SOL     OW 8320   1.993   0.372   1.244
 2474SOL    HW1 8321   1.938   0.451   1.219
 2474SOL    HW2 8322   1.969   0.295   1.185
 2475SOL     OW 8323   5.715   2.161   0.617
 2475SOL    HW1 8324   5.636   2.218   0.639
 2475SOL    HW2 8325   5.690   2.065   0.625
 2476SOL     OW 8326   4.581   6.432   7.010
 2476SOL    HW1 8327   4.603   6.336   6.992
 2476SOL    HW2 8328   4.643   6.491   6.958
 2477SOL     OW 8329   4.377   1.584   4.214
 2477SOL    HW1 8330   4.424   1.543   4.292
 2477SOL    HW2 8331   4.442   1.602   4.141
 2478SOL     OW 8332   3.420   0.504   4.013
 2478SOL    HW1 8333   3.460   0.565   3.945
 2478SOL    HW2 8334   3.469   0.417   4.012
 2479SOL     OW 8335   6.400   4.076   2.574
 2479SOL    HW1 8336   6.468   4.145   2.549
 2479SOL    HW2 8337   6.392   4.073   2.674
 2480SOL     OW 8338   2.824   2.039   1.713
 2480SOL    HW1 8339   2.760   2.114   1.697
 2480SOL    HW2 8340   2.866   2.050   1.803
 2481SOL     OW 8341   2.989   0.400   2.265
 2481SOL    HW1 8342   3.022   0.386   2.172
 2481SOL    HW2 8343   3.065   0.386   2.330
 2482SOL     OW 8344   0.073   3.168   0.002
 2482SOL    HW1 8345   0.168   3.136   0.011
 2482SOL    HW2 8346   0.052   3.230   0.077
 2483SOL     OW 8347   2.901   1.769   0.978
 2483SOL    HW1 8348   2.928   1.678   0.945
 2483SOL    HW2 8349   2.835   1.809   0.914
 2484SOL     OW 8350   4.418   1.211   6.022
 2484SOL    HW1 8351   4.477   1.189   5.945
 2484SOL    HW2 8352   4.344   1.144   6.028
 2485SOL     OW 8353   0.553   1.450   6.884
 2485SOL    HW1 8354   0.591   1.443   6.976
 2485SOL    HW2 8355   0.552   1.545   6.855
 2486SOL     OW 8356   6.543   5.798   2.528
 2486SOL    HW1 8357   6.500   5.726   2.474
 2486SOL    HW2 8358   6.482   5.876   2.535
 2487SOL     OW 8359   4.055   6.311   6.863
 2487SOL    HW1 8360   4.004   6.383   6.818
 2487SOL    HW2 8361   4.099   6.347   6.945
 2488SOL     OW 8362   0.665   3.519   0.695
 2488SOL    HW1 8363   0.717   3.605   0.692
 2488SOL    HW2 8364   0.568   3.540   0.712
 2489SOL     OW 8365   6.058   5.818   4.596
 2489SOL    HW1 8366   6.047   5.880   4.674
 2489SOL    HW2 8367   6.055   5.724   4.629
 2490SOL     OW 8368   3.207   5.806   2.737
 2490SOL    HW1 8369   3.216   5.905   2.732
 2490SOL    HW2 8370   3.181   5.780   2.830
 2491SOL     OW 8371   3.886   4.383   1.666
 2491SOL    HW1 8372   3.858   4.476   1.690
 2491SOL    HW2 8373   3.810   4.336   1.620
 2492SOL     OW 8374   6.785   4.472   2.138
 2492SOL    HW1 8375   6.799   4.558   2.188
 2492SOL    HW2 8376   6.859   4.461   2.071
 2493SOL     OW 8377   5.899   6.527   0.441
 2493SOL    HW1 8378   5.883   6.613   0.490
 2493SOL    HW2 8379   5.818   6.469   0.450
 2494SOL     OW 8380   6.999   3.398   1.624
 2494SOL    HW1 8381   7.009   3.423   1.720
 2494SOL    HW2 8382   6.902   3.379   1.605
 2495SOL     OW 8383   6.590   2.960   2.196
 2495SOL    HW1 8384   6.530   3.037   2.176
 2495SOL    HW2 8385   6.648   2.983   2.274
 2496SOL     OW 8386   5.107   3.988   5.622
 2496SOL    HW1 8387   5.163   3.998   5.539
 2496SOL    HW2 8388   5.092   4.078   5.663
 2497SOL     OW 8389   0.701   6.840   3.919
 2497SOL    HW1 8390   0.734   6.892   3.841
 2497SOL    HW2 8391   0.650   6.900   3.980
 2498SOL     OW 8392   2.244   3.056   4.478
 2498SOL    HW1 8393   2.214   3.092   4.389
 2498SOL    HW2 8394   2.169   3.063   4.543
 2499SOL     OW 8395   6.069   2.836   0.866
 2499SOL    HW1 8396   6.074   2.749   0.817
 2499SOL    HW2 8397   6.026   2.905   0.807
 2500SOL     OW 8398   3.918   3.971   2.634
 2500SOL    HW1 8399   3.878   3.997   2.722
 2500SOL    HW2 8400   3.903   4.044   2.567
 2501SOL     OW 8401   6.158   5.183   4.049
 2501SOL    HW1 8402   6.252   5.194   4.081
 2501SOL    HW2 8403   6.098   5.170   4.128
 2502SOL     OW 8404   2.394   5.819   3.435
 2502SOL    HW1 8405   2.371   5.915   3.447
 2502SOL    HW2 8406   2.326   5.762   3.483
 2503SOL     OW 8407   2.122   0.090   5.353
 2503SOL    HW1 8408   2.211   0.107   5.310
 2503SOL    HW2 8409   2.050   0.099   5.284
 2504SOL     OW 8410   4.330   1.109   2.972
 2504SOL    HW1 8411   4.327   1.209   2.966
 2504SOL    HW2 8412   4.245   1.071   2.937
 2505SOL     OW 8413   5.555   4.398   4.037
 2505SOL    HW1 8414   5.505   4.479   4.009
 2505SOL    HW2 8415   5.493   4.335   4.084
 2506SOL     OW 8416   5.846   4.903   6.267
 2506SOL    HW1 8417   5.768   4.903   6.329
 2506SOL    HW2 8418   5.814   4.914   6.173
 2507SOL     OW 8419   5.880   3.524   3.906
 2507SOL    HW1 8420   5.873   3.522   3.807
 2507SOL    HW2 8421   5.975   3.541   3.933
 2508SOL     OW 8422   5.623   0.669   4.017
 2508SOL    HW1 8423   5.591   0.590   4.068
 2508SOL    HW2 8424   5.721   0.682   4.032
 2509SOL     OW 8425   0.272   3.567   5.995
 2509SOL    HW1 8426   0.332   3.621   5.936
 2509SOL    HW2 8427   0.218   3.504   5.939
 2510SOL     OW 8428   3.323   3.940   2.241
 2510SOL    HW1 8429   3.340   3.861   2.182
 2510SOL    HW2 8430   3.392   4.010   2.222
 2511SOL     OW 8431   2.132   0.810   4.494
 2511SOL    HW1 8432   2.069   0.808   4.572
 2511SOL    HW2 8433   2.141   0.904   4.461
 2512SOL     OW 8434   3.092   4.854   3.581
 2512SOL    HW1 8435   3.191   4.842   3.581
 2512SOL    HW2 8436   3.064   4.909   3.659
 2513SOL     OW 8437   2.158   5.497   6.463
 2513SOL    HW1 8438   2.144   5.468   6.368
 2513SOL    HW2 8439   2.090   5.452   6.521
 2514SOL     OW 8440   0.926   2.729   2.317
 2514SOL    HW1 8441   0.842   2.722   2.262
 2514SOL    HW2 8442   0.901   2.746   2.412
 2515SOL     OW 8443   0.353   1.816   1.093
 2515SOL    HW1 8444   0.355   1.767   1.180
 2515SOL    HW2 8445   0.399   1.762   1.023
 2516SOL     OW 8446   0.012   2.516   4.866
 2516SOL    HW1 8447   0.090   2.574   4.840
 2516SOL    HW2 8448   6.970   2.512   4.790
 2517SOL     OW 8449   0.198   1.785   4.410
 2517SOL    HW1 8450   0.135   1.727   4.357
 2517SOL    HW2 8451   0.169   1.880   4.403
 2518SOL     OW 8452   3.434   3.324   0.749
 2518SOL    HW1 8453   3.399   3.396   0.689
 2518SOL    HW2 8454   3.359   3.284   0.801
 2519SOL     OW 8455   1.395   0.763   0.078
 2519SOL    HW1 8456   1.380   0.675   0.124
 2519SOL    HW2 8457   1.489   0.768   0.045
 2520SOL     OW 8458   2.775   3.032   1.225
 2520SOL    HW1 8459   2.719   3.087   1.287
 2520SOL    HW2 8460   2.822   3.091   1.161
 2521SOL     OW 8461   5.935   1.539   4.840
 2521SOL    HW1 8462   5.898   1.451   4.808
 2521SOL    HW2 8463   5.918   1.548   4.938
 2522SOL     OW 8464   2.094   2.112   0.439
 2522SOL    HW1 8465   2.147   2.055   0.376
 2522SOL    HW2 8466   2.143   2.198   0.456
 2523SOL     OW 8467   0.986   5.424   5.220
 2523SOL    HW1 8468   0.942   5.505   5.258
 2523SOL    HW2 8469   0.925   5.345   5.231
 2524SOL     OW 8470   0.820   2.337   4.672
 2524SOL    HW1 8471   0.772   2.378   4.749
 2524SOL    HW2 8472   0.900   2.394   4.648
 2525SOL     OW 8473   6.939   3.045   6.657
 2525SOL    HW1 8474   6.945   3.141   6.630
 2525SOL    HW2 8475   6.926   3.039   6.756
 2526SOL     OW 8476   2.291   0.990   1.137
 2526SOL    HW1 8477   2.374   0.942   1.110
 2526SOL    HW2 8478   2.302   1.028   1.228
 2527SOL     OW 8479   4.109   5.436   0.293
 2527SOL    HW1 8480   4.114   5.427   0.194
 2527SOL    HW2 8481   4.179   5.377   0.335
 2528SOL     OW 8482   4.613   5.493   6.756
 2528SOL    HW1 8483   4.560   5.504   6.840
 2528SOL    HW2 8484   4.711   5.492   6.778
 2529SOL     OW 8485   0.065   6.182   6.125
 2529SOL    HW1 8486   0.135   6.188   6.196
 2529SOL    HW2 8487   7.004   6.226   6.156
 2530SOL     OW 8488   2.385   6.055   6.700
 2530SOL    HW1 8489   2.412   6.070   6.795
 2530SOL    HW2 8490   2.341   6.137   6.664
 2531SOL     OW 8491   0.235   3.935   6.305
 2531SOL    HW1 8492   0.285   3.873   6.365
 2531SOL    HW2 8493   0.201   3.885   6.226
 2532SOL     OW 8494   5.101   6.339   3.415
 2532SOL    HW1 8495   5.021   6.295   3.457
 2532SOL    HW2 8496   5.132   6.284   3.338
 2533SOL     OW 8497   4.595   0.331   3.867
 2533SOL    HW1 8498   4.652   0.275   3.808
 2533SOL    HW2 8499   4.649   0.365   3.944
 2534SOL     OW 8500   4.331   1.691   2.492
 2534SOL    HW1 8501   4.253   1.635   2.463
 2534SOL    HW2 8502   4.402   1.632   2.530
 2535SOL     OW 8503   3.644   3.032   6.260
 2535SOL    HW1 8504   3.722   2.984   6.218
 2535SOL    HW2 8505   3.564   2.971   6.259
 2536SOL     OW 8506   0.851   0.515   0.881
 2536SOL    HW1 8507   0.781   0.521   0.953
 2536SOL    HW2 8508   0.899   0.603   0.875
 2537SOL     OW 8509   4.394   6.596   5.386
 2537SOL    HW1 8510   4.376   6.691   5.411
 2537SOL    HW2 8511   4.407   6.589   5.287
 2538SOL     OW 8512   6.210   3.980   3.771
 2538SOL    HW1 8513   6.142   3.978   3.844
 2538SOL    HW2 8514   6.165   4.000   3.684
 2539SOL     OW 8515   5.238   2.038   4.804
 2539SOL    HW1 8516   5.177   1.970   4.763
 2539SOL    HW2 8517   5.194   2.079   4.884
 2540SOL     OW 8518   2.480   2.457   1.620
 2540SOL    HW1 8519   2.518   2.525   1.683
 2540SOL    HW2 8520   2.536   2.452   1.538
 2541SOL     OW 8521   3.079   6.992   4.591
 2541SOL    HW1 8522   3.114   7.020   4.502
 2541SOL    HW2 8523   3.114   0.031   4.662
 2542SOL     OW 8524   1.840   5.782   6.309
 2542SOL    HW1 8525   1.811   5.760   6.403
 2542SOL    HW2 8526   1.808   5.710   6.247
 2543SOL     OW 8527   1.182   0.837   3.815
 2543SOL    HW1 8528   1.134   0.755   3.783
 2543SOL    HW2 8529   1.280   0.826   3.798
 2544SOL     OW 8530   0.942   5.948   6.204
 2544SOL    HW1 8531   0.916   5.940   6.108
 2544SOL    HW2 8532   0.860   5.947   6.261
 2545SOL     OW 8533   2.608   6.681   2.550
 2545SOL    HW1 8534   2.602   6.598   2.607
 2545SOL    HW2 8535   2.695   6.681   2.502
 2546SOL     OW 8536   0.061   1.141   2.286
 2546SOL    HW1 8537   0.088   1.234   2.258
 2546SOL    HW2 8538   0.121   1.111   2.360
 2547SOL     OW 8539   0.352   4.362   4.859
 2547SOL    HW1 8540   0.338   4.278   4.806
 2547SOL    HW2 8541   0.294   4.360   4.940
 2548SOL     OW 8542   6.858   0.767   5.815
 2548SOL    HW1 8543   6.760   0.749   5.824
 2548SOL    HW2 8544   6.879   0.855   5.858
 2549SOL     OW 8545   5.422   2.305   3.426
 2549SOL    HW1 8546   5.374   2.348   3.502
 2549SOL    HW2 8547   5.438   2.373   3.354
 2550SOL     OW 8548   5.540   5.061   0.247
 2550SOL    HW1 8549   5.481   5.141   0.251
 2550SOL    HW2 8550   5.506   4.997   0.178
 2551SOL     OW 8551   1.301   4.473   6.209
 2551SOL    HW1 8552   1.227   4.465   6.276
 2551SOL    HW2 8553   1.384   4.502   6.254
 2552SOL     OW 8554   1.714   6.198   3.389
 2552SOL    HW1 8555   1.657   6.146   3.453
 2552SOL    HW2 8556   1.695   6.168   3.295
 2553SOL     OW 8557   4.625   2.760   0.734
 2553SOL    HW1 8558   4.644   2.799   0.824
 2553SOL    HW2 8559   4.527   2.742   0.726
 2554SOL     OW 8560   0.880   1.755   0.448
 2554SOL    HW1 8561   0.894   1.853   0.436
 2554SOL    HW2 8562   0.963   1.713   0.485
 2555SOL     OW 8563   0.112   0.162   5.722
 2555SOL    HW1 8564   0.075   0.244   5.766
 2555SOL    HW2 8565   0.211   0.160   5.734
 2556SOL     OW 8566   4.287   5.214   0.051
 2556SOL    HW1 8567   4.241   5.147   0.108
 2556SOL    HW2 8568   4.383   5.220   0.078
 2557SOL     OW 8569   2.338   4.895   6.955
 2557SOL    HW1 8570   2.288   4.816   6.990
 2557SOL    HW2 8571   2.356   4.882   6.857
 2558SOL     OW 8572   4.163   0.881   5.239
 2558SOL    HW1 8573   4.217   0.855   5.159
 2558SOL    HW2 8574   4.220   0.873   5.321
 2559SOL     OW 8575   0.222   5.033   5.091
 2559SOL    HW1 8576   0.246   5.129   5.103
 2559SOL    HW2 8577   0.234   5.007   4.996
 2560SOL     OW 8578   6.374   0.483   0.493
 2560SOL    HW1 8579   6.421   0.435   0.566
 2560SOL    HW2 8580   6.438   0.542   0.444
 2561SOL     OW 8581   2.996   5.755   4.166
 2561SOL    HW1 8582   3.037   5.782   4.253
 2561SOL    HW2 8583   2.949   5.833   4.125
 2562SOL     OW 8584   1.910   3.874   0.292
 2562SOL    HW1 8585   1.912   3.889   0.391
 2562SOL    HW2 8586   1.939   3.958   0.246
 2563SOL     OW 8587   2.038   0.559   1.509
 2563SOL    HW1 8588   2.086   0.608   1.436
 2563SOL    HW2 8589   2.060   0.602   1.597
 2564SOL     OW 8590   1.333   6.179   2.449
 2564SOL    HW1 8591   1.432   6.179   2.435
 2564SOL    HW2 8592   1.303   6.085   2.467
 2565SOL     OW 8593   1.574   1.153   1.020
 2565SOL    HW1 8594   1.492   1.177   1.073
 2565SOL    HW2 8595   1.608   1.235   0.973
 2566SOL     OW 8596   2.369   6.450   5.165
 2566SOL    HW1 8597   2.303   6.397   5.219
 2566SOL    HW2 8598   2.348   6.547   5.172
 2567SOL     OW 8599   1.102   0.534   0.358
 2567SOL    HW1 8600   1.146   0.509   0.444
 2567SOL    HW2 8601   1.103   0.455   0.296
 2568SOL     OW 8602   5.591   3.780   0.164
 2568SOL    HW1 8603   5.686   3.805   0.183
 2568SOL    HW2 8604   5.551   3.848   0.102
 2569SOL     OW 8605   2.447   0.877   2.350
 2569SOL    HW1 8606   2.524   0.939   2.366
 2569SOL    HW2 8607   2.464   0.824   2.267
 2570SOL     OW 8608   6.437   2.864   6.382
 2570SOL    HW1 8609   6.514   2.877   6.320
 2570SOL    HW2 8610   6.459   2.791   6.448
 2571SOL     OW 8611   1.420   4.398   3.990
 2571SOL    HW1 8612   1.479   4.318   3.980
 2571SOL    HW2 8613   1.327   4.368   4.011
 2572SOL     OW 8614   1.341   4.900   3.212
 2572SOL    HW1 8615   1.417   4.839   3.190
 2572SOL    HW2 8616   1.316   4.890   3.309
 2573SOL     OW 8617   1.107   0.305   0.227
 2573SOL    HW1 8618   1.040   0.293   0.155
 2573SOL    HW2 8619   1.108   0.224   0.286
 2574SOL     OW 8620   6.743   3.279   1.541
 2574SOL    HW1 8621   6.744   3.301   1.443
 2574SOL    HW2 8622   6.655   3.305   1.581
 2575SOL     OW 8623   0.848   0.363   5.169
 2575SOL    HW1 8624   0.895   0.305   5.235
 2575SOL    HW2 8625   0.750   0.343   5.171
 2576SOL     OW 8626   4.406   6.336   5.502
 2576SOL    HW1 8627   4.357   6.423   5.508
 2576SOL    HW2 8628   4.462   6.324   5.584
 2577SOL     OW 8629   1.732   3.894   2.454
 2577SOL    HW1 8630   1.768   3.874   2.545
 2577SOL    HW2 8631   1.802   3.943   2.401
 2578SOL     OW 8632   4.066   1.302   1.971
 2578SOL    HW1 8633   4.116   1.289   1.886
 2578SOL    HW2 8634   4.074   1.397   2.000
 2579SOL     OW 8635   0.208   6.471   3.016
 2579SOL    HW1 8636   0.276   6.418   3.068
 2579SOL    HW2 8637   0.193   6.559   3.061
 2580SOL     OW 8638   3.009   2.048   5.421
 2580SOL    HW1 8639   2.951   1.987   5.474
 2580SOL    HW2 8640   3.102   2.047   5.459
 2581SOL     OW 8641   3.765   0.624   5.785
 2581SOL    HW1 8642   3.726   0.595   5.872
 2581SOL    HW2 8643   3.774   0.724   5.785
 2582SOL     OW 8644   0.412   3.487   0.299
 2582SOL    HW1 8645   0.486   3.444   0.350
 2582SOL    HW2 8646   0.324   3.463   0.340
 2583SOL     OW 8647   5.014   1.209   0.833
 2583SOL    HW1 8648   4.969   1.270   0.768
 2583SOL    HW2 8649   5.097   1.171   0.792
 2584SOL     OW 8650   3.202   4.397   6.711
 2584SOL    HW1 8651   3.288   4.371   6.755
 2584SOL    HW2 8652   3.209   4.383   6.613
 2585SOL     OW 8653   2.000   5.214   0.152
 2585SOL    HW1 8654   2.058   5.264   0.216
 2585SOL    HW2 8655   2.014   5.115   0.164
 2586SOL     OW 8656   1.637   1.543   2.694
 2586SOL    HW1 8657   1.659   1.528   2.598
 2586SOL    HW2 8658   1.706   1.602   2.735
 2587SOL     OW 8659   5.761   0.999   3.984
 2587SOL    HW1 8660   5.811   0.913   3.991
 2587SOL    HW2 8661   5.666   0.985   4.013
 2588SOL     OW 8662   4.824   1.718   6.272
 2588SOL    HW1 8663   4.814   1.796   6.209
 2588SOL    HW2 8664   4.822   1.750   6.366
 2589SOL     OW 8665   1.195   5.828   0.330
 2589SOL    HW1 8666   1.156   5.796   0.416
 2589SOL    HW2 8667   1.164   5.922   0.313
 2590SOL     OW 8668   2.703   4.812   0.596
 2590SOL    HW1 8669   2.611   4.798   0.632
 2590SOL    HW2 8670   2.711   4.768   0.506
 2591SOL     OW 8671   4.711   6.589   3.003
 2591SOL    HW1 8672   4.748   6.670   2.956
 2591SOL    HW2 8673   4.675   6.617   3.093
 2592SOL     OW 8674   3.573   3.591   0.655
 2592SOL    HW1 8675   3.478   3.573   0.627
 2592SOL    HW2 8676   3.618   3.646   0.586
 2593SOL     OW 8677   2.530   4.873   6.504
 2593SOL    HW1 8678   2.522   4.919   6.416
 2593SOL    HW2 8679   2.586   4.790   6.494
 2594SOL     OW 8680   2.141   2.936   3.163
 2594SOL    HW1 8681   2.206   2.903   3.095
 2594SOL    HW2 8682   2.151   2.884   3.248
 2595SOL     OW 8683   1.479   0.894   2.663
 2595SOL    HW1 8684   1.466   0.850   2.751
 2595SOL    HW2 8685   1.449   0.990   2.669
 2596SOL     OW 8686   6.817   0.577   1.106
 2596SOL    HW1 8687   6.812   0.515   1.027
 2596SOL    HW2 8688   6.866   0.660   1.080
 2597SOL     OW 8689   5.949   6.205   0.389
 2597SOL    HW1 8690   6.010   6.281   0.366
 2597SOL    HW2 8691   6.002   6.121   0.399
 2598SOL     OW 8692   4.672   2.732   2.106
 2598SOL    HW1 8693   4.575   2.734   2.132
 2598SOL    HW2 8694   4.702   2.824   2.082
 2599SOL     OW 8695   2.115   5.486   1.790
 2599SOL    HW1 8696   2.028   5.460   1.833
 2599SOL    HW2 8697   2.110   5.581   1.759
 2600SOL     OW 8698   5.602   5.480   4.148
 2600SOL    HW1 8699   5.639   5.538   4.076
 2600SOL    HW2 8700   5.550   5.405   4.107
 2601SOL     OW 8701   6.858   1.437   3.028
 2601SOL    HW1 8702   6.866   1.443   2.929
 2601SOL    HW2 8703   6.941   1.473   3.070
 2602SOL     OW 8704   2.000   4.697   3.253
 2602SOL    HW1 8705   1.932   4.624   3.253
 2602SOL    HW2 8706   2.034   4.711   3.160
 2603SOL     OW 8707   1.318   5.896   1.418
 2603SOL    HW1 8708   1.235   5.899   1.363
 2603SOL    HW2 8709   1.359   5.988   1.421
 2604SOL     OW 8710   5.197   3.099   3.013
 2604SOL    HW1 8711   5.238   3.041   2.942
 2604SOL    HW2 8712   5.101   3.115   2.990
 2605SOL     OW 8713   1.165   2.040   0.772
 2605SOL    HW1 8714   1.162   2.129   0.817
 2605SOL    HW2 8715   1.259   2.016   0.750
 2606SOL     OW 8716   5.328   3.789   0.989
 2606SOL    HW1 8717   5.412   3.785   1.044
 2606SOL    HW2 8718   5.293   3.883   0.988
 2607SOL     OW 8719   2.388   2.789   1.786
 2607SOL    HW1 8720   2.326   2.829   1.854
 2607SOL    HW2 8721   2.338   2.774   1.701
 2608SOL     OW 8722   3.201   4.862   5.307
 2608SOL    HW1 8723   3.156   4.776   5.328
 2608SOL    HW2 8724   3.294   4.862   5.345
 2609SOL     OW 8725   0.088   1.323   1.997
 2609SOL    HW1 8726   0.153   1.390   1.961
 2609SOL    HW2 8727   0.006   1.321   1.939
 2610SOL     OW 8728   1.405   4.697   5.133
 2610SOL    HW1 8729   1.376   4.672   5.040
 2610SOL    HW2 8730   1.484   4.641   5.159
 2611SOL     OW 8731   5.300   2.263   5.316
 2611SOL    HW1 8732   5.366   2.198   5.280
 2611SOL    HW2 8733   5.330   2.356   5.293
 2612SOL     OW 8734   6.552   5.756   0.189
 2612SOL    HW1 8735   6.568   5.842   0.139
 2612SOL    HW2 8736   6.456   5.729   0.178
 2613SOL     OW 8737   1.933   0.235   0.643
 2613SOL    HW1 8738   1.836   0.215   0.635
 2613SOL    HW2 8739   1.985   0.161   0.600
 2614SOL     OW 8740   6.200   1.782   0.569
 2614SOL    HW1 8741   6.271   1.849   0.590
 2614SOL    HW2 8742   6.214   1.747   0.476
 2615SOL     OW 8743   1.191   3.052   6.973
 2615SOL    HW1 8744   1.272   3.110   6.967
 2615SOL    HW2 8745   1.111   3.108   6.993
 2616SOL     OW 8746   1.523   1.499   4.925
 2616SOL    HW1 8747   1.456   1.569   4.902
 2616SOL    HW2 8748   1.530   1.433   4.849
 2617SOL     OW 8749   5.872   0.173   6.871
 2617SOL    HW1 8750   5.812   0.180   6.791
 2617SOL    HW2 8751   5.899   0.078   6.885
 2618SOL     OW 8752   1.916   0.066   0.035
 2618SOL    HW1 8753   1.959   0.008   0.105
 2618SOL    HW2 8754   1.896   0.156   0.074
 2619SOL     OW 8755   4.262   0.790   2.679
 2619SOL    HW1 8756   4.290   0.753   2.767
 2619SOL    HW2 8757   4.166   0.817   2.683
 2620SOL     OW 8758   5.936   2.559   1.940
 2620SOL    HW1 8759   5.967   2.645   1.979
 2620SOL    HW2 8760   5.929   2.567   1.840
 2621SOL     OW 8761   2.173   6.219   0.886
 2621SOL    HW1 8762   2.098   6.222   0.952
 2621SOL    HW2 8763   2.145   6.164   0.807
 2622SOL     OW 8764   2.117   3.422   0.361
 2622SOL    HW1 8765   2.206   3.453   0.392
 2622SOL    HW2 8766   2.056   3.410   0.439
 2623SOL     OW 8767   0.222   2.020   4.135
 2623SOL    HW1 8768   0.163   2.068   4.070
 2623SOL    HW2 8769   0.194   2.043   4.228
 2624SOL     OW 8770   1.440   0.934   5.345
 2624SOL    HW1 8771   1.449   0.981   5.433
 2624SOL    HW2 8772   1.374   0.860   5.353
 2625SOL     OW 8773   3.197   5.460   6.155
 2625SOL    HW1 8774   3.276   5.511   6.121
 2625SOL    HW2 8775   3.115   5.516   6.146
 2626SOL     OW 8776   6.873   6.765   0.746
 2626SOL    HW1 8777   6.860   6.679   0.697
 2626SOL    HW2 8778   6.965   6.801   0.725
 2627SOL     OW 8779   2.471   0.134   5.608
 2627SOL    HW1 8780   2.556   0.156   5.559
 2627SOL    HW2 8781   2.409   0.212   5.604
 2628SOL     OW 8782   0.067   5.491   1.673
 2628SOL    HW1 8783   0.140   5.544   1.715
 2628SOL    HW2 8784   7.004   5.509   1.719
 2629SOL     OW 8785   3.081   3.664   2.461
 2629SOL    HW1 8786   3.025   3.741   2.490
 2629SOL    HW2 8787   3.110   3.677   2.366
 2630SOL     OW 8788   3.082   1.424   4.759
 2630SOL    HW1 8789   3.095   1.339   4.708
 2630SOL    HW2 8790   3.037   1.492   4.700
 2631SOL     OW 8791   5.465   5.509   0.381
 2631SOL    HW1 8792   5.548   5.508   0.436
 2631SOL    HW2 8793   5.385   5.512   0.442
 2632SOL     OW 8794   4.294   5.449   2.042
 2632SOL    HW1 8795   4.221   5.388   2.011
 2632SOL    HW2 8796   4.338   5.410   2.122
 2633SOL     OW 8797   6.589   2.937   6.122
 2633SOL    HW1 8798   6.667   2.998   6.133
 2633SOL    HW2 8799   6.547   2.952   6.032
 2634SOL     OW 8800   2.263   1.777   6.203
 2634SOL    HW1 8801   2.226   1.773   6.295
 2634SOL    HW2 8802   2.286   1.685   6.172
 2635SOL     OW 8803   4.243   5.630   3.381
 2635SOL    HW1 8804   4.170   5.697   3.396
 2635SOL    HW2 8805   4.269   5.628   3.285
 2636SOL     OW 8806   3.308   6.736   6.038
 2636SOL    HW1 8807   3.229   6.686   6.003
 2636SOL    HW2 8808   3.392   6.697   6.000
 2637SOL     OW 8809   6.501   1.139   2.953
 2637SOL    HW1 8810   6.513   1.196   3.035
 2637SOL    HW2 8811   6.521   1.193   2.872
 2638SOL     OW 8812   0.188   6.316   4.866
 2638SOL    HW1 8813   0.288   6.312   4.870
 2638SOL    HW2 8814   0.155   6.263   4.789
 2639SOL     OW 8815   5.116   5.412   4.979
 2639SOL    HW1 8816   5.058   5.370   5.049
 2639SOL    HW2 8817   5.071   5.494   4.944
 2640SOL     OW 8818   1.745   0.623   2.799
 2640SOL    HW1 8819   1.655   0.668   2.790
 2640SOL    HW2 8820   1.800   0.673   2.866
 2641SOL     OW 8821   5.186   2.159   1.071
 2641SOL    HW1 8822   5.179   2.150   0.972
 2641SOL    HW2 8823   5.096   2.180   1.109
 2642SOL     OW 8824   0.322   0.699   2.811
 2642SOL    HW1 8825   0.271   0.709   2.897
 2642SOL    HW2 8826   0.288   0.619   2.761
 2643SOL     OW 8827   1.565   4.941   4.704
 2643SOL    HW1 8828   1.637   4.890   4.751
 2643SOL    HW2 8829   1.553   5.030   4.747
 2644SOL     OW 8830   5.711   5.134   3.477
 2644SOL    HW1 8831   5.805   5.112   3.451
 2644SOL    HW2 8832   5.696   5.233   3.469
 2645SOL     OW 8833   4.522   5.579   2.657
 2645SOL    HW1 8834   4.471   5.617   2.734
 2645SOL    HW2 8835   4.531   5.480   2.668
 2646SOL     OW 8836   1.340   1.256   6.709
 2646SOL    HW1 8837   1.327   1.279   6.613
 2646SOL    HW2 8838   1.324   1.337   6.766
 2647SOL     OW 8839   4.329   0.301   2.789
 2647SOL    HW1 8840   4.250   0.334   2.737
 2647SOL    HW2 8841   4.304   0.218   2.840
 2648SOL     OW 8842   2.163   0.427   5.861
 2648SOL    HW1 8843   2.096   0.369   5.814
 2648SOL    HW2 8844   2.249   0.424   5.812
 2649SOL     OW 8845   5.682   1.925   3.571
 2649SOL    HW1 8846   5.689   1.832   3.537
 2649SOL    HW2 8847   5.643   1.984   3.501
 2650SOL     OW 8848   1.506   6.660   4.505
 2650SOL    HW1 8849   1.408   6.679   4.513
 2650SOL    HW2 8850   1.534   6.668   4.409
 2651SOL     OW 8851   3.060   1.899   2.767
 2651SOL    HW1 8852   3.120   1.963   2.718
 2651SOL    HW2 8853   2.972   1.944   2.786
 2652SOL     OW 8854   4.020   3.701   6.332
 2652SOL    HW1 8855   4.022   3.602   6.338
 2652SOL    HW2 8856   3.938   3.730   6.282
 2653SOL     OW 8857   2.311   6.796   0.552
 2653SOL    HW1 8858   2.363   6.800   0.638
 2653SOL    HW2 8859   2.363   6.744   0.485
 2654SOL     OW 8860   6.474   0.008   1.343
 2654SOL    HW1 8861   6.454   6.954   1.404
 2654SOL    HW2 8862   6.405   0.079   1.357
 2655SOL     OW 8863   5.716   6.256   3.972
 2655SOL    HW1 8864   5.807   6.287   4.001
 2655SOL    HW2 8865   5.662   6.231   4.052
 2656SOL     OW 8866   5.567   0.220   4.934
 2656SOL    HW1 8867   5.549   0.179   4.845
 2656SOL    HW2 8868   5.632   0.163   4.984
 2657SOL     OW 8869   1.656   3.465   5.836
 2657SOL    HW1 8870   1.628   3.439   5.928
 2657SOL    HW2 8871   1.746   3.426   5.816
 2658SOL     OW 8872   3.505   4.034   0.764
 2658SOL    HW1 8873   3.452   4.031   0.679
 2658SOL    HW2 8874   3.449   4.075   0.837
 2659SOL     OW 8875   0.344   2.385   5.643
 2659SOL    HW1 8876   0.385   2.463   5.595
 2659SOL    HW2 8877   0.260   2.357   5.596
 2660SOL     OW 8878   0.982   1.327   0.518
 2660SOL    HW1 8879   1.043   1.334   0.439
 2660SOL    HW2 8880   0.890   1.356   0.491
 2661SOL     OW 8881   1.923   1.427   2.006
 2661SOL    HW1 8882   1.859   1.363   2.048
 2661SOL    HW2 8883   2.009   1.379   1.986
 2662SOL     OW 8884   3.078   1.551   1.375
 2662SOL    HW1 8885   3.056   1.544   1.473
 2662SOL    HW2 8886   3.122   1.638   1.357
 2663SOL     OW 8887   3.769   0.167   1.023
 2663SOL    HW1 8888   3.778   0.171   0.924
 2663SOL    HW2 8889   3.855   0.135   1.063
 2664SOL     OW 8890   4.702   3.357   5.362
 2664SOL    HW1 8891   4.720   3.412   5.443
 2664SOL    HW2 8892   4.703   3.416   5.281
 2665SOL     OW 8893   1.358   3.556   4.422
 2665SOL    HW1 8894   1.357   3.631   4.356
 2665SOL    HW2 8895   1.452   3.524   4.436
 2666SOL     OW 8896   1.883   3.581   1.995
 2666SOL    HW1 8897   1.893   3.663   1.938
 2666SOL    HW2 8898   1.800   3.589   2.050
 2667SOL     OW 8899   6.385   2.519   4.396
 2667SOL    HW1 8900   6.311   2.585   4.382
 2667SOL    HW2 8901   6.458   2.563   4.449
 2668SOL     OW 8902   6.042   0.722   3.421
 2668SOL    HW1 8903   6.042   0.813   3.380
 2668SOL    HW2 8904   5.956   0.706   3.468
 2669SOL     OW 8905   2.525   2.061   1.959
 2669SOL    HW1 8906   2.578   2.118   2.021
 2669SOL    HW2 8907   2.529   2.099   1.867
 2670SOL     OW 8908   0.530   6.641   1.378
 2670SOL    HW1 8909   0.583   6.665   1.460
 2670SOL    HW2 8910   0.439   6.611   1.405
 2671SOL     OW 8911   5.014   4.227   6.680
 2671SOL    HW1 8912   5.002   4.214   6.582
 2671SOL    HW2 8913   5.050   4.318   6.698
 2672SOL     OW 8914   1.954   0.904   2.456
 2672SOL    HW1 8915   1.973   0.887   2.552
 2672SOL    HW2 8916   1.862   0.871   2.433
 2673SOL     OW 8917   3.091   0.848   3.801
 2673SOL    HW1 8918   3.037   0.891   3.873
 2673SOL    HW2 8919   3.064   0.887   3.712
 2674SOL     OW 8920   5.337   5.641   2.718
 2674SOL    HW1 8921   5.254   5.585   2.712
 2674SOL    HW2 8922   5.345   5.697   2.635
 2675SOL     OW 8923   4.984   0.919   3.886
 2675SOL    HW1 8924   4.940   1.009   3.885
 2675SOL    HW2 8925   4.920   0.851   3.851
 2676SOL     OW 8926   3.741   3.662   5.610
 2676SOL    HW1 8927   3.656   3.631   5.652
 2676SOL    HW2 8928   3.736   3.647   5.511
 2677SOL     OW 8929   1.684   5.267   1.378
 2677SOL    HW1 8930   1.597   5.312   1.399
 2677SOL    HW2 8931   1.759   5.333   1.386
 2678SOL     OW 8932   3.487   1.817   1.692
 2678SOL    HW1 8933   3.488   1.798   1.790
 2678SOL    HW2 8934   3.395   1.802   1.656
 2679SOL     OW 8935   2.384   4.320   2.497
 2679SOL    HW1 8936   2.378   4.326   2.597
 2679SOL    HW2 8937   2.398   4.411   2.459
 2680SOL     OW 8938   6.095   1.858   6.687
 2680SOL    HW1 8939   6.079   1.906   6.601
 2680SOL    HW2 8940   6.078   1.761   6.675
 2681SOL     OW 8941   2.282   2.885   2.869
 2681SOL    HW1 8942   2.331   2.888   2.782
 2681SOL    HW2 8943   2.276   2.790   2.900
 2682SOL     OW 8944   3.580   4.048   2.649
 2682SOL    HW1 8945   3.649   4.076   2.582
 2682SOL    HW2 8946   3.539   3.961   2.621
 2683SOL     OW 8947   1.927   3.239   1.209
 2683SOL    HW1 8948   1.860   3.313   1.209
 2683SOL    HW2 8949   2.005   3.265   1.152
 2684SOL     OW 8950   5.660   0.334   3.501
 2684SOL    HW1 8951   5.750   0.323   3.544
 2684SOL    HW2 8952   5.626   0.245   3.472
 2685SOL     OW 8953   2.107   6.600   5.814
 2685SOL    HW1 8954   2.126   6.675   5.878
 2685SOL    HW2 8955   2.137   6.513   5.854
 2686SOL     OW 8956   2.452   2.016   5.757
 2686SOL    HW1 8957   2.528   2.076   5.733
 2686SOL    HW2 8958   2.454   1.997   5.855
 2687SOL     OW 8959   3.620   2.507   1.683
 2687SOL    HW1 8960   3.716   2.516   1.709
 2687SOL    HW2 8961   3.569   2.466   1.758
 2688SOL     OW 8962   4.701   2.167   0.343
 2688SOL    HW1 8963   4.677   2.105   0.268
 2688SOL    HW2 8964   4.644   2.248   0.339
 2689SOL     OW 8965   0.645   3.955   2.088
 2689SOL    HW1 8966   0.691   4.042   2.070
 2689SOL    HW2 8967   0.558   3.973   2.135
 2690SOL     OW 8968   5.202   1.050   4.676
 2690SOL    HW1 8969   5.110   1.020   4.650
 2690SOL    HW2 8970   5.269   1.013   4.611
 2691SOL     OW 8971   5.617   3.678   3.775
 2691SOL    HW1 8972   5.664   3.696   3.862
 2691SOL    HW2 8973   5.544   3.745   3.763
 2692SOL     OW 8974   0.966   5.882   0.922
 2692SOL    HW1 8975   1.056   5.910   0.889
 2692SOL    HW2 8976   0.978   5.825   1.004
 2693SOL     OW 8977   1.160   6.068   2.866
 2693SOL    HW1 8978   1.063   6.088   2.882
 2693SOL    HW2 8979   1.168   6.002   2.791
 2694SOL     OW 8980   2.692   0.774   2.702
 2694SOL    HW1 8981   2.598   0.807   2.691
 2694SOL    HW2 8982   2.742   0.836   2.762
 2695SOL     OW 8983   6.702   6.388   2.952
 2695SOL    HW1 8984   6.792   6.422   2.926
 2695SOL    HW2 8985   6.690   6.396   3.051
 2696SOL     OW 8986   3.654   4.482   6.046
 2696SOL    HW1 8987   3.677   4.559   6.106
 2696SOL    HW2 8988   3.554   4.470   6.044
 2697SOL     OW 8989   4.703   2.853   0.248
 2697SOL    HW1 8990   4.759   2.909   0.308
 2697SOL    HW2 8991   4.629   2.909   0.210
 2698SOL     OW 8992   2.177   5.679   0.553
 2698SOL    HW1 8993   2.177   5.671   0.453
 2698SOL    HW2 8994   2.097   5.632   0.590
 2699SOL     OW 8995   2.907   0.104   2.693
 2699SOL    HW1 8996   3.006   0.106   2.711
 2699SOL    HW2 8997   2.889   0.147   2.604
 2700SOL     OW 8998   4.796   2.203   0.692
 2700SOL    HW1 8999   4.796   2.113   0.649
 2700SOL    HW2 9000   4.838   2.197   0.783
 2701SOL     OW 9001   5.374   4.182   5.444
 2701SOL    HW1 9002   5.446   4.234   5.491
 2701SOL    HW2 9003   5.415   4.104   5.397
 2702SOL     OW 9004   1.437   2.220   4.997
 2702SOL    HW1 9005   1.468   2.257   4.909
 2702SOL    HW2 9006   1.489   2.138   5.018
 2703SOL     OW 9007   2.213   6.157   1.387
 2703SOL    HW1 9008   2.128   6.116   1.419
 2703SOL    HW2 9009   2.251   6.102   1.312
 2704SOL     OW 9010   4.436   0.634   3.351
 2704SOL    HW1 9011   4.355   0.693   3.345
 2704SOL    HW2 9012   4.508   0.680   3.403
 2705SOL     OW 9013   1.133   0.608   5.575
 2705SOL    HW1 9014   1.037   0.584   5.563
 2705SOL    HW2 9015   1.174   0.547   5.643
 2706SOL     OW 9016   1.134   4.677   4.705
 2706SOL    HW1 9017   1.219   4.686   4.757
 2706SOL    HW2 9018   1.154   4.646   4.612
 2707SOL     OW 9019   3.995   0.771   2.752
 2707SOL    HW1 9020   4.015   0.696   2.814
 2707SOL    HW2 9021   3.921   0.827   2.790
 2708SOL     OW 9022   5.387   3.304   5.162
 2708SOL    HW1 9023   5.427   3.262   5.080
 2708SOL    HW2 9024   5.288   3.314   5.148
 2709SOL     OW 9025   5.037   1.412   5.285
 2709SOL    HW1 9026   5.012   1.317   5.302
 2709SOL    HW2 9027   5.015   1.467   5.366
 2710SOL     OW 9028   0.857   3.033   4.197
 2710SOL    HW1 9029   0.938   3.080   4.230
 2710SOL    HW2 9030   0.874   2.934   4.195
 2711SOL     OW 9031   4.702   0.668   1.149
 2711SOL    HW1 9032   4.669   0.665   1.055
 2711SOL    HW2 9033   4.629   0.701   1.209
 2712SOL     OW 9034   4.495   6.408   1.609
 2712SOL    HW1 9035   4.547   6.383   1.527
 2712SOL    HW2 9036   4.421   6.342   1.622
 2713SOL     OW 9037   4.124   4.679   5.367
 2713SOL    HW1 9038   4.221   4.693   5.346
 2713SOL    HW2 9039   4.102   4.725   5.453
 2714SOL     OW 9040   3.119   4.084   5.997
 2714SOL    HW1 9041   3.104   4.165   5.942
 2714SOL    HW2 9042   3.091   4.101   6.091
 2715SOL     OW 9043   4.332   6.945   0.307
 2715SOL    HW1 9044   4.317   6.992   0.220
 2715SOL    HW2 9045   4.403   6.994   0.358
 2716SOL     OW 9046   4.479   0.699   2.067
 2716SOL    HW1 9047   4.513   0.790   2.090
 2716SOL    HW2 9048   4.554   0.632   2.074
 2717SOL     OW 9049   0.021   1.585   1.865
 2717SOL    HW1 9050   6.968   1.557   1.925
 2717SOL    HW2 9051   0.007   1.680   1.836
 2718SOL     OW 9052   5.903   1.242   6.519
 2718SOL    HW1 9053   5.974   1.172   6.526
 2718SOL    HW2 9054   5.862   1.239   6.428
 2719SOL     OW 9055   1.127   4.316   4.387
 2719SOL    HW1 9056   1.027   4.314   4.392
 2719SOL    HW2 9057   1.161   4.404   4.419
 2720SOL     OW 9058   1.855   4.724   6.241
 2720SOL    HW1 9059   1.812   4.663   6.174
 2720SOL    HW2 9060   1.847   4.684   6.332
 2721SOL     OW 9061   2.698   5.977   3.736
 2721SOL    HW1 9062   2.638   5.928   3.798
 2721SOL    HW2 9063   2.686   5.942   3.643
 2722SOL     OW 9064   3.060   4.621   6.777
 2722SOL    HW1 9065   2.973   4.600   6.821
 2722SOL    HW2 9066   3.111   4.537   6.761
 2723SOL     OW 9067   4.703   4.939   0.370
 2723SOL    HW1 9068   4.636   4.998   0.324
 2723SOL    HW2 9069   4.694   4.949   0.469
 2724SOL     OW 9070   0.118   6.090   1.155
 2724SOL    HW1 9071   0.098   6.125   1.246
 2724SOL    HW2 9072   0.069   6.004   1.141
 2725SOL     OW 9073   5.917   4.048   3.116
 2725SOL    HW1 9074   5.976   3.973   3.146
 2725SOL    HW2 9075   5.895   4.107   3.193
 2726SOL     OW 9076   6.349   2.240   2.325
 2726SOL    HW1 9077   6.278   2.220   2.392
 2726SOL    HW2 9078   6.426   2.284   2.370
 2727SOL     OW 9079   1.383   4.557   3.768
 2727SOL    HW1 9080   1.360   4.496   3.693
 2727SOL    HW2 9081   1.382   4.506   3.854
 2728SOL     OW 9082   4.294   4.140   6.481
 2728SOL    HW1 9083   4.279   4.045   6.508
 2728SOL    HW2 9084   4.288   4.148   6.382
 2729SOL     OW 9085   0.329   0.099   0.920
 2729SOL    HW1 9086   0.424   0.078   0.895
 2729SOL    HW2 9087   0.307   0.055   1.007
 2730SOL     OW 9088   1.006   5.255   2.878
 2730SOL    HW1 9089   1.083   5.302   2.922
 2730SOL    HW2 9090   1.011   5.269   2.779
 2731SOL     OW 9091   3.824   3.706   5.340
 2731SOL    HW1 9092   3.785   3.672   5.254
 2731SOL    HW2 9093   3.923   3.715   5.330
 2732SOL     OW 9094   4.490   0.971   2.155
 2732SOL    HW1 9095   4.438   1.019   2.226
 2732SOL    HW2 9096   4.456   0.999   2.065
 2733SOL     OW 9097   0.430   0.362   0.218
 2733SOL    HW1 9098   0.362   0.362   0.145
 2733SOL    HW2 9099   0.465   0.455   0.230
 2734SOL     OW 9100   3.543   0.238   1.826
 2734SOL    HW1 9101   3.618   0.180   1.795
 2734SOL    HW2 9102   3.457   0.187   1.819
 2735SOL     OW 9103   0.823   2.965   3.094
 2735SOL    HW1 9104   0.882   2.885   3.112
 2735SOL    HW2 9105   0.880   3.046   3.084
 2736SOL     OW 9106   5.543   4.448   2.133
 2736SOL    HW1 9107   5.601   4.436   2.214
 2736SOL    HW2 9108   5.511   4.543   2.128
 2737SOL     OW 9109   2.768   0.291   6.303
 2737SOL    HW1 9110   2.733   0.269   6.395
 2737SOL    HW2 9111   2.739   0.220   6.239
 2738SOL     OW 9112   5.258   5.749   1.556
 2738SOL    HW1 9113   5.305   5.661   1.546
 2738SOL    HW2 9114   5.162   5.732   1.579
 2739SOL     OW 9115   0.474   5.457   1.746
 2739SOL    HW1 9116   0.437   5.520   1.814
 2739SOL    HW2 9117   0.510   5.376   1.793
 2740SOL     OW 9118   6.266   6.002   5.153
 2740SOL    HW1 9119   6.199   5.929   5.168
 2740SOL    HW2 9120   6.247   6.078   5.215
 2741SOL     OW 9121   6.995   6.730   0.364
 2741SOL    HW1 9122   6.920   6.727   0.298
 2741SOL    HW2 9123   7.014   6.638   0.398
 2742SOL     OW 9124   2.737   4.938   1.640
 2742SOL    HW1 9125   2.730   4.873   1.716
 2742SOL    HW2 9126   2.807   4.907   1.576
 2743SOL     OW 9127   5.028   2.014   3.669
 2743SOL    HW1 9128   5.112   2.018   3.614
 2743SOL    HW2 9129   4.952   1.985   3.610
 2744SOL     OW 9130   3.229   3.709   2.911
 2744SOL    HW1 9131   3.150   3.737   2.857
 2744SOL    HW2 9132   3.311   3.712   2.855
 2745SOL     OW 9133   0.839   6.203   6.720
 2745SOL    HW1 9134   0.816   6.108   6.738
 2745SOL    HW2 9135   0.939   6.214   6.721
 2746SOL     OW 9136   1.705   0.778   4.193
 2746SOL    HW1 9137   1.776   0.732   4.139
 2746SOL    HW2 9138   1.725   0.768   4.290
 2747SOL     OW 9139   5.353   5.077   0.469
 2747SOL    HW1 9140   5.369   4.979   0.480
 2747SOL    HW2 9141   5.378   5.104   0.376
 2748SOL     OW 9142   4.404   0.501   7.017
 2748SOL    HW1 9143   4.409   0.519   0.092
 2748SOL    HW2 9144   4.418   0.587   6.967
 2749SOL     OW 9145   4.705   0.971   6.625
 2749SOL    HW1 9146   4.611   0.987   6.597
 2749SOL    HW2 9147   4.706   0.933   6.717
 2750SOL     OW 9148   1.992   6.040   1.602
 2750SOL    HW1 9149   1.917   6.100   1.629
 2750SOL    HW2 9150   2.079   6.078   1.634
 2751SOL     OW 9151   6.563   5.783   1.850
 2751SOL    HW1 9152   6.481   5.749   1.805
 2751SOL    HW2 9153   6.629   5.709   1.859
 2752SOL     OW 9154   4.192   5.249   6.797
 2752SOL    HW1 9155   4.179   5.157   6.758
 2752SOL    HW2 9156   4.253   5.243   6.875
 2753SOL     OW 9157   4.357   5.088   5.146
 2753SOL    HW1 9158   4.426   5.125   5.208
 2753SOL    HW2 9159   4.303   5.020   5.195
 2754SOL     OW 9160   1.021   0.800   4.079
 2754SOL    HW1 9161   1.039   0.861   4.002
 2754SOL    HW2 9162   0.972   0.719   4.046
 2755SOL     OW 9163   3.527   0.615   2.032
 2755SOL    HW1 9164   3.434   0.599   1.998
 2755SOL    HW2 9165   3.544   0.713   2.037
 2756SOL     OW 9166   4.323   5.468   5.848
 2756SOL    HW1 9167   4.262   5.426   5.917
 2756SOL    HW2 9168   4.269   5.494   5.768
 2757SOL     OW 9169   1.228   4.753   0.420
 2757SOL    HW1 9170   1.244   4.680   0.354
 2757SOL    HW2 9171   1.137   4.792   0.406
 2758SOL     OW 9172   5.389   7.009   5.584
 2758SOL    HW1 9173   5.342   6.929   5.547
 2758SOL    HW2 9174   5.323   0.058   5.604
 2759SOL     OW 9175   4.346   4.830   2.909
 2759SOL    HW1 9176   4.440   4.859   2.893
 2759SOL    HW2 9177   4.345   4.735   2.939
 2760SOL     OW 9178   0.578   6.971   3.537
 2760SOL    HW1 9179   0.555   7.015   3.450
 2760SOL    HW2 9180   0.591   6.873   3.522
 2761SOL     OW 9181   2.553   4.620   5.048
 2761SOL    HW1 9182   2.651   4.609   5.065
 2761SOL    HW2 9183   2.506   4.534   5.067
 2762SOL     OW 9184   1.795   2.149   5.887
 2762SOL    HW1 9185   1.879   2.202   5.889
 2762SOL    HW2 9186   1.726   2.191   5.946
 2763SOL     OW 9187   5.862   0.368   1.858
 2763SOL    HW1 9188   5.847   0.447   1.799
 2763SOL    HW2 9189   5.820   0.287   1.817
 2764SOL     OW 9190   6.320   0.345   1.207
 2764SOL    HW1 9191   6.273   0.409   1.268
 2764SOL    HW2 9192   6.390   0.394   1.155
 2765SOL     OW 9193   5.264   1.562   3.335
 2765SOL    HW1 9194   5.253   1.660   3.350
 2765SOL    HW2 9195   5.174   1.520   3.319
 2766SOL     OW 9196   4.692   6.507   2.385
 2766SOL    HW1 9197   4.752   6.467   2.316
 2766SOL    HW2 9198   4.700   6.607   2.382
 2767SOL     OW 9199   6.925   4.145   5.214
 2767SOL    HW1 9200   6.955   4.064   5.265
 2767SOL    HW2 9201   6.827   4.159   5.228
 2768SOL     OW 9202   5.414   0.549   5.836
 2768SOL    HW1 9203   5.350   0.616   5.872
 2768SOL    HW2 9204   5.420   0.471   5.899
 2769SOL     OW 9205   1.112   4.076   1.768
 2769SOL    HW1 9206   1.106   3.976   1.772
 2769SOL    HW2 9207   1.207   4.104   1.782
 2770SOL     OW 9208   4.158   6.647   2.321
 2770SOL    HW1 9209   4.083   6.583   2.305
 2770SOL    HW2 9210   4.230   6.602   2.375
 2771SOL     OW 9211   4.364   0.693   1.514
 2771SOL    HW1 9212   4.337   0.631   1.440
 2771SOL    HW2 9213   4.282   0.720   1.566
 2772SOL     OW 9214   3.684   0.688   0.814
 2772SOL    HW1 9215   3.674   0.589   0.825
 2772SOL    HW2 9216   3.594   0.728   0.798
 2773SOL     OW 9217   3.268   5.350   1.454
 2773SOL    HW1 9218   3.237   5.353   1.359
 2773SOL    HW2 9219   3.272   5.256   1.485
 2774SOL     OW 9220   4.947   2.988   1.900
 2774SOL    HW1 9221   4.943   3.048   1.820
 2774SOL    HW2 9222   4.870   3.009   1.961
 2775SOL     OW 9223   0.988   0.252   1.768
 2775SOL    HW1 9224   0.926   0.330   1.774
 2775SOL    HW2 9225   0.982   0.212   1.676
 2776SOL     OW 9226   2.681   5.766   0.061
 2776SOL    HW1 9227   2.658   5.711   7.004
 2776SOL    HW2 9228   2.646   5.859   0.049
 2777SOL     OW 9229   0.978   2.617   4.277
 2777SOL    HW1 9230   0.963   2.567   4.192
 2777SOL    HW2 9231   0.893   2.664   4.303
 2778SOL     OW 9232   3.418   2.319   5.323
 2778SOL    HW1 9233   3.336   2.343   5.272
 2778SOL    HW2 9234   3.472   2.254   5.271
 2779SOL     OW 9235   6.254   0.814   0.537
 2779SOL    HW1 9236   6.282   0.763   0.619
 2779SOL    HW2 9237   6.236   0.750   0.463
 2780SOL     OW 9238   3.022   6.635   6.313
 2780SOL    HW1 9239   2.984   6.684   6.391
 2780SOL    HW2 9240   2.983   6.672   6.228
 2781SOL     OW 9241   5.522   3.644   6.440
 2781SOL    HW1 9242   5.443   3.619   6.496
 2781SOL    HW2 9243   5.588   3.694   6.496
 2782SOL     OW 9244   3.708   0.536   6.028
 2782SOL    HW1 9245   3.668   0.566   6.115
 2782SOL    HW2 9246   3.664   0.451   5.998
 2783SOL     OW 9247   0.526   4.123   5.278
 2783SOL    HW1 9248   0.528   4.090   5.184
 2783SOL    HW2 9249   0.520   4.223   5.279
 2784SOL     OW 9250   2.762   1.789   1.575
 2784SOL    HW1 9251   2.747   1.868   1.636
 2784SOL    HW2 9252   2.795   1.712   1.629
 2785SOL     OW 9253   5.505   2.666   2.610
 2785SOL    HW1 9254   5.547   2.630   2.526
 2785SOL    HW2 9255   5.458   2.752   2.589
 2786SOL     OW 9256   3.914   0.401   0.768
 2786SOL    HW1 9257   3.944   0.305   0.772
 2786SOL    HW2 9258   3.828   0.410   0.818
 2787SOL     OW 9259   1.735   4.314   5.823
 2787SOL    HW1 9260   1.661   4.260   5.783
 2787SOL    HW2 9261   1.732   4.407   5.787
 2788SOL     OW 9262   2.218   2.373   0.464
 2788SOL    HW1 9263   2.280   2.321   0.523
 2788SOL    HW2 9264   2.271   2.423   0.396
 2789SOL     OW 9265   6.946   3.136   3.288
 2789SOL    HW1 9266   6.874   3.194   3.325
 2789SOL    HW2 9267   0.007   3.149   3.340
 2790SOL     OW 9268   3.115   6.402   4.921
 2790SOL    HW1 9269   3.183   6.337   4.885
 2790SOL    HW2 9270   3.046   6.352   4.974
 2791SOL     OW 9271   2.132   3.722   2.162
 2791SOL    HW1 9272   2.160   3.636   2.121
 2791SOL    HW2 9273   2.050   3.707   2.219
 2792SOL     OW 9274   0.311   1.935   6.188
 2792SOL    HW1 9275   0.374   2.007   6.214
 2792SOL    HW2 9276   0.240   1.972   6.128
 2793SOL     OW 9277   5.128   0.647   5.000
 2793SOL    HW1 9278   5.195   0.595   5.053
 2793SOL    HW2 9279   5.130   0.616   4.905
 2794SOL     OW 9280   0.626   1.346   2.569
 2794SOL    HW1 9281   0.607   1.307   2.479
 2794SOL    HW2 9282   0.661   1.439   2.559
 2795SOL     OW 9283   1.495   3.565   0.983
 2795SOL    HW1 9284   1.545   3.631   1.038
 2795SOL    HW2 9285   1.485   3.479   1.034
 2796SOL     OW 9286   3.998   5.179   2.228
 2796SOL    HW1 9287   3.942   5.249   2.271
 2796SOL    HW2 9288   4.095   5.196   2.247
 2797SOL     OW 9289   5.146   4.703   5.297
 2797SOL    HW1 9290   5.089   4.784   5.310
 2797SOL    HW2 9291   5.195   4.711   5.210
 2798SOL     OW 9292   2.159   3.869   3.152
 2798SOL    HW1 9293   2.195   3.952   3.109
 2798SOL    HW2 9294   2.129   3.806   3.081
 2799SOL     OW 9295   6.833   5.777   6.950
 2799SOL    HW1 9296   6.929   5.750   6.957
 2799SOL    HW2 9297   6.809   5.836   0.004
 2800SOL     OW 9298   2.830   0.726   6.470
 2800SOL    HW1 9299   2.834   0.696   6.565
 2800SOL    HW2 9300   2.923   0.737   6.435
 2801SOL     OW 9301   3.885   5.699   2.075
 2801SOL    HW1 9302   3.821   5.761   2.030
 2801SOL    HW2 9303   3.978   5.734   2.065
 2802SOL     OW 9304   6.462   0.379   6.554
 2802SOL    HW1 9305   6.373   0.336   6.566
 2802SOL    HW2 9306   6.516   0.327   6.488
 2803SOL     OW 9307   2.914   6.285   4.537
 2803SOL    HW1 9308   2.825   6.252   4.506
 2803SOL    HW2 9309   2.951   6.223   4.606
 2804SOL     OW 9310   0.546   5.333   2.473
 2804SOL    HW1 9311   0.493   5.405   2.428
 2804SOL    HW2 9312   0.640   5.365   2.488
 2805SOL     OW 9313   6.701   4.540   6.502
 2805SOL    HW1 9314   6.765   4.520   6.428
 2805SOL    HW2 9315   6.628   4.600   6.468
 2806SOL     OW 9316   5.447   4.263   2.753
 2806SOL    HW1 9317   5.533   4.231   2.714
 2806SOL    HW2 9318   5.389   4.184   2.773
 2807SOL     OW 9319   3.834   4.951   4.079
 2807SOL    HW1 9320   3.743   4.952   4.038
 2807SOL    HW2 9321   3.890   4.881   4.034
 2808SOL     OW 9322   4.287   0.079   4.256
 2808SOL    HW1 9323   4.240   0.149   4.203
 2808SOL    HW2 9324   4.385   0.083   4.238
 2809SOL     OW 9325   5.300   1.827   0.522
 2809SOL    HW1 9326   5.287   1.904   0.459
 2809SOL    HW2 9327   5.290   1.741   0.472
 2810SOL     OW 9328   2.869   1.029   6.046
 2810SOL    HW1 9329   2.926   1.060   5.970
 2810SOL    HW2 9330   2.814   0.951   6.018
 2811SOL     OW 9331   0.151   0.396   4.080
 2811SOL    HW1 9332   0.158   0.416   4.177
 2811SOL    HW2 9333   0.200   0.466   4.028
 2812SOL     OW 9334   4.789   4.420   2.766
 2812SOL    HW1 9335   4.732   4.501   2.781
 2812SOL    HW2 9336   4.855   4.411   2.841
 2813SOL     OW 9337   6.434   1.959   6.212
 2813SOL    HW1 9338   6.419   1.973   6.310
 2813SOL    HW2 9339   6.435   1.861   6.192
 2814SOL     OW 9340   5.842   4.827   5.541
 2814SOL    HW1 9341   5.835   4.755   5.610
 2814SOL    HW2 9342   5.760   4.884   5.543
 2815SOL     OW 9343   1.442   1.136   4.156
 2815SOL    HW1 9344   1.359   1.081   4.162
 2815SOL    HW2 9345   1.516   1.080   4.117
 2816SOL     OW 9346   3.966   6.221   3.528
 2816SOL    HW1 9347   4.015   6.174   3.601
 2816SOL    HW2 9348   3.943   6.155   3.456
 2817SOL     OW 9349   1.477   1.190   1.376
 2817SOL    HW1 9350   1.406   1.183   1.306
 2817SOL    HW2 9351   1.548   1.254   1.345
 2818SOL     OW 9352   1.195   2.259   6.525
 2818SOL    HW1 9353   1.230   2.348   6.555
 2818SOL    HW2 9354   1.207   2.249   6.427
 2819SOL     OW 9355   6.487   3.397   2.446
 2819SOL    HW1 9356   6.449   3.483   2.412
 2819SOL    HW2 9357   6.420   3.351   2.505
 2820SOL     OW 9358   5.489   3.361   4.095
 2820SOL    HW1 9359   5.582   3.386   4.119
 2820SOL    HW2 9360   5.440   3.331   4.177
 2821SOL     OW 9361   1.776   3.489   2.703
 2821SOL    HW1 9362   1.757   3.397   2.735
 2821SOL    HW2 9363   1.693   3.528   2.662
 2822SOL     OW 9364   3.415   2.366   0.627
 2822SOL    HW1 9365   3.416   2.452   0.677
 2822SOL    HW2 9366   3.321   2.339   0.608
 2823SOL     OW 9367   1.357   0.909   4.465
 2823SOL    HW1 9368   1.308   0.935   4.382
 2823SOL    HW2 9369   1.412   0.986   4.497
 2824SOL     OW 9370   3.232   2.861   6.107
 2824SOL    HW1 9371   3.275   2.798   6.043
 2824SOL    HW2 9372   3.152   2.903   6.065
 2825SOL     OW 9373   5.614   6.219   1.170
 2825SOL    HW1 9374   5.705   6.211   1.211
 2825SOL    HW2 9375   5.602   6.312   1.136
 2826SOL     OW 9376   6.026   4.027   5.048
 2826SOL    HW1 9377   6.090   3.952   5.068
 2826SOL    HW2 9378   5.939   3.989   5.016
 2827SOL     OW 9379   0.667   6.764   6.022
 2827SOL    HW1 9380   0.620   6.702   6.085
 2827SOL    HW2 9381   0.736   6.816   6.073
 2828SOL     OW 9382   3.693   2.492   6.152
 2828SOL    HW1 9383   3.647   2.515   6.066
 2828SOL    HW2 9384   3.639   2.526   6.229
 2829SOL     OW 9385   2.791   1.414   0.115
 2829SOL    HW1 9386   2.716   1.480   0.108
 2829SOL    HW2 9387   2.757   1.330   0.157
 2830SOL     OW 9388   3.307   4.116   0.190
 2830SOL    HW1 9389   3.267   4.177   0.259
 2830SOL    HW2 9390   3.239   4.095   0.120
 2831SOL     OW 9391   6.278   6.367   4.308
 2831SOL    HW1 9392   6.260   6.454   4.261
 2831SOL    HW2 9393   6.193   6.317   4.322
 2832SOL     OW 9394   0.676   0.719   2.108
 2832SOL    HW1 9395   0.745   0.699   2.039
 2832SOL    HW2 9396   0.697   0.805   2.153
 2833SOL     OW 9397   5.331   2.835   2.466
 2833SOL    HW1 9398   5.325   2.912   2.401
 2833SOL    HW2 9399   5.256   2.772   2.449
 2834SOL     OW 9400   4.826   1.160   4.972
 2834SOL    HW1 9401   4.922   1.174   4.994
 2834SOL    HW2 9402   4.802   1.215   4.892
 2835SOL     OW 9403   6.253   6.439   2.962
 2835SOL    HW1 9404   6.241   6.495   3.044
 2835SOL    HW2 9405   6.324   6.370   2.978
 2836SOL     OW 9406   6.456   6.533   1.567
 2836SOL    HW1 9407   6.460   6.539   1.467
 2836SOL    HW2 9408   6.548   6.537   1.604
 2837SOL     OW 9409   5.801   2.230   4.533
 2837SOL    HW1 9410   5.779   2.245   4.629
 2837SOL    HW2 9411   5.879   2.167   4.526
 2838SOL     OW 9412   1.877   4.859   4.085
 2838SOL    HW1 9413   1.802   4.793   4.085
 2838SOL    HW2 9414   1.913   4.867   4.178
 2839SOL     OW 9415   4.983   2.981   1.432
 2839SOL    HW1 9416   4.950   2.887   1.430
 2839SOL    HW2 9417   4.907   3.043   1.449
 2840SOL     OW 9418   0.674   2.650   5.146
 2840SOL    HW1 9419   0.609   2.660   5.221
 2840SOL    HW2 9420   0.715   2.739   5.126
 2841SOL     OW 9421   0.092   5.940   0.157
 2841SOL    HW1 9422   0.169   5.923   0.094
 2841SOL    HW2 9423   0.090   5.869   0.227
 2842SOL     OW 9424   5.215   3.373   2.613
 2842SOL    HW1 9425   5.163   3.432   2.675
 2842SOL    HW2 9426   5.196   3.277   2.635
 2843SOL     OW 9427   3.904   0.529   3.577
 2843SOL    HW1 9428   3.943   0.467   3.645
 2843SOL    HW2 9429   3.839   0.479   3.521
 2844SOL     OW 9430   1.459   3.908   4.803
 2844SOL    HW1 9431   1.478   3.958   4.887
 2844SOL    HW2 9432   1.367   3.870   4.806
 2845SOL     OW 9433   0.937   4.182   6.427
 2845SOL    HW1 9434   0.989   4.263   6.398
 2845SOL    HW2 9435   0.873   4.208   6.500
 2846SOL     OW 9436   5.542   0.965   5.809
 2846SOL    HW1 9437   5.563   1.023   5.731
 2846SOL    HW2 9438   5.626   0.917   5.837
 2847SOL     OW 9439   3.903   4.978   4.710
 2847SOL    HW1 9440   3.874   4.909   4.644
 2847SOL    HW2 9441   3.856   4.963   4.797
 2848SOL     OW 9442   2.054   6.877   6.154
 2848SOL    HW1 9443   1.979   6.916   6.208
 2848SOL    HW2 9444   2.087   6.794   6.198
 2849SOL     OW 9445   2.173   2.731   1.581
 2849SOL    HW1 9446   2.080   2.767   1.588
 2849SOL    HW2 9447   2.182   2.648   1.635
 2850SOL     OW 9448   4.728   1.163   0.369
 2850SOL    HW1 9449   4.676   1.078   0.379
 2850SOL    HW2 9450   4.665   1.241   0.370
 2851SOL     OW 9451   3.411   6.223   5.047
 2851SOL    HW1 9452   3.333   6.225   4.984
 2851SOL    HW2 9453   3.417   6.132   5.088
 2852SOL     OW 9454   0.479   2.138   6.492
 2852SOL    HW1 9455   0.428   2.053   6.494
 2852SOL    HW2 9456   0.512   2.155   6.399
 2853SOL     OW 9457   3.869   3.108   0.983
 2853SOL    HW1 9458   3.874   3.048   1.062
 2853SOL    HW2 9459   3.814   3.065   0.912
 2854SOL     OW 9460   0.329   1.390   4.128
 2854SOL    HW1 9461   0.279   1.433   4.203
 2854SOL    HW2 9462   0.427   1.405   4.140
 2855SOL     OW 9463   2.960   1.925   3.649
 2855SOL    HW1 9464   3.017   1.857   3.695
 2855SOL    HW2 9465   2.892   1.960   3.712
 2856SOL     OW 9466   3.262   1.584   5.217
 2856SOL    HW1 9467   3.316   1.650   5.271
 2856SOL    HW2 9468   3.285   1.491   5.246
 2857SOL     OW 9469   3.006   3.599   5.595
 2857SOL    HW1 9470   3.051   3.516   5.563
 2857SOL    HW2 9471   2.990   3.660   5.517
 2858SOL     OW 9472   5.439   2.787   2.967
 2858SOL    HW1 9473   5.477   2.694   2.970
 2858SOL    HW2 9474   5.399   2.810   3.055
 2859SOL     OW 9475   6.282   4.931   0.033
 2859SOL    HW1 9476   6.282   5.024   7.019
 2859SOL    HW2 9477   6.286   4.865   6.981
 2860SOL     OW 9478   4.318   2.034   0.753
 2860SOL    HW1 9479   4.275   2.051   0.842
 2860SOL    HW2 9480   4.390   2.101   0.737
 2861SOL     OW 9481   4.482   4.376   5.981
 2861SOL    HW1 9482   4.413   4.321   5.933
 2861SOL    HW2 9483   4.573   4.350   5.950
 2862SOL     OW 9484   6.649   6.474   3.211
 2862SOL    HW1 9485   6.725   6.490   3.274
 2862SOL    HW2 9486   6.591   6.401   3.248
 2863SOL     OW 9487   6.393   6.413   6.638
 2863SOL    HW1 9488   6.320   6.357   6.678
 2863SOL    HW2 9489   6.404   6.389   6.542
 2864SOL     OW 9490   4.619   2.228   0.068
 2864SOL    HW1 9491   4.542   2.199   0.125
 2864SOL    HW2 9492   4.597   2.316   0.026
 2865SOL     OW 9493   4.919   4.735   5.092
 2865SOL    HW1 9494   4.995   4.687   5.134
 2865SOL    HW2 9495   4.953   4.796   5.020
 2866SOL     OW 9496   0.762   0.058   6.326
 2866SOL    HW1 9497   0.713   0.049   6.413
 2866SOL    HW2 9498   0.773   6.990   6.285
 2867SOL     OW 9499   6.305   3.820   4.745
 2867SOL    HW1 9500   6.243   3.887   4.705
 2867SOL    HW2 9501   6.286   3.729   4.707
 2868SOL     OW 9502   2.049   4.992   4.784
 2868SOL    HW1 9503   2.070   5.016   4.879
 2868SOL    HW2 9504   2.133   4.993   4.730
 2869SOL     OW 9505   5.700   1.909   2.756
 2869SOL    HW1 9506   5.728   1.976   2.688
 2869SOL    HW2 9507   5.741   1.820   2.735
 2870SOL     OW 9508   4.353   1.902   1.670
 2870SOL    HW1 9509   4.311   1.859   1.751
 2870SOL    HW2 9510   4.353   1.836   1.594
 2871SOL     OW 9511   1.173   1.283   5.573
 2871SOL    HW1 9512   1.142   1.372   5.607
 2871SOL    HW2 9513   1.230   1.239   5.642
 2872SOL     OW 9514   1.536   0.324   4.296
 2872SOL    HW1 9515   1.528   0.261   4.219
 2872SOL    HW2 9516   1.446   0.363   4.317
 2873SOL     OW 9517   6.241   4.845   2.313
 2873SOL    HW1 9518   6.208   4.939   2.323
 2873SOL    HW2 9519   6.178   4.792   2.257
 2874SOL     OW 9520   5.153   2.152   1.885
 2874SOL    HW1 9521   5.215   2.075   1.869
 2874SOL    HW2 9522   5.201   2.222   1.939
 2875SOL     OW 9523   2.572   5.390   0.479
 2875SOL    HW1 9524   2.647   5.341   0.435
 2875SOL    HW2 9525   2.493   5.328   0.487
 2876SOL     OW 9526   5.584   1.943   1.733
 2876SOL    HW1 9527   5.554   1.926   1.639
 2876SOL    HW2 9528   5.670   1.895   1.750
 2877SOL     OW 9529   1.334   3.432   5.485
 2877SOL    HW1 9530   1.397   3.470   5.418
 2877SOL    HW2 9531   1.385   3.396   5.563
 2878SOL     OW 9532   5.124   4.726   0.751
 2878SOL    HW1 9533   5.217   4.694   0.733
 2878SOL    HW2 9534   5.116   4.821   0.721
 2879SOL     OW 9535   5.255   4.701   0.056
 2879SOL    HW1 9536   5.184   4.657   0.002
 2879SOL    HW2 9537   5.218   4.729   0.145
 2880SOL     OW 9538   1.490   0.278   3.786
 2880SOL    HW1 9539   1.485   0.187   3.828
 2880SOL    HW2 9540   1.407   0.329   3.806
 2881SOL     OW 9541   6.918   0.393   7.013
 2881SOL    HW1 9542   6.826   0.385   6.974
 2881SOL    HW2 9543   6.961   0.477   6.981
 2882SOL     OW 9544   6.366   4.600   3.192
 2882SOL    HW1 9545   6.284   4.634   3.239
 2882SOL    HW2 9546   6.377   4.502   3.212
 2883SOL     OW 9547   3.050   6.507   2.322
 2883SOL    HW1 9548   3.101   6.577   2.271
 2883SOL    HW2 9549   2.991   6.551   2.389
 2884SOL     OW 9550   2.288   4.734   3.024
 2884SOL    HW1 9551   2.209   4.674   3.013
 2884SOL    HW2 9552   2.258   4.828   3.039
 2885SOL     OW 9553   1.106   2.282   4.489
 2885SOL    HW1 9554   1.197   2.265   4.525
 2885SOL    HW2 9555   1.059   2.195   4.474
 2886SOL     OW 9556   2.812   2.672   6.257
 2886SOL    HW1 9557   2.886   2.707   6.314
 2886SOL    HW2 9558   2.842   2.670   6.161
 2887SOL     OW 9559   2.109   0.357   5.490
 2887SOL    HW1 9560   2.137   0.268   5.455
 2887SOL    HW2 9561   2.012   0.372   5.471
 2888SOL     OW 9562   0.395   5.290   6.924
 2888SOL    HW1 9563   0.491   5.313   6.908
 2888SOL    HW2 9564   0.337   5.361   6.884
 2889SOL     OW 9565   1.380   1.236   0.549
 2889SOL    HW1 9566   1.448   1.179   0.596
 2889SOL    HW2 9567   1.303   1.180   0.522
 2890SOL     OW 9568   2.356   0.685   0.213
 2890SOL    HW1 9569   2.370   0.655   0.307
 2890SOL    HW2 9570   2.263   0.718   0.201
 2891SOL     OW 9571   3.084   4.611   5.343
 2891SOL    HW1 9572   3.034   4.556   5.275
 2891SOL    HW2 9573   3.020   4.643   5.413
 2892SOL     OW 9574   4.076   4.072   5.301
 2892SOL    HW1 9575   4.154   4.127   5.331
 2892SOL    HW2 9576   4.110   3.987   5.260
 2893SOL     OW 9577   2.746   0.479   4.966
 2893SOL    HW1 9578   2.840   0.489   4.996
 2893SOL    HW2 9579   2.707   0.396   5.005
 2894SOL     OW 9580   4.051   3.081   2.187
 2894SOL    HW1 9581   4.102   3.143   2.246
 2894SOL    HW2 9582   4.101   3.070   2.100
 2895SOL     OW 9583   3.658   2.774   0.098
 2895SOL    HW1 9584   3.709   2.855   0.068
 2895SOL    HW2 9585   3.708   2.692   0.073
 2896SOL     OW 9586   1.085   4.762   6.987
 2896SOL    HW1 9587   1.147   4.701   0.013
 2896SOL    HW2 9588   1.055   4.717   6.902
 2897SOL     OW 9589   0.259   0.478   3.032
 2897SOL    HW1 9590   0.207   0.563   3.030
 2897SOL    HW2 9591   0.274   0.450   3.126
 2898SOL     OW 9592   1.983   5.104   2.667
 2898SOL    HW1 9593   2.011   5.184   2.613
 2898SOL    HW2 9594   1.979   5.129   2.763
 2899SOL     OW 9595   5.243   1.103   0.744
 2899SOL    HW1 9596   5.277   1.018   0.703
 2899SOL    HW2 9597   5.316   1.171   0.744
 2900SOL     OW 9598   2.413   5.631   6.894
 2900SOL    HW1 9599   2.510   5.612   6.876
 2900SOL    HW2 9600   2.367   5.545   6.916
 2901SOL     OW 9601   2.880   0.079   1.126
 2901SOL    HW1 9602   2.965   0.102   1.079
 2901SOL    HW2 9603   2.887   7.010   1.164
 2902SOL     OW 9604   4.471   4.990   1.571
 2902SOL    HW1 9605   4.541   5.061   1.576
 2902SOL    HW2 9606   4.474   4.948   1.480
 2903SOL     OW 9607   2.944   2.337   1.649
 2903SOL    HW1 9608   2.941   2.393   1.732
 2903SOL    HW2 9609   3.000   2.256   1.666
 2904SOL     OW 9610   3.062   2.195   4.414
 2904SOL    HW1 9611   3.020   2.132   4.348
 2904SOL    HW2 9612   2.990   2.250   4.457
 2905SOL     OW 9613   1.050   2.093   2.139
 2905SOL    HW1 9614   1.033   2.008   2.089
 2905SOL    HW2 9615   1.146   2.097   2.167
 2906SOL     OW 9616   5.303   5.317   2.682
 2906SOL    HW1 9617   5.331   5.326   2.587
 2906SOL    HW2 9618   5.376   5.350   2.742
 2907SOL     OW 9619   6.118   0.198   4.443
 2907SOL    HW1 9620   6.137   0.254   4.362
 2907SOL    HW2 9621   6.092   0.257   4.519
 2908SOL     OW 9622   4.449   5.933   4.681
 2908SOL    HW1 9623   4.376   5.871   4.655
 2908SOL    HW2 9624   4.502   5.894   4.756
 2909SOL     OW 9625   2.293   6.037   6.122
 2909SOL    HW1 9626   2.207   5.988   6.106
 2909SOL    HW2 9627   2.370   5.974   6.111
 2910SOL     OW 9628   4.010   5.195   5.346
 2910SOL    HW1 9629   4.047   5.204   5.253
 2910SOL    HW2 9630   3.911   5.209   5.344
 2911SOL     OW 9631   2.796   4.665   3.050
 2911SOL    HW1 9632   2.771   4.568   3.045
 2911SOL    HW2 9633   2.757   4.713   2.971
 2912SOL     OW 9634   2.916   5.353   1.020
 2912SOL    HW1 9635   2.904   5.384   1.114
 2912SOL    HW2 9636   2.939   5.255   1.020
 2913SOL     OW 9637   7.015   2.818   1.381
 2913SOL    HW1 9638   6.971   2.907   1.395
 2913SOL    HW2 9639   0.036   2.789   1.466
 2914SOL     OW 9640   4.936   4.553   6.580
 2914SOL    HW1 9641   4.948   4.628   6.645
 2914SOL    HW2 9642   4.840   4.524   6.579
 2915SOL     OW 9643   4.532   0.812   2.849
 2915SOL    HW1 9644   4.573   0.896   2.886
 2915SOL    HW2 9645   4.517   0.822   2.751
 2916SOL     OW 9646   5.075   0.439   4.347
 2916SOL    HW1 9647   5.074   0.539   4.345
 2916SOL    HW2 9648   5.045   0.403   4.259
 2917SOL     OW 9649   3.915   0.424   2.412
 2917SOL    HW1 9650   3.871   0.492   2.471
 2917SOL    HW2 9651   3.911   0.456   2.317
 2918SOL     OW 9652   1.363   3.132   4.423
 2918SOL    HW1 9653   1.386   3.042   4.384
 2918SOL    HW2 9654   1.422   3.151   4.501
 2919SOL     OW 9655   5.886   5.277   0.371
 2919SOL    HW1 9656   5.823   5.213   0.415
 2919SOL    HW2 9657   5.919   5.238   0.285
 2920SOL     OW 9658   4.559   1.467   2.858
 2920SOL    HW1 9659   4.574   1.441   2.763
 2920SOL    HW2 9660   4.631   1.428   2.915
 2921SOL     OW 9661   6.392   1.116   0.119
 2921SOL    HW1 9662   6.458   1.097   0.046
 2921SOL    HW2 9663   6.375   1.214   0.123
 2922SOL     OW 9664   4.712   0.405   4.111
 2922SOL    HW1 9665   4.802   0.437   4.084
 2922SOL    HW2 9666   4.675   0.465   4.182
 2923SOL     OW 9667   0.052   4.075   0.640
 2923SOL    HW1 9668   7.012   4.052   0.566
 2923SOL    HW2 9669   0.111   4.151   0.612
 2924SOL     OW 9670   6.407   6.678   6.676
 2924SOL    HW1 9671   6.389   6.580   6.678
 2924SOL    HW2 9672   6.324   6.728   6.700
 2925SOL     OW 9673   6.621   4.568   0.719
 2925SOL    HW1 9674   6.560   4.646   0.707
 2925SOL    HW2 9675   6.694   4.572   0.651
 2926SOL     OW 9676   6.841   1.388   2.728
 2926SOL    HW1 9677   6.920   1.329   2.748
 2926SOL    HW2 9678   6.769   1.333   2.686
 2927SOL     OW 9679   6.989   2.809   2.789
 2927SOL    HW1 9680   7.021   2.901   2.811
 2927SOL    HW2 9681   7.018   2.746   2.861
 2928SOL     OW 9682   5.590   5.787   0.638
 2928SOL    HW1 9683   5.637   5.747   0.717
 2928SOL    HW2 9684   5.503   5.826   0.668
 2929SOL     OW 9685   0.030   0.603   5.743
 2929SOL    HW1 9686   0.010   0.510   5.775
 2929SOL    HW2 9687   6.990   0.667   5.786
 2930SOL     OW 9688   2.417   0.032   4.321
 2930SOL    HW1 9689   2.326   0.068   4.338
 2930SOL    HW2 9690   2.483   0.107   4.318
 2931SOL     OW 9691   4.674   4.452   6.538
 2931SOL    HW1 9692   4.707   4.382   6.476
 2931SOL    HW2 9693   4.593   4.419   6.586
 2932SOL     OW 9694   0.353   5.046   1.755
 2932SOL    HW1 9695   0.331   5.091   1.841
 2932SOL    HW2 9696   0.395   5.112   1.692
 2933SOL     OW 9697   4.248   1.990   3.210
 2933SOL    HW1 9698   4.322   1.967   3.147
 2933SOL    HW2 9699   4.242   2.089   3.221
 2934SOL     OW 9700   1.786   1.185   1.628
 2934SOL    HW1 9701   1.776   1.284   1.624
 2934SOL    HW2 9702   1.705   1.145   1.669
 2935SOL     OW 9703   7.018   0.991   0.872
 2935SOL    HW1 9704   6.934   1.042   0.851
 2935SOL    HW2 9705   0.014   0.926   0.799
 2936SOL     OW 9706   4.427   4.555   1.396
 2936SOL    HW1 9707   4.334   4.551   1.434
 2936SOL    HW2 9708   4.474   4.470   1.416
 2937SOL     OW 9709   2.508   4.343   0.678
 2937SOL    HW1 9710   2.504   4.277   0.603
 2937SOL    HW2 9711   2.582   4.318   0.740
 2938SOL     OW 9712   4.749   5.748   0.081
 2938SOL    HW1 9713   4.733   5.685   0.157
 2938SOL    HW2 9714   4.662   5.788   0.053
 2939SOL     OW 9715   6.714   6.460   6.557
 2939SOL    HW1 9716   6.624   6.443   6.597
 2939SOL    HW2 9717   6.747   6.377   6.512
 2940SOL     OW 9718   3.700   6.886   5.385
 2940SOL    HW1 9719   3.789   6.919   5.352
 2940SOL    HW2 9720   3.643   6.862   5.306
 2941SOL     OW 9721   3.922   1.250   5.395
 2941SOL    HW1 9722   3.898   1.343   5.367
 2941SOL    HW2 9723   3.888   1.234   5.488
 2942SOL     OW 9724   2.769   6.478   3.682
 2942SOL    HW1 9725   2.722   6.474   3.770
 2942SOL    HW2 9726   2.824   6.395   3.670
 2943SOL     OW 9727   5.528   4.485   2.912
 2943SOL    HW1 9728   5.492   4.412   2.854
 2943SOL    HW2 9729   5.576   4.446   2.990
 2944SOL     OW 9730   5.343   5.354   0.589
 2944SOL    HW1 9731   5.354   5.259   0.558
 2944SOL    HW2 9732   5.249   5.369   0.618
 2945SOL     OW 9733   3.456   3.797   4.336
 2945SOL    HW1 9734   3.397   3.869   4.299
 2945SOL    HW2 9735   3.400   3.728   4.382
 2946SOL     OW 9736   1.543   6.181   5.229
 2946SOL    HW1 9737   1.631   6.176   5.182
 2946SOL    HW2 9738   1.478   6.232   5.172
 2947SOL     OW 9739   0.226   5.131   0.063
 2947SOL    HW1 9740   0.255   5.038   0.089
 2947SOL    HW2 9741   0.303   5.178   0.020
 2948SOL     OW 9742   6.612   3.201   5.167
 2948SOL    HW1 9743   6.654   3.251   5.091
 2948SOL    HW2 9744   6.638   3.104   5.161
 2949SOL     OW 9745   0.702   6.892   1.074
 2949SOL    HW1 9746   0.781   6.845   1.035
 2949SOL    HW2 9747   0.622   6.832   1.069
 2950SOL     OW 9748   5.419   4.051   4.950
 2950SOL    HW1 9749   5.399   3.968   5.002
 2950SOL    HW2 9750   5.499   4.096   4.989
 2951SOL     OW 9751   6.452   0.657   0.032
 2951SOL    HW1 9752   6.446   0.697   6.964
 2951SOL    HW2 9753   6.401   0.714   0.097
 2952SOL     OW 9754   0.521   3.658   1.875
 2952SOL    HW1 9755   0.609   3.694   1.846
 2952SOL    HW2 9756   0.506   3.569   1.832
 2953SOL     OW 9757   5.691   1.566   1.944
 2953SOL    HW1 9758   5.701   1.619   1.860
 2953SOL    HW2 9759   5.602   1.519   1.943
 2954SOL     OW 9760   4.805   6.255   1.898
 2954SOL    HW1 9761   4.769   6.273   1.807
 2954SOL    HW2 9762   4.887   6.311   1.913
 2955SOL     OW 9763   5.509   1.888   1.474
 2955SOL    HW1 9764   5.555   1.806   1.440
 2955SOL    HW2 9765   5.416   1.865   1.502
 2956SOL     OW 9766   5.065   6.124   3.048
 2956SOL    HW1 9767   5.126   6.129   3.127
 2956SOL    HW2 9768   5.001   6.048   3.060
 2957SOL     OW 9769   0.871   5.142   1.270
 2957SOL    HW1 9770   0.926   5.226   1.275
 2957SOL    HW2 9771   0.900   5.087   1.192
 2958SOL     OW 9772   2.102   4.821   6.285
 2958SOL    HW1 9773   2.097   4.815   6.385
 2958SOL    HW2 9774   2.017   4.785   6.245
 2959SOL     OW 9775   3.074   5.666   6.578
 2959SOL    HW1 9776   3.148   5.633   6.520
 2959SOL    HW2 9777   3.113   5.709   6.660
 2960SOL     OW 9778   3.236   1.479   6.946
 2960SOL    HW1 9779   3.274   1.518   6.862
 2960SOL    HW2 9780   3.308   1.467   7.013
 2961SOL     OW 9781   5.413   1.137   3.869
 2961SOL    HW1 9782   5.428   1.100   3.961
 2961SOL    HW2 9783   5.461   1.224   3.860
 2962SOL     OW 9784   4.082   0.044   2.476
 2962SOL    HW1 9785   4.088   0.048   2.376
 2962SOL    HW2 9786   4.117   6.978   2.507
 2963SOL     OW 9787   2.199   2.888   4.849
 2963SOL    HW1 9788   2.268   2.920   4.914
 2963SOL    HW2 9789   2.220   2.795   4.821
 2964SOL     OW 9790   2.429   6.061   6.984
 2964SOL    HW1 9791   2.442   6.132   0.030
 2964SOL    HW2 9792   2.384   5.982   0.002
 2965SOL     OW 9793   1.272   2.880   5.711
 2965SOL    HW1 9794   1.218   2.908   5.790
 2965SOL    HW2 9795   1.317   2.793   5.730
 2966SOL     OW 9796   4.678   5.229   2.523
 2966SOL    HW1 9797   4.765   5.228   2.573
 2966SOL    HW2 9798   4.607   5.267   2.582
 2967SOL     OW 9799   5.590   3.038   4.778
 2967SOL    HW1 9800   5.593   2.978   4.698
 2967SOL    HW2 9801   5.620   2.988   4.859
 2968SOL     OW 9802   6.700   4.375   4.433
 2968SOL    HW1 9803   6.608   4.356   4.467
 2968SOL    HW2 9804   6.707   4.346   4.338
 2969SOL     OW 9805   3.638   1.489   5.326
 2969SOL    HW1 9806   3.731   1.505   5.360
 2969SOL    HW2 9807   3.575   1.552   5.371
 2970SOL     OW 9808   1.130   4.297   6.094
 2970SOL    HW1 9809   1.188   4.371   6.128
 2970SOL    HW2 9810   1.148   4.214   6.147
 2971SOL     OW 9811   5.847   2.963   1.713
 2971SOL    HW1 9812   5.797   3.038   1.670
 2971SOL    HW2 9813   5.791   2.881   1.714
 2972SOL     OW 9814   0.691   4.759   4.130
 2972SOL    HW1 9815   0.745   4.842   4.115
 2972SOL    HW2 9816   0.656   4.758   4.223
 2973SOL     OW 9817   5.835   0.385   4.114
 2973SOL    HW1 9818   5.868   0.444   4.188
 2973SOL    HW2 9819   5.754   0.335   4.144
 2974SOL     OW 9820   6.251   4.096   1.173
 2974SOL    HW1 9821   6.201   4.182   1.182
 2974SOL    HW2 9822   6.305   4.098   1.089
 2975SOL     OW 9823   6.153   1.927   3.929
 2975SOL    HW1 9824   6.154   1.919   3.830
 2975SOL    HW2 9825   6.199   2.012   3.956
 2976SOL     OW 9826   2.342   5.746   1.335
 2976SOL    HW1 9827   2.415   5.778   1.395
 2976SOL    HW2 9828   2.348   5.647   1.325
 2977SOL     OW 9829   2.118   0.133   3.479
 2977SOL    HW1 9830   2.057   0.108   3.404
 2977SOL    HW2 9831   2.089   0.086   3.562
 2978SOL     OW 9832   2.096   0.217   6.592
 2978SOL    HW1 9833   2.012   0.210   6.538
 2978SOL    HW2 9834   2.085   0.288   6.661
 2979SOL     OW 9835   2.140   1.197   3.147
 2979SOL    HW1 9836   2.205   1.170   3.076
 2979SOL    HW2 9837   2.055   1.146   3.137
 2980SOL     OW 9838   5.930   0.314   3.526
 2980SOL    HW1 9839   5.921   0.214   3.536
 2980SOL    HW2 9840   6.017   0.336   3.483
 2981SOL     OW 9841   0.834   0.931   5.838
 2981SOL    HW1 9842   0.799   1.019   5.871
 2981SOL    HW2 9843   0.850   0.936   5.739
 2982SOL     OW 9844   5.079   5.923   2.152
 2982SOL    HW1 9845   5.126   6.009   2.130
 2982SOL    HW2 9846   5.112   5.850   2.092
 2983SOL     OW 9847   0.568   1.568   3.064
 2983SOL    HW1 9848   0.661   1.564   3.100
 2983SOL    HW2 9849   0.563   1.516   2.978
 2984SOL     OW 9850   6.351   4.150   1.864
 2984SOL    HW1 9851   6.367   4.110   1.954
 2984SOL    HW2 9852   6.316   4.243   1.874
 2985SOL     OW 9853   6.655   2.142   3.283
 2985SOL    HW1 9854   6.561   2.178   3.286
 2985SOL    HW2 9855   6.712   2.204   3.228
 2986SOL     OW 9856   1.903   3.335   4.503
 2986SOL    HW1 9857   1.872   3.377   4.588
 2986SOL    HW2 9858   1.888   3.399   4.427
 2987SOL     OW 9859   5.086   1.583   4.804
 2987SOL    HW1 9860   5.182   1.613   4.806
 2987SOL    HW2 9861   5.083   1.483   4.800
 2988SOL     OW 9862   0.185   1.422   2.595
 2988SOL    HW1 9863   0.140   1.509   2.616
 2988SOL    HW2 9864   0.141   1.349   2.645
 2989SOL     OW 9865   0.068   5.164   0.687
 2989SOL    HW1 9866   0.045   5.097   0.758
 2989SOL    HW2 9867   0.090   5.251   0.730
 2990SOL     OW 9868   2.919   1.235   0.806
 2990SOL    HW1 9869   2.969   1.233   0.719
 2990SOL    HW2 9870   2.984   1.227   0.881
 2991SOL     OW 9871   6.236   4.427   0.192
 2991SOL    HW1 9872   6.322   4.473   0.173
 2991SOL    HW2 9873   6.229   4.345   0.135
 2992SOL     OW 9874   3.555   4.988   6.552
 2992SOL    HW1 9875   3.558   5.041   6.638
 2992SOL    HW2 9876   3.472   5.011   6.502
 2993SOL     OW 9877   1.237   3.857   0.083
 2993SOL    HW1 9878   1.164   3.843   0.016
 2993SOL    HW2 9879   1.200   3.907   0.162
 2994SOL     OW 9880   4.195   6.903   6.335
 2994SOL    HW1 9881   4.225   6.995   6.311
 2994SOL    HW2 9882   4.096   6.904   6.351
 2995SOL     OW 9883   2.640   0.785   5.201
 2995SOL    HW1 9884   2.665   0.879   5.224
 2995SOL    HW2 9885   2.541   0.773   5.212
 2996SOL     OW 9886   4.568   6.487   6.393
 2996SOL    HW1 9887   4.539   6.517   6.302
 2996SOL    HW2 9888   4.570   6.566   6.455
 2997SOL     OW 9889   3.686   5.709   0.631
 2997SOL    HW1 9890   3.626   5.755   0.566
 2997SOL    HW2 9891   3.777   5.749   0.627
 2998SOL     OW 9892   6.512   3.846   6.078
 2998SOL    HW1 9893   6.425   3.875   6.119
 2998SOL    HW2 9894   6.508   3.857   5.979
 2999SOL     OW 9895   3.039   1.423   1.112
 2999SOL    HW1 9896   2.978   1.345   1.129
 2999SOL    HW2 9897   3.030   1.488   1.187
 3000SOL     OW 9898   1.484   1.829   5.269
 3000SOL    HW1 9899   1.545   1.766   5.220
 3000SOL    HW2 9900   1.489   1.919   5.227
 3001SOL     OW 9901   4.815   5.996   5.886
 3001SOL    HW1 9902   4.914   6.008   5.879
 3001SOL    HW2 9903   4.770   6.043   5.809
 3002SOL     OW 9904   3.673   0.230   5.335
 3002SOL    HW1 9905   3.695   0.313   5.388
 3002SOL    HW2 9906   3.672   0.252   5.238
 3003SOL     OW 9907   1.422   0.509   5.831
 3003SOL    HW1 9908   1.476   0.526   5.749
 3003SOL    HW2 9909   1.458   0.564   5.906
 3004SOL     OW 9910   0.182   3.399   6.212
 3004SOL    HW1 9911   0.246   3.376   6.286
 3004SOL    HW2 9912   0.204   3.489   6.175
 3005SOL     OW 9913   4.831   2.192   0.973
 3005SOL    HW1 9914   4.753   2.132   0.989
 3005SOL    HW2 9915   4.855   2.240   1.057
 3006SOL     OW 9916   3.960   6.217   2.312
 3006SOL    HW1 9917   4.059   6.214   2.331
 3006SOL    HW2 9918   3.931   6.128   2.276
 3007SOL     OW 9919   5.483   5.337   1.974
 3007SOL    HW1 9920   5.444   5.422   1.938
 3007SOL    HW2 9921   5.477   5.265   1.905
 3008SOL     OW 9922   4.626   5.165   5.586
 3008SOL    HW1 9923   4.686   5.244   5.587
 3008SOL    HW2 9924   4.639   5.113   5.671
 3009SOL     OW 9925   1.986   0.399   1.716
 3009SOL    HW1 9926   1.895   0.438   1.728
 3009SOL    HW2 9927   2.021   0.423   1.626
 3010SOL     OW 9928   3.335   0.966   3.854
 3010SOL    HW1 9929   3.245   0.933   3.827
 3010SOL    HW2 9930   3.402   0.892   3.843
 3011SOL     OW 9931   5.479   0.222   0.169
 3011SOL    HW1 9932   5.408   0.152   0.174
 3011SOL    HW2 9933   5.562   0.182   0.130
 3012SOL     OW 9934   0.284   4.970   1.427
 3012SOL    HW1 9935   0.301   5.065   1.404
 3012SOL    HW2 9936   0.365   4.932   1.474
 3013SOL     OW 9937   5.586   4.893   1.611
 3013SOL    HW1 9938   5.551   4.966   1.670
 3013SOL    HW2 9939   5.584   4.806   1.661
 3014SOL     OW 9940   5.487   5.789   5.360
 3014SOL    HW1 9941   5.466   5.844   5.279
 3014SOL    HW2 9942   5.424   5.815   5.434
 3015SOL     OW 9943   3.386   1.266   0.458
 3015SOL    HW1 9944   3.450   1.222   0.522
 3015SOL    HW2 9945   3.437   1.329   0.399
 3016SOL     OW 9946   4.222   6.185   4.368
 3016SOL    HW1 9947   4.316   6.209   4.393
 3016SOL    HW2 9948   4.174   6.148   4.448
 3017SOL     OW 9949   0.579   6.861   2.557
 3017SOL    HW1 9950   0.625   6.848   2.470
 3017SOL    HW2 9951   0.530   6.949   2.557
 3018SOL     OW 9952   4.258   6.899   5.929
 3018SOL    HW1 9953   4.277   6.828   5.997
 3018SOL    HW2 9954   4.311   6.881   5.847
 3019SOL     OW 9955   4.687   0.747   1.519
 3019SOL    HW1 9956   4.702   0.818   1.589
 3019SOL    HW2 9957   4.658   0.663   1.564
 3020SOL     OW 9958   2.208   0.228   1.730
 3020SOL    HW1 9959   2.241   0.214   1.637
 3020SOL    HW2 9960   2.120   0.276   1.727
 3021SOL     OW 9961   4.247   0.365   6.193
 3021SOL    HW1 9962   4.280   0.436   6.131
 3021SOL    HW2 9963   4.156   0.336   6.165
 3022SOL     OW 9964   6.920   0.430   3.184
 3022SOL    HW1 9965   6.831   0.395   3.213
 3022SOL    HW2 9966   6.973   0.356   3.142
 3023SOL     OW 9967   5.761   0.152   1.725
 3023SOL    HW1 9968   5.797   0.092   1.653
 3023SOL    HW2 9969   5.699   0.220   1.684
 3024SOL     OW 9970   1.921   6.877   6.801
 3024SOL    HW1 9971   1.904   6.975   6.792
 3024SOL    HW2 9972   1.870   6.828   6.730
 3025SOL     OW 9973   1.936   2.433   2.029
 3025SOL    HW1 9974   1.879   2.473   2.101
 3025SOL    HW2 9975   1.945   2.335   2.043
 3026SOL     OW 9976   3.031   5.940   0.477
 3026SOL    HW1 9977   3.010   5.935   0.379
 3026SOL    HW2 9978   3.095   5.866   0.501
 3027SOL     OW 9979   0.924   2.362   4.144
 3027SOL    HW1 9980   0.892   2.268   4.154
 3027SOL    HW2 9981   0.898   2.396   4.054
 3028SOL     OW 9982   1.484   0.649   4.517
 3028SOL    HW1 9983   1.441   0.562   4.542
 3028SOL    HW2 9984   1.414   0.712   4.483
 3029SOL     OW 9985   6.268   5.090   5.829
 3029SOL    HW1 9986   6.361   5.085   5.865
 3029SOL    HW2 9987   6.272   5.089   5.729
 3030SOL     OW 9988   0.454   1.059   5.861
 3030SOL    HW1 9989   0.493   1.004   5.935
 3030SOL    HW2 9990   0.528   1.095   5.804
 3031SOL     OW 9991   6.857   5.325   6.012
 3031SOL    HW1 9992   6.842   5.388   5.936
 3031SOL    HW2 9993   6.948   5.284   6.005
 3032SOL     OW 9994   4.113   0.294   5.664
 3032SOL    HW1 9995   4.015   0.307   5.648
 3032SOL    HW2 9996   4.131   0.198   5.684
 3033SOL     OW 9997   4.944   4.224   5.984
 3033SOL    HW1 9998   5.014   4.154   5.991
 3033SOL    HW2 9999   4.956   4.290   6.058
 3034SOL     OW10000   2.808   6.734   5.184
 3034SOL    HW110001   2.851   6.647   5.207
 3034SOL    HW210002   2.716   6.738   5.223
 3035SOL     OW10003   5.934   6.362   6.907
 3035SOL    HW110004   5.937   6.311   6.993
 3035SOL    HW210005   5.850   6.340   6.858
 3036SOL     OW10006   0.244   4.908   5.450
 3036SOL    HW110007   0.165   4.878   5.503
 3036SOL    HW210008   0.272   4.836   5.388
 3037SOL     OW10009   5.276   6.071   6.419
 3037SOL    HW110010   5.218   6.009   6.473
 3037SOL    HW210011   5.220   6.143   6.379
 3038SOL     OW10012   5.823   5.833   5.270
 3038SOL    HW110013   5.820   5.804   5.366
 3038SOL    HW210014   5.771   5.917   5.259
 3039SOL     OW10015   0.695   4.654   0.727
 3039SOL    HW110016   0.745   4.572   0.698
 3039SOL    HW210017   0.673   4.648   0.824
 3040SOL     OW10018   2.723   0.988   0.367
 3040SOL    HW110019   2.645   0.942   0.409
 3040SOL    HW210020   2.795   1.002   0.436
 3041SOL     OW10021   2.050   1.678   6.047
 3041SOL    HW110022   2.065   1.633   5.959
 3041SOL    HW210023   2.117   1.752   6.059
 3042SOL     OW10024   5.246   0.362   0.972
 3042SOL    HW110025   5.319   0.397   1.031
 3042SOL    HW210026   5.163   0.350   1.026
 3043SOL     OW10027   0.298   4.767   6.815
 3043SOL    HW110028   0.286   4.709   6.896
 3043SOL    HW210029   0.218   4.825   6.803
 3044SOL     OW10030   2.428   3.119   6.868
 3044SOL    HW110031   2.368   3.051   6.825
 3044SOL    HW210032   2.374   3.178   6.927
 3045SOL     OW10033   4.387   2.482   4.718
 3045SOL    HW110034   4.367   2.505   4.814
 3045SOL    HW210035   4.318   2.418   4.684
 3046SOL     OW10036   2.652   2.185   5.647
 3046SOL    HW110037   2.711   2.266   5.650
 3046SOL    HW210038   2.709   2.103   5.641
 3047SOL     OW10039   6.766   5.104   1.879
 3047SOL    HW110040   6.828   5.039   1.835
 3047SOL    HW210041   6.712   5.057   1.949
 3048SOL     OW10042   3.289   2.892   2.398
 3048SOL    HW110043   3.253   2.803   2.368
 3048SOL    HW210044   3.360   2.923   2.335
 3049SOL     OW10045   0.794   0.959   0.765
 3049SOL    HW110046   0.739   0.893   0.816
 3049SOL    HW210047   0.778   0.948   0.667
 3050SOL     OW10048   1.333   0.205   4.567
 3050SOL    HW110049   1.278   0.140   4.619
 3050SOL    HW210050   1.349   0.287   4.622
 3051SOL     OW10051   2.693   5.069   5.494
 3051SOL    HW110052   2.664   4.984   5.449
 3051SOL    HW210053   2.771   5.050   5.554
 3052SOL     OW10054   4.726   6.272   2.536
 3052SOL    HW110055   4.700   6.332   2.460
 3052SOL    HW210056   4.691   6.311   2.621
 3053SOL     OW10057   3.495   6.168   1.869
 3053SOL    HW110058   3.399   6.169   1.843
 3053SOL    HW210059   3.537   6.255   1.842
 3054SOL     OW10060   1.608   4.502   5.102
 3054SOL    HW110061   1.560   4.476   5.018
 3054SOL    HW210062   1.652   4.422   5.142
 3055SOL     OW10063   6.130   6.940   2.784
 3055SOL    HW110064   6.038   6.921   2.821
 3055SOL    HW210065   6.196   6.943   2.859
 3056SOL     OW10066   4.892   0.571   2.403
 3056SOL    HW110067   4.967   0.508   2.423
 3056SOL    HW210068   4.929   0.662   2.383
 3057SOL     OW10069   7.002   4.527   2.561
 3057SOL    HW110070   6.978   4.602   2.623
 3057SOL    HW210071   0.073   4.539   2.529
 3058SOL     OW10072   5.870   6.642   1.076
 3058SOL    HW110073   5.929   6.722   1.067
 3058SOL    HW210074   5.782   6.661   1.033
 3059SOL     OW10075   2.693   2.576   0.023
 3059SOL    HW110076   2.721   2.492   6.999
 3059SOL    HW210077   2.645   2.636   6.982
 3060SOL     OW10078   0.439   6.228   6.995
 3060SOL    HW110079   0.465   6.302   6.934
 3060SOL    HW210080   0.349   6.194   6.970
 3061SOL     OW10081   6.590   0.765   5.845
 3061SOL    HW110082   6.546   0.832   5.785
 3061SOL    HW210083   6.523   0.697   5.874
 3062SOL     OW10084   3.380   5.873   6.096
 3062SOL    HW110085   3.409   5.780   6.072
 3062SOL    HW210086   3.394   5.933   6.017
 3063SOL     OW10087   2.905   6.179   1.217
 3063SOL    HW110088   2.966   6.180   1.137
 3063SOL    HW210089   2.826   6.237   1.198
 3064SOL     OW10090   6.635   4.661   3.098
 3064SOL    HW110091   6.681   4.586   3.051
 3064SOL    HW210092   6.536   4.651   3.087
 3065SOL     OW10093   3.371   1.476   1.648
 3065SOL    HW110094   3.434   1.518   1.582
 3065SOL    HW210095   3.414   1.475   1.739
 3066SOL     OW10096   6.051   5.195   0.746
 3066SOL    HW110097   5.952   5.202   0.750
 3066SOL    HW210098   6.082   5.119   0.804
 3067SOL     OW10099   3.773   6.967   3.047
 3067SOL    HW110100   3.680   6.948   3.080
 3067SOL    HW210101   3.814   6.883   3.012
 3068SOL     OW10102   6.088   4.466   6.432
 3068SOL    HW110103   6.166   4.413   6.398
 3068SOL    HW210104   6.112   4.510   6.519
 3069SOL     OW10105   0.889   5.273   3.400
 3069SOL    HW110106   0.954   5.215   3.450
 3069SOL    HW210107   0.937   5.351   3.362
 3070SOL     OW10108   4.537   1.953   3.883
 3070SOL    HW110109   4.609   1.887   3.903
 3070SOL    HW210110   4.556   1.999   3.796
 3071SOL     OW10111   5.504   0.547   3.388
 3071SOL    HW110112   5.497   0.491   3.471
 3071SOL    HW210113   5.595   0.537   3.348
 3072SOL     OW10114   0.073   0.778   1.347
 3072SOL    HW110115   7.022   0.719   1.379
 3072SOL    HW210116   0.160   0.729   1.353
 3073SOL     OW10117   1.841   1.583   4.872
 3073SOL    HW110118   1.793   1.584   4.785
 3073SOL    HW210119   1.866   1.677   4.897
 3074SOL     OW10120   4.431   3.864   5.747
 3074SOL    HW110121   4.386   3.935   5.692
 3074SOL    HW210122   4.457   3.788   5.688
 3075SOL     OW10123   6.837   5.032   1.585
 3075SOL    HW110124   6.931   5.058   1.605
 3075SOL    HW210125   6.834   4.936   1.557
 3076SOL     OW10126   0.241   0.908   5.798
 3076SOL    HW110127   0.268   0.858   5.716
 3076SOL    HW210128   0.316   0.968   5.827
 3077SOL     OW10129   4.278   4.710   3.481
 3077SOL    HW110130   4.307   4.640   3.546
 3077SOL    HW210131   4.349   4.780   3.474
 3078SOL     OW10132   2.272   2.956   1.115
 3078SOL    HW110133   2.270   3.052   1.141
 3078SOL    HW210134   2.271   2.899   1.197
 3079SOL     OW10135   5.332   3.109   5.859
 3079SOL    HW110136   5.237   3.126   5.833
 3079SOL    HW210137   5.385   3.085   5.778
 3080SOL     OW10138   5.906   6.882   2.195
 3080SOL    HW110139   5.877   6.860   2.288
 3080SOL    HW210140   5.904   6.981   2.182
 3081SOL     OW10141   0.668   4.626   5.893
 3081SOL    HW110142   0.651   4.642   5.990
 3081SOL    HW210143   0.666   4.714   5.844
 3082SOL     OW10144   3.289   6.431   2.807
 3082SOL    HW110145   3.260   6.389   2.721
 3082SOL    HW210146   3.315   6.526   2.791
 3083SOL     OW10147   3.330   6.694   2.743
 3083SOL    HW110148   3.330   6.668   2.647
 3083SOL    HW210149   3.360   6.789   2.752
 3084SOL     OW10150   5.018   0.146   4.106
 3084SOL    HW110151   4.969   0.199   4.176
 3084SOL    HW210152   5.092   0.201   4.068
 3085SOL     OW10153   0.938   5.019   2.112
 3085SOL    HW110154   0.980   5.046   2.026
 3085SOL    HW210155   0.947   4.920   2.124
 3086SOL     OW10156   6.274   1.362   4.744
 3086SOL    HW110157   6.374   1.359   4.737
 3086SOL    HW210158   6.235   1.390   4.657
 3087SOL     OW10159   5.929   3.308   1.104
 3087SOL    HW110160   5.953   3.373   1.032
 3087SOL    HW210161   5.943   3.215   1.070
 3088SOL     OW10162   3.017   3.832   6.617
 3088SOL    HW110163   3.103   3.862   6.658
 3088SOL    HW210164   3.005   3.734   6.633
 3089SOL     OW10165   3.122   2.084   2.180
 3089SOL    HW110166   3.068   2.127   2.253
 3089SOL    HW210167   3.065   2.073   2.099
 3090SOL     OW10168   6.319   1.622   1.095
 3090SOL    HW110169   6.336   1.564   1.174
 3090SOL    HW210170   6.343   1.717   1.117
 3091SOL     OW10171   1.934   6.467   6.760
 3091SOL    HW110172   1.871   6.538   6.728
 3091SOL    HW210173   2.028   6.496   6.743
 3092SOL     OW10174   4.612   5.336   0.164
 3092SOL    HW110175   4.587   5.421   0.118
 3092SOL    HW210176   4.708   5.340   0.190
 3093SOL     OW10177   4.439   6.718   2.889
 3093SOL    HW110178   4.394   6.629   2.886
 3093SOL    HW210179   4.467   6.738   2.983
 3094SOL     OW10180   4.057   5.459   4.625
 3094SOL    HW110181   3.971   5.508   4.609
 3094SOL    HW210182   4.099   5.492   4.710
 3095SOL     OW10183   1.974   5.310   4.912
 3095SOL    HW110184   1.954   5.370   4.989
 3095SOL    HW210185   2.058   5.342   4.867
 3096SOL     OW10186   0.366   2.065   5.858
 3096SOL    HW110187   0.383   1.967   5.854
 3096SOL    HW210188   0.436   2.113   5.804
 3097SOL     OW10189   2.002   0.895   6.725
 3097SOL    HW110190   2.058   0.924   6.647
 3097SOL    HW210191   1.989   0.972   6.787
 3098SOL     OW10192   3.701   3.074   0.648
 3098SOL    HW110193   3.728   2.997   0.590
 3098SOL    HW210194   3.623   3.048   0.704
 3099SOL     OW10195   1.667   5.732   5.415
 3099SOL    HW110196   1.709   5.722   5.506
 3099SOL    HW210197   1.594   5.800   5.419
 3100SOL     OW10198   6.151   6.686   6.132
 3100SOL    HW110199   6.133   6.673   6.230
 3100SOL    HW210200   6.162   6.597   6.089
 3101SOL     OW10201   2.901   0.694   1.056
 3101SOL    HW110202   2.954   0.625   1.105
 3101SOL    HW210203   2.840   0.649   0.991
 3102SOL     OW10204   0.774   6.036   1.019
 3102SOL    HW110205   0.827   6.114   0.985
 3102SOL    HW210206   0.814   5.951   0.985
 3103SOL     OW10207   4.305   4.232   1.647
 3103SOL    HW110208   4.385   4.200   1.696
 3103SOL    HW210209   4.223   4.193   1.688
 3104SOL     OW10210   5.735   6.013   3.289
 3104SOL    HW110211   5.709   5.933   3.343
 3104SOL    HW210212   5.671   6.023   3.213
 3105SOL     OW10213   5.543   5.903   3.553
 3105SOL    HW110214   5.522   5.990   3.598
 3105SOL    HW210215   5.630   5.867   3.587
 3106SOL     OW10216   0.152   3.400   4.314
 3106SOL    HW110217   0.176   3.405   4.411
 3106SOL    HW210218   0.179   3.311   4.277
 3107SOL     OW10219   2.516   6.714   4.406
 3107SOL    HW110220   2.513   6.804   4.361
 3107SOL    HW210221   2.445   6.655   4.367
 3108SOL     OW10222   2.143   6.695   2.936
 3108SOL    HW110223   2.163   6.696   2.838
 3108SOL    HW210224   2.133   6.788   2.969
 3109SOL     OW10225   4.493   5.239   3.769
 3109SOL    HW110226   4.424   5.284   3.711
 3109SOL    HW210227   4.460   5.148   3.795
 3110SOL     OW10228   0.842   2.639   1.544
 3110SOL    HW110229   0.842   2.737   1.526
 3110SOL    HW210230   0.807   2.621   1.636
 3111SOL     OW10231   0.244   4.644   2.339
 3111SOL    HW110232   0.284   4.715   2.397
 3111SOL    HW210233   0.190   4.688   2.267
 3112SOL     OW10234   3.227   3.218   6.007
 3112SOL    HW110235   3.202   3.312   6.029
 3112SOL    HW210236   3.321   3.201   6.037
 3113SOL     OW10237   4.068   0.362   3.734
 3113SOL    HW110238   4.038   0.269   3.754
 3113SOL    HW210239   4.166   0.361   3.710
 3114SOL     OW10240   5.349   5.573   0.927
 3114SOL    HW110241   5.260   5.539   0.957
 3114SOL    HW210242   5.387   5.633   0.997
 3115SOL     OW10243   3.461   3.230   2.932
 3115SOL    HW110244   3.377   3.276   2.905
 3115SOL    HW210245   3.450   3.131   2.923
 3116SOL     OW10246   0.230   1.541   6.525
 3116SOL    HW110247   0.208   1.444   6.527
 3116SOL    HW210248   0.230   1.574   6.430
 3117SOL     OW10249   2.991   4.483   6.517
 3117SOL    HW110250   3.077   4.509   6.473
 3117SOL    HW210251   2.964   4.555   6.582
 3118SOL     OW10252   6.268   5.177   6.961
 3118SOL    HW110253   6.306   5.266   6.987
 3118SOL    HW210254   6.199   5.190   6.890
 3119SOL     OW10255   2.421   4.081   6.739
 3119SOL    HW110256   2.405   3.989   6.775
 3119SOL    HW210257   2.351   4.103   6.670
 3120SOL     OW10258   2.501   5.311   6.909
 3120SOL    HW110259   2.586   5.284   6.865
 3120SOL    HW210260   2.424   5.291   6.849
 3121SOL     OW10261   6.868   6.342   3.622
 3121SOL    HW110262   6.824   6.255   3.645
 3121SOL    HW210263   6.900   6.386   3.706
 3122SOL     OW10264   3.246   6.033   1.304
 3122SOL    HW110265   3.239   6.052   1.402
 3122SOL    HW210266   3.158   6.053   1.260
 3123SOL     OW10267   2.826   6.961   3.806
 3123SOL    HW110268   2.780   6.999   3.887
 3123SOL    HW210269   2.763   6.903   3.756
 3124SOL     OW10270   4.156   6.928   5.190
 3124SOL    HW110271   4.156   6.870   5.109
 3124SOL    HW210272   4.191   7.019   5.167
 3125SOL     OW10273   0.002   2.310   5.757
 3125SOL    HW110274   0.081   2.250   5.748
 3125SOL    HW210275   7.022   2.347   5.850
 3126SOL     OW10276   3.968   5.897   6.359
 3126SOL    HW110277   3.968   5.997   6.356
 3126SOL    HW210278   3.930   5.861   6.273
 3127SOL     OW10279   0.864   1.344   4.449
 3127SOL    HW110280   0.848   1.246   4.463
 3127SOL    HW210281   0.843   1.368   4.355
 3128SOL     OW10282   2.020   0.975   1.050
 3128SOL    HW110283   2.101   0.965   1.108
 3128SOL    HW210284   1.956   1.039   1.093
 3129SOL     OW10285   1.510   3.589   2.646
 3129SOL    HW110286   1.549   3.603   2.555
 3129SOL    HW210287   1.450   3.666   2.669
 3130SOL     OW10288   2.722   5.389   2.811
 3130SOL    HW110289   2.698   5.298   2.778
 3130SOL    HW210290   2.821   5.395   2.826
 3131SOL     OW10291   0.690   3.174   3.797
 3131SOL    HW110292   0.702   3.193   3.699
 3131SOL    HW210293   0.780   3.176   3.842
 3132SOL     OW10294   4.726   3.535   5.567
 3132SOL    HW110295   4.775   3.612   5.526
 3132SOL    HW210296   4.768   3.514   5.656
 3133SOL     OW10297   2.220   1.546   3.483
 3133SOL    HW110298   2.161   1.521   3.560
 3133SOL    HW210299   2.175   1.617   3.428
 3134SOL     OW10300   5.525   2.238   1.688
 3134SOL    HW110301   5.523   2.141   1.714
 3134SOL    HW210302   5.568   2.290   1.761
 3135SOL     OW10303   1.324   2.453   2.872
 3135SOL    HW110304   1.365   2.542   2.852
 3135SOL    HW210305   1.254   2.433   2.803
 3136SOL     OW10306   6.674   1.031   4.713
 3136SOL    HW110307   6.700   0.986   4.627
 3136SOL    HW210308   6.592   0.988   4.749
 3137SOL     OW10309   0.436   1.662   4.858
 3137SOL    HW110310   0.404   1.712   4.777
 3137SOL    HW210311   0.533   1.679   4.870
 3138SOL     OW10312   6.630   2.390   4.539
 3138SOL    HW110313   6.540   2.385   4.583
 3138SOL    HW210314   6.655   2.485   4.526
 3139SOL     OW10315   5.433   5.511   5.377
 3139SOL    HW110316   5.441   5.611   5.379
 3139SOL    HW210317   5.521   5.471   5.353
 3140SOL     OW10318   6.345   6.223   5.712
 3140SOL    HW110319   6.348   6.196   5.808
 3140SOL    HW210320   6.361   6.143   5.654
 3141SOL     OW10321   1.221   0.605   1.890
 3141SOL    HW110322   1.308   0.557   1.877
 3141SOL    HW210323   1.176   0.617   1.802
 3142SOL     OW10324   3.742   6.784   0.890
 3142SOL    HW110325   3.790   6.799   0.977
 3142SOL    HW210326   3.745   6.687   0.867
 3143SOL     OW10327   0.254   2.021   0.608
 3143SOL    HW110328   0.227   1.959   0.682
 3143SOL    HW210329   0.348   2.051   0.623
 3144SOL     OW10330   2.926   3.076   0.237
 3144SOL    HW110331   2.834   3.104   0.264
 3144SOL    HW210332   2.920   3.013   0.159
 3145SOL     OW10333   1.925   5.047   2.283
 3145SOL    HW110334   1.965   5.139   2.276
 3145SOL    HW210335   1.998   4.981   2.303
 3146SOL     OW10336   2.110   6.803   4.293
 3146SOL    HW110337   2.023   6.759   4.271
 3146SOL    HW210338   2.141   6.773   4.383
 3147SOL     OW10339   4.293   4.408   0.726
 3147SOL    HW110340   4.228   4.482   0.747
 3147SOL    HW210341   4.335   4.377   0.811
 3148SOL     OW10342   2.842   5.924   4.364
 3148SOL    HW110343   2.938   5.898   4.376
 3148SOL    HW210344   2.785   5.866   4.422
 3149SOL     OW10345   1.915   6.181   5.448
 3149SOL    HW110346   1.954   6.160   5.537
 3149SOL    HW210347   1.828   6.229   5.460
 3150SOL     OW10348   6.552   0.618   4.766
 3150SOL    HW110349   6.461   0.587   4.737
 3150SOL    HW210350   6.545   0.710   4.803
 3151SOL     OW10351   3.659   6.386   1.827
 3151SOL    HW110352   3.655   6.444   1.908
 3151SOL    HW210353   3.748   6.397   1.782
 3152SOL     OW10354   1.532   4.584   6.269
 3152SOL    HW110355   1.618   4.534   6.280
 3152SOL    HW210356   1.547   4.665   6.213
 3153SOL     OW10357   0.343   4.119   3.065
 3153SOL    HW110358   0.356   4.102   2.967
 3153SOL    HW210359   0.251   4.089   3.092
 3154SOL     OW10360   6.057   2.498   6.645
 3154SOL    HW110361   6.154   2.481   6.660
 3154SOL    HW210362   6.023   2.438   6.572
 3155SOL     OW10363   4.099   5.603   0.710
 3155SOL    HW110364   4.064   5.615   0.617
 3155SOL    HW210365   4.025   5.574   0.770
 3156SOL     OW10366   3.007   3.231   3.479
 3156SOL    HW110367   3.067   3.152   3.488
 3156SOL    HW210368   3.027   3.297   3.552
 3157SOL     OW10369   2.052   2.175   4.928
 3157SOL    HW110370   1.957   2.158   4.901
 3157SOL    HW210371   2.102   2.088   4.927
 3158SOL     OW10372   4.692   6.862   1.546
 3158SOL    HW110373   4.727   6.952   1.571
 3158SOL    HW210374   4.677   6.807   1.628
 3159SOL     OW10375   5.363   4.239   0.610
 3159SOL    HW110376   5.294   4.307   0.585
 3159SOL    HW210377   5.360   4.163   0.546
 3160SOL     OW10378   5.995   4.297   0.671
 3160SOL    HW110379   6.028   4.312   0.578
 3160SOL    HW210380   5.992   4.199   0.690
 3161SOL     OW10381   0.332   1.792   4.026
 3161SOL    HW110382   0.293   1.880   4.055
 3161SOL    HW210383   0.344   1.733   4.106
 3162SOL     OW10384   0.047   0.516   6.123
 3162SOL    HW110385   0.056   0.477   6.215
 3162SOL    HW210386   7.003   0.590   6.124
 3163SOL     OW10387   1.803   4.209   5.442
 3163SOL    HW110388   1.719   4.212   5.495
 3163SOL    HW210389   1.784   4.231   5.346
 3164SOL     OW10390   6.060   5.180   5.955
 3164SOL    HW110391   6.140   5.145   5.906
 3164SOL    HW210392   6.089   5.216   6.044
 3165SOL     OW10393   0.064   3.023   1.773
 3165SOL    HW110394   0.099   2.941   1.817
 3165SOL    HW210395   0.119   3.102   1.801
 3166SOL     OW10396   3.985   3.430   6.328
 3166SOL    HW110397   3.896   3.408   6.369
 3166SOL    HW210398   4.007   3.362   6.258
 3167SOL     OW10399   0.036   4.849   2.088
 3167SOL    HW110400   6.999   4.816   2.161
 3167SOL    HW210401   0.099   4.776   2.061
 3168SOL     OW10402   6.451   3.460   0.538
 3168SOL    HW110403   6.355   3.484   0.525
 3168SOL    HW210404   6.508   3.523   0.486
 3169SOL     OW10405   3.215   2.042   5.617
 3169SOL    HW110406   3.288   1.977   5.636
 3169SOL    HW210407   3.249   2.135   5.629
 3170SOL     OW10408   3.242   0.625   4.453
 3170SOL    HW110409   3.270   0.691   4.383
 3170SOL    HW210410   3.194   0.549   4.410
 3171SOL     OW10411   6.338   5.560   2.403
 3171SOL    HW110412   6.288   5.607   2.330
 3171SOL    HW210413   6.298   5.584   2.491
 3172SOL     OW10414   5.277   6.857   4.823
 3172SOL    HW110415   5.237   6.879   4.734
 3172SOL    HW210416   5.244   6.768   4.853
 3173SOL     OW10417   1.648   0.690   1.382
 3173SOL    HW110418   1.734   0.716   1.337
 3173SOL    HW210419   1.608   0.770   1.427
 3174SOL     OW10420   2.420   3.029   0.642
 3174SOL    HW110421   2.513   3.007   0.612
 3174SOL    HW210422   2.424   3.075   0.731
 3175SOL     OW10423   0.146   5.748   0.358
 3175SOL    HW110424   0.208   5.803   0.413
 3175SOL    HW210425   0.085   5.696   0.417
 3176SOL     OW10426   1.005   5.242   6.853
 3176SOL    HW110427   0.979   5.318   6.794
 3176SOL    HW210428   1.072   5.273   6.920
 3177SOL     OW10429   1.041   0.136   3.884
 3177SOL    HW110430   1.094   0.184   3.814
 3177SOL    HW210431   0.970   0.197   3.920
 3178SOL     OW10432   3.874   3.621   0.191
 3178SOL    HW110433   3.870   3.560   0.112
 3178SOL    HW210434   3.918   3.573   0.267
 3179SOL     OW10435   1.290   2.565   4.237
 3179SOL    HW110436   1.206   2.616   4.251
 3179SOL    HW210437   1.316   2.519   4.321
 3180SOL     OW10438   6.585   1.475   6.786
 3180SOL    HW110439   6.640   1.548   6.826
 3180SOL    HW210440   6.578   1.489   6.687
 3181SOL     OW10441   6.820   1.484   2.018
 3181SOL    HW110442   6.823   1.430   2.102
 3181SOL    HW210443   6.728   1.480   1.979
 3182SOL     OW10444   1.257   6.390   5.823
 3182SOL    HW110445   1.197   6.353   5.753
 3182SOL    HW210446   1.258   6.490   5.817
 3183SOL     OW10447   4.640   3.600   1.281
 3183SOL    HW110448   4.705   3.677   1.282
 3183SOL    HW210449   4.554   3.629   1.323
 3184SOL     OW10450   0.070   2.031   2.839
 3184SOL    HW110451   0.164   2.065   2.833
 3184SOL    HW210452   0.071   1.933   2.860
 3185SOL     OW10453   0.264   6.397   0.220
 3185SOL    HW110454   0.283   6.460   0.144
 3185SOL    HW210455   0.183   6.343   0.199
 3186SOL     OW10456   3.486   0.303   1.399
 3186SOL    HW110457   3.512   0.398   1.387
 3186SOL    HW210458   3.565   0.250   1.429
 3187SOL     OW10459   3.774   4.455   0.978
 3187SOL    HW110460   3.785   4.357   0.959
 3187SOL    HW210461   3.677   4.478   0.974
 3188SOL     OW10462   3.550   0.269   4.000
 3188SOL    HW110463   3.598   0.226   3.923
 3188SOL    HW210464   3.511   0.199   4.059
 3189SOL     OW10465   5.755   6.417   1.687
 3189SOL    HW110466   5.787   6.484   1.621
 3189SOL    HW210467   5.831   6.389   1.746
 3190SOL     OW10468   1.081   0.647   2.755
 3190SOL    HW110469   0.998   0.593   2.772
 3190SOL    HW210470   1.158   0.586   2.738
 3191SOL     OW10471   3.519   1.425   0.990
 3191SOL    HW110472   3.525   1.519   1.023
 3191SOL    HW210473   3.451   1.375   1.042
 3192SOL     OW10474   5.771   3.583   4.306
 3192SOL    HW110475   5.703   3.639   4.352
 3192SOL    HW210476   5.853   3.576   4.364
 3193SOL     OW10477   5.545   4.320   1.743
 3193SOL    HW110478   5.469   4.258   1.723
 3193SOL    HW210479   5.618   4.305   1.676
 3194SOL     OW10480   3.257   5.375   4.874
 3194SOL    HW110481   3.332   5.317   4.905
 3194SOL    HW210482   3.170   5.333   4.899
 3195SOL     OW10483   6.984   4.222   4.106
 3195SOL    HW110484   7.008   4.130   4.074
 3195SOL    HW210485   6.893   4.220   4.147
 3196SOL     OW10486   0.221   6.054   6.839
 3196SOL    HW110487   0.227   6.050   6.739
 3196SOL    HW210488   0.203   5.962   6.875
 3197SOL     OW10489   0.551   4.352   5.725
 3197SOL    HW110490   0.491   4.365   5.804
 3197SOL    HW210491   0.646   4.351   5.755
 3198SOL     OW10492   5.477   0.194   1.220
 3198SOL    HW110493   5.457   0.289   1.195
 3198SOL    HW210494   5.574   0.184   1.240
 3199SOL     OW10495   2.842   2.357   3.188
 3199SOL    HW110496   2.931   2.348   3.142
 3199SOL    HW210497   2.852   2.329   3.284
 3200SOL     OW10498   6.614   1.649   0.129
 3200SOL    HW110499   6.656   1.563   0.103
 3200SOL    HW210500   6.535   1.667   0.070
 3201SOL     OW10501   3.872   5.355   3.574
 3201SOL    HW110502   3.840   5.424   3.639
 3201SOL    HW210503   3.802   5.340   3.505
 3202SOL     OW10504   1.262   4.977   2.011
 3202SOL    HW110505   1.194   5.037   1.969
 3202SOL    HW210506   1.318   4.934   1.939
 3203SOL     OW10507   5.132   0.006   0.680
 3203SOL    HW110508   5.222   6.991   0.703
 3203SOL    HW210509   5.125   0.015   0.581
 3204SOL     OW10510   6.262   6.296   2.117
 3204SOL    HW110511   6.169   6.271   2.140
 3204SOL    HW210512   6.265   6.390   2.084
 3205SOL     OW10513   1.769   4.546   4.559
 3205SOL    HW110514   1.850   4.486   4.566
 3205SOL    HW210515   1.710   4.513   4.486
 3206SOL     OW10516   1.897   6.330   0.314
 3206SOL    HW110517   1.819   6.326   0.376
 3206SOL    HW210518   1.872   6.380   0.231
 3207SOL     OW10519   1.605   0.916   3.358
 3207SOL    HW110520   1.593   0.833   3.412
 3207SOL    HW210521   1.525   0.975   3.369
 3208SOL     OW10522   6.177   6.085   6.084
 3208SOL    HW110523   6.141   5.997   6.117
 3208SOL    HW210524   6.118   6.119   6.011
 3209SOL     OW10525   1.056   6.581   3.191
 3209SOL    HW110526   1.076   6.641   3.269
 3209SOL    HW210527   1.119   6.504   3.191
 3210SOL     OW10528   0.748   5.885   2.166
 3210SOL    HW110529   0.739   5.985   2.165
 3210SOL    HW210530   0.719   5.849   2.254
 3211SOL     OW10531   0.053   4.744   4.098
 3211SOL    HW110532   0.133   4.781   4.052
 3211SOL    HW210533   0.082   4.676   4.166
 3212SOL     OW10534   4.584   1.993   4.747
 3212SOL    HW110535   4.581   2.093   4.739
 3212SOL    HW210536   4.491   1.957   4.739
 3213SOL     OW10537   5.549   0.139   2.163
 3213SOL    HW110538   5.544   0.056   2.219
 3213SOL    HW210539   5.550   0.115   2.066
 3214SOL     OW10540   4.279   3.679   0.491
 3214SOL    HW110541   4.319   3.597   0.451
 3214SOL    HW210542   4.296   3.681   0.590
 3215SOL     OW10543   6.950   1.532   6.754
 3215SOL    HW110544   6.975   1.436   6.744
 3215SOL    HW210545   0.007   1.590   6.738
 3216SOL     OW10546   4.935   6.594   5.593
 3216SOL    HW110547   4.870   6.580   5.519
 3216SOL    HW210548   4.943   6.692   5.611
 3217SOL     OW10549   0.391   4.579   6.564
 3217SOL    HW110550   0.333   4.655   6.534
 3217SOL    HW210551   0.477   4.615   6.600
 3218SOL     OW10552   4.322   2.705   1.392
 3218SOL    HW110553   4.324   2.615   1.349
 3218SOL    HW210554   4.395   2.711   1.460
 3219SOL     OW10555   0.744   2.332   3.178
 3219SOL    HW110556   0.750   2.245   3.128
 3219SOL    HW210557   0.650   2.366   3.172
 3220SOL     OW10558   6.832   2.512   6.657
 3220SOL    HW110559   6.842   2.602   6.615
 3220SOL    HW210560   6.885   2.444   6.606
 3221SOL     OW10561   4.139   0.376   1.436
 3221SOL    HW110562   4.054   0.425   1.452
 3221SOL    HW210563   4.207   0.438   1.397
 3222SOL     OW10564   6.049   3.858   2.310
 3222SOL    HW110565   6.111   3.933   2.333
 3222SOL    HW210566   5.961   3.896   2.280
 3223SOL     OW10567   1.289   4.224   5.598
 3223SOL    HW110568   1.234   4.191   5.521
 3223SOL    HW210569   1.261   4.318   5.621
 3224SOL     OW10570   2.712   6.740   1.437
 3224SOL    HW110571   2.729   6.676   1.511
 3224SOL    HW210572   2.700   6.832   1.475
 3225SOL     OW10573   1.301   1.486   0.212
 3225SOL    HW110574   1.233   1.463   0.142
 3225SOL    HW210575   1.280   1.577   0.249
 3226SOL     OW10576   6.530   1.601   3.696
 3226SOL    HW110577   6.469   1.617   3.774
 3226SOL    HW210578   6.475   1.581   3.615
 3227SOL     OW10579   2.375   1.804   4.758
 3227SOL    HW110580   2.406   1.835   4.668
 3227SOL    HW210581   2.451   1.761   4.806
 3228SOL     OW10582   5.141   3.527   4.766
 3228SOL    HW110583   5.241   3.518   4.763
 3228SOL    HW210584   5.104   3.514   4.675
 3229SOL     OW10585   4.815   1.341   4.580
 3229SOL    HW110586   4.807   1.271   4.510
 3229SOL    HW210587   4.801   1.431   4.539
 3230SOL     OW10588   1.145   6.527   4.414
 3230SOL    HW110589   1.046   6.538   4.409
 3230SOL    HW210590   1.189   6.616   4.420
 3231SOL     OW10591   4.240   4.640   6.801
 3231SOL    HW110592   4.286   4.718   6.843
 3231SOL    HW210593   4.181   4.597   6.869
 3232SOL     OW10594   1.016   4.100   4.034
 3232SOL    HW110595   0.995   4.079   4.130
 3232SOL    HW210596   1.008   4.017   3.980
 3233SOL     OW10597   2.682   4.029   0.668
 3233SOL    HW110598   2.693   4.079   0.754
 3233SOL    HW210599   2.649   3.937   0.688
 3234SOL     OW10600   6.736   1.964   4.022
 3234SOL    HW110601   6.646   1.921   4.015
 3234SOL    HW210602   6.796   1.907   4.079
 3235SOL     OW10603   6.365   0.668   1.933
 3235SOL    HW110604   6.281   0.613   1.937
 3235SOL    HW210605   6.436   0.616   1.886
 3236SOL     OW10606   0.407   1.360   1.008
 3236SOL    HW110607   0.309   1.381   1.001
 3236SOL    HW210608   0.420   1.277   1.062
 3237SOL     OW10609   2.758   5.453   5.101
 3237SOL    HW110610   2.780   5.443   5.198
 3237SOL    HW210611   2.757   5.362   5.058
 3238SOL     OW10612   0.021   6.333   6.689
 3238SOL    HW110613   0.006   6.427   6.659
 3238SOL    HW210614   7.002   6.319   6.779
 3239SOL     OW10615   2.111   6.394   6.357
 3239SOL    HW110616   2.190   6.353   6.313
 3239SOL    HW210617   2.069   6.461   6.296
 3240SOL     OW10618   0.985   2.512   4.533
 3240SOL    HW110619   1.040   2.431   4.514
 3240SOL    HW210620   0.991   2.575   4.455
 3241SOL     OW10621   3.916   5.967   5.224
 3241SOL    HW110622   3.821   5.993   5.208
 3241SOL    HW210623   3.926   5.868   5.211
 3242SOL     OW10624   3.303   1.327   1.139
 3242SOL    HW110625   3.215   1.372   1.153
 3242SOL    HW210626   3.289   1.238   1.096
 3243SOL     OW10627   3.435   6.035   2.787
 3243SOL    HW110628   3.496   5.991   2.852
 3243SOL    HW210629   3.349   6.061   2.833
 3244SOL     OW10630   1.378   0.187   5.345
 3244SOL    HW110631   1.301   0.251   5.345
 3244SOL    HW210632   1.360   0.112   5.281
 3245SOL     OW10633   3.553   2.285   5.944
 3245SOL    HW110634   3.533   2.314   6.038
 3245SOL    HW210635   3.562   2.365   5.886
 3246SOL     OW10636   6.106   6.435   1.666
 3246SOL    HW110637   6.182   6.486   1.706
 3246SOL    HW210638   6.121   6.426   1.567
 3247SOL     OW10639   5.928   3.042   4.537
 3247SOL    HW110640   6.020   3.023   4.502
 3247SOL    HW210641   5.869   2.964   4.519
 3248SOL     OW10642   5.320   4.052   3.355
 3248SOL    HW110643   5.322   3.953   3.366
 3248SOL    HW210644   5.290   4.075   3.262
 3249SOL     OW10645   3.958   5.093   5.752
 3249SOL    HW110646   3.875   5.097   5.808
 3249SOL    HW210647   4.020   5.026   5.790
 3250SOL     OW10648   4.476   4.732   0.571
 3250SOL    HW110649   4.426   4.755   0.655
 3250SOL    HW210650   4.444   4.643   0.537
 3251SOL     OW10651   2.519   1.531   3.114
 3251SOL    HW110652   2.451   1.589   3.067
 3251SOL    HW210653   2.515   1.550   3.212
 3252SOL     OW10654   3.043   2.127   3.111
 3252SOL    HW110655   3.114   2.071   3.069
 3252SOL    HW210656   3.071   2.153   3.203
 3253SOL     OW10657   5.333   4.254   2.094
 3253SOL    HW110658   5.424   4.295   2.085
 3253SOL    HW210659   5.277   4.279   2.015
 3254SOL     OW10660   6.115   3.852   3.167
 3254SOL    HW110661   6.065   3.765   3.159
 3254SOL    HW210662   6.172   3.865   3.086
 3255SOL     OW10663   2.569   4.535   0.447
 3255SOL    HW110664   2.655   4.518   0.400
 3255SOL    HW210665   2.583   4.534   0.546
 3256SOL     OW10666   6.235   6.761   5.290
 3256SOL    HW110667   6.246   6.701   5.370
 3256SOL    HW210668   6.184   6.842   5.315
 3257SOL     OW10669   2.844   0.906   1.727
 3257SOL    HW110670   2.913   0.958   1.676
 3257SOL    HW210671   2.814   0.960   1.805
 3258SOL     OW10672   4.460   6.721   2.592
 3258SOL    HW110673   4.465   6.715   2.691
 3258SOL    HW210674   4.444   6.630   2.553
 3259SOL     OW10675   5.708   5.707   3.299
 3259SOL    HW110676   5.737   5.684   3.392
 3259SOL    HW210677   5.610   5.725   3.298
 3260SOL     OW10678   1.999   1.738   1.115
 3260SOL    HW110679   2.035   1.830   1.104
 3260SOL    HW210680   2.059   1.685   1.175
 3261SOL     OW10681   4.814   6.348   4.432
 3261SOL    HW110682   4.791   6.280   4.363
 3261SOL    HW210683   4.790   6.439   4.398
 3262SOL     OW10684   4.798   2.426   3.620
 3262SOL    HW110685   4.840   2.517   3.617
 3262SOL    HW210686   4.860   2.363   3.667
 3263SOL     OW10687   3.167   4.945   2.773
 3263SOL    HW110688   3.172   5.040   2.805
 3263SOL    HW210689   3.100   4.895   2.829
 3264SOL     OW10690   4.754   3.879   6.378
 3264SOL    HW110691   4.717   3.920   6.462
 3264SOL    HW210692   4.701   3.910   6.299
 3265SOL     OW10693   5.230   6.780   5.490
 3265SOL    HW110694   5.245   6.737   5.401
 3265SOL    HW210695   5.234   6.711   5.562
 3266SOL     OW10696   1.560   2.396   5.963
 3266SOL    HW110697   1.497   2.388   6.041
 3266SOL    HW210698   1.518   2.354   5.882
 3267SOL     OW10699   5.579   4.065   0.948
 3267SOL    HW110700   5.593   3.993   0.880
 3267SOL    HW210701   5.495   4.047   0.999
 3268SOL     OW10702   2.428   5.225   0.848
 3268SOL    HW110703   2.347   5.194   0.798
 3268SOL    HW210704   2.462   5.309   0.807
 3269SOL     OW10705   3.950   3.448   1.592
 3269SOL    HW110706   3.925   3.488   1.504
 3269SOL    HW210707   3.916   3.354   1.596
 3270SOL     OW10708   6.244   6.055   2.900
 3270SOL    HW110709   6.313   6.119   2.935
 3270SOL    HW210710   6.163   6.058   2.959
 3271SOL     OW10711   4.832   0.100   0.266
 3271SOL    HW110712   4.929   0.080   0.278
 3271SOL    HW210713   4.812   0.107   0.168
 3272SOL     OW10714   4.252   6.422   6.307
 3272SOL    HW110715   4.154   6.406   6.295
 3272SOL    HW210716   4.267   6.517   6.336
 3273SOL     OW10717   6.713   0.730   2.662
 3273SOL    HW110718   6.676   0.780   2.585
 3273SOL    HW210719   6.639   0.703   2.724
 3274SOL     OW10720   3.283   0.306   1.566
 3274SOL    HW110721   3.351   0.327   1.495
 3274SOL    HW210722   3.199   0.273   1.524
 3275SOL     OW10723   4.699   0.456   6.001
 3275SOL    HW110724   4.621   0.416   6.050
 3275SOL    HW210725   4.750   0.515   6.064
 3276SOL     OW10726   2.032   5.147   1.465
 3276SOL    HW110727   1.945   5.179   1.426
 3276SOL    HW210728   2.098   5.222   1.464
 3277SOL     OW10729   0.671   5.962   6.321
 3277SOL    HW110730   0.614   6.042   6.305
 3277SOL    HW210731   0.680   5.946   6.420
 3278SOL     OW10732   1.031   6.871   6.815
 3278SOL    HW110733   1.029   6.866   6.915
 3278SOL    HW210734   1.122   6.847   6.783
 3279SOL     OW10735   1.906   6.648   1.894
 3279SOL    HW110736   1.938   6.579   1.959
 3279SOL    HW210737   1.852   6.717   1.942
 3280SOL     OW10738   3.076   5.758   3.495
 3280SOL    HW110739   3.062   5.747   3.594
 3280SOL    HW210740   3.002   5.814   3.457
 3281SOL     OW10741   1.744   6.875   1.603
 3281SOL    HW110742   1.828   6.848   1.650
 3281SOL    HW210743   1.671   6.810   1.625
 3282SOL     OW10744   1.156   4.488   2.004
 3282SOL    HW110745   1.182   4.564   1.946
 3282SOL    HW210746   1.212   4.488   2.087
 3283SOL     OW10747   1.362   0.629   3.254
 3283SOL    HW110748   1.419   0.677   3.187
 3283SOL    HW210749   1.286   0.689   3.281
 3284SOL     OW10750   2.557   6.108   5.795
 3284SOL    HW110751   2.620   6.040   5.833
 3284SOL    HW210752   2.473   6.062   5.764
 3285SOL     OW10753   0.791   3.696   4.183
 3285SOL    HW110754   0.732   3.630   4.230
 3285SOL    HW210755   0.873   3.712   4.237
 3286SOL     OW10756   4.976   4.665   0.446
 3286SOL    HW110757   5.015   4.587   0.494
 3286SOL    HW210758   4.884   4.683   0.480
 3287SOL     OW10759   0.634   1.942   1.325
 3287SOL    HW110760   0.639   2.039   1.305
 3287SOL    HW210761   0.675   1.890   1.250
 3288SOL     OW10762   1.125   6.882   0.379
 3288SOL    HW110763   1.072   6.836   0.308
 3288SOL    HW210764   1.084   6.863   0.468
 3289SOL     OW10765   1.441   0.766   4.148
 3289SOL    HW110766   1.529   0.790   4.189
 3289SOL    HW210767   1.455   0.741   4.052
 3290SOL     OW10768   0.105   4.917   4.655
 3290SOL    HW110769   0.054   4.865   4.724
 3290SOL    HW210770   0.134   4.856   4.581
 3291SOL     OW10771   1.318   1.252   1.596
 3291SOL    HW110772   1.398   1.236   1.538
 3291SOL    HW210773   1.306   1.350   1.611
 3292SOL     OW10774   1.004   6.671   3.866
 3292SOL    HW110775   1.047   6.752   3.906
 3292SOL    HW210776   1.061   6.591   3.884
 3293SOL     OW10777   5.809   1.063   3.040
 3293SOL    HW110778   5.850   0.975   3.063
 3293SOL    HW210779   5.800   1.071   2.941
 3294SOL     OW10780   6.933   6.549   1.911
 3294SOL    HW110781   7.005   6.481   1.900
 3294SOL    HW210782   6.863   6.513   1.973
 3295SOL     OW10783   3.015   2.747   6.502
 3295SOL    HW110784   2.946   2.799   6.551
 3295SOL    HW210785   3.054   2.803   6.429
 3296SOL     OW10786   1.134   6.674   1.906
 3296SOL    HW110787   1.076   6.726   1.970
 3296SOL    HW210788   1.199   6.618   1.958
 3297SOL     OW10789   3.751   0.283   5.032
 3297SOL    HW110790   3.759   0.185   5.013
 3297SOL    HW210791   3.655   0.310   5.024
 3298SOL     OW10792   6.884   5.265   3.381
 3298SOL    HW110793   6.976   5.291   3.409
 3298SOL    HW210794   6.823   5.268   3.460
 3299SOL     OW10795   2.219   1.445   4.659
 3299SOL    HW110796   2.187   1.530   4.702
 3299SOL    HW210797   2.292   1.405   4.715
 3300SOL     OW10798   0.640   6.822   4.521
 3300SOL    HW110799   0.562   6.811   4.459
 3300SOL    HW210800   0.652   6.918   4.543
 3301SOL     OW10801   6.209   4.079   2.389
 3301SOL    HW110802   6.262   4.071   2.474
 3301SOL    HW210803   6.233   4.164   2.343
 3302SOL     OW10804   1.896   5.840   5.756
 3302SOL    HW110805   1.882   5.773   5.829
 3302SOL    HW210806   1.816   5.899   5.750
 3303SOL     OW10807   3.324   3.385   5.092
 3303SOL    HW110808   3.277   3.298   5.105
 3303SOL    HW210809   3.314   3.441   5.174
 3304SOL     OW10810   2.344   1.020   3.834
 3304SOL    HW110811   2.364   1.032   3.737
 3304SOL    HW210812   2.406   0.952   3.872
 3305SOL     OW10813   1.869   2.258   0.608
 3305SOL    HW110814   1.922   2.273   0.525
 3305SOL    HW210815   1.893   2.327   0.676
 3306SOL     OW10816   1.391   1.608   0.652
 3306SOL    HW110817   1.452   1.544   0.605
 3306SOL    HW210818   1.348   1.562   0.730
 3307SOL     OW10819   0.312   6.504   0.453
 3307SOL    HW110820   0.298   6.460   0.364
 3307SOL    HW210821   0.285   6.600   0.447
 3308SOL     OW10822   5.382   5.277   0.263
 3308SOL    HW110823   5.417   5.350   0.321
 3308SOL    HW210824   5.416   5.290   0.170
 3309SOL     OW10825   0.447   4.287   1.850
 3309SOL    HW110826   0.437   4.191   1.873
 3309SOL    HW210827   0.422   4.343   1.928
 3310SOL     OW10828   2.167   0.205   2.274
 3310SOL    HW110829   2.114   0.212   2.358
 3310SOL    HW210830   2.155   0.113   2.235
 3311SOL     OW10831   4.423   5.075   0.969
 3311SOL    HW110832   4.334   5.082   0.924
 3311SOL    HW210833   4.416   5.112   1.062
 3312SOL     OW10834   2.122   2.233   5.722
 3312SOL    HW110835   2.116   2.220   5.623
 3312SOL    HW210836   2.064   2.309   5.750
 3313SOL     OW10837   5.085   6.298   5.364
 3313SOL    HW110838   5.170   6.292   5.416
 3313SOL    HW210839   5.106   6.291   5.266
 3314SOL     OW10840   0.589   3.924   6.644
 3314SOL    HW110841   0.672   3.926   6.588
 3314SOL    HW210842   0.521   3.985   6.604
 3315SOL     OW10843   6.722   3.320   3.336
 3315SOL    HW110844   6.653   3.295   3.268
 3315SOL    HW210845   6.744   3.417   3.326
 3316SOL     OW10846   3.616   0.281   6.336
 3316SOL    HW110847   3.601   0.379   6.346
 3316SOL    HW210848   3.531   0.238   6.304
 3317SOL     OW10849   6.206   2.619   1.159
 3317SOL    HW110850   6.215   2.599   1.256
 3317SOL    HW210851   6.134   2.688   1.146
 3318SOL     OW10852   2.502   4.956   6.224
 3318SOL    HW110853   2.446   5.029   6.183
 3318SOL    HW210854   2.555   4.912   6.152
 3319SOL     OW10855   1.244   6.158   6.257
 3319SOL    HW110856   1.342   6.144   6.272
 3319SOL    HW210857   1.230   6.218   6.178
 3320SOL     OW10858   1.262   0.791   0.917
 3320SOL    HW110859   1.330   0.823   0.983
 3320SOL    HW210860   1.288   0.701   0.883
 3321SOL     OW10861   3.986   3.644   4.395
 3321SOL    HW110862   4.006   3.547   4.377
 3321SOL    HW210863   3.903   3.670   4.345
 3322SOL     OW10864   5.410   3.511   2.932
 3322SOL    HW110865   5.336   3.467   2.984
 3322SOL    HW210866   5.383   3.517   2.835
 3323SOL     OW10867   1.894   3.919   0.586
 3323SOL    HW110868   1.815   3.970   0.553
 3323SOL    HW210869   1.885   3.823   0.560
 3324SOL     OW10870   6.379   2.882   1.892
 3324SOL    HW110871   6.477   2.898   1.903
 3324SOL    HW210872   6.343   2.942   1.821
 3325SOL     OW10873   1.671   4.786   5.801
 3325SOL    HW110874   1.753   4.732   5.781
 3325SOL    HW210875   1.633   4.821   5.715
 3326SOL     OW10876   4.259   6.890   2.247
 3326SOL    HW110877   4.235   6.795   2.269
 3326SOL    HW210878   4.179   6.937   2.210
 3327SOL     OW10879   4.717   6.139   2.178
 3327SOL    HW110880   4.789   6.106   2.239
 3327SOL    HW210881   4.759   6.195   2.106
 3328SOL     OW10882   6.442   6.208   3.055
 3328SOL    HW110883   6.407   6.229   3.146
 3328SOL    HW210884   6.536   6.175   3.062
 3329SOL     OW10885   5.680   0.192   5.834
 3329SOL    HW110886   5.641   0.103   5.812
 3329SOL    HW210887   5.680   0.250   5.752
 3330SOL     OW10888   5.508   0.946   3.651
 3330SOL    HW110889   5.502   0.965   3.553
 3330SOL    HW210890   5.505   1.032   3.701
 3331SOL     OW10891   0.529   3.786   2.752
 3331SOL    HW110892   0.626   3.781   2.729
 3331SOL    HW210893   0.516   3.761   2.848
 3332SOL     OW10894   4.222   5.076   1.542
 3332SOL    HW110895   4.167   4.993   1.534
 3332SOL    HW210896   4.319   5.051   1.546
 3333SOL     OW10897   2.302   3.836   1.041
 3333SOL    HW110898   2.322   3.840   1.139
 3333SOL    HW210899   2.232   3.904   1.018
 3334SOL     OW10900   2.081   2.640   1.947
 3334SOL    HW110901   2.028   2.560   1.976
 3334SOL    HW210902   2.172   2.636   1.987
 3335SOL     OW10903   4.390   3.868   6.514
 3335SOL    HW110904   4.341   3.791   6.553
 3335SOL    HW210905   4.435   3.839   6.429
 3336SOL     OW10906   3.683   5.763   6.448
 3336SOL    HW110907   3.639   5.713   6.523
 3336SOL    HW210908   3.717   5.851   6.481
 3337SOL     OW10909   3.088   3.822   4.277
 3337SOL    HW110910   3.153   3.887   4.236
 3337SOL    HW210911   3.039   3.866   4.352
 3338SOL     OW10912   3.477   2.945   1.624
 3338SOL    HW110913   3.488   3.035   1.582
 3338SOL    HW210914   3.380   2.919   1.621
 3339SOL     OW10915   0.840   6.854   5.643
 3339SOL    HW110916   0.901   6.886   5.570
 3339SOL    HW210917   0.894   6.807   5.713
 3340SOL     OW10918   4.736   2.301   6.666
 3340SOL    HW110919   4.692   2.341   6.585
 3340SOL    HW210920   4.779   2.373   6.720
 3341SOL     OW10921   1.173   3.444   1.698
 3341SOL    HW110922   1.245   3.513   1.696
 3341SOL    HW210923   1.084   3.489   1.705
 3342SOL     OW10924   5.841   0.554   3.713
 3342SOL    HW110925   5.862   0.511   3.625
 3342SOL    HW210926   5.771   0.500   3.760
 3343SOL     OW10927   3.621   5.082   0.030
 3343SOL    HW110928   3.551   5.061   0.098
 3343SOL    HW210929   3.712   5.070   0.070
 3344SOL     OW10930   2.193   3.725   0.635
 3344SOL    HW110931   2.159   3.726   0.541
 3344SOL    HW210932   2.116   3.720   0.698
 3345SOL     OW10933   4.186   5.071   0.841
 3345SOL    HW110934   4.189   5.168   0.819
 3345SOL    HW210935   4.163   5.019   0.758
 3346SOL     OW10936   0.771   0.829   0.522
 3346SOL    HW110937   0.693   0.834   0.458
 3346SOL    HW210938   0.770   0.740   0.568
 3347SOL     OW10939   0.851   3.009   5.845
 3347SOL    HW110940   0.867   3.089   5.788
 3347SOL    HW210941   0.938   2.963   5.864
 3348SOL     OW10942   2.849   4.274   5.882
 3348SOL    HW110943   2.866   4.370   5.859
 3348SOL    HW210944   2.896   4.215   5.816
 3349SOL     OW10945   2.552   5.520   1.715
 3349SOL    HW110946   2.613   5.455   1.759
 3349SOL    HW210947   2.549   5.605   1.768
 3350SOL     OW10948   3.024   4.844   4.485
 3350SOL    HW110949   3.057   4.888   4.569
 3350SOL    HW210950   3.069   4.885   4.406
 3351SOL     OW10951   4.014   7.010   2.192
 3351SOL    HW110952   3.948   6.940   2.167
 3351SOL    HW210953   3.998   0.069   2.137
 3352SOL     OW10954   5.850   0.739   0.332
 3352SOL    HW110955   5.844   0.649   0.289
 3352SOL    HW210956   5.823   0.733   0.428
 3353SOL     OW10957   4.967   0.013   6.099
 3353SOL    HW110958   4.873   0.045   6.085
 3353SOL    HW210959   4.985   6.958   6.038
 3354SOL     OW10960   3.703   1.465   0.442
 3354SOL    HW110961   3.635   1.432   0.376
 3354SOL    HW210962   3.664   1.540   0.496
 3355SOL     OW10963   0.938   2.061   5.690
 3355SOL    HW110964   0.949   1.973   5.737
 3355SOL    HW210965   1.023   2.083   5.641
 3356SOL     OW10966   2.814   0.327   5.238
 3356SOL    HW110967   2.905   0.351   5.205
 3356SOL    HW210968   2.821   0.283   5.327
 3357SOL     OW10969   3.338   3.617   4.503
 3357SOL    HW110970   3.280   3.590   4.580
 3357SOL    HW210971   3.343   3.541   4.438
 3358SOL     OW10972   0.159   2.067   1.428
 3358SOL    HW110973   0.250   2.032   1.405
 3358SOL    HW210974   0.159   2.166   1.418
 3359SOL     OW10975   0.563   0.160   3.074
 3359SOL    HW110976   0.551   0.139   3.171
 3359SOL    HW210977   0.604   0.082   3.027
 3360SOL     OW10978   1.644   5.700   4.700
 3360SOL    HW110979   1.573   5.669   4.638
 3360SOL    HW210980   1.602   5.743   4.780
 3361SOL     OW10981   1.032   0.119   4.727
 3361SOL    HW110982   1.045   0.045   4.661
 3361SOL    HW210983   0.962   0.182   4.693
 3362SOL     OW10984   3.894   0.642   5.221
 3362SOL    HW110985   3.919   0.593   5.137
 3362SOL    HW210986   3.907   0.740   5.208
 3363SOL     OW10987   5.272   3.319   0.719
 3363SOL    HW110988   5.268   3.355   0.812
 3363SOL    HW210989   5.337   3.373   0.665
 3364SOL     OW10990   2.364   3.300   1.408
 3364SOL    HW110991   2.264   3.297   1.408
 3364SOL    HW210992   2.398   3.273   1.498
 3365SOL     OW10993   0.569   3.415   2.864
 3365SOL    HW110994   0.581   3.499   2.812
 3365SOL    HW210995   0.643   3.406   2.931
 3366SOL     OW10996   5.407   2.820   3.405
 3366SOL    HW110997   5.405   2.760   3.486
 3366SOL    HW210998   5.501   2.845   3.385
 3367SOL     OW10999   3.093   3.874   3.126
 3367SOL    HW111000   3.079   3.883   3.225
 3367SOL    HW211001   3.036   3.800   3.091
 3368SOL     OW11002   1.370   1.179   3.788
 3368SOL    HW111003   1.404   1.231   3.867
 3368SOL    HW211004   1.290   1.224   3.750
 3369SOL     OW11005   6.374   3.016   0.661
 3369SOL    HW111006   6.394   3.076   0.739
 3369SOL    HW211007   6.365   2.922   0.692
 3370SOL     OW11008   0.212   6.088   3.556
 3370SOL    HW111009   0.194   6.084   3.458
 3370SOL    HW211010   0.279   6.018   3.580
 3371SOL     OW11011   3.135   2.638   1.349
 3371SOL    HW111012   3.088   2.602   1.268
 3371SOL    HW211013   3.111   2.734   1.361
 3372SOL     OW11014   6.008   2.547   3.419
 3372SOL    HW111015   6.078   2.481   3.448
 3372SOL    HW211016   6.010   2.626   3.480
 3373SOL     OW11017   0.768   4.579   1.153
 3373SOL    HW111018   0.684   4.632   1.168
 3373SOL    HW211019   0.744   4.482   1.143
 3374SOL     OW11020   0.821   5.495   4.226
 3374SOL    HW111021   0.811   5.583   4.273
 3374SOL    HW211022   0.817   5.421   4.294
 3375SOL     OW11023   6.860   6.413   5.795
 3375SOL    HW111024   6.936   6.465   5.756
 3375SOL    HW211025   6.849   6.438   5.891
 3376SOL     OW11026   3.272   3.646   4.858
 3376SOL    HW111027   3.245   3.652   4.954
 3376SOL    HW211028   3.201   3.685   4.800
 3377SOL     OW11029   5.780   5.593   4.627
 3377SOL    HW111030   5.797   5.615   4.531
 3377SOL    HW211031   5.867   5.588   4.676
 3378SOL     OW11032   0.762   5.635   6.871
 3378SOL    HW111033   0.709   5.595   6.945
 3378SOL    HW211034   0.812   5.563   6.823
 3379SOL     OW11035   6.228   4.733   3.750
 3379SOL    HW111036   6.321   4.752   3.783
 3379SOL    HW211037   6.173   4.816   3.758
 3380SOL     OW11038   1.221   4.712   1.844
 3380SOL    HW111039   1.160   4.791   1.846
 3380SOL    HW211040   1.239   4.687   1.749
 3381SOL     OW11041   3.040   4.796   0.177
 3381SOL    HW111042   3.089   4.717   0.215
 3381SOL    HW211043   3.041   4.871   0.242
 3382SOL     OW11044   0.507   3.374   0.066
 3382SOL    HW111045   0.585   3.325   0.104
 3382SOL    HW211046   0.468   3.434   0.136
 3383SOL     OW11047   3.388   5.887   6.942
 3383SOL    HW111048   3.414   5.860   6.849
 3383SOL    HW211049   3.401   5.810   7.004
 3384SOL     OW11050   3.098   2.870   6.845
 3384SOL    HW111051   3.014   2.840   6.798
 3384SOL    HW211052   3.084   2.865   6.944
 3385SOL     OW11053   6.330   1.976   4.535
 3385SOL    HW111054   6.245   1.965   4.484
 3385SOL    HW211055   6.326   1.923   4.619
 3386SOL     OW11056   6.632   4.414   5.180
 3386SOL    HW111057   6.617   4.366   5.093
 3386SOL    HW211058   6.643   4.348   5.254
 3387SOL     OW11059   6.002   1.187   2.619
 3387SOL    HW111060   6.005   1.111   2.684
 3387SOL    HW211061   5.913   1.232   2.624
 3388SOL     OW11062   1.180   4.025   1.420
 3388SOL    HW111063   1.134   4.086   1.485
 3388SOL    HW211064   1.212   3.943   1.468
 3389SOL     OW11065   6.088   5.150   6.621
 3389SOL    HW111066   6.157   5.183   6.557
 3389SOL    HW211067   6.085   5.050   6.618
 3390SOL     OW11068   3.242   4.559   0.910
 3390SOL    HW111069   3.185   4.597   0.983
 3390SOL    HW211070   3.199   4.477   0.873
 3391SOL     OW11071   5.939   4.093   5.536
 3391SOL    HW111072   5.955   4.119   5.440
 3391SOL    HW211073   5.934   4.176   5.592
 3392SOL     OW11074   4.903   5.747   5.825
 3392SOL    HW111075   4.853   5.808   5.887
 3392SOL    HW211076   4.987   5.716   5.870
 3393SOL     OW11077   3.418   1.059   0.778
 3393SOL    HW111078   3.442   0.962   0.776
 3393SOL    HW211079   3.474   1.108   0.712
 3394SOL     OW11080   3.374   5.321   2.039
 3394SOL    HW111081   3.435   5.268   2.098
 3394SOL    HW211082   3.293   5.347   2.091
 3395SOL     OW11083   1.643   6.061   3.165
 3395SOL    HW111084   1.642   6.080   3.067
 3395SOL    HW211085   1.583   5.983   3.184
 3396SOL     OW11086   3.989   6.938   4.385
 3396SOL    HW111087   3.956   6.844   4.373
 3396SOL    HW211088   3.963   6.993   4.306
 3397SOL     OW11089   3.075   6.070   2.259
 3397SOL    HW111090   3.118   6.064   2.350
 3397SOL    HW211091   3.008   5.997   2.250
 3398SOL     OW11092   6.180   0.212   1.028
 3398SOL    HW111093   6.253   0.254   1.082
 3398SOL    HW211094   6.220   0.151   0.960
 3399SOL     OW11095   5.855   6.736   2.746
 3399SOL    HW111096   5.920   6.692   2.809
 3399SOL    HW211097   5.787   6.670   2.717
 3400SOL     OW11098   3.190   3.120   5.700
 3400SOL    HW111099   3.172   3.130   5.798
 3400SOL    HW211100   3.145   3.194   5.650
 3401SOL     OW11101   6.411   4.129   3.634
 3401SOL    HW111102   6.432   4.106   3.729
 3401SOL    HW211103   6.363   4.052   3.591
 3402SOL     OW11104   6.890   3.951   0.469
 3402SOL    HW111105   6.860   3.976   0.377
 3402SOL    HW211106   6.940   3.865   0.465
 3403SOL     OW11107   5.425   6.796   4.137
 3403SOL    HW111108   5.348   6.859   4.137
 3403SOL    HW211109   5.463   6.790   4.045
 3404SOL     OW11110   5.218   4.993   3.067
 3404SOL    HW111111   5.315   5.017   3.057
 3404SOL    HW211112   5.189   5.009   3.161
 3405SOL     OW11113   4.535   0.243   0.074
 3405SOL    HW111114   4.629   0.277   0.072
 3405SOL    HW211115   4.485   0.286   0.150
 3406SOL     OW11116   4.940   4.568   0.903
 3406SOL    HW111117   4.873   4.537   0.836
 3406SOL    HW211118   5.010   4.624   0.858
 3407SOL     OW11119   2.314   1.809   0.804
 3407SOL    HW111120   2.327   1.711   0.790
 3407SOL    HW211121   2.396   1.847   0.846
 3408SOL     OW11122   3.300   6.836   4.686
 3408SOL    HW111123   3.203   6.861   4.676
 3408SOL    HW211124   3.309   6.737   4.688
 3409SOL     OW11125   4.924   2.288   0.089
 3409SOL    HW111126   4.954   2.318   0.179
 3409SOL    HW211127   4.840   2.234   0.097
 3410SOL     OW11128   6.315   1.906   2.413
 3410SOL    HW111129   6.295   1.814   2.445
 3410SOL    HW211130   6.366   1.901   2.327
 3411SOL     OW11131   5.078   3.292   6.501
 3411SOL    HW111132   5.079   3.301   6.601
 3411SOL    HW211133   5.075   3.383   6.460
 3412SOL     OW11134   5.022   3.578   2.795
 3412SOL    HW111135   4.996   3.484   2.775
 3412SOL    HW211136   5.013   3.633   2.712
 3413SOL     OW11137   1.409   2.309   0.390
 3413SOL    HW111138   1.474   2.371   0.347
 3413SOL    HW211139   1.414   2.219   0.347
 3414SOL     OW11140   3.303   3.497   1.786
 3414SOL    HW111141   3.280   3.584   1.742
 3414SOL    HW211142   3.267   3.421   1.732
 3415SOL     OW11143   3.040   1.005   0.057
 3415SOL    HW111144   3.021   1.036   0.150
 3415SOL    HW211145   3.128   1.041   0.027
 3416SOL     OW11146   5.150   5.580   6.724
 3416SOL    HW111147   5.095   5.496   6.723
 3416SOL    HW211148   5.096   5.656   6.689
 3417SOL     OW11149   5.773   0.433   2.604
 3417SOL    HW111150   5.707   0.432   2.679
 3417SOL    HW211151   5.852   0.489   2.629
 3418SOL     OW11152   4.836   5.938   1.337
 3418SOL    HW111153   4.762   5.979   1.390
 3418SOL    HW211154   4.891   6.010   1.296
 3419SOL     OW11155   2.659   4.553   5.336
 3419SOL    HW111156   2.732   4.547   5.267
 3419SOL    HW211157   2.661   4.472   5.394
 3420SOL     OW11158   4.993   0.037   2.296
 3420SOL    HW111159   5.040   0.072   2.215
 3420SOL    HW211160   5.038   6.976   2.327
 3421SOL     OW11161   0.769   1.315   4.910
 3421SOL    HW111162   0.851   1.279   4.955
 3421SOL    HW211163   0.719   1.374   4.974
 3422SOL     OW11164   2.924   4.992   1.878
 3422SOL    HW111165   2.915   4.964   1.782
 3422SOL    HW211166   2.961   4.917   1.932
 3423SOL     OW11167   1.676   5.922   6.142
 3423SOL    HW111168   1.737   5.919   6.221
 3423SOL    HW211169   1.601   5.986   6.160
 3424SOL     OW11170   6.075   5.401   2.873
 3424SOL    HW111171   5.980   5.376   2.893
 3424SOL    HW211172   6.085   5.501   2.878
 3425SOL     OW11173   6.109   3.134   6.408
 3425SOL    HW111174   6.089   3.069   6.334
 3425SOL    HW211175   6.191   3.104   6.457
 3426SOL     OW11176   6.249   4.959   6.261
 3426SOL    HW111177   6.331   4.966   6.204
 3426SOL    HW211178   6.214   4.865   6.257
 3427SOL     OW11179   1.816   0.936   6.385
 3427SOL    HW111180   1.778   0.881   6.460
 3427SOL    HW211181   1.913   0.916   6.374
 3428SOL     OW11182   4.022   0.920   4.059
 3428SOL    HW111183   3.944   0.946   4.002
 3428SOL    HW211184   3.990   0.889   4.148
 3429SOL     OW11185   5.921   5.533   0.351
 3429SOL    HW111186   6.001   5.539   0.410
 3429SOL    HW211187   5.870   5.449   0.372
 3430SOL     OW11188   2.671   4.638   6.874
 3430SOL    HW111189   2.594   4.579   6.899
 3430SOL    HW211190   2.732   4.648   6.953
 3431SOL     OW11191   1.666   3.510   1.674
 3431SOL    HW111192   1.655   3.458   1.589
 3431SOL    HW211193   1.745   3.571   1.665
 3432SOL     OW11194   0.040   5.613   0.057
 3432SOL    HW111195   0.087   5.545   0.114
 3432SOL    HW211196   6.977   5.574   0.024
 3433SOL     OW11197   0.317   1.095   0.186
 3433SOL    HW111198   0.298   1.145   0.101
 3433SOL    HW211199   0.397   1.038   0.174
 3434SOL     OW11200   4.278   3.036   1.447
 3434SOL    HW111201   4.217   3.109   1.415
 3434SOL    HW211202   4.236   2.991   1.526
 3435SOL     OW11203   3.451   2.677   1.292
 3435SOL    HW111204   3.364   2.709   1.329
 3435SOL    HW211205   3.527   2.716   1.345
 3436SOL     OW11206   4.966   5.627   4.873
 3436SOL    HW111207   5.016   5.711   4.853
 3436SOL    HW211208   4.868   5.645   4.870
 3437SOL     OW11209   2.960   5.810   0.043
 3437SOL    HW111210   2.999   5.845   6.981
 3437SOL    HW211211   2.863   5.788   0.028
 3438SOL     OW11212   2.619   4.043   1.158
 3438SOL    HW111213   2.594   4.005   1.247
 3438SOL    HW211214   2.572   4.131   1.145
 3439SOL     OW11215   3.158   5.761   0.828
 3439SOL    HW111216   3.153   5.663   0.848
 3439SOL    HW211217   3.100   5.812   0.891
 3440SOL     OW11218   4.053   4.829   5.579
 3440SOL    HW111219   4.128   4.893   5.597
 3440SOL    HW211220   4.036   4.774   5.661
 3441SOL     OW11221   0.591   5.720   5.916
 3441SOL    HW111222   0.626   5.642   5.969
 3441SOL    HW211223   0.522   5.687   5.852
 3442SOL     OW11224   1.880   2.115   6.960
 3442SOL    HW111225   1.900   2.126   6.863
 3442SOL    HW211226   1.904   2.022   6.989
 3443SOL     OW11227   6.847   6.282   2.151
 3443SOL    HW111228   6.915   6.322   2.212
 3443SOL    HW211229   6.842   6.184   2.167
 3444SOL     OW11230   1.648   3.983   6.002
 3444SOL    HW111231   1.714   4.009   5.932
 3444SOL    HW211232   1.649   3.884   6.014
 3445SOL     OW11233   5.993   4.592   3.918
 3445SOL    HW111234   6.047   4.652   3.859
 3445SOL    HW211235   5.912   4.642   3.951
 3446SOL     OW11236   5.699   1.379   6.608
 3446SOL    HW111237   5.654   1.388   6.519
 3446SOL    HW211238   5.782   1.325   6.598
 3447SOL     OW11239   5.491   1.742   6.231
 3447SOL    HW111240   5.421   1.709   6.295
 3447SOL    HW211241   5.571   1.681   6.235
 3448SOL     OW11242   0.725   5.720   4.966
 3448SOL    HW111243   0.680   5.653   5.025
 3448SOL    HW211244   0.696   5.707   4.871
 3449SOL     OW11245   1.140   4.121   4.597
 3449SOL    HW111246   1.240   4.117   4.597
 3449SOL    HW211247   1.109   4.191   4.533
 3450SOL     OW11248   2.053   6.689   3.483
 3450SOL    HW111249   2.137   6.729   3.521
 3450SOL    HW211250   2.062   6.683   3.384
 3451SOL     OW11251   2.730   1.588   1.219
 3451SOL    HW111252   2.801   1.655   1.199
 3451SOL    HW211253   2.641   1.635   1.223
 3452SOL     OW11254   4.496   1.201   5.354
 3452SOL    HW111255   4.410   1.219   5.307
 3452SOL    HW211256   4.566   1.265   5.322
 3453SOL     OW11257   4.771   6.278   6.095
 3453SOL    HW111258   4.709   6.333   6.039
 3453SOL    HW211259   4.865   6.304   6.076
 3454SOL     OW11260   1.736   3.262   3.879
 3454SOL    HW111261   1.795   3.304   3.810
 3454SOL    HW211262   1.792   3.218   3.949
 3455SOL     OW11263   2.041   3.768   6.232
 3455SOL    HW111264   2.131   3.782   6.273
 3455SOL    HW211265   1.988   3.853   6.238
 3456SOL     OW11266   4.873   4.968   2.860
 3456SOL    HW111267   4.925   5.053   2.846
 3456SOL    HW211268   4.930   4.902   2.909
 3457SOL     OW11269   4.432   4.119   0.403
 3457SOL    HW111270   4.486   4.134   0.320
 3457SOL    HW211271   4.339   4.151   0.387
 3458SOL     OW11272   4.486   1.511   0.689
 3458SOL    HW111273   4.567   1.504   0.748
 3458SOL    HW211274   4.431   1.589   0.717
 3459SOL     OW11275   6.296   0.845   2.508
 3459SOL    HW111276   6.244   0.920   2.548
 3459SOL    HW211277   6.245   0.807   2.430
 3460SOL     OW11278   5.122   1.924   5.162
 3460SOL    HW111279   5.110   2.017   5.128
 3460SOL    HW211280   5.126   1.926   5.262
 3461SOL     OW11281   5.069   4.438   5.255
 3461SOL    HW111282   5.132   4.514   5.274
 3461SOL    HW211283   5.101   4.356   5.301
 3462SOL     OW11284   1.446   3.948   6.960
 3462SOL    HW111285   1.453   3.949   6.861
 3462SOL    HW211286   1.383   3.876   6.989
 3463SOL     OW11287   6.214   3.571   0.184
 3463SOL    HW111288   6.175   3.620   0.107
 3463SOL    HW211289   6.201   3.472   0.172
 3464SOL     OW11290   0.985   5.004   4.785
 3464SOL    HW111291   0.939   4.917   4.763
 3464SOL    HW211292   1.030   5.039   4.703
 3465SOL     OW11293   1.197   2.303   0.912
 3465SOL    HW111294   1.270   2.345   0.859
 3465SOL    HW211295   1.139   2.375   0.952
 3466SOL     OW11296   4.816   4.199   3.335
 3466SOL    HW111297   4.732   4.178   3.385
 3466SOL    HW211298   4.889   4.219   3.400
 3467SOL     OW11299   1.840   1.352   6.359
 3467SOL    HW111300   1.837   1.426   6.426
 3467SOL    HW211301   1.877   1.387   6.273
 3468SOL     OW11302   5.831   5.171   2.136
 3468SOL    HW111303   5.858   5.224   2.216
 3468SOL    HW211304   5.732   5.157   2.137
 3469SOL     OW11305   5.823   3.102   0.621
 3469SOL    HW111306   5.859   3.033   0.684
 3469SOL    HW211307   5.809   3.188   0.670
 3470SOL     OW11308   6.016   5.949   6.282
 3470SOL    HW111309   6.014   5.967   6.381
 3470SOL    HW211310   5.968   6.023   6.234
 3471SOL     OW11311   3.947   6.830   4.641
 3471SOL    HW111312   3.858   6.785   4.634
 3471SOL    HW211313   3.944   6.918   4.595
 3472SOL     OW11314   3.507   0.744   3.873
 3472SOL    HW111315   3.591   0.738   3.926
 3472SOL    HW211316   3.526   0.729   3.776
 3473SOL     OW11317   4.470   6.989   3.557
 3473SOL    HW111318   4.424   0.016   3.630
 3473SOL    HW211319   4.434   6.895   3.552
 3474SOL     OW11320   6.335   4.968   1.107
 3474SOL    HW111321   6.297   4.970   1.199
 3474SOL    HW211322   6.433   4.986   1.111
 3475SOL     OW11323   2.344   5.856   5.058
 3475SOL    HW111324   2.299   5.917   5.123
 3475SOL    HW211325   2.296   5.859   4.970
 3476SOL     OW11326   2.136   2.047   2.770
 3476SOL    HW111327   2.058   2.075   2.826
 3476SOL    HW211328   2.122   1.952   2.739
 3477SOL     OW11329   4.746   5.610   2.520
 3477SOL    HW111330   4.654   5.584   2.547
 3477SOL    HW211331   4.782   5.543   2.456
 3478SOL     OW11332   3.805   5.326   0.191
 3478SOL    HW111333   3.867   5.254   0.159
 3478SOL    HW211334   3.844   5.371   0.271
 3479SOL     OW11335   1.951   1.411   0.437
 3479SOL    HW111336   1.916   1.318   0.446
 3479SOL    HW211337   2.048   1.413   0.459
 3480SOL     OW11338   1.916   0.169   5.153
 3480SOL    HW111339   1.939   0.262   5.181
 3480SOL    HW211340   1.902   0.166   5.054
 3481SOL     OW11341   1.720   4.237   0.141
 3481SOL    HW111342   1.664   4.296   0.083
 3481SOL    HW211343   1.690   4.142   0.129
 3482SOL     OW11344   0.219   2.335   1.379
 3482SOL    HW111345   0.299   2.391   1.403
 3482SOL    HW211346   0.136   2.388   1.393
 3483SOL     OW11347   4.139   1.413   1.527
 3483SOL    HW111348   4.149   1.314   1.518
 3483SOL    HW211349   4.202   1.446   1.598
 3484SOL     OW11350   3.841   4.040   4.207
 3484SOL    HW111351   3.767   4.095   4.167
 3484SOL    HW211352   3.863   4.075   4.298
 3485SOL     OW11353   6.311   3.310   3.809
 3485SOL    HW111354   6.401   3.348   3.829
 3485SOL    HW211355   6.301   3.223   3.856
 3486SOL     OW11356   6.068   1.978   2.640
 3486SOL    HW111357   6.019   1.891   2.650
 3486SOL    HW211358   6.157   1.962   2.599
 3487SOL     OW11359   1.739   6.125   1.656
 3487SOL    HW111360   1.690   6.202   1.698
 3487SOL    HW211361   1.702   6.039   1.691
 3488SOL     OW11362   6.986   2.796   4.866
 3488SOL    HW111363   0.061   2.775   4.865
 3488SOL    HW211364   6.961   2.842   4.781
 3489SOL     OW11365   1.943   5.492   6.644
 3489SOL    HW111366   1.908   5.586   6.648
 3489SOL    HW211367   2.017   5.482   6.711
 3490SOL     OW11368   5.457   3.024   0.148
 3490SOL    HW111369   5.391   3.063   0.212
 3490SOL    HW211370   5.420   3.030   0.055
 3491SOL     OW11371   6.366   2.635   5.102
 3491SOL    HW111372   6.276   2.598   5.124
 3491SOL    HW211373   6.384   2.716   5.159
 3492SOL     OW11374   1.154   4.105   6.279
 3492SOL    HW111375   1.223   4.056   6.333
 3492SOL    HW211376   1.074   4.124   6.337
 3493SOL     OW11377   0.445   5.002   1.139
 3493SOL    HW111378   0.415   4.939   1.067
 3493SOL    HW211379   0.381   5.078   1.145
 3494SOL     OW11380   3.323   6.645   0.938
 3494SOL    HW111381   3.241   6.698   0.916
 3494SOL    HW211382   3.395   6.706   0.971
 3495SOL     OW11383   5.286   4.266   5.776
 3495SOL    HW111384   5.303   4.363   5.795
 3495SOL    HW211385   5.358   4.230   5.717
 3496SOL     OW11386   0.806   6.239   1.364
 3496SOL    HW111387   0.772   6.309   1.301
 3496SOL    HW211388   0.872   6.279   1.427
 3497SOL     OW11389   3.104   0.410   4.667
 3497SOL    HW111390   3.118   0.400   4.568
 3497SOL    HW211391   3.171   0.474   4.704
 3498SOL     OW11392   1.890   1.697   0.663
 3498SOL    HW111393   1.947   1.774   0.636
 3498SOL    HW211394   1.822   1.679   0.592
 3499SOL     OW11395   0.213   4.425   2.864
 3499SOL    HW111396   0.240   4.483   2.787
 3499SOL    HW211397   0.281   4.433   2.937
 3500SOL     OW11398   6.560   2.512   0.420
 3500SOL    HW111399   6.586   2.590   0.477
 3500SOL    HW211400   6.557   2.539   0.324
 3501SOL     OW11401   6.963   4.879   3.356
 3501SOL    HW111402   0.026   4.926   3.380
 3501SOL    HW211403   6.887   4.921   3.405
 3502SOL     OW11404   1.001   6.355   1.515
 3502SOL    HW111405   1.014   6.319   1.608
 3502SOL    HW211406   1.082   6.407   1.489
 3503SOL     OW11407   2.894   0.874   3.404
 3503SOL    HW111408   2.799   0.905   3.410
 3503SOL    HW211409   2.947   0.912   3.479
 3504SOL     OW11410   1.791   2.196   2.138
 3504SOL    HW111411   1.790   2.262   2.213
 3504SOL    HW211412   1.877   2.144   2.141
 3505SOL     OW11413   4.396   0.357   4.084
 3505SOL    HW111414   4.465   0.336   4.014
 3505SOL    HW211415   4.308   0.319   4.056
 3506SOL     OW11416   6.145   3.008   3.445
 3506SOL    HW111417   6.220   3.073   3.448
 3506SOL    HW211418   6.140   2.968   3.353
 3507SOL     OW11419   0.036   6.577   5.193
 3507SOL    HW111420   0.107   6.511   5.219
 3507SOL    HW211421   0.076   6.669   5.190
 3508SOL     OW11422   0.443   4.457   0.002
 3508SOL    HW111423   0.355   4.502   0.017
 3508SOL    HW211424   0.507   4.485   0.074
 3509SOL     OW11425   3.702   6.867   0.145
 3509SOL    HW111426   3.733   6.794   0.084
 3509SOL    HW211427   3.744   6.954   0.117
 3510SOL     OW11428   2.384   1.753   2.946
 3510SOL    HW111429   2.346   1.740   2.855
 3510SOL    HW211430   2.483   1.768   2.940
 3511SOL     OW11431   0.182   1.243   3.735
 3511SOL    HW111432   0.175   1.163   3.676
 3511SOL    HW211433   0.269   1.289   3.718
 3512SOL     OW11434   3.242   2.840   2.101
 3512SOL    HW111435   3.147   2.863   2.120
 3512SOL    HW211436   3.283   2.911   2.042
 3513SOL     OW11437   6.621   4.721   0.177
 3513SOL    HW111438   6.714   4.713   0.142
 3513SOL    HW211439   6.592   4.817   0.174
 3514SOL     OW11440   3.280   5.519   3.648
 3514SOL    HW111441   3.359   5.462   3.625
 3514SOL    HW211442   3.308   5.615   3.653
 3515SOL     OW11443   3.578   5.657   4.281
 3515SOL    HW111444   3.595   5.654   4.379
 3515SOL    HW211445   3.583   5.565   4.243
 3516SOL     OW11446   1.893   1.644   0.257
 3516SOL    HW111447   1.894   1.599   0.168
 3516SOL    HW211448   1.908   1.576   0.329
 3517SOL     OW11449   0.557   1.212   6.164
 3517SOL    HW111450   0.575   1.114   6.174
 3517SOL    HW211451   0.460   1.226   6.143
 3518SOL     OW11452   4.189   3.652   5.887
 3518SOL    HW111453   4.285   3.680   5.880
 3518SOL    HW211454   4.130   3.728   5.862
 3519SOL     OW11455   4.157   0.580   6.396
 3519SOL    HW111456   4.144   0.519   6.318
 3519SOL    HW211457   4.209   0.533   6.468
 3520SOL     OW11458   4.530   4.809   1.337
 3520SOL    HW111459   4.629   4.799   1.339
 3520SOL    HW211460   4.487   4.727   1.375
 3521SOL     OW11461   0.120   1.644   5.602
 3521SOL    HW111462   0.140   1.600   5.689
 3521SOL    HW211463   0.148   1.584   5.527
 3522SOL     OW11464   2.364   0.459   0.767
 3522SOL    HW111465   2.306   0.386   0.804
 3522SOL    HW211466   2.307   0.526   0.719
 3523SOL     OW11467   2.043   4.371   4.284
 3523SOL    HW111468   2.031   4.321   4.370
 3523SOL    HW211469   2.026   4.468   4.299
 3524SOL     OW11470   2.788   1.447   3.073
 3524SOL    HW111471   2.698   1.491   3.077
 3524SOL    HW211472   2.823   1.451   2.980
 3525SOL     OW11473   1.965   3.102   3.528
 3525SOL    HW111474   1.893   3.045   3.490
 3525SOL    HW211475   2.015   3.051   3.598
 3526SOL     OW11476   3.465   5.954   4.078
 3526SOL    HW111477   3.560   5.962   4.110
 3526SOL    HW211478   3.406   5.927   4.155
 3527SOL     OW11479   6.783   4.135   6.619
 3527SOL    HW111480   6.718   4.161   6.691
 3527SOL    HW211481   6.871   4.180   6.635
 3528SOL     OW11482   1.087   6.406   3.602
 3528SOL    HW111483   1.003   6.430   3.651
 3528SOL    HW211484   1.065   6.351   3.522
 3529SOL     OW11485   3.776   0.383   6.938
 3529SOL    HW111486   3.782   0.478   6.966
 3529SOL    HW211487   3.682   0.350   6.952
 3530SOL     OW11488   2.301   5.818   2.280
 3530SOL    HW111489   2.380   5.826   2.220
 3530SOL    HW211490   2.220   5.794   2.227
 3531SOL     OW11491   5.181   4.142   6.916
 3531SOL    HW111492   5.136   4.076   6.855
 3531SOL    HW211493   5.224   4.214   6.862
 3532SOL     OW11494   2.510   0.485   6.297
 3532SOL    HW111495   2.580   0.454   6.361
 3532SOL    HW211496   2.419   0.463   6.333
 3533SOL     OW11497   1.350   1.138   2.795
 3533SOL    HW111498   1.371   1.227   2.837
 3533SOL    HW211499   1.271   1.149   2.734
 3534SOL     OW11500   4.479   6.691   4.751
 3534SOL    HW111501   4.458   6.596   4.775
 3534SOL    HW211502   4.402   6.749   4.776
 3535SOL     OW11503   3.817   4.627   7.015
 3535SOL    HW111504   3.801   4.629   0.091
 3535SOL    HW211505   3.729   4.632   6.968
 3536SOL     OW11506   2.133   2.955   2.515
 3536SOL    HW111507   2.153   2.974   2.611
 3536SOL    HW211508   2.036   2.971   2.496
 3537SOL     OW11509   3.266   5.011   1.524
 3537SOL    HW111510   3.173   5.045   1.511
 3537SOL    HW211511   3.271   4.959   1.609
 3538SOL     OW11512   2.734   0.356   4.128
 3538SOL    HW111513   2.696   0.328   4.216
 3538SOL    HW211514   2.669   0.416   4.080
 3539SOL     OW11515   5.368   4.863   6.378
 3539SOL    HW111516   5.353   4.819   6.290
 3539SOL    HW211517   5.281   4.873   6.426
 3540SOL     OW11518   5.292   3.639   6.619
 3540SOL    HW111519   5.307   3.589   6.704
 3540SOL    HW211520   5.251   3.728   6.640
 3541SOL     OW11521   0.422   3.092   2.724
 3541SOL    HW111522   0.376   3.176   2.752
 3541SOL    HW211523   0.509   3.083   2.773
 3542SOL     OW11524   5.876   0.714   6.611
 3542SOL    HW111525   5.917   0.732   6.522
 3542SOL    HW211526   5.885   0.795   6.669
 3543SOL     OW11527   0.530   3.127   5.014
 3543SOL    HW111528   0.595   3.131   5.090
 3543SOL    HW211529   0.441   3.163   5.044
 3544SOL     OW11530   4.424   4.854   5.965
 3544SOL    HW111531   4.471   4.795   5.899
 3544SOL    HW211532   4.482   4.866   6.046
 3545SOL     OW11533   2.528   6.804   1.828
 3545SOL    HW111534   2.456   6.873   1.821
 3545SOL    HW211535   2.494   6.716   1.797
 3546SOL     OW11536   6.685   3.629   1.188
 3546SOL    HW111537   6.653   3.677   1.270
 3546SOL    HW211538   6.681   3.531   1.204
 3547SOL     OW11539   1.845   4.425   4.077
 3547SOL    HW111540   1.797   4.513   4.076
 3547SOL    HW211541   1.914   4.426   4.150
 3548SOL     OW11542   6.255   6.612   5.567
 3548SOL    HW111543   6.219   6.525   5.533
 3548SOL    HW211544   6.304   6.597   5.653
 3549SOL     OW11545   0.797   0.118   6.919
 3549SOL    HW111546   0.877   0.130   6.861
 3549SOL    HW211547   0.718   0.094   6.862
 3550SOL     OW11548   6.840   2.575   4.663
 3550SOL    HW111549   6.918   2.583   4.601
 3550SOL    HW211550   6.792   2.663   4.668
 3551SOL     OW11551   6.364   2.009   5.282
 3551SOL    HW111552   6.411   2.096   5.268
 3551SOL    HW211553   6.421   1.935   5.247
 3552SOL     OW11554   6.106   1.004   4.111
 3552SOL    HW111555   6.014   1.036   4.089
 3552SOL    HW211556   6.131   1.038   4.202
 3553SOL     OW11557   5.433   5.476   6.638
 3553SOL    HW111558   5.495   5.461   6.715
 3553SOL    HW211559   5.368   5.549   6.662
 3554SOL     OW11560   5.804   3.519   0.282
 3554SOL    HW111561   5.824   3.617   0.280
 3554SOL    HW211562   5.816   3.481   0.190
 3555SOL     OW11563   2.637   0.788   4.751
 3555SOL    HW111564   2.716   0.753   4.700
 3555SOL    HW211565   2.569   0.823   4.687
 3556SOL     OW11566   5.294   1.544   0.417
 3556SOL    HW111567   5.200   1.542   0.385
 3556SOL    HW211568   5.334   1.453   0.410
 3557SOL     OW11569   5.270   0.729   0.896
 3557SOL    HW111570   5.256   0.815   0.946
 3557SOL    HW211571   5.192   0.714   0.834
 3558SOL     OW11572   4.294   5.901   3.506
 3558SOL    HW111573   4.259   5.969   3.441
 3558SOL    HW211574   4.224   5.882   3.575
 3559SOL     OW11575   4.367   6.224   0.114
 3559SOL    HW111576   4.425   6.217   0.032
 3559SOL    HW211577   4.292   6.287   0.096
 3560SOL     OW11578   1.940   5.696   4.177
 3560SOL    HW111579   2.004   5.636   4.225
 3560SOL    HW211580   1.889   5.750   4.244
 3561SOL     OW11581   4.704   3.262   6.553
 3561SOL    HW111582   4.616   3.289   6.592
 3561SOL    HW211583   4.757   3.214   6.623
 3562SOL     OW11584   2.877   1.026   0.596
 3562SOL    HW111585   2.811   1.021   0.670
 3562SOL    HW211586   2.970   1.013   0.632
 3563SOL     OW11587   5.625   2.268   6.327
 3563SOL    HW111588   5.640   2.247   6.424
 3563SOL    HW211589   5.630   2.183   6.275
 3564SOL     OW11590   5.771   2.894   3.212
 3564SOL    HW111591   5.849   2.919   3.270
 3564SOL    HW211592   5.739   2.976   3.164
 3565SOL     OW11593   5.079   6.264   5.084
 3565SOL    HW111594   4.988   6.224   5.077
 3565SOL    HW211595   5.081   6.353   5.037
 3566SOL     OW11596   0.666   0.894   4.352
 3566SOL    HW111597   0.688   0.948   4.433
 3566SOL    HW211598   0.584   0.930   4.309
 3567SOL     OW11599   1.933   4.240   6.994
 3567SOL    HW111600   1.855   4.248   0.033
 3567SOL    HW211601   1.957   4.330   6.958
 3568SOL     OW11602   1.882   3.365   5.687
 3568SOL    HW111603   1.937   3.438   5.647
 3568SOL    HW211604   1.832   3.317   5.616
 3569SOL     OW11605   0.634   0.441   3.347
 3569SOL    HW111606   0.697   0.403   3.278
 3569SOL    HW211607   0.640   0.540   3.346
 3570SOL     OW11608   0.021   1.921   4.994
 3570SOL    HW111609   0.064   1.893   4.908
 3570SOL    HW211610   0.029   1.847   5.061
 3571SOL     OW11611   0.300   5.721   5.299
 3571SOL    HW111612   0.384   5.775   5.285
 3571SOL    HW211613   0.299   5.685   5.392
 3572SOL     OW11614   5.106   6.908   5.250
 3572SOL    HW111615   5.015   6.926   5.289
 3572SOL    HW211616   5.176   6.930   5.318
 3573SOL     OW11617   0.666   2.605   1.747
 3573SOL    HW111618   0.599   2.534   1.770
 3573SOL    HW211619   0.625   2.669   1.683
 3574SOL     OW11620   1.192   3.734   0.557
 3574SOL    HW111621   1.182   3.735   0.656
 3574SOL    HW211622   1.115   3.684   0.517
 3575SOL     OW11623   7.002   0.731   2.585
 3575SOL    HW111624   7.020   0.671   2.507
 3575SOL    HW211625   6.904   0.753   2.588
 3576SOL     OW11626   0.575   1.064   0.894
 3576SOL    HW111627   0.599   0.968   0.911
 3576SOL    HW211628   0.655   1.113   0.860
 3577SOL     OW11629   2.381   4.542   0.991
 3577SOL    HW111630   2.282   4.545   1.003
 3577SOL    HW211631   2.423   4.620   1.037
 3578SOL     OW11632   3.693   4.910   1.591
 3578SOL    HW111633   3.746   4.824   1.590
 3578SOL    HW211634   3.756   4.987   1.588
 3579SOL     OW11635   2.192   2.808   6.875
 3579SOL    HW111636   2.225   2.882   6.816
 3579SOL    HW211637   2.227   2.720   6.843
 3580SOL     OW11638   5.543   0.889   2.405
 3580SOL    HW111639   5.603   0.927   2.334
 3580SOL    HW211640   5.566   0.793   2.420
 3581SOL     OW11641   6.816   1.681   2.670
 3581SOL    HW111642   6.875   1.691   2.589
 3581SOL    HW211643   6.805   1.584   2.691
 3582SOL     OW11644   0.491   0.693   6.021
 3582SOL    HW111645   0.513   0.694   5.923
 3582SOL    HW211646   0.403   0.647   6.034
 3583SOL     OW11647   0.967   6.849   2.852
 3583SOL    HW111648   1.005   6.930   2.898
 3583SOL    HW211649   0.868   6.858   2.843
 3584SOL     OW11650   5.519   0.093   4.692
 3584SOL    HW111651   5.508   0.017   4.757
 3584SOL    HW211652   5.541   0.057   4.602
 3585SOL     OW11653   2.063   5.269   2.206
 3585SOL    HW111654   2.023   5.352   2.243
 3585SOL    HW211655   2.158   5.262   2.237
 3586SOL     OW11656   1.328   1.359   6.452
 3586SOL    HW111657   1.375   1.307   6.381
 3586SOL    HW211658   1.248   1.405   6.412
 3587SOL     OW11659   3.482   6.084   5.536
 3587SOL    HW111660   3.533   6.133   5.607
 3587SOL    HW211661   3.536   6.082   5.452
 3588SOL     OW11662   2.675   2.425   5.079
 3588SOL    HW111663   2.713   2.480   5.153
 3588SOL    HW211664   2.737   2.350   5.058
 3589SOL     OW11665   3.097   6.061   5.013
 3589SOL    HW111666   3.044   6.083   5.095
 3589SOL    HW211667   3.138   5.970   5.024
 3590SOL     OW11668   1.279   6.551   0.122
 3590SOL    HW111669   1.323   6.633   0.160
 3590SOL    HW211670   1.343   6.475   0.124
 3591SOL     OW11671   4.899   2.119   4.562
 3591SOL    HW111672   4.949   2.033   4.556
 3591SOL    HW211673   4.801   2.100   4.570
 3592SOL     OW11674   5.682   0.800   1.753
 3592SOL    HW111675   5.643   0.857   1.681
 3592SOL    HW211676   5.609   0.764   1.811
 3593SOL     OW11677   1.348   5.081   4.873
 3593SOL    HW111678   1.432   5.119   4.912
 3593SOL    HW211679   1.281   5.154   4.860
 3594SOL     OW11680   4.601   1.747   4.327
 3594SOL    HW111681   4.554   1.800   4.257
 3594SOL    HW211682   4.549   1.751   4.412
 3595SOL     OW11683   1.898   6.651   6.381
 3595SOL    HW111684   1.985   6.679   6.421
 3595SOL    HW211685   1.855   6.729   6.336
 3596SOL     OW11686   6.406   3.268   2.981
 3596SOL    HW111687   6.458   3.242   2.899
 3596SOL    HW211688   6.360   3.355   2.965
 3597SOL     OW11689   4.422   0.341   3.401
 3597SOL    HW111690   4.441   0.439   3.402
 3597SOL    HW211691   4.391   0.314   3.309
 3598SOL     OW11692   2.334   0.012   0.400
 3598SOL    HW111693   2.410   0.071   0.430
 3598SOL    HW211694   2.332   6.953   0.457
 3599SOL     OW11695   0.274   2.366   4.573
 3599SOL    HW111696   0.346   2.348   4.639
 3599SOL    HW211697   0.188   2.325   4.604
 3600SOL     OW11698   6.190   6.234   0.631
 3600SOL    HW111699   6.110   6.184   0.663
 3600SOL    HW211700   6.271   6.176   0.642
 3601SOL     OW11701   0.258   4.071   5.976
 3601SOL    HW111702   0.254   4.095   6.072
 3601SOL    HW211703   0.352   4.044   5.952
 3602SOL     OW11704   4.003   2.110   1.134
 3602SOL    HW111705   4.048   2.188   1.178
 3602SOL    HW211706   3.922   2.085   1.186
 3603SOL     OW11707   3.247   5.452   5.195
 3603SOL    HW111708   3.180   5.526   5.189
 3603SOL    HW211709   3.324   5.482   5.252
 3604SOL     OW11710   5.510   4.490   3.326
 3604SOL    HW111711   5.470   4.550   3.257
 3604SOL    HW211712   5.440   4.427   3.360
 3605SOL     OW11713   5.744   1.257   6.296
 3605SOL    HW111714   5.657   1.207   6.291
 3605SOL    HW211715   5.787   1.257   6.206
 3606SOL     OW11716   1.743   4.438   2.317
 3606SOL    HW111717   1.814   4.507   2.303
 3606SOL    HW211718   1.752   4.366   2.248
 3607SOL     OW11719   4.312   6.301   5.149
 3607SOL    HW111720   4.351   6.393   5.156
 3607SOL    HW211721   4.214   6.309   5.128
 3608SOL     OW11722   6.904   3.125   2.675
 3608SOL    HW111723   6.996   3.128   2.714
 3608SOL    HW211724   6.871   3.218   2.660
 3609SOL     OW11725   0.993   0.920   4.323
 3609SOL    HW111726   0.955   0.882   4.239
 3609SOL    HW211727   1.068   0.982   4.302
 3610SOL     OW11728   1.569   4.893   5.563
 3610SOL    HW111729   1.659   4.885   5.521
 3610SOL    HW211730   1.507   4.824   5.524
 3611SOL     OW11731   4.342   4.855   6.925
 3611SOL    HW111732   4.304   4.907   6.847
 3611SOL    HW211733   4.437   4.881   6.939
 3612SOL     OW11734   2.913   5.772   1.425
 3612SOL    HW111735   2.845   5.760   1.353
 3612SOL    HW211736   2.968   5.689   1.434
 3613SOL     OW11737   5.423   3.993   6.714
 3613SOL    HW111738   5.411   4.086   6.747
 3613SOL    HW211739   5.477   3.941   6.780
 3614SOL     OW11740   3.858   3.039   5.047
 3614SOL    HW111741   3.904   2.990   5.122
 3614SOL    HW211742   3.915   3.034   4.965
 3615SOL     OW11743   5.856   6.511   6.499
 3615SOL    HW111744   5.836   6.604   6.471
 3615SOL    HW211745   5.908   6.513   6.585
 3616SOL     OW11746   6.937   1.506   4.333
 3616SOL    HW111747   6.935   1.452   4.249
 3616SOL    HW211748   6.848   1.551   4.344
 3617SOL     OW11749   0.258   0.898   1.521
 3617SOL    HW111750   0.163   0.872   1.534
 3617SOL    HW211751   0.314   0.860   1.595
 3618SOL     OW11752   3.802   5.502   6.369
 3618SOL    HW111753   3.737   5.549   6.428
 3618SOL    HW211754   3.885   5.480   6.421
 3619SOL     OW11755   4.951   3.280   3.857
 3619SOL    HW111756   5.050   3.293   3.855
 3619SOL    HW211757   4.921   3.236   3.772
 3620SOL     OW11758   5.722   2.004   5.578
 3620SOL    HW111759   5.807   2.053   5.557
 3620SOL    HW211760   5.728   1.962   5.668
 3621SOL     OW11761   2.492   2.748   6.709
 3621SOL    HW111762   2.523   2.795   6.792
 3621SOL    HW211763   2.518   2.800   6.628
 3622SOL     OW11764   1.468   3.648   1.376
 3622SOL    HW111765   1.551   3.614   1.421
 3622SOL    HW211766   1.442   3.584   1.303
 3623SOL     OW11767   5.769   5.243   4.427
 3623SOL    HW111768   5.699   5.188   4.472
 3623SOL    HW211769   5.816   5.299   4.495
 3624SOL     OW11770   1.963   6.834   1.726
 3624SOL    HW111771   1.992   6.914   1.779
 3624SOL    HW211772   1.951   6.756   1.786
 3625SOL     OW11773   1.461   2.871   4.834
 3625SOL    HW111774   1.445   2.930   4.913
 3625SOL    HW211775   1.431   2.918   4.751
 3626SOL     OW11776   2.031   2.938   5.053
 3626SOL    HW111777   2.102   2.916   4.987
 3626SOL    HW211778   2.071   2.989   5.129
 3627SOL     OW11779   3.770   2.976   4.055
 3627SOL    HW111780   3.684   2.929   4.076
 3627SOL    HW211781   3.777   2.991   3.957
 3628SOL     OW11782   2.805   5.169   3.994
 3628SOL    HW111783   2.786   5.099   4.063
 3628SOL    HW211784   2.871   5.235   4.031
 3629SOL     OW11785   6.174   3.778   5.050
 3629SOL    HW111786   6.093   3.724   5.026
 3629SOL    HW211787   6.236   3.782   4.972
 3630SOL     OW11788   6.268   2.252   4.462
 3630SOL    HW111789   6.323   2.336   4.463
 3630SOL    HW211790   6.317   2.179   4.510
 3631SOL     OW11791   2.296   1.186   4.446
 3631SOL    HW111792   2.222   1.178   4.379
 3631SOL    HW211793   2.285   1.271   4.497
 3632SOL     OW11794   4.911   6.602   6.822
 3632SOL    HW111795   4.976   6.633   6.752
 3632SOL    HW211796   4.961   6.577   6.904
 3633SOL     OW11797   0.568   2.999   5.883
 3633SOL    HW111798   0.665   3.015   5.868
 3633SOL    HW211799   0.516   3.082   5.861
 3634SOL     OW11800   2.301   4.505   6.714
 3634SOL    HW111801   2.362   4.456   6.652
 3634SOL    HW211802   2.212   4.517   6.670
 3635SOL     OW11803   1.554   1.895   4.387
 3635SOL    HW111804   1.532   1.948   4.305
 3635SOL    HW211805   1.579   1.801   4.361
 3636SOL     OW11806   0.652   6.610   1.645
 3636SOL    HW111807   0.632   6.513   1.636
 3636SOL    HW211808   0.732   6.622   1.704
 3637SOL     OW11809   5.497   1.742   2.417
 3637SOL    HW111810   5.578   1.800   2.406
 3637SOL    HW211811   5.518   1.667   2.480
 3638SOL     OW11812   6.919   5.297   3.108
 3638SOL    HW111813   6.892   5.279   3.203
 3638SOL    HW211814   6.889   5.222   3.050
 3639SOL     OW11815   2.676   5.610   6.822
 3639SOL    HW111816   2.759   5.661   6.797
 3639SOL    HW211817   2.699   5.513   6.832
 3640SOL     OW11818   2.586   0.112   3.536
 3640SOL    HW111819   2.523   0.139   3.609
 3640SOL    HW211820   2.672   0.078   3.577
 3641SOL     OW11821   2.388   0.310   5.254
 3641SOL    HW111822   2.447   0.357   5.320
 3641SOL    HW211823   2.322   0.374   5.215
 3642SOL     OW11824   5.910   0.742   2.751
 3642SOL    HW111825   5.812   0.741   2.730
 3642SOL    HW211826   5.959   0.686   2.684
 3643SOL     OW11827   3.555   6.688   3.545
 3643SOL    HW111828   3.599   6.638   3.620
 3643SOL    HW211829   3.591   6.781   3.542
 3644SOL     OW11830   5.786   0.596   1.008
 3644SOL    HW111831   5.696   0.571   0.972
 3644SOL    HW211832   5.809   0.688   0.977
 3645SOL     OW11833   4.442   5.541   3.838
 3645SOL    HW111834   4.436   5.501   3.746
 3645SOL    HW211835   4.503   5.485   3.894
 3646SOL     OW11836   0.312   5.901   5.072
 3646SOL    HW111837   0.295   5.850   5.156
 3646SOL    HW211838   0.307   5.999   5.090
 3647SOL     OW11839   3.847   2.507   0.714
 3647SOL    HW111840   3.776   2.437   0.712
 3647SOL    HW211841   3.925   2.474   0.767
 3648SOL     OW11842   2.471   6.233   3.878
 3648SOL    HW111843   2.403   6.303   3.854
 3648SOL    HW211844   2.561   6.276   3.888
 3649SOL     OW11845   3.651   2.832   2.920
 3649SOL    HW111846   3.708   2.893   2.865
 3649SOL    HW211847   3.557   2.867   2.920
 3650SOL     OW11848   5.561   5.928   2.305
 3650SOL    HW111849   5.622   5.947   2.229
 3650SOL    HW211850   5.519   5.838   2.293
 3651SOL     OW11851   1.720   5.632   1.692
 3651SOL    HW111852   1.750   5.726   1.710
 3651SOL    HW211853   1.620   5.627   1.694
 3652SOL     OW11854   3.877   0.171   3.334
 3652SOL    HW111855   3.951   0.226   3.371
 3652SOL    HW211856   3.793   0.225   3.333
 3653SOL     OW11857   0.170   3.557   3.178
 3653SOL    HW111858   0.112   3.623   3.130
 3653SOL    HW211859   0.124   3.469   3.183
 3654SOL     OW11860   2.058   7.008   1.907
 3654SOL    HW111861   2.130   0.046   1.873
 3654SOL    HW211862   1.973   0.036   1.916
 3655SOL     OW11863   6.607   1.267   3.933
 3655SOL    HW111864   6.612   1.179   3.980
 3655SOL    HW211865   6.512   1.286   3.909
 3656SOL     OW11866   1.385   1.599   2.772
 3656SOL    HW111867   1.478   1.567   2.754
 3656SOL    HW211868   1.379   1.697   2.749
 3657SOL     OW11869   5.899   4.922   1.071
 3657SOL    HW111870   5.995   4.925   1.040
 3657SOL    HW211871   5.853   5.007   1.044
 3658SOL     OW11872   2.997   4.111   5.464
 3658SOL    HW111873   3.004   4.124   5.563
 3658SOL    HW211874   2.927   4.173   5.428
 3659SOL     OW11875   1.513   3.312   0.532
 3659SOL    HW111876   1.437   3.334   0.593
 3659SOL    HW211877   1.498   3.222   0.492
 3660SOL     OW11878   5.263   3.759   0.721
 3660SOL    HW111879   5.276   3.755   0.820
 3660SOL    HW211880   5.204   3.684   0.692
 3661SOL     OW11881   5.036   0.830   2.347
 3661SOL    HW111882   5.134   0.822   2.327
 3661SOL    HW211883   5.021   0.909   2.407
 3662SOL     OW11884   1.927   6.110   4.190
 3662SOL    HW111885   1.956   6.101   4.095
 3662SOL    HW211886   1.998   6.158   4.242
 3663SOL     OW11887   2.630   2.559   5.951
 3663SOL    HW111888   2.617   2.463   5.930
 3663SOL    HW211889   2.568   2.587   6.025
 3664SOL     OW11890   3.765   0.072   1.773
 3664SOL    HW111891   3.796   7.000   1.777
 3664SOL    HW211892   3.820   0.123   1.707
 3665SOL     OW11893   2.468   1.675   5.415
 3665SOL    HW111894   2.382   1.636   5.382
 3665SOL    HW211895   2.473   1.771   5.388
 3666SOL     OW11896   0.722   4.612   3.170
 3666SOL    HW111897   0.693   4.530   3.221
 3666SOL    HW211898   0.805   4.649   3.211
 3667SOL     OW11899   0.343   0.983   6.923
 3667SOL    HW111900   0.287   0.943   6.850
 3667SOL    HW211901   0.339   1.082   6.917
 3668SOL     OW11902   1.912   0.184   1.071
 3668SOL    HW111903   1.814   0.183   1.090
 3668SOL    HW211904   1.927   0.170   0.973
 3669SOL     OW11905   5.459   1.563   4.533
 3669SOL    HW111906   5.481   1.621   4.454
 3669SOL    HW211907   5.418   1.478   4.502
 3670SOL     OW11908   3.366   4.747   6.175
 3670SOL    HW111909   3.320   4.836   6.175
 3670SOL    HW211910   3.353   4.703   6.087
 3671SOL     OW11911   1.345   1.374   2.914
 3671SOL    HW111912   1.336   1.453   2.853
 3671SOL    HW211913   1.299   1.393   3.001
 3672SOL     OW11914   5.906   5.929   0.044
 3672SOL    HW111915   5.822   5.910   7.015
 3672SOL    HW211916   5.903   5.880   0.131
 3673SOL     OW11917   3.638   0.076   5.834
 3673SOL    HW111918   3.606   0.068   5.740
 3673SOL    HW211919   3.737   0.093   5.835
 3674SOL     OW11920   1.258   6.611   0.553
 3674SOL    HW111921   1.329   6.678   0.531
 3674SOL    HW211922   1.211   6.584   0.469
 3675SOL     OW11923   1.646   1.884   4.026
 3675SOL    HW111924   1.743   1.860   4.020
 3675SOL    HW211925   1.619   1.935   3.944
 3676SOL     OW11926   0.747   4.664   2.333
 3676SOL    HW111927   0.703   4.647   2.245
 3676SOL    HW211928   0.829   4.606   2.341
 3677SOL     OW11929   6.307   1.234   3.372
 3677SOL    HW111930   6.353   1.320   3.351
 3677SOL    HW211931   6.374   1.160   3.372
 3678SOL     OW11932   0.658   2.782   3.933
 3678SOL    HW111933   0.648   2.704   3.993
 3678SOL    HW211934   0.750   2.783   3.894
 3679SOL     OW11935   6.346   1.059   1.490
 3679SOL    HW111936   6.370   0.974   1.443
 3679SOL    HW211937   6.401   1.068   1.573
 3680SOL     OW11938   6.373   4.437   5.321
 3680SOL    HW111939   6.426   4.496   5.261
 3680SOL    HW211940   6.382   4.342   5.292
 3681SOL     OW11941   5.389   0.444   4.381
 3681SOL    HW111942   5.303   0.393   4.387
 3681SOL    HW211943   5.371   0.542   4.387
 3682SOL     OW11944   0.477   1.904   6.951
 3682SOL    HW111945   0.392   1.955   6.940
 3682SOL    HW211946   0.496   1.892   0.025
 3683SOL     OW11947   4.680   6.635   4.114
 3683SOL    HW111948   4.719   6.549   4.082
 3683SOL    HW211949   4.688   6.704   4.041
 3684SOL     OW11950   2.231   3.978   2.044
 3684SOL    HW111951   2.298   4.029   2.098
 3684SOL    HW211952   2.189   3.908   2.101
 3685SOL     OW11953   5.865   5.547   6.250
 3685SOL    HW111954   5.832   5.465   6.205
 3685SOL    HW211955   5.877   5.530   6.348
 3686SOL     OW11956   0.642   4.156   0.225
 3686SOL    HW111957   0.741   4.170   0.232
 3686SOL    HW211958   0.622   4.059   0.219
 3687SOL     OW11959   3.994   1.047   1.044
 3687SOL    HW111960   4.032   1.116   0.983
 3687SOL    HW211961   4.068   1.001   1.094
 3688SOL     OW11962   0.336   2.506   6.737
 3688SOL    HW111963   0.261   2.441   6.750
 3688SOL    HW211964   0.423   2.459   6.747
 3689SOL     OW11965   1.112   5.956   3.486
 3689SOL    HW111966   1.174   5.936   3.563
 3689SOL    HW211967   1.032   5.896   3.492
 3690SOL     OW11968   4.965   4.428   6.168
 3690SOL    HW111969   4.881   4.411   6.219
 3690SOL    HW211970   5.013   4.507   6.207
 3691SOL     OW11971   3.046   3.134   6.478
 3691SOL    HW111972   3.072   3.229   6.465
 3691SOL    HW211973   3.030   3.091   6.389
 3692SOL     OW11974   6.581   0.583   5.398
 3692SOL    HW111975   6.537   0.597   5.309
 3692SOL    HW211976   6.578   0.485   5.421
 3693SOL     OW11977   1.566   1.419   3.364
 3693SOL    HW111978   1.624   1.469   3.429
 3693SOL    HW211979   1.609   1.418   3.274
 3694SOL     OW11980   1.792   4.554   3.243
 3694SOL    HW111981   1.776   4.552   3.342
 3694SOL    HW211982   1.731   4.620   3.200
 3695SOL     OW11983   2.603   2.309   0.986
 3695SOL    HW111984   2.623   2.370   1.063
 3695SOL    HW211985   2.664   2.231   0.989
 3696SOL     OW11986   2.786   6.027   5.917
 3696SOL    HW111987   2.746   6.112   5.951
 3696SOL    HW211988   2.868   6.005   5.970
 3697SOL     OW11989   5.338   1.222   3.234
 3697SOL    HW111990   5.255   1.196   3.284
 3697SOL    HW211991   5.335   1.183   3.142
 3698SOL     OW11992   2.907   0.782   5.618
 3698SOL    HW111993   2.959   0.737   5.545
 3698SOL    HW211994   2.929   0.739   5.706
 3699SOL     OW11995   1.185   5.341   2.408
 3699SOL    HW111996   1.109   5.351   2.343
 3699SOL    HW211997   1.262   5.296   2.363
 3700SOL     OW11998   6.234   0.055   3.931
 3700SOL    HW111999   6.297   0.108   3.874
 3700SOL    HW212000   6.150   0.107   3.945
 3701SOL     OW12001   4.120   1.316   3.923
 3701SOL    HW112002   4.200   1.270   3.886
 3701SOL    HW212003   4.100   1.398   3.868
 3702SOL     OW12004   5.334   0.956   6.388
 3702SOL    HW112005   5.243   0.996   6.399
 3702SOL    HW212006   5.369   0.927   6.477
 3703SOL     OW12007   3.793   4.602   0.274
 3703SOL    HW112008   3.773   4.616   0.371
 3703SOL    HW212009   3.790   4.505   0.253
 3704SOL     OW12010   3.580   5.788   1.042
 3704SOL    HW112011   3.590   5.731   1.123
 3704SOL    HW212012   3.566   5.883   1.070
 3705SOL     OW12013   6.811   1.340   4.140
 3705SOL    HW112014   6.743   1.360   4.069
 3705SOL    HW212015   6.896   1.310   4.098
 3706SOL     OW12016   2.452   2.449   2.808
 3706SOL    HW112017   2.531   2.427   2.865
 3706SOL    HW212018   2.375   2.391   2.834
 3707SOL     OW12019   4.330   2.068   5.275
 3707SOL    HW112020   4.413   2.040   5.227
 3707SOL    HW212021   4.251   2.052   5.216
 3708SOL     OW12022   6.412   6.384   0.455
 3708SOL    HW112023   6.440   6.480   0.469
 3708SOL    HW212024   6.359   6.354   0.534
 3709SOL     OW12025   0.775   6.325   6.449
 3709SOL    HW112026   0.805   6.288   6.537
 3709SOL    HW212027   0.846   6.310   6.381
 3710SOL     OW12028   1.253   5.097   6.094
 3710SOL    HW112029   1.161   5.115   6.060
 3710SOL    HW212030   1.275   5.000   6.080
 3711SOL     OW12031   6.481   4.807   1.998
 3711SOL    HW112032   6.470   4.748   2.078
 3711SOL    HW212033   6.401   4.867   1.989
 3712SOL     OW12034   1.362   0.233   5.645
 3712SOL    HW112035   1.384   0.205   5.552
 3712SOL    HW212036   1.388   0.329   5.659
 3713SOL     OW12037   3.218   4.422   5.642
 3713SOL    HW112038   3.137   4.452   5.694
 3713SOL    HW212039   3.299   4.468   5.677
 3714SOL     OW12040   4.842   2.419   4.553
 3714SOL    HW112041   4.836   2.452   4.647
 3714SOL    HW212042   4.912   2.348   4.546
 3715SOL     OW12043   4.609   4.471   4.463
 3715SOL    HW112044   4.659   4.460   4.549
 3715SOL    HW212045   4.524   4.520   4.479
 3716SOL     OW12046   1.762   1.213   4.862
 3716SOL    HW112047   1.819   1.260   4.929
 3716SOL    HW212048   1.749   1.273   4.783
 3717SOL     OW12049   5.875   0.435   6.651
 3717SOL    HW112050   5.894   0.533   6.656
 3717SOL    HW212051   5.827   0.406   6.733
 3718SOL     OW12052   0.929   6.871   6.168
 3718SOL    HW112053   0.949   6.867   6.266
 3718SOL    HW212054   0.992   6.934   6.124
 3719SOL     OW12055   3.578   4.151   0.321
 3719SOL    HW112056   3.500   4.161   0.259
 3719SOL    HW212057   3.550   4.095   0.399
 3720SOL     OW12058   6.736   1.155   6.329
 3720SOL    HW112059   6.678   1.182   6.252
 3720SOL    HW212060   6.728   1.057   6.345
 3721SOL     OW12061   5.469   2.292   0.482
 3721SOL    HW112062   5.514   2.381   0.475
 3721SOL    HW212063   5.473   2.246   0.393
 3722SOL     OW12064   3.918   5.665   1.215
 3722SOL    HW112065   3.906   5.627   1.123
 3722SOL    HW212066   4.012   5.694   1.227
 3723SOL     OW12067   3.599   1.178   0.621
 3723SOL    HW112068   3.648   1.264   0.635
 3723SOL    HW212069   3.656   1.116   0.568
 3724SOL     OW12070   1.376   3.627   6.703
 3724SOL    HW112071   1.385   3.716   6.659
 3724SOL    HW212072   1.318   3.568   6.648
 3725SOL     OW12073   4.963   6.078   2.341
 3725SOL    HW112074   4.994   6.001   2.286
 3725SOL    HW212075   4.993   6.065   2.436
 3726SOL     OW12076   6.081   3.580   2.318
 3726SOL    HW112077   6.179   3.583   2.299
 3726SOL    HW212078   6.045   3.673   2.325
 3727SOL     OW12079   2.424   2.155   5.460
 3727SOL    HW112080   2.447   2.250   5.441
 3727SOL    HW212081   2.484   2.121   5.533
 3728SOL     OW12082   1.031   3.745   6.878
 3728SOL    HW112083   0.948   3.705   6.839
 3728SOL    HW212084   1.097   3.672   6.898
 3729SOL     OW12085   1.607   3.251   3.358
 3729SOL    HW112086   1.692   3.303   3.344
 3729SOL    HW212087   1.619   3.189   3.435
 3730SOL     OW12088   2.056   0.049   1.386
 3730SOL    HW112089   2.104   0.114   1.445
 3730SOL    HW212090   2.090   0.058   1.292
 3731SOL     OW12091   2.387   6.224   0.171
 3731SOL    HW112092   2.333   6.305   0.191
 3731SOL    HW212093   2.369   6.154   0.240
 3732SOL     OW12094   1.758   4.215   4.237
 3732SOL    HW112095   1.844   4.179   4.274
 3732SOL    HW212096   1.776   4.301   4.190
 3733SOL     OW12097   3.599   3.256   1.649
 3733SOL    HW112098   3.563   3.231   1.739
 3733SOL    HW212099   3.641   3.347   1.654
 3734SOL     OW12100   4.272   1.269   3.536
 3734SOL    HW112101   4.347   1.236   3.479
 3734SOL    HW212102   4.291   1.363   3.565
 3735SOL     OW12103   3.707   2.214   1.600
 3735SOL    HW112104   3.764   2.268   1.537
 3735SOL    HW212105   3.682   2.271   1.679
 3736SOL     OW12106   5.021   0.600   5.974
 3736SOL    HW112107   5.045   0.503   5.968
 3736SOL    HW212108   4.959   0.614   6.052
 3737SOL     OW12109   2.842   6.995   3.512
 3737SOL    HW112110   2.796   6.922   3.564
 3737SOL    HW212111   2.842   6.971   3.415
 3738SOL     OW12112   0.650   0.401   4.269
 3738SOL    HW112113   0.644   0.399   4.169
 3738SOL    HW212114   0.733   0.449   4.296
 3739SOL     OW12115   6.903   3.340   0.576
 3739SOL    HW112116   6.853   3.282   0.512
 3739SOL    HW212117   6.850   3.351   0.660
 3740SOL     OW12118   6.124   6.641   6.981
 3740SOL    HW112119   6.029   6.657   6.954
 3740SOL    HW212120   6.137   6.666   0.054
 3741SOL     OW12121   4.276   0.804   6.306
 3741SOL    HW112122   4.251   0.718   6.351
 3741SOL    HW212123   4.269   0.792   6.207
 3742SOL     OW12124   3.632   3.609   6.310
 3742SOL    HW112125   3.601   3.531   6.365
 3742SOL    HW212126   3.562   3.633   6.243
 3743SOL     OW12127   1.491   5.787   5.707
 3743SOL    HW112128   1.420   5.857   5.696
 3743SOL    HW212129   1.449   5.700   5.731
 3744SOL     OW12130   6.118   5.068   3.554
 3744SOL    HW112131   6.128   5.011   3.636
 3744SOL    HW212132   6.059   5.021   3.488
 3745SOL     OW12133   5.116   4.603   1.489
 3745SOL    HW112134   5.191   4.625   1.426
 3745SOL    HW212135   5.094   4.685   1.543
 3746SOL     OW12136   4.566   1.226   1.177
 3746SOL    HW112137   4.629   1.304   1.175
 3746SOL    HW212138   4.614   1.145   1.143
 3747SOL     OW12139   3.243   6.468   1.147
 3747SOL    HW112140   3.159   6.461   1.201
 3747SOL    HW212141   3.238   6.548   1.087
 3748SOL     OW12142   5.391   0.511   1.749
 3748SOL    HW112143   5.420   0.569   1.825
 3748SOL    HW212144   5.309   0.460   1.775
 3749SOL     OW12145   1.048   1.036   3.930
 3749SOL    HW112146   1.077   1.107   3.993
 3749SOL    HW212147   1.127   1.006   3.875
 3750SOL     OW12148   0.501   3.903   0.265
 3750SOL    HW112149   0.452   3.933   0.346
 3750SOL    HW212150   0.460   3.817   0.231
 3751SOL     OW12151   2.341   5.133   1.606
 3751SOL    HW112152   2.374   5.128   1.700
 3751SOL    HW212153   2.331   5.229   1.580
 3752SOL     OW12154   5.696   5.199   6.813
 3752SOL    HW112155   5.669   5.279   6.867
 3752SOL    HW212156   5.741   5.229   6.729
 3753SOL     OW12157   0.148   1.551   3.688
 3753SOL    HW112158   0.087   1.597   3.752
 3753SOL    HW212159   0.215   1.497   3.740
 3754SOL     OW12160   3.866   1.362   1.693
 3754SOL    HW112161   3.860   1.344   1.595
 3754SOL    HW212162   3.795   1.309   1.741
 3755SOL     OW12163   2.827   6.553   4.652
 3755SOL    HW112164   2.756   6.603   4.702
 3755SOL    HW212165   2.824   6.457   4.677
 3756SOL     OW12166   0.959   6.278   0.579
 3756SOL    HW112167   0.906   6.359   0.555
 3756SOL    HW212168   0.935   6.203   0.518
 3757SOL     OW12169   1.235   5.425   0.203
 3757SOL    HW112170   1.241   5.366   0.123
 3757SOL    HW212171   1.253   5.371   0.286
 3758SOL     OW12172   6.985   5.779   3.986
 3758SOL    HW112173   6.940   5.835   3.916
 3758SOL    HW212174   0.051   5.819   4.008
 3759SOL     OW12175   4.879   0.435   3.394
 3759SOL    HW112176   4.851   0.365   3.328
 3759SOL    HW212177   4.909   0.517   3.345
 3760SOL     OW12178   0.628   1.257   3.787
 3760SOL    HW112179   0.697   1.188   3.768
 3760SOL    HW212180   0.569   1.269   3.707
 3761SOL     OW12181   4.034   0.912   4.589
 3761SOL    HW112182   4.004   0.824   4.625
 3761SOL    HW212183   4.092   0.898   4.509
 3762SOL     OW12184   6.368   2.127   3.627
 3762SOL    HW112185   6.403   2.209   3.673
 3762SOL    HW212186   6.418   2.047   3.658
 3763SOL     OW12187   0.585   0.073   6.520
 3763SOL    HW112188   0.487   0.064   6.507
 3763SOL    HW212189   0.612   0.025   6.604
 3764SOL     OW12190   4.828   2.120   2.721
 3764SOL    HW112191   4.883   2.105   2.803
 3764SOL    HW212192   4.883   2.166   2.651
 3765SOL     OW12193   5.501   3.661   1.878
 3765SOL    HW112194   5.592   3.671   1.838
 3765SOL    HW212195   5.499   3.709   1.966
 3766SOL     OW12196   2.270   2.230   2.538
 3766SOL    HW112197   2.249   2.166   2.465
 3766SOL    HW212198   2.307   2.180   2.616
 3767SOL     OW12199   1.622   5.230   5.278
 3767SOL    HW112200   1.712   5.271   5.292
 3767SOL    HW212201   1.573   5.228   5.365
 3768SOL     OW12202   1.350   6.517   4.231
 3768SOL    HW112203   1.282   6.474   4.291
 3768SOL    HW212204   1.325   6.501   4.136
 3769SOL     OW12205   4.958   5.278   6.075
 3769SOL    HW112206   5.015   5.304   5.997
 3769SOL    HW212207   4.873   5.331   6.073
 3770SOL     OW12208   2.603   0.587   0.174
 3770SOL    HW112209   2.645   0.663   0.126
 3770SOL    HW212210   2.505   0.604   0.185
 3771SOL     OW12211   6.408   6.192   5.980
 3771SOL    HW112212   6.370   6.131   6.050
 3771SOL    HW212213   6.502   6.165   5.960
 3772SOL     OW12214   2.882   5.487   1.618
 3772SOL    HW112215   2.849   5.397   1.646
 3772SOL    HW212216   2.815   5.556   1.643
 3773SOL     OW12217   4.986   3.824   6.872
 3773SOL    HW112218   5.048   3.848   6.797
 3773SOL    HW212219   4.897   3.867   6.856
 3774SOL     OW12220   0.291   4.255   1.419
 3774SOL    HW112221   0.361   4.327   1.428
 3774SOL    HW212222   0.322   4.172   1.465
 3775SOL     OW12223   6.126   6.457   4.972
 3775SOL    HW112224   6.152   6.538   5.025
 3775SOL    HW212225   6.192   6.444   4.898
 3776SOL     OW12226   4.125   2.501   6.453
 3776SOL    HW112227   4.061   2.572   6.422
 3776SOL    HW212228   4.075   2.420   6.482
 3777SOL     OW12229   3.238   5.301   3.364
 3777SOL    HW112230   3.175   5.365   3.408
 3777SOL    HW212231   3.198   5.269   3.278
 3778SOL     OW12232   2.787   5.491   6.533
 3778SOL    HW112233   2.856   5.540   6.587
 3778SOL    HW212234   2.709   5.550   6.517
 3779SOL     OW12235   6.286   5.200   6.432
 3779SOL    HW112236   6.288   5.163   6.340
 3779SOL    HW212237   6.351   5.276   6.440
 3780SOL     OW12238   5.814   1.866   1.552
 3780SOL    HW112239   5.749   1.862   1.475
 3780SOL    HW212240   5.881   1.938   1.536
 3781SOL     OW12241   1.158   0.818   6.765
 3781SOL    HW112242   1.144   0.875   6.847
 3781SOL    HW212243   1.073   0.814   6.713
 3782SOL     OW12244   2.997   5.559   6.946
 3782SOL    HW112245   3.077   5.513   6.907
 3782SOL    HW212246   3.006   5.658   6.930
 3783SOL     OW12247   4.555   5.184   5.306
 3783SOL    HW112248   4.575   5.180   5.404
 3783SOL    HW212249   4.523   5.275   5.282
 3784SOL     OW12250   5.161   4.143   5.324
 3784SOL    HW112251   5.234   4.181   5.381
 3784SOL    HW212252   5.182   4.162   5.228
 3785SOL     OW12253   0.909   3.475   2.144
 3785SOL    HW112254   0.854   3.517   2.215
 3785SOL    HW212255   0.865   3.486   2.055
 3786SOL     OW12256   3.458   2.851   6.293
 3786SOL    HW112257   3.364   2.875   6.272
 3786SOL    HW212258   3.468   2.752   6.296
 3787SOL     OW12259   5.555   5.818   5.697
 3787SOL    HW112260   5.487   5.746   5.713
 3787SOL    HW212261   5.590   5.850   5.785
 3788SOL     OW12262   5.588   2.877   5.485
 3788SOL    HW112263   5.617   2.828   5.568
 3788SOL    HW212264   5.504   2.928   5.504
 3789SOL     OW12265   1.793   4.700   1.829
 3789SOL    HW112266   1.807   4.618   1.773
 3789SOL    HW212267   1.697   4.707   1.857
 3790SOL     OW12268   3.049   0.382   2.001
 3790SOL    HW112269   2.962   0.391   1.953
 3790SOL    HW212270   3.117   0.440   1.957
 3791SOL     OW12271   4.987   0.488   4.089
 3791SOL    HW112272   4.998   0.483   3.990
 3791SOL    HW212273   4.982   0.584   4.117
 3792SOL     OW12274   6.062   0.499   3.273
 3792SOL    HW112275   6.145   0.443   3.268
 3792SOL    HW212276   6.074   0.570   3.342
 3793SOL     OW12277   5.016   3.323   0.335
 3793SOL    HW112278   4.926   3.359   0.361
 3793SOL    HW212279   5.050   3.372   0.256
 3794SOL     OW12280   1.746   5.244   5.744
 3794SOL    HW112281   1.803   5.319   5.709
 3794SOL    HW212282   1.804   5.167   5.769
 3795SOL     OW12283   3.770   6.069   0.351
 3795SOL    HW112284   3.763   6.025   0.262
 3795SOL    HW212285   3.721   6.156   0.350
 3796SOL     OW12286   5.468   0.986   0.386
 3796SOL    HW112287   5.544   1.039   0.350
 3796SOL    HW212288   5.468   0.895   0.345
 3797SOL     OW12289   6.954   1.528   0.843
 3797SOL    HW112290   6.918   1.615   0.875
 3797SOL    HW212291   6.881   1.476   0.798
 3798SOL     OW12292   6.877   3.738   4.091
 3798SOL    HW112293   6.925   3.794   4.158
 3798SOL    HW212294   6.791   3.784   4.065
 3799SOL     OW12295   6.440   2.261   2.078
 3799SOL    HW112296   6.527   2.306   2.101
 3799SOL    HW212297   6.403   2.219   2.161
 3800SOL     OW12298   5.873   3.284   1.545
 3800SOL    HW112299   5.841   3.302   1.452
 3800SOL    HW212300   5.973   3.278   1.546
 3801SOL     OW12301   5.553   1.300   0.284
 3801SOL    HW112302   5.566   1.399   0.288
 3801SOL    HW212303   5.499   1.269   0.362
 3802SOL     OW12304   5.920   3.874   3.601
 3802SOL    HW112305   5.903   3.912   3.691
 3802SOL    HW212306   6.004   3.820   3.602
 3803SOL     OW12307   3.717   4.565   6.556
 3803SOL    HW112308   3.642   4.618   6.596
 3803SOL    HW212309   3.788   4.628   6.525
 3804SOL     OW12310   3.724   6.083   3.702
 3804SOL    HW112311   3.673   6.073   3.617
 3804SOL    HW212312   3.769   6.172   3.704
 3805SOL     OW12313   2.527   1.838   0.149
 3805SOL    HW112314   2.542   1.741   0.127
 3805SOL    HW212315   2.483   1.883   0.072
 3806SOL     OW12316   1.980   4.553   2.172
 3806SOL    HW112317   2.074   4.522   2.156
 3806SOL    HW212318   1.981   4.650   2.199
 3807SOL     OW12319   0.084   4.349   4.308
 3807SOL    HW112320   0.045   4.298   4.231
 3807SOL    HW212321   0.130   4.285   4.370
 3808SOL     OW12322   2.554   6.479   6.134
 3808SOL    HW112323   2.478   6.531   6.095
 3808SOL    HW212324   2.519   6.400   6.184
 3809SOL     OW12325   5.201   2.049   1.442
 3809SOL    HW112326   5.279   2.025   1.383
 3809SOL    HW212327   5.211   2.143   1.474
 3810SOL     OW12328   4.806   2.089   4.201
 3810SOL    HW112329   4.711   2.099   4.228
 3810SOL    HW212330   4.853   2.177   4.211
 3811SOL     OW12331   0.346   6.199   5.786
 3811SOL    HW112332   0.271   6.218   5.721
 3811SOL    HW212333   0.404   6.279   5.794
 3812SOL     OW12334   4.300   5.677   0.386
 3812SOL    HW112335   4.211   5.633   0.392
 3812SOL    HW212336   4.322   5.719   0.474
 3813SOL     OW12337   0.117   3.575   6.699
 3813SOL    HW112338   0.069   3.568   6.612
 3813SOL    HW212339   0.065   3.529   6.770
 3814SOL     OW12340   0.070   0.830   4.915
 3814SOL    HW112341   0.099   0.735   4.900
 3814SOL    HW212342   6.999   0.830   4.952
 3815SOL     OW12343   4.786   1.840   5.739
 3815SOL    HW112344   4.801   1.819   5.836
 3815SOL    HW212345   4.712   1.907   5.730
 3816SOL     OW12346   6.462   6.523   2.081
 3816SOL    HW112347   6.420   6.547   2.168
 3816SOL    HW212348   6.503   6.604   2.040
 3817SOL     OW12349   3.836   3.568   2.810
 3817SOL    HW112350   3.757   3.506   2.802
 3817SOL    HW212351   3.851   3.613   2.722
 3818SOL     OW12352   4.353   5.828   2.289
 3818SOL    HW112353   4.428   5.832   2.354
 3818SOL    HW212354   4.384   5.863   2.200
 3819SOL     OW12355   6.366   2.489   3.106
 3819SOL    HW112356   6.383   2.492   3.008
 3819SOL    HW212357   6.297   2.420   3.126
 3820SOL     OW12358   3.571   6.675   5.934
 3820SOL    HW112359   3.522   6.702   5.851
 3820SOL    HW212360   3.567   6.749   6.001
 3821SOL     OW12361   0.994   6.498   1.234
 3821SOL    HW112362   0.896   6.484   1.253
 3821SOL    HW212363   1.035   6.548   1.310
 3822SOL     OW12364   6.463   6.038   1.399
 3822SOL    HW112365   6.441   6.122   1.449
 3822SOL    HW212366   6.557   6.011   1.419
 3823SOL     OW12367   6.016   5.219   4.321
 3823SOL    HW112368   5.920   5.236   4.342
 3823SOL    HW212369   6.058   5.303   4.287
 3824SOL     OW12370   1.881   2.341   0.926
 3824SOL    HW112371   1.956   2.289   0.967
 3824SOL    HW212372   1.896   2.439   0.942
 3825SOL     OW12373   0.413   4.680   5.552
 3825SOL    HW112374   0.383   4.586   5.568
 3825SOL    HW212375   0.490   4.680   5.488
 3826SOL     OW12376   4.378   4.601   3.709
 3826SOL    HW112377   4.429   4.654   3.776
 3826SOL    HW212378   4.382   4.504   3.733
 3827SOL     OW12379   0.683   1.472   0.112
 3827SOL    HW112380   0.713   1.406   0.181
 3827SOL    HW212381   0.650   1.555   0.157
 3828SOL     OW12382   2.683   3.526   5.840
 3828SOL    HW112383   2.613   3.477   5.787
 3828SOL    HW212384   2.749   3.567   5.777
 3829SOL     OW12385   6.846   2.342   1.334
 3829SOL    HW112386   6.788   2.424   1.336
 3829SOL    HW212387   6.896   2.339   1.248
 3830SOL     OW12388   5.502   6.172   3.645
 3830SOL    HW112389   5.570   6.238   3.675
 3830SOL    HW212390   5.411   6.211   3.653
 3831SOL     OW12391   5.196   2.101   4.326
 3831SOL    HW112392   5.140   2.040   4.270
 3831SOL    HW212393   5.154   2.191   4.330
 3832SOL     OW12394   6.230   1.476   4.269
 3832SOL    HW112395   6.217   1.409   4.196
 3832SOL    HW212396   6.283   1.553   4.234
 3833SOL     OW12397   2.211   3.508   5.350
 3833SOL    HW112398   2.277   3.576   5.381
 3833SOL    HW212399   2.257   3.420   5.336
 3834SOL     OW12400   4.456   5.021   0.553
 3834SOL    HW112401   4.443   5.048   0.458
 3834SOL    HW212402   4.482   4.924   0.556
 3835SOL     OW12403   4.629   5.226   4.605
 3835SOL    HW112404   4.598   5.299   4.544
 3835SOL    HW212405   4.551   5.175   4.640
 3836SOL     OW12406   0.590   0.253   5.215
 3836SOL    HW112407   0.491   0.250   5.232
 3836SOL    HW212408   0.637   0.287   5.296
 3837SOL     OW12409   4.845   4.654   5.709
 3837SOL    HW112410   4.828   4.674   5.613
 3837SOL    HW212411   4.914   4.581   5.716
 3838SOL     OW12412   0.553   1.890   3.329
 3838SOL    HW112413   0.489   1.919   3.259
 3838SOL    HW212414   0.647   1.893   3.293
 3839SOL     OW12415   4.661   1.348   4.018
 3839SOL    HW112416   4.742   1.303   3.982
 3839SOL    HW212417   4.611   1.285   4.078
 3840SOL     OW12418   4.049   1.834   5.922
 3840SOL    HW112419   4.099   1.790   5.996
 3840SOL    HW212420   4.014   1.923   5.953
 3841SOL     OW12421   5.642   3.957   2.809
 3841SOL    HW112422   5.615   3.935   2.903
 3841SOL    HW212423   5.686   4.046   2.807
 3842SOL     OW12424   1.887   3.887   4.808
 3842SOL    HW112425   1.823   3.856   4.738
 3842SOL    HW212426   1.955   3.816   4.825
 3843SOL     OW12427   5.472   2.300   6.741
 3843SOL    HW112428   5.546   2.363   6.716
 3843SOL    HW212429   5.419   2.339   6.816
 3844SOL     OW12430   5.708   6.275   0.496
 3844SOL    HW112431   5.694   6.281   0.595
 3844SOL    HW212432   5.804   6.259   0.477
 3845SOL     OW12433   1.942   5.537   0.664
 3845SOL    HW112434   1.903   5.606   0.725
 3845SOL    HW212435   1.905   5.447   0.688
 3846SOL     OW12436   6.665   3.130   2.862
 3846SOL    HW112437   6.702   3.180   2.941
 3846SOL    HW212438   6.737   3.119   2.793
 3847SOL     OW12439   0.134   0.905   6.746
 3847SOL    HW112440   0.185   0.845   6.684
 3847SOL    HW212441   0.038   0.880   6.745
 3848SOL     OW12442   5.587   5.173   2.662
 3848SOL    HW112443   5.602   5.165   2.563
 3848SOL    HW212444   5.594   5.082   2.703
 3849SOL     OW12445   0.250   2.941   5.827
 3849SOL    HW112446   0.175   3.000   5.796
 3849SOL    HW212447   0.334   2.996   5.834
 3850SOL     OW12448   3.601   3.024   1.179
 3850SOL    HW112449   3.506   3.012   1.208
 3850SOL    HW212450   3.616   2.974   1.094
 3851SOL     OW12451   0.177   5.400   2.547
 3851SOL    HW112452   0.080   5.381   2.563
 3851SOL    HW212453   0.213   5.334   2.482
 3852SOL     OW12454   3.522   0.552   5.023
 3852SOL    HW112455   3.558   0.532   5.114
 3852SOL    HW212456   3.526   0.651   5.006
 3853SOL     OW12457   1.900   1.048   3.131
 3853SOL    HW112458   1.886   1.032   3.228
 3853SOL    HW212459   1.815   1.083   3.090
 3854SOL     OW12460   6.851   1.348   2.274
 3854SOL    HW112461   6.771   1.371   2.328
 3854SOL    HW212462   6.883   1.256   2.299
 3855SOL     OW12463   2.663   5.962   6.570
 3855SOL    HW112464   2.600   5.885   6.570
 3855SOL    HW212465   2.612   6.048   6.559
 3856SOL     OW12466   0.103   2.829   6.600
 3856SOL    HW112467   0.086   2.800   6.694
 3856SOL    HW212468   0.025   2.882   6.567
 3857SOL     OW12469   0.964   0.296   5.710
 3857SOL    HW112470   0.982   0.200   5.728
 3857SOL    HW212471   1.041   0.351   5.744
 3858SOL     OW12472   3.050   0.948   4.981
 3858SOL    HW112473   2.967   0.893   4.972
 3858SOL    HW212474   3.046   1.001   5.065
 3859SOL     OW12475   5.848   6.480   3.398
 3859SOL    HW112476   5.748   6.479   3.403
 3859SOL    HW212477   5.877   6.516   3.310
 3860SOL     OW12478   1.600   6.753   4.935
 3860SOL    HW112479   1.609   6.830   4.998
 3860SOL    HW212480   1.625   6.668   4.981
 3861SOL     OW12481   2.046   6.298   2.571
 3861SOL    HW112482   2.081   6.205   2.585
 3861SOL    HW212483   2.121   6.359   2.550
 3862SOL     OW12484   1.865   0.507   4.088
 3862SOL    HW112485   1.903   0.421   4.055
 3862SOL    HW212486   1.839   0.498   4.184
 3863SOL     OW12487   3.907   6.825   1.192
 3863SOL    HW112488   3.998   6.796   1.222
 3863SOL    HW212489   3.853   6.852   1.271
 3864SOL     OW12490   0.790   0.895   4.923
 3864SOL    HW112491   0.879   0.918   4.962
 3864SOL    HW212492   0.795   0.804   4.881
 3865SOL     OW12493   5.029   1.259   0.377
 3865SOL    HW112494   4.935   1.222   0.377
 3865SOL    HW212495   5.044   1.313   0.294
 3866SOL     OW12496   3.820   0.958   6.571
 3866SOL    HW112497   3.755   0.884   6.554
 3866SOL    HW212498   3.843   0.960   6.668
 3867SOL     OW12499   6.719   3.322   2.257
 3867SOL    HW112500   6.664   3.365   2.184
 3867SOL    HW212501   6.663   3.310   2.338
 3868SOL     OW12502   4.564   0.869   0.023
 3868SOL    HW112503   4.526   0.855   0.114
 3868SOL    HW212504   4.546   0.963   7.016
 3869SOL     OW12505   3.000   1.009   3.613
 3869SOL    HW112506   3.047   1.097   3.599
 3869SOL    HW212507   2.912   1.025   3.657
 3870SOL     OW12508   6.547   1.940   5.943
 3870SOL    HW112509   6.516   1.964   6.035
 3870SOL    HW212510   6.470   1.944   5.879
 3871SOL     OW12511   2.763   5.195   4.489
 3871SOL    HW112512   2.782   5.131   4.563
 3871SOL    HW212513   2.698   5.154   4.425
 3872SOL     OW12514   3.016   3.825   5.401
 3872SOL    HW112515   2.997   3.923   5.400
 3872SOL    HW212516   3.115   3.810   5.393
 3873SOL     OW12517   5.673   2.807   6.441
 3873SOL    HW112518   5.735   2.744   6.490
 3873SOL    HW212519   5.639   2.876   6.505
 3874SOL     OW12520   1.765   1.057   2.002
 3874SOL    HW112521   1.700   1.050   1.926
 3874SOL    HW212522   1.754   0.978   2.063
 3875SOL     OW12523   0.159   0.673   6.572
 3875SOL    HW112524   0.114   0.688   6.484
 3875SOL    HW212525   0.204   0.584   6.572
 3876SOL     OW12526   3.008   5.264   1.897
 3876SOL    HW112527   3.091   5.264   1.842
 3876SOL    HW212528   2.989   5.171   1.928
 3877SOL     OW12529   0.987   1.828   5.816
 3877SOL    HW112530   0.898   1.789   5.794
 3877SOL    HW212531   1.045   1.757   5.857
 3878SOL     OW12532   4.160   1.644   4.921
 3878SOL    HW112533   4.081   1.699   4.948
 3878SOL    HW212534   4.130   1.565   4.868
 3879SOL     OW12535   5.487   4.977   6.797
 3879SOL    HW112536   5.538   5.063   6.795
 3879SOL    HW212537   5.537   4.907   6.746
 3880SOL     OW12538   4.858   5.545   3.751
 3880SOL    HW112539   4.816   5.466   3.706
 3880SOL    HW212540   4.893   5.518   3.841
 3881SOL     OW12541   1.923   2.886   7.009
 3881SOL    HW112542   1.893   2.979   6.989
 3881SOL    HW212543   1.998   2.861   6.949
 3882SOL     OW12544   0.422   2.561   6.297
 3882SOL    HW112545   0.435   2.656   6.265
 3882SOL    HW212546   0.377   2.562   6.386
 3883SOL     OW12547   3.694   6.132   4.315
 3883SOL    HW112548   3.670   6.059   4.379
 3883SOL    HW212549   3.780   6.174   4.342
 3884SOL     OW12550   6.643   2.828   1.930
 3884SOL    HW112551   6.700   2.756   1.889
 3884SOL    HW212552   6.673   2.844   2.024
 3885SOL     OW12553   3.962   5.660   2.328
 3885SOL    HW112554   3.946   5.679   2.231
 3885SOL    HW212555   4.039   5.597   2.337
 3886SOL     OW12556   3.007   5.231   6.661
 3886SOL    HW112557   3.011   5.169   6.740
 3886SOL    HW212558   2.924   5.214   6.609
 3887SOL     OW12559   1.968   6.290   1.901
 3887SOL    HW112560   1.930   6.338   1.823
 3887SOL    HW212561   1.936   6.195   1.901
 3888SOL     OW12562   5.203   5.055   3.354
 3888SOL    HW112563   5.228   5.116   3.429
 3888SOL    HW212564   5.284   5.009   3.320
 3889SOL     OW12565   5.405   2.592   0.394
 3889SOL    HW112566   5.505   2.594   0.396
 3889SOL    HW212567   5.368   2.653   0.465
 3890SOL     OW12568   4.581   4.478   3.905
 3890SOL    HW112569   4.540   4.497   3.995
 3890SOL    HW212570   4.646   4.403   3.914
 3891SOL     OW12571   4.721   4.928   3.655
 3891SOL    HW112572   4.646   4.923   3.590
 3891SOL    HW212573   4.692   4.888   3.743
 3892SOL     OW12574   0.369   1.862   1.414
 3892SOL    HW112575   0.469   1.865   1.418
 3892SOL    HW212576   0.339   1.768   1.432
 3893SOL     OW12577   3.174   2.968   3.011
 3893SOL    HW112578   3.130   3.007   2.930
 3893SOL    HW212579   3.136   3.010   3.093
 3894SOL     OW12580   4.294   0.559   6.016
 3894SOL    HW112581   4.207   0.610   6.013
 3894SOL    HW212582   4.367   0.621   6.043
 3895SOL     OW12583   0.784   6.906   4.305
 3895SOL    HW112584   0.760   6.880   4.398
 3895SOL    HW212585   0.866   6.857   4.276
 3896SOL     OW12586   2.107   1.759   6.445
 3896SOL    HW112587   2.093   1.686   6.511
 3896SOL    HW212588   2.079   1.846   6.486
 3897SOL     OW12589   3.419   5.880   0.837
 3897SOL    HW112590   3.488   5.834   0.893
 3897SOL    HW212591   3.335   5.825   0.836
 3898SOL     OW12592   4.132   3.219   1.278
 3898SOL    HW112593   4.034   3.203   1.277
 3898SOL    HW212594   4.177   3.159   1.212
 3899SOL     OW12595   3.139   6.983   5.145
 3899SOL    HW112596   3.082   7.008   5.068
 3899SOL    HW212597   3.174   6.890   5.133
 3900SOL     OW12598   4.339   4.801   2.488
 3900SOL    HW112599   4.357   4.851   2.403
 3900SOL    HW212600   4.383   4.711   2.483
 3901SOL     OW12601   3.528   1.334   6.677
 3901SOL    HW112602   3.536   1.302   6.771
 3901SOL    HW212603   3.564   1.265   6.615
 3902SOL     OW12604   4.819   2.913   2.735
 3902SOL    HW112605   4.857   2.985   2.678
 3902SOL    HW212606   4.809   2.946   2.829
 3903SOL     OW12607   3.495   5.145   6.794
 3903SOL    HW112608   3.518   5.237   6.762
 3903SOL    HW212609   3.549   5.123   6.875
 3904SOL     OW12610   1.534   6.506   0.933
 3904SOL    HW112611   1.567   6.458   0.852
 3904SOL    HW212612   1.611   6.549   0.980
 3905SOL     OW12613   0.255   6.413   5.315
 3905SOL    HW112614   0.264   6.485   5.384
 3905SOL    HW212615   0.191   6.344   5.347
 3906SOL     OW12616   1.125   6.233   5.408
 3906SOL    HW112617   1.069   6.278   5.338
 3906SOL    HW212618   1.099   6.137   5.415
 3907SOL     OW12619   5.372   2.212   3.975
 3907SOL    HW112620   5.276   2.208   3.947
 3907SOL    HW212621   5.430   2.229   3.895
 3908SOL     OW12622   2.740   3.926   6.142
 3908SOL    HW112623   2.663   3.862   6.136
 3908SOL    HW212624   2.795   3.903   6.222
 3909SOL     OW12625   4.301   5.954   3.915
 3909SOL    HW112626   4.395   5.964   3.882
 3909SOL    HW212627   4.290   6.009   3.998
 3910SOL     OW12628   3.448   3.661   2.745
 3910SOL    HW112629   3.413   3.709   2.665
 3910SOL    HW212630   3.482   3.571   2.718
 3911SOL     OW12631   5.596   2.178   5.420
 3911SOL    HW112632   5.629   2.121   5.496
 3911SOL    HW212633   5.534   2.124   5.363
 3912SOL     OW12634   5.767   3.078   6.439
 3912SOL    HW112635   5.855   3.097   6.483
 3912SOL    HW212636   5.778   3.080   6.340
 3913SOL     OW12637   1.192   6.878   1.150
 3913SOL    HW112638   1.252   6.802   1.174
 3913SOL    HW212639   1.118   6.846   1.092
 3914SOL     OW12640   3.076   5.948   5.984
 3914SOL    HW112641   3.120   5.870   5.940
 3914SOL    HW212642   3.142   6.023   5.992
 3915SOL     OW12643   5.097   5.707   1.905
 3915SOL    HW112644   5.013   5.653   1.895
 3915SOL    HW212645   5.084   5.797   1.864
 3916SOL     OW12646   6.900   0.354   3.567
 3916SOL    HW112647   6.869   0.261   3.587
 3916SOL    HW212648   6.886   0.412   3.647
 3917SOL     OW12649   2.902   0.091   6.532
 3917SOL    HW112650   2.843   0.038   6.470
 3917SOL    HW212651   2.967   0.144   6.479
 3918SOL     OW12652   6.139   3.296   0.261
 3918SOL    HW112653   6.217   3.256   0.308
 3918SOL    HW212654   6.055   3.254   0.293
 3919SOL     OW12655   3.416   6.328   0.477
 3919SOL    HW112656   3.421   6.383   0.560
 3919SOL    HW212657   3.359   6.247   0.493
 3920SOL     OW12658   2.312   1.074   6.382
 3920SOL    HW112659   2.332   1.155   6.327
 3920SOL    HW212660   2.390   1.054   6.442
 3921SOL     OW12661   0.423   3.228   0.873
 3921SOL    HW112662   0.523   3.231   0.863
 3921SOL    HW212663   0.399   3.170   0.951
 3922SOL     OW12664   0.051   4.981   0.898
 3922SOL    HW112665   0.071   4.888   0.929
 3922SOL    HW212666   0.010   5.033   0.974
 3923SOL     OW12667   0.319   5.558   0.257
 3923SOL    HW112668   0.261   5.628   0.300
 3923SOL    HW212669   0.262   5.481   0.229
 3924SOL     OW12670   6.440   5.204   4.115
 3924SOL    HW112671   6.453   5.180   4.019
 3924SOL    HW212672   6.485   5.135   4.173
 3925SOL     OW12673   0.554   4.791   1.275
 3925SOL    HW112674   0.512   4.858   1.213
 3925SOL    HW212675   0.634   4.832   1.318
 3926SOL     OW12676   2.848   5.881   3.275
 3926SOL    HW112677   2.824   5.785   3.267
 3926SOL    HW212678   2.884   5.914   3.188
 3927SOL     OW12679   2.583   3.527   6.297
 3927SOL    HW112680   2.531   3.567   6.372
 3927SOL    HW212681   2.532   3.536   6.212
 3928SOL     OW12682   7.020   6.636   6.287
 3928SOL    HW112683   0.050   6.701   6.232
 3928SOL    HW212684   6.971   6.685   6.358
 3929SOL     OW12685   1.180   1.444   4.632
 3929SOL    HW112686   1.212   1.349   4.636
 3929SOL    HW212687   1.080   1.445   4.642
 3930SOL     OW12688   3.128   1.808   4.107
 3930SOL    HW112689   3.068   1.745   4.156
 3930SOL    HW212690   3.212   1.760   4.081
 3931SOL     OW12691   3.512   6.410   2.368
 3931SOL    HW112692   3.596   6.362   2.393
 3931SOL    HW212693   3.511   6.501   2.410
 3932SOL     OW12694   2.162   3.886   3.425
 3932SOL    HW112695   2.157   3.892   3.325
 3932SOL    HW212696   2.186   3.793   3.452
 3933SOL     OW12697   2.003   0.634   5.857
 3933SOL    HW112698   2.069   0.560   5.848
 3933SOL    HW212699   2.051   0.721   5.873
 3934SOL     OW12700   4.920   5.650   0.559
 3934SOL    HW112701   4.966   5.728   0.601
 3934SOL    HW212702   4.971   5.567   0.578
 3935SOL     OW12703   4.496   6.839   2.357
 3935SOL    HW112704   4.489   6.806   2.452
 3935SOL    HW212705   4.407   6.872   2.326
 3936SOL     OW12706   1.041   4.134   2.671
 3936SOL    HW112707   0.975   4.066   2.640
 3936SOL    HW212708   1.092   4.169   2.592
 3937SOL     OW12709   0.426   1.898   2.601
 3937SOL    HW112710   0.360   1.973   2.596
 3937SOL    HW212711   0.519   1.935   2.589
 3938SOL     OW12712   5.984   3.314   2.846
 3938SOL    HW112713   6.063   3.339   2.791
 3938SOL    HW212714   5.938   3.235   2.805
 3939SOL     OW12715   1.622   2.461   1.950
 3939SOL    HW112716   1.720   2.476   1.958
 3939SOL    HW212717   1.582   2.532   1.892
 3940SOL     OW12718   4.595   4.507   1.171
 3940SOL    HW112719   4.525   4.535   1.236
 3940SOL    HW212720   4.682   4.495   1.219
 3941SOL     OW12721   5.598   3.076   0.409
 3941SOL    HW112722   5.595   3.083   0.309
 3941SOL    HW212723   5.516   3.029   0.441
 3942SOL     OW12724   6.364   6.524   0.951
 3942SOL    HW112725   6.450   6.479   0.971
 3942SOL    HW212726   6.301   6.513   1.029
 3943SOL     OW12727   0.221   3.123   4.898
 3943SOL    HW112728   0.190   3.041   4.946
 3943SOL    HW212729   0.312   3.107   4.860
 3944SOL     OW12730   5.621   2.290   5.091
 3944SOL    HW112731   5.592   2.226   5.163
 3944SOL    HW212732   5.701   2.252   5.045
 3945SOL     OW12733   0.233   6.986   1.155
 3945SOL    HW112734   0.203   6.959   1.246
 3945SOL    HW212735   0.198   6.921   1.088
 3946SOL     OW12736   3.588   4.986   3.767
 3946SOL    HW112737   3.571   4.936   3.852
 3946SOL    HW212738   3.684   4.977   3.742
 3947SOL     OW12739   0.183   4.450   5.845
 3947SOL    HW112740   0.234   4.495   5.772
 3947SOL    HW212741   0.247   4.404   5.907
 3948SOL     OW12742   6.381   3.250   1.766
 3948SOL    HW112743   6.457   3.251   1.831
 3948SOL    HW212744   6.369   3.157   1.730
 3949SOL     OW12745   5.545   6.297   2.514
 3949SOL    HW112746   5.544   6.311   2.415
 3949SOL    HW212747   5.581   6.206   2.534
 3950SOL     OW12748   1.634   6.068   0.254
 3950SOL    HW112749   1.554   6.010   0.266
 3950SOL    HW212750   1.716   6.011   0.250
 3951SOL     OW12751   5.452   5.679   2.246
 3951SOL    HW112752   5.426   5.679   2.149
 3951SOL    HW212753   5.541   5.636   2.256
 3952SOL     OW12754   6.123   0.976   0.043
 3952SOL    HW112755   6.080   0.942   0.126
 3952SOL    HW212756   6.180   1.055   0.064
 3953SOL     OW12757   2.902   3.435   2.504
 3953SOL    HW112758   2.818   3.478   2.472
 3953SOL    HW212759   2.980   3.495   2.484
 3954SOL     OW12760   4.315   4.106   5.646
 3954SOL    HW112761   4.258   4.161   5.585
 3954SOL    HW212762   4.324   4.152   5.734
 3955SOL     OW12763   4.040   1.272   4.893
 3955SOL    HW112764   3.966   1.205   4.881
 3955SOL    HW212765   4.007   1.363   4.869
 3956SOL     OW12766   2.644   1.273   0.708
 3956SOL    HW112767   2.644   1.326   0.622
 3956SOL    HW212768   2.739   1.257   0.736
 3957SOL     OW12769   4.239   1.921   3.826
 3957SOL    HW112770   4.327   1.949   3.788
 3957SOL    HW212771   4.181   2.002   3.840
 3958SOL     OW12772   5.166   6.557   6.021
 3958SOL    HW112773   5.259   6.520   6.018
 3958SOL    HW212774   5.102   6.484   6.046
 3959SOL     OW12775   5.533   5.913   6.522
 3959SOL    HW112776   5.531   6.012   6.506
 3959SOL    HW212777   5.577   5.867   6.445
 3960SOL     OW12778   6.329   2.815   4.258
 3960SOL    HW112779   6.426   2.814   4.231
 3960SOL    HW212780   6.322   2.796   4.356
 3961SOL     OW12781   4.974   6.802   4.307
 3961SOL    HW112782   5.055   6.805   4.367
 3961SOL    HW212783   4.960   6.708   4.275
 3962SOL     OW12784   6.402   5.313   4.379
 3962SOL    HW112785   6.409   5.278   4.285
 3962SOL    HW212786   6.411   5.237   4.443
 3963SOL     OW12787   3.209   6.204   1.828
 3963SOL    HW112788   3.192   6.106   1.824
 3963SOL    HW212789   3.142   6.247   1.889
 3964SOL     OW12790   6.049   2.437   4.259
 3964SOL    HW112791   5.998   2.379   4.197
 3964SOL    HW212792   6.134   2.390   4.286
 3965SOL     OW12793   4.967   4.349   4.610
 3965SOL    HW112794   4.922   4.384   4.527
 3965SOL    HW212795   4.978   4.250   4.602
 3966SOL     OW12796   3.091   6.411   6.626
 3966SOL    HW112797   3.141   6.455   6.551
 3966SOL    HW212798   3.126   6.445   6.714
 3967SOL     OW12799   1.697   3.900   3.911
 3967SOL    HW112800   1.782   3.952   3.922
 3967SOL    HW212801   1.679   3.847   3.994
 3968SOL     OW12802   4.297   6.410   0.669
 3968SOL    HW112803   4.291   6.500   0.714
 3968SOL    HW212804   4.370   6.357   0.712
 3969SOL     OW12805   0.000   4.490   3.256
 3969SOL    HW112806   0.099   4.480   3.250
 3969SOL    HW212807   6.980   4.401   3.243
 3970SOL     OW12808   4.294   6.531   1.308
 3970SOL    HW112809   4.360   6.481   1.252
 3970SOL    HW212810   4.339   6.607   1.354
 3971SOL     OW12811   0.971   6.184   3.468
 3971SOL    HW112812   0.923   6.186   3.556
 3971SOL    HW212813   1.035   6.107   3.467
 3972SOL     OW12814   1.549   3.540   0.136
 3972SOL    HW112815   1.632   3.574   0.179
 3972SOL    HW212816   1.471   3.597   0.164
 3973SOL     OW12817   1.910   4.354   1.091
 3973SOL    HW112818   1.924   4.325   0.996
 3973SOL    HW212819   1.884   4.275   1.146
 3974SOL     OW12820   2.889   0.130   6.018
 3974SOL    HW112821   2.915   0.218   5.979
 3974SOL    HW212822   2.943   0.058   5.975
 3975SOL     OW12823   6.634   2.885   0.000
 3975SOL    HW112824   6.549   2.874   6.972
 3975SOL    HW212825   6.698   2.812   6.998
 3976SOL     OW12826   1.162   4.285   2.475
 3976SOL    HW112827   1.234   4.354   2.482
 3976SOL    HW212828   1.142   4.268   2.378
 3977SOL     OW12829   0.673   2.997   6.866
 3977SOL    HW112830   0.589   3.050   6.860
 3977SOL    HW212831   0.664   2.914   6.811
 3978SOL     OW12832   5.582   3.890   3.555
 3978SOL    HW112833   5.672   3.911   3.594
 3978SOL    HW212834   5.583   3.909   3.457
 3979SOL     OW12835   3.899   6.115   6.170
 3979SOL    HW112836   3.956   6.058   6.111
 3979SOL    HW212837   3.803   6.097   6.149
 3980SOL     OW12838   5.275   4.832   5.722
 3980SOL    HW112839   5.271   4.873   5.631
 3980SOL    HW212840   5.188   4.846   5.769
 3981SOL     OW12841   4.493   5.530   7.007
 3981SOL    HW112842   4.394   5.536   7.000
 3981SOL    HW212843   4.531   5.623   7.015
 3982SOL     OW12844   2.641   5.984   2.851
 3982SOL    HW112845   2.602   5.896   2.823
 3982SOL    HW212846   2.592   6.058   2.805
 3983SOL     OW12847   3.351   6.183   4.460
 3983SOL    HW112848   3.284   6.255   4.480
 3983SOL    HW212849   3.325   6.137   4.375
 3984SOL     OW12850   6.076   2.926   3.196
 3984SOL    HW112851   6.062   3.011   3.146
 3984SOL    HW212852   6.164   2.886   3.170
 3985SOL     OW12853   4.725   5.245   6.414
 3985SOL    HW112854   4.754   5.150   6.403
 3985SOL    HW212855   4.746   5.296   6.331
 3986SOL     OW12856   5.400   0.535   2.612
 3986SOL    HW112857   5.432   0.470   2.680
 3986SOL    HW212858   5.324   0.495   2.560
 3987SOL     OW12859   3.512   5.335   5.515
 3987SOL    HW112860   3.488   5.246   5.476
 3987SOL    HW212861   3.551   5.322   5.606
 3988SOL     OW12862   4.574   5.822   0.891
 3988SOL    HW112863   4.505   5.788   0.955
 3988SOL    HW212864   4.589   5.754   0.819
 3989SOL     OW12865   6.800   2.737   1.532
 3989SOL    HW112866   6.810   2.699   1.440
 3989SOL    HW212867   6.783   2.836   1.526
 3990SOL     OW12868   6.826   1.419   1.411
 3990SOL    HW112869   6.784   1.479   1.343
 3990SOL    HW212870   6.915   1.388   1.378
 3991SOL     OW12871   4.580   1.411   3.304
 3991SOL    HW112872   4.585   1.437   3.401
 3991SOL    HW212873   4.534   1.484   3.253
 3992SOL     OW12874   4.339   1.506   1.684
 3992SOL    HW112875   4.310   1.601   1.687
 3992SOL    HW212876   4.439   1.502   1.678
 3993SOL     OW12877   1.174   3.200   1.525
 3993SOL    HW112878   1.175   3.292   1.565
 3993SOL    HW212879   1.260   3.184   1.477
 3994SOL     OW12880   2.482   5.591   4.563
 3994SOL    HW112881   2.437   5.594   4.473
 3994SOL    HW212882   2.572   5.549   4.554
 3995SOL     OW12883   1.174   2.262   3.812
 3995SOL    HW112884   1.222   2.203   3.746
 3995SOL    HW212885   1.086   2.289   3.774
 3996SOL     OW12886   6.746   5.733   4.411
 3996SOL    HW112887   6.822   5.698   4.466
 3996SOL    HW212888   6.764   5.715   4.314
 3997SOL     OW12889   2.930   0.382   3.080
 3997SOL    HW112890   2.960   0.453   3.017
 3997SOL    HW212891   2.869   0.319   3.034
 3998SOL     OW12892   4.428   1.917   3.013
 3998SOL    HW112893   4.451   2.004   2.969
 3998SOL    HW212894   4.493   1.847   2.984
 3999SOL     OW12895   4.466   1.253   4.421
 3999SOL    HW112896   4.395   1.216   4.481
 3999SOL    HW212897   4.480   1.350   4.441
 4000SOL     OW12898   4.886   5.287   4.729
 4000SOL    HW112899   4.885   5.383   4.759
 4000SOL    HW212900   4.805   5.268   4.673
 4001SOL     OW12901   0.809   1.686   5.214
 4001SOL    HW112902   0.895   1.734   5.231
 4001SOL    HW212903   0.826   1.588   5.209
 4002SOL     OW12904   2.000   5.088   1.996
 4002SOL    HW112905   1.989   4.992   2.024
 4002SOL    HW212906   2.030   5.141   2.075
 4003SOL     OW12907   3.760   1.857   4.475
 4003SOL    HW112908   3.772   1.956   4.475
 4003SOL    HW212909   3.834   1.814   4.425
 4004SOL     OW12910   6.885   1.963   6.468
 4004SOL    HW112911   6.825   1.984   6.391
 4004SOL    HW212912   6.888   2.041   6.530
 4005SOL     OW12913   6.675   4.838   4.435
 4005SOL    HW112914   6.764   4.793   4.432
 4005SOL    HW212915   6.639   4.836   4.528
 4006SOL     OW12916   3.742   6.279   3.152
 4006SOL    HW112917   3.714   6.365   3.193
 4006SOL    HW212918   3.830   6.291   3.106
 4007SOL     OW12919   0.538   1.555   5.856
 4007SOL    HW112920   0.561   1.524   5.948
 4007SOL    HW212921   0.472   1.492   5.815
 4008SOL     OW12922   3.275   1.559   4.907
 4008SOL    HW112923   3.205   1.502   4.865
 4008SOL    HW212924   3.261   1.561   5.006
 4009SOL     OW12925   3.849   4.034   2.898
 4009SOL    HW112926   3.882   3.960   2.956
 4009SOL    HW212927   3.774   4.082   2.944
 4010SOL     OW12928   1.303   3.300   0.717
 4010SOL    HW112929   1.311   3.360   0.797
 4010SOL    HW212930   1.220   3.324   0.666
 4011SOL     OW12931   0.641   1.329   0.670
 4011SOL    HW112932   0.720   1.297   0.722
 4011SOL    HW212933   0.671   1.393   0.600
 4012SOL     OW12934   5.199   3.327   3.525
 4012SOL    HW112935   5.245   3.415   3.516
 4012SOL    HW212936   5.199   3.281   3.436
 4013SOL     OW12937   5.232   2.909   2.819
 4013SOL    HW112938   5.310   2.866   2.865
 4013SOL    HW212939   5.165   2.838   2.796
 4014SOL     OW12940   5.631   4.691   2.728
 4014SOL    HW112941   5.604   4.636   2.807
 4014SOL    HW212942   5.720   4.733   2.745
 4015SOL     OW12943   5.206   3.539   0.204
 4015SOL    HW112944   5.152   3.604   0.150
 4015SOL    HW212945   5.264   3.590   0.269
 4016SOL     OW12946   3.056   6.659   4.517
 4016SOL    HW112947   3.030   6.727   4.449
 4016SOL    HW212948   2.974   6.629   4.567
 4017SOL     OW12949   5.282   6.548   6.322
 4017SOL    HW112950   5.218   6.624   6.306
 4017SOL    HW212951   5.346   6.543   6.246
 4018SOL     OW12952   2.168   0.200   7.002
 4018SOL    HW112953   2.218   0.114   6.989
 4018SOL    HW212954   2.069   0.180   7.002
 4019SOL     OW12955   5.410   6.670   4.347
 4019SOL    HW112956   5.495   6.647   4.394
 4019SOL    HW212957   5.431   6.707   4.257
 4020SOL     OW12958   5.405   1.777   4.311
 4020SOL    HW112959   5.367   1.709   4.248
 4020SOL    HW212960   5.467   1.838   4.261
 4021SOL     OW12961   4.849   3.245   6.985
 4021SOL    HW112962   4.832   3.328   6.932
 4021SOL    HW212963   4.936   3.205   6.958
 4022SOL     OW12964   5.229   0.963   1.002
 4022SOL    HW112965   5.188   1.003   1.084
 4022SOL    HW212966   5.230   1.031   0.929
 4023SOL     OW12967   6.673   5.646   5.475
 4023SOL    HW112968   6.627   5.591   5.405
 4023SOL    HW212969   6.613   5.655   5.555
 4024SOL     OW12970   3.974   4.634   5.762
 4024SOL    HW112971   4.005   4.617   5.855
 4024SOL    HW212972   3.983   4.551   5.707
 4025SOL     OW12973   0.069   3.875   4.219
 4025SOL    HW112974   0.103   3.963   4.185
 4025SOL    HW212975   0.142   3.806   4.212
 4026SOL     OW12976   5.951   1.541   5.432
 4026SOL    HW112977   5.925   1.505   5.342
 4026SOL    HW212978   6.049   1.557   5.434
 4027SOL     OW12979   2.778   5.120   2.710
 4027SOL    HW112980   2.867   5.094   2.671
 4027SOL    HW212981   2.713   5.136   2.636
 4028SOL     OW12982   1.151   5.606   2.855
 4028SOL    HW112983   1.088   5.575   2.782
 4028SOL    HW212984   1.181   5.527   2.908
 4029SOL     OW12985   1.727   4.263   3.243
 4029SOL    HW112986   1.774   4.352   3.248
 4029SOL    HW212987   1.788   4.191   3.276
 4030SOL     OW12988   2.660   1.045   6.276
 4030SOL    HW112989   2.740   0.986   6.265
 4030SOL    HW212990   2.592   0.998   6.332
 4031SOL     OW12991   6.559   6.239   4.279
 4031SOL    HW112992   6.460   6.233   4.288
 4031SOL    HW212993   6.586   6.205   4.189
 4032SOL     OW12994   3.524   0.120   4.862
 4032SOL    HW112995   3.596   0.057   4.891
 4032SOL    HW212996   3.564   0.193   4.807
 4033SOL     OW12997   3.613   3.984   6.460
 4033SOL    HW112998   3.682   3.935   6.513
 4033SOL    HW212999   3.649   4.001   6.368
 4034SOL     OW13000   5.961   3.520   5.476
 4034SOL    HW113001   5.901   3.455   5.522
 4034SOL    HW213002   5.933   3.528   5.380
 4035SOL     OW13003   0.279   5.909   2.285
 4035SOL    HW113004   0.181   5.927   2.298
 4035SOL    HW213005   0.330   5.948   2.361
 4036SOL     OW13006   6.099   6.006   1.267
 4036SOL    HW113007   6.139   5.942   1.332
 4036SOL    HW213008   6.013   5.968   1.233
 4037SOL     OW13009   0.802   3.956   6.483
 4037SOL    HW113010   0.867   4.026   6.455
 4037SOL    HW213011   0.778   3.899   6.404
 4038SOL     OW13012   6.619   5.338   3.237
 4038SOL    HW113013   6.556   5.338   3.314
 4038SOL    HW213014   6.651   5.245   3.220
 4039SOL     OW13015   2.649   5.018   1.205
 4039SOL    HW113016   2.607   5.037   1.294
 4039SOL    HW213017   2.616   5.084   1.138
 4040SOL     OW13018   2.956   0.252   6.935
 4040SOL    HW113019   2.964   0.169   6.880
 4040SOL    HW213020   2.908   0.230   7.020
 4041SOL     OW13021   0.293   6.018   3.256
 4041SOL    HW113022   0.227   6.092   3.265
 4041SOL    HW213023   0.249   5.939   3.213
 4042SOL     OW13024   5.459   5.110   1.800
 4042SOL    HW113025   5.497   5.065   1.880
 4042SOL    HW213026   5.367   5.073   1.782
 4043SOL     OW13027   0.203   3.252   0.729
 4043SOL    HW113028   0.160   3.166   0.702
 4043SOL    HW213029   0.292   3.234   0.770
 4044SOL     OW13030   5.315   5.042   2.651
 4044SOL    HW113031   5.365   5.125   2.677
 4044SOL    HW213032   5.376   4.963   2.656
 4045SOL     OW13033   3.082   5.445   5.551
 4045SOL    HW113034   3.122   5.357   5.575
 4045SOL    HW213035   2.990   5.452   5.590
 4046SOL     OW13036   0.919   4.013   0.494
 4046SOL    HW113037   0.988   4.058   0.549
 4046SOL    HW213038   0.939   4.027   0.397
 4047SOL     OW13039   3.499   4.128   3.445
 4047SOL    HW113040   3.554   4.104   3.365
 4047SOL    HW213041   3.556   4.124   3.527
 4048SOL     OW13042   5.101   2.439   0.606
 4048SOL    HW113043   5.072   2.530   0.577
 4048SOL    HW213044   5.191   2.418   0.568
 4049SOL     OW13045   6.555   6.011   0.088
 4049SOL    HW113046   6.609   6.051   0.014
 4049SOL    HW213047   6.564   6.067   0.171
 4050SOL     OW13048   2.176   1.008   2.022
 4050SOL    HW113049   2.206   1.013   2.118
 4050SOL    HW213050   2.138   1.097   1.995
 4051SOL     OW13051   3.089   4.322   0.842
 4051SOL    HW113052   3.155   4.254   0.874
 4051SOL    HW213053   3.009   4.322   0.901
 4052SOL     OW13054   1.332   0.138   0.920
 4052SOL    HW113055   1.359   0.228   0.886
 4052SOL    HW213056   1.232   0.129   0.915
 4053SOL     OW13057   2.562   5.828   2.101
 4053SOL    HW113058   2.617   5.909   2.078
 4053SOL    HW213059   2.569   5.811   2.199
 4054SOL     OW13060   5.291   1.627   6.358
 4054SOL    HW113061   5.316   1.619   6.454
 4054SOL    HW213062   5.224   1.557   6.335
 4055SOL     OW13063   4.605   3.646   6.014
 4055SOL    HW113064   4.624   3.603   6.102
 4055SOL    HW213065   4.640   3.589   5.940
 4056SOL     OW13066   4.306   3.402   0.042
 4056SOL    HW113067   4.268   3.325   7.013
 4056SOL    HW213068   4.288   3.487   7.015
 4057SOL     OW13069   6.454   2.265   0.715
 4057SOL    HW113070   6.514   2.271   0.794
 4057SOL    HW213071   6.503   2.296   0.633
 4058SOL     OW13072   1.111   3.861   3.870
 4058SOL    HW113073   1.079   3.782   3.922
 4058SOL    HW213074   1.199   3.840   3.827
 4059SOL     OW13075   0.014   2.122   5.168
 4059SOL    HW113076   0.026   2.044   5.107
 4059SOL    HW213077   6.941   2.148   5.171
 4060SOL     OW13078   2.312   6.680   6.067
 4060SOL    HW113079   2.213   6.669   6.064
 4060SOL    HW213080   2.352   6.652   5.980
 4061SOL     OW13081   1.936   2.526   1.693
 4061SOL    HW113082   1.928   2.617   1.654
 4061SOL    HW213083   2.025   2.516   1.738
 4062SOL     OW13084   2.572   1.069   3.142
 4062SOL    HW113085   2.500   1.132   3.168
 4062SOL    HW213086   2.658   1.119   3.131
 4063SOL     OW13087   3.858   6.827   6.029
 4063SOL    HW113088   3.874   6.754   6.096
 4063SOL    HW213089   3.764   6.822   5.996
 4064SOL     OW13090   6.368   0.044   4.479
 4064SOL    HW113091   6.277   0.080   4.460
 4064SOL    HW213092   6.378   0.031   4.578
 4065SOL     OW13093   0.959   4.482   6.003
 4065SOL    HW113094   0.864   4.478   6.033
 4065SOL    HW213095   1.011   4.410   6.048
 4066SOL     OW13096   4.761   4.164   2.293
 4066SOL    HW113097   4.805   4.175   2.382
 4066SOL    HW213098   4.717   4.249   2.266
 4067SOL     OW13099   5.146   0.337   1.567
 4067SOL    HW113100   5.161   0.424   1.519
 4067SOL    HW213101   5.212   0.269   1.534
 4068SOL     OW13102   5.290   0.275   4.682
 4068SOL    HW113103   5.228   0.242   4.610
 4068SOL    HW213104   5.380   0.236   4.668
 4069SOL     OW13105   6.451   6.134   0.681
 4069SOL    HW113106   6.514   6.085   0.621
 4069SOL    HW213107   6.464   6.104   0.775
 4070SOL     OW13108   0.139   3.560   2.686
 4070SOL    HW113109   0.100   3.478   2.644
 4070SOL    HW213110   0.179   3.618   2.615
 4071SOL     OW13111   2.807   6.899   4.714
 4071SOL    HW113112   2.739   6.972   4.727
 4071SOL    HW213113   2.889   6.938   4.671
 4072SOL     OW13114   0.160   0.588   4.866
 4072SOL    HW113115   0.120   0.504   4.830
 4072SOL    HW213116   0.205   0.568   4.953
 4073SOL     OW13117   2.688   4.404   1.712
 4073SOL    HW113118   2.656   4.480   1.654
 4073SOL    HW213119   2.768   4.433   1.763
 4074SOL     OW13120   0.113   2.779   1.882
 4074SOL    HW113121   0.202   2.735   1.878
 4074SOL    HW213122   0.054   2.729   1.945
 4075SOL     OW13123   6.708   0.822   3.847
 4075SOL    HW113124   6.685   0.822   3.944
 4075SOL    HW213125   6.798   0.779   3.834
 4076SOL     OW13126   1.683   3.755   3.240
 4076SOL    HW113127   1.663   3.709   3.327
 4076SOL    HW213128   1.729   3.842   3.259
 4077SOL     OW13129   3.769   0.606   1.637
 4077SOL    HW113130   3.678   0.567   1.654
 4077SOL    HW213131   3.774   0.697   1.680
 4078SOL     OW13132   4.860   4.238   2.559
 4078SOL    HW113133   4.819   4.298   2.627
 4078SOL    HW213134   4.954   4.266   2.542
 4079SOL     OW13135   4.622   1.093   2.945
 4079SOL    HW113136   4.529   1.081   2.979
 4079SOL    HW213137   4.619   1.123   2.849
 4080SOL     OW13138   4.071   3.412   4.068
 4080SOL    HW113139   4.070   3.373   4.160
 4080SOL    HW213140   4.060   3.338   4.001
 4081SOL     OW13141   2.626   0.073   0.208
 4081SOL    HW113142   2.628   0.011   0.129
 4081SOL    HW213143   2.578   0.157   0.182
 4082SOL     OW13144   1.510   1.535   6.211
 4082SOL    HW113145   1.583   1.576   6.265
 4082SOL    HW213146   1.511   1.435   6.225
 4083SOL     OW13147   5.552   3.918   2.444
 4083SOL    HW113148   5.600   3.851   2.499
 4083SOL    HW213149   5.602   3.934   2.359
 4084SOL     OW13150   4.003   5.759   3.079
 4084SOL    HW113151   3.982   5.826   3.008
 4084SOL    HW213152   4.032   5.673   3.036
 4085SOL     OW13153   1.623   4.522   2.617
 4085SOL    HW113154   1.593   4.611   2.583
 4085SOL    HW213155   1.718   4.527   2.646
 4086SOL     OW13156   6.316   5.073   5.328
 4086SOL    HW113157   6.366   4.997   5.288
 4086SOL    HW213158   6.286   5.049   5.420
 4087SOL     OW13159   1.193   1.484   1.206
 4087SOL    HW113160   1.263   1.550   1.234
 4087SOL    HW213161   1.109   1.533   1.183
 4088SOL     OW13162   0.389   2.114   4.919
 4088SOL    HW113163   0.457   2.170   4.872
 4088SOL    HW213164   0.311   2.170   4.945
 4089SOL     OW13165   6.626   6.612   2.646
 4089SOL    HW113166   6.705   6.551   2.647
 4089SOL    HW213167   6.627   6.667   2.562
 4090SOL     OW13168   3.432   2.599   5.542
 4090SOL    HW113169   3.522   2.577   5.506
 4090SOL    HW213170   3.367   2.609   5.466
 4091SOL     OW13171   4.410   6.977   3.247
 4091SOL    HW113172   4.324   7.015   3.281
 4091SOL    HW213173   4.486   7.013   3.301
 4092SOL     OW13174   4.327   1.824   6.537
 4092SOL    HW113175   4.368   1.758   6.473
 4092SOL    HW213176   4.374   1.816   6.625
 4093SOL     OW13177   5.473   4.437   1.344
 4093SOL    HW113178   5.524   4.384   1.276
 4093SOL    HW213179   5.413   4.502   1.298
 4094SOL     OW13180   6.086   5.982   0.356
 4094SOL    HW113181   6.153   5.988   0.283
 4094SOL    HW213182   6.009   5.925   0.327
 4095SOL     OW13183   1.294   5.024   0.018
 4095SOL    HW113184   1.349   5.056   0.095
 4095SOL    HW213185   1.201   5.004   0.049
 4096SOL     OW13186   0.859   6.512   5.757
 4096SOL    HW113187   0.791   6.510   5.831
 4096SOL    HW213188   0.812   6.511   5.669
 4097SOL     OW13189   1.871   4.080   5.836
 4097SOL    HW113190   1.925   4.064   5.753
 4097SOL    HW213191   1.835   4.173   5.834
 4098SOL     OW13192   1.576   5.747   2.004
 4098SOL    HW113193   1.662   5.713   2.043
 4098SOL    HW213194   1.536   5.814   2.067
 4099SOL     OW13195   0.199   2.508   5.876
 4099SOL    HW113196   0.149   2.450   5.940
 4099SOL    HW213197   0.286   2.465   5.852
 4100SOL     OW13198   1.830   0.836   2.964
 4100SOL    HW113199   1.731   0.853   2.962
 4100SOL    HW213200   1.867   0.868   3.051
 4101SOL     OW13201   5.667   5.893   5.947
 4101SOL    HW113202   5.598   5.835   5.989
 4101SOL    HW213203   5.748   5.897   6.006
 4102SOL     OW13204   2.781   5.501   0.813
 4102SOL    HW113205   2.698   5.471   0.766
 4102SOL    HW213206   2.806   5.434   0.882
 4103SOL     OW13207   2.284   5.151   2.513
 4103SOL    HW113208   2.296   5.152   2.414
 4103SOL    HW213209   2.208   5.210   2.539
 4104SOL     OW13210   2.391   5.574   5.200
 4104SOL    HW113211   2.439   5.646   5.150
 4104SOL    HW213212   2.304   5.554   5.155
 4105SOL     OW13213   3.930   0.386   1.779
 4105SOL    HW113214   3.993   0.420   1.849
 4105SOL    HW213215   3.865   0.457   1.755
 4106SOL     OW13216   1.618   6.461   3.080
 4106SOL    HW113217   1.593   6.470   3.177
 4106SOL    HW213218   1.555   6.515   3.025
 4107SOL     OW13219   2.827   2.182   1.302
 4107SOL    HW113220   2.898   2.250   1.319
 4107SOL    HW213221   2.868   2.102   1.260
 4108SOL     OW13222   0.516   5.527   5.487
 4108SOL    HW113223   0.599   5.515   5.540
 4108SOL    HW213224   0.534   5.588   5.410
 4109SOL     OW13225   5.826   0.265   4.825
 4109SOL    HW113226   5.864   0.354   4.801
 4109SOL    HW213227   5.793   0.267   4.920
 4110SOL     OW13228   5.009   2.700   0.505
 4110SOL    HW113229   4.912   2.684   0.518
 4110SOL    HW213230   5.024   2.753   0.421
 4111SOL     OW13231   6.176   4.816   4.224
 4111SOL    HW113232   6.179   4.722   4.190
 4111SOL    HW213233   6.109   4.868   4.172
 4112SOL     OW13234   3.480   4.873   5.309
 4112SOL    HW113235   3.538   4.808   5.259
 4112SOL    HW213236   3.481   4.851   5.406
 4113SOL     OW13237   5.419   6.182   5.637
 4113SOL    HW113238   5.452   6.176   5.732
 4113SOL    HW213239   5.477   6.127   5.578
 4114SOL     OW13240   5.675   1.658   3.452
 4114SOL    HW113241   5.594   1.602   3.437
 4114SOL    HW213242   5.754   1.613   3.410
 4115SOL     OW13243   4.712   0.516   4.923
 4115SOL    HW113244   4.756   0.472   4.845
 4115SOL    HW213245   4.778   0.574   4.970
 4116SOL     OW13246   5.644   3.559   3.070
 4116SOL    HW113247   5.650   3.475   3.124
 4116SOL    HW213248   5.562   3.555   3.012
 4117SOL     OW13249   0.644   2.664   2.893
 4117SOL    HW113250   0.631   2.723   2.973
 4117SOL    HW213251   0.594   2.701   2.815
 4118SOL     OW13252   1.085   1.070   1.600
 4118SOL    HW113253   1.120   1.152   1.555
 4118SOL    HW213254   0.985   1.067   1.590
 4119SOL     OW13255   6.071   0.839   4.535
 4119SOL    HW113256   6.140   0.776   4.500
 4119SOL    HW213257   5.991   0.836   4.475
 4120SOL     OW13258   2.045   0.070   0.429
 4120SOL    HW113259   2.138   0.087   0.399
 4120SOL    HW213260   1.982   0.128   0.376
 4121SOL     OW13261   6.653   0.197   1.239
 4121SOL    HW113262   6.580   0.131   1.259
 4121SOL    HW213263   6.742   0.153   1.249
 4122SOL     OW13264   1.012   4.429   3.245
 4122SOL    HW113265   1.110   4.412   3.229
 4122SOL    HW213266   0.963   4.423   3.158
 4123SOL     OW13267   5.690   4.540   1.926
 4123SOL    HW113268   5.621   4.518   1.995
 4123SOL    HW213269   5.724   4.456   1.884
 4124SOL     OW13270   5.685   5.940   0.404
 4124SOL    HW113271   5.679   6.038   0.423
 4124SOL    HW213272   5.648   5.889   0.481
 4125SOL     OW13273   1.486   3.099   0.352
 4125SOL    HW113274   1.434   3.015   0.340
 4125SOL    HW213275   1.469   3.161   0.276
 4126SOL     OW13276   2.010   4.660   2.984
 4126SOL    HW113277   2.069   4.643   2.905
 4126SOL    HW213278   1.956   4.579   3.004
 4127SOL     OW13279   4.576   2.597   4.501
 4127SOL    HW113280   4.642   2.522   4.503
 4127SOL    HW213281   4.517   2.592   4.582
 4128SOL     OW13282   6.358   3.008   6.804
 4128SOL    HW113283   6.447   3.036   6.769
 4128SOL    HW213284   6.345   2.910   6.789
 4129SOL     OW13285   3.058   6.864   1.922
 4129SOL    HW113286   3.157   6.849   1.925
 4129SOL    HW213287   3.035   6.917   1.840
 4130SOL     OW13288   4.760   1.330   6.852
 4130SOL    HW113289   4.682   1.305   6.796
 4130SOL    HW213290   4.760   1.276   6.936
 4131SOL     OW13291   5.446   5.681   4.256
 4131SOL    HW113292   5.376   5.694   4.186
 4131SOL    HW213293   5.499   5.598   4.236
 4132SOL     OW13294   0.147   3.317   2.513
 4132SOL    HW113295   0.232   3.367   2.500
 4132SOL    HW213296   0.163   3.220   2.497
 4133SOL     OW13297   5.245   6.375   3.962
 4133SOL    HW113298   5.235   6.360   3.864
 4133SOL    HW213299   5.218   6.468   3.985
 4134SOL     OW13300   1.984   2.990   1.435
 4134SOL    HW113301   2.037   3.070   1.408
 4134SOL    HW213302   1.938   2.951   1.355
 4135SOL     OW13303   5.911   0.591   0.753
 4135SOL    HW113304   5.957   0.672   0.716
 4135SOL    HW213305   5.957   0.562   0.837
 4136SOL     OW13306   0.756   5.222   6.974
 4136SOL    HW113307   0.846   5.211   6.931
 4136SOL    HW213308   0.748   5.314   7.013
 4137SOL     OW13309   0.418   2.164   5.397
 4137SOL    HW113310   0.409   2.079   5.344
 4137SOL    HW213311   0.330   2.211   5.398
 4138SOL     OW13312   5.557   6.440   6.494
 4138SOL    HW113313   5.504   6.519   6.526
 4138SOL    HW213314   5.654   6.453   6.514
 4139SOL     OW13315   1.281   4.041   2.054
 4139SOL    HW113316   1.369   4.024   2.098
 4139SOL    HW213317   1.295   4.098   1.973
 4140SOL     OW13318   2.056   6.760   0.734
 4140SOL    HW113319   2.131   6.774   0.669
 4140SOL    HW213320   2.094   6.740   0.825
 4141SOL     OW13321   5.070   6.796   5.938
 4141SOL    HW113322   4.987   6.778   5.884
 4141SOL    HW213323   5.118   6.710   5.955
 4142SOL     OW13324   0.253   6.970   2.005
 4142SOL    HW113325   0.245   6.871   1.998
 4142SOL    HW213326   0.305   7.004   1.927
 4143SOL     OW13327   6.358   3.865   6.785
 4143SOL    HW113328   6.377   3.829   6.693
 4143SOL    HW213329   6.289   3.807   6.829
 4144SOL     OW13330   4.998   0.717   1.690
 4144SOL    HW113331   4.928   0.778   1.727
 4144SOL    HW213332   4.974   0.622   1.711
 4145SOL     OW13333   4.337   0.668   1.068
 4145SOL    HW113334   4.256   0.644   1.014
 4145SOL    HW213335   4.418   0.666   1.009
 4146SOL     OW13336   2.970   1.221   1.778
 4146SOL    HW113337   2.891   1.227   1.839
 4146SOL    HW213338   2.944   1.253   1.687
 4147SOL     OW13339   5.400   4.022   0.048
 4147SOL    HW113340   5.355   4.095   7.020
 4147SOL    HW213341   5.332   3.974   0.104
 4148SOL     OW13342   3.320   0.483   6.178
 4148SOL    HW113343   3.349   0.391   6.151
 4148SOL    HW213344   3.230   0.479   6.220
 4149SOL     OW13345   1.965   2.418   6.351
 4149SOL    HW113346   1.978   2.404   6.253
 4149SOL    HW213347   1.873   2.388   6.377
 4150SOL     OW13348   6.754   1.160   1.498
 4150SOL    HW113349   6.793   1.082   1.448
 4150SOL    HW213350   6.805   1.243   1.475
 4151SOL     OW13351   3.078   5.802   4.428
 4151SOL    HW113352   3.040   5.751   4.505
 4151SOL    HW213353   3.155   5.857   4.460
 4152SOL     OW13354   2.807   3.799   1.181
 4152SOL    HW113355   2.898   3.838   1.192
 4152SOL    HW213356   2.748   3.831   1.255
 4153SOL     OW13357   5.849   6.668   6.947
 4153SOL    HW113358   5.788   6.651   6.870
 4153SOL    HW213359   5.809   6.629   0.008
 4154SOL     OW13360   0.825   6.799   3.492
 4154SOL    HW113361   0.848   6.869   3.424
 4154SOL    HW213362   0.866   6.823   3.580
 4155SOL     OW13363   5.379   1.367   2.470
 4155SOL    HW113364   5.417   1.442   2.524
 4155SOL    HW213365   5.283   1.355   2.492
 4156SOL     OW13366   0.394   5.421   6.110
 4156SOL    HW113367   0.361   5.510   6.080
 4156SOL    HW213368   0.486   5.405   6.072
 4157SOL     OW13369   4.127   6.088   0.791
 4157SOL    HW113370   4.129   6.090   0.691
 4157SOL    HW213371   4.179   6.009   0.823
 4158SOL     OW13372   6.620   0.812   6.555
 4158SOL    HW113373   6.689   0.757   6.602
 4158SOL    HW213374   6.661   0.853   6.473
 4159SOL     OW13375   3.640   0.857   4.279
 4159SOL    HW113376   3.673   0.849   4.373
 4159SOL    HW213377   3.549   0.815   4.272
 4160SOL     OW13378   1.037   0.740   5.960
 4160SOL    HW113379   0.971   0.794   5.908
 4160SOL    HW213380   1.127   0.784   5.955
 4161SOL     OW13381   3.152   3.676   5.104
 4161SOL    HW113382   3.166   3.578   5.118
 4161SOL    HW213383   3.101   3.715   5.181
 4162SOL     OW13384   4.643   6.926   0.776
 4162SOL    HW113385   4.740   6.905   0.790
 4162SOL    HW213386   4.591   6.842   0.774
 4163SOL     OW13387   3.924   6.371   1.328
 4163SOL    HW113388   3.834   6.410   1.349
 4163SOL    HW213389   3.914   6.276   1.300
 4164SOL     OW13390   5.826   1.427   0.040
 4164SOL    HW113391   5.829   1.329   0.060
 4164SOL    HW213392   5.742   1.466   0.077
 4165SOL     OW13393   3.380   1.208   4.899
 4165SOL    HW113394   3.475   1.184   4.921
 4165SOL    HW213395   3.324   1.126   4.898
 4166SOL     OW13396   5.581   2.231   2.468
 4166SOL    HW113397   5.644   2.176   2.523
 4166SOL    HW213398   5.550   2.309   2.522
 4167SOL     OW13399   3.678   6.169   4.733
 4167SOL    HW113400   3.771   6.205   4.742
 4167SOL    HW213401   3.674   6.108   4.653
 4168SOL     OW13402   5.758   3.205   6.872
 4168SOL    HW113403   5.788   3.113   6.893
 4168SOL    HW213404   5.746   3.257   6.956
 4169SOL     OW13405   5.144   4.315   0.110
 4169SOL    HW113406   5.223   4.374   0.127
 4169SOL    HW213407   5.166   4.251   0.036
 4170SOL     OW13408   0.694   3.144   5.237
 4170SOL    HW113409   0.707   3.068   5.300
 4170SOL    HW213410   0.721   3.229   5.282
 4171SOL     OW13411   6.973   6.951   5.981
 4171SOL    HW113412   0.025   6.953   5.915
 4171SOL    HW213413   6.886   6.964   5.933
 4172SOL     OW13414   3.668   3.241   0.184
 4172SOL    HW113415   3.664   3.185   0.267
 4172SOL    HW213416   3.578   3.282   0.168
 4173SOL     OW13417   5.617   1.552   5.864
 4173SOL    HW113418   5.648   1.604   5.943
 4173SOL    HW213419   5.632   1.604   5.781
 4174SOL     OW13420   2.464   6.883   3.797
 4174SOL    HW113421   2.439   6.978   3.780
 4174SOL    HW213422   2.462   6.865   3.896
 4175SOL     OW13423   1.835   3.390   6.487
 4175SOL    HW113424   1.923   3.349   6.511
 4175SOL    HW213425   1.846   3.447   6.405
 4176SOL     OW13426   4.536   7.014   5.021
 4176SOL    HW113427   4.570   6.922   5.005
 4176SOL    HW213428   4.569   0.052   4.949
 4177SOL     OW13429   5.347   6.101   4.039
 4177SOL    HW113430   5.364   6.060   3.950
 4177SOL    HW213431   5.312   6.194   4.027
 4178SOL     OW13432   2.608   6.443   0.891
 4178SOL    HW113433   2.608   6.359   0.836
 4178SOL    HW213434   2.587   6.421   0.986
 4179SOL     OW13435   3.777   1.609   0.147
 4179SOL    HW113436   3.795   1.543   0.219
 4179SOL    HW213437   3.699   1.666   0.173
 4180SOL     OW13438   4.073   4.497   6.964
 4180SOL    HW113439   3.981   4.528   6.987
 4180SOL    HW213440   4.067   4.413   6.910
 4181SOL     OW13441   5.125   6.275   6.297
 4181SOL    HW113442   5.075   6.350   6.339
 4181SOL    HW213443   5.202   6.310   6.244
 4182SOL     OW13444   5.989   5.285   5.590
 4182SOL    HW113445   6.053   5.345   5.639
 4182SOL    HW213446   6.011   5.190   5.610
 4183SOL     OW13447   5.345   2.751   6.944
 4183SOL    HW113448   5.338   2.815   6.867
 4183SOL    HW213449   5.390   2.796   7.021
 4184SOL     OW13450   3.410   5.489   3.984
 4184SOL    HW113451   3.421   5.399   4.026
 4184SOL    HW213452   3.454   5.490   3.894
 4185SOL     OW13453   4.494   4.700   3.198
 4185SOL    HW113454   4.537   4.654   3.276
 4185SOL    HW213455   4.470   4.631   3.130
 4186SOL     OW13456   2.027   4.748   0.864
 4186SOL    HW113457   2.114   4.793   0.843
 4186SOL    HW213458   1.982   4.797   0.939
 4187SOL     OW13459   1.397   3.681   5.905
 4187SOL    HW113460   1.351   3.744   5.968
 4187SOL    HW213461   1.329   3.625   5.857
 4188SOL     OW13462   5.343   0.304   5.988
 4188SOL    HW113463   5.243   0.301   5.993
 4188SOL    HW213464   5.379   0.211   5.991
 4189SOL     OW13465   3.585   5.232   3.851
 4189SOL    HW113466   3.549   5.149   3.807
 4189SOL    HW213467   3.685   5.227   3.855
 4190SOL     OW13468   6.783   5.578   1.821
 4190SOL    HW113469   6.808   5.657   1.766
 4190SOL    HW213470   6.707   5.529   1.778
 4191SOL     OW13471   4.903   3.012   5.929
 4191SOL    HW113472   4.872   2.972   5.843
 4191SOL    HW213473   4.972   3.083   5.909
 4192SOL     OW13474   1.944   3.607   6.643
 4192SOL    HW113475   1.959   3.593   6.741
 4192SOL    HW213476   1.881   3.537   6.609
 4193SOL     OW13477   4.836   6.587   1.902
 4193SOL    HW113478   4.893   6.527   1.845
 4193SOL    HW213479   4.890   6.665   1.933
 4194SOL     OW13480   5.623   0.060   6.700
 4194SOL    HW113481   5.555   0.002   6.746
 4194SOL    HW213482   5.617   0.046   6.602
 4195SOL     OW13483   1.675   5.842   0.629
 4195SOL    HW113484   1.586   5.885   0.649
 4195SOL    HW213485   1.699   5.780   0.703
 4196SOL     OW13486   6.114   3.165   3.060
 4196SOL    HW113487   6.079   3.215   2.981
 4196SOL    HW213488   6.212   3.182   3.069
 4197SOL     OW13489   4.199   0.752   6.728
 4197SOL    HW113490   4.130   0.780   6.795
 4197SOL    HW213491   4.290   0.761   6.768
 4198SOL     OW13492   6.365   1.987   1.952
 4198SOL    HW113493   6.282   2.043   1.961
 4198SOL    HW213494   6.443   2.047   1.936
 4199SOL     OW13495   1.282   3.580   0.142
 4199SOL    HW113496   1.266   3.559   0.046
 4199SOL    HW213497   1.252   3.674   0.161
 4200SOL     OW13498   5.142   1.664   2.645
 4200SOL    HW113499   5.165   1.689   2.739
 4200SOL    HW213500   5.157   1.566   2.632
 4201SOL     OW13501   4.752   0.303   5.586
 4201SOL    HW113502   4.837   0.276   5.542
 4201SOL    HW213503   4.715   0.385   5.542
 4202SOL     OW13504   4.620   4.102   1.283
 4202SOL    HW113505   4.556   4.042   1.331
 4202SOL    HW213506   4.703   4.112   1.336
 4203SOL     OW13507   6.409   3.829   4.416
 4203SOL    HW113508   6.442   3.756   4.357
 4203SOL    HW213509   6.479   3.853   4.483
 4204SOL     OW13510   2.664   4.181   6.085
 4204SOL    HW113511   2.734   4.230   6.032
 4204SOL    HW213512   2.700   4.093   6.115
 4205SOL     OW13513   5.664   5.200   6.338
 4205SOL    HW113514   5.724   5.206   6.258
 4205SOL    HW213515   5.585   5.260   6.324
 4206SOL     OW13516   2.515   2.543   4.881
 4206SOL    HW113517   2.575   2.515   4.957
 4206SOL    HW213518   2.538   2.489   4.800
 4207SOL     OW13519   3.032   2.369   1.380
 4207SOL    HW113520   3.073   2.460   1.369
 4207SOL    HW213521   3.008   2.355   1.476
 4208SOL     OW13522   1.611   2.559   3.092
 4208SOL    HW113523   1.530   2.553   3.034
 4208SOL    HW213524   1.656   2.470   3.097
 4209SOL     OW13525   6.748   5.063   2.976
 4209SOL    HW113526   6.718   5.057   2.881
 4209SOL    HW213527   6.680   5.021   3.036
 4210SOL     OW13528   3.473   5.523   5.315
 4210SOL    HW113529   3.534   5.600   5.334
 4210SOL    HW213530   3.493   5.448   5.378
 4211SOL     OW13531   4.915   3.158   6.327
 4211SOL    HW113532   4.834   3.213   6.305
 4211SOL    HW213533   4.968   3.204   6.399
 4212SOL     OW13534   0.221   3.070   2.556
 4212SOL    HW113535   0.139   3.043   2.607
 4212SOL    HW213536   0.302   3.058   2.613
 4213SOL     OW13537   2.972   1.001   3.982
 4213SOL    HW113538   2.992   1.084   3.931
 4213SOL    HW213539   2.882   1.010   4.025
 4214SOL     OW13540   6.655   5.867   3.988
 4214SOL    HW113541   6.588   5.940   3.995
 4214SOL    HW213542   6.659   5.817   4.075
 4215SOL     OW13543   6.112   6.988   4.812
 4215SOL    HW113544   6.108   0.036   4.883
 4215SOL    HW213545   6.041   7.005   4.744
 4216SOL     OW13546   1.734   5.427   2.713
 4216SOL    HW113547   1.765   5.454   2.804
 4216SOL    HW213548   1.726   5.327   2.709
 4217SOL     OW13549   0.579   0.592   2.857
 4217SOL    HW113550   0.575   0.501   2.897
 4217SOL    HW213551   0.486   0.625   2.840
 4218SOL     OW13552   2.767   0.509   2.006
 4218SOL    HW113553   2.783   0.451   1.926
 4218SOL    HW213554   2.792   0.603   1.984
 4219SOL     OW13555   2.451   5.322   2.009
 4219SOL    HW113556   2.424   5.255   1.939
 4219SOL    HW213557   2.547   5.347   1.996
 4220SOL     OW13558   5.176   1.675   0.879
 4220SOL    HW113559   5.184   1.600   0.812
 4220SOL    HW213560   5.122   1.749   0.839
 4221SOL     OW13561   0.484   6.713   1.041
 4221SOL    HW113562   0.400   6.707   1.096
 4221SOL    HW213563   0.521   6.621   1.028
 4222SOL     OW13564   5.701   3.967   4.365
 4222SOL    HW113565   5.658   4.042   4.417
 4222SOL    HW213566   5.642   3.943   4.288
 4223SOL     OW13567   3.278   4.084   2.516
 4223SOL    HW113568   3.252   4.111   2.423
 4223SOL    HW213569   3.372   4.114   2.535
 4224SOL     OW13570   4.699   4.095   5.226
 4224SOL    HW113571   4.773   4.091   5.293
 4224SOL    HW213572   4.622   4.040   5.258
 4225SOL     OW13573   0.508   1.516   6.158
 4225SOL    HW113574   0.526   1.417   6.153
 4225SOL    HW213575   0.589   1.563   6.194
 4226SOL     OW13576   5.006   5.471   3.963
 4226SOL    HW113577   4.967   5.387   4.003
 4226SOL    HW213578   5.093   5.491   4.008
 4227SOL     OW13579   6.133   5.725   1.155
 4227SOL    HW113580   6.159   5.714   1.251
 4227SOL    HW213581   6.039   5.760   1.150
 4228SOL     OW13582   1.924   5.196   3.307
 4228SOL    HW113583   1.998   5.138   3.340
 4228SOL    HW213584   1.918   5.278   3.364
 4229SOL     OW13585   6.310   6.462   6.020
 4229SOL    HW113586   6.378   6.496   6.085
 4229SOL    HW213587   6.328   6.365   6.001
 4230SOL     OW13588   0.355   1.976   2.323
 4230SOL    HW113589   0.340   1.885   2.363
 4230SOL    HW213590   0.347   1.970   2.224
 4231SOL     OW13591   7.002   0.323   5.930
 4231SOL    HW113592   7.013   0.396   5.997
 4231SOL    HW213593   6.906   0.294   5.927
 4232SOL     OW13594   2.111   4.549   2.462
 4232SOL    HW113595   2.045   4.605   2.413
 4232SOL    HW213596   2.202   4.564   2.425
 4233SOL     OW13597   4.934   5.261   2.621
 4233SOL    HW113598   5.018   5.207   2.617
 4233SOL    HW213599   4.933   5.326   2.545
 4234SOL     OW13600   2.877   5.388   6.302
 4234SOL    HW113601   2.824   5.443   6.237
 4234SOL    HW213602   2.864   5.424   6.394
 4235SOL     OW13603   6.560   6.150   0.371
 4235SOL    HW113604   6.595   6.108   0.454
 4235SOL    HW213605   6.515   6.236   0.393
 4236SOL     OW13606   0.456   5.342   3.837
 4236SOL    HW113607   0.367   5.384   3.821
 4236SOL    HW213608   0.500   5.385   3.916
 4237SOL     OW13609   0.257   5.150   4.566
 4237SOL    HW113610   0.248   5.223   4.634
 4237SOL    HW213611   0.223   5.064   4.604
 4238SOL     OW13612   1.813   5.861   3.243
 4238SOL    HW113613   1.876   5.849   3.166
 4238SOL    HW213614   1.755   5.941   3.227
 4239SOL     OW13615   4.026   1.167   3.576
 4239SOL    HW113616   4.115   1.214   3.573
 4239SOL    HW213617   3.986   1.179   3.667
 4240SOL     OW13618   4.222   6.922   1.651
 4240SOL    HW113619   4.218   6.990   1.578
 4240SOL    HW213620   4.175   6.957   1.732
 4241SOL     OW13621   0.676   4.297   6.361
 4241SOL    HW113622   0.722   4.339   6.440
 4241SOL    HW213623   0.594   4.250   6.392
 4242SOL     OW13624   3.753   2.149   2.492
 4242SOL    HW113625   3.720   2.241   2.473
 4242SOL    HW213626   3.762   2.136   2.591
 4243SOL     OW13627   2.222   2.311   2.940
 4243SOL    HW113628   2.199   2.218   2.969
 4243SOL    HW213629   2.161   2.376   2.986
 4244SOL     OW13630   2.729   2.834   5.390
 4244SOL    HW113631   2.754   2.920   5.346
 4244SOL    HW213632   2.635   2.840   5.425
 4245SOL     OW13633   6.385   0.679   5.573
 4245SOL    HW113634   6.457   0.650   5.510
 4245SOL    HW213635   6.406   0.770   5.608
 4246SOL     OW13636   0.981   5.460   6.268
 4246SOL    HW113637   0.972   5.501   6.177
 4246SOL    HW213638   0.900   5.404   6.287
 4247SOL     OW13639   0.294   4.766   5.190
 4247SOL    HW113640   0.300   4.864   5.172
 4247SOL    HW213641   0.199   4.736   5.179
 4248SOL     OW13642   1.859   3.487   6.893
 4248SOL    HW113643   1.908   3.496   6.980
 4248SOL    HW213644   1.763   3.512   6.907
 4249SOL     OW13645   4.913   3.425   5.860
 4249SOL    HW113646   4.917   3.449   5.957
 4249SOL    HW213647   4.817   3.417   5.832
 4250SOL     OW13648   0.140   4.166   3.787
 4250SOL    HW113649   0.114   4.225   3.710
 4250SOL    HW213650   0.161   4.074   3.753
 4251SOL     OW13651   5.367   4.766   6.123
 4251SOL    HW113652   5.368   4.830   6.046
 4251SOL    HW213653   5.442   4.700   6.112
 4252SOL     OW13654   6.579   4.899   5.827
 4252SOL    HW113655   6.502   4.842   5.799
 4252SOL    HW213656   6.634   4.851   5.895
 4253SOL     OW13657   3.191   0.042   3.688
 4253SOL    HW113658   3.165   0.064   3.594
 4253SOL    HW213659   3.161   0.114   3.750
 4254SOL     OW13660   3.891   3.517   3.576
 4254SOL    HW113661   3.960   3.515   3.503
 4254SOL    HW213662   3.855   3.610   3.586
 4255SOL     OW13663   0.634   1.910   4.641
 4255SOL    HW113664   0.558   1.849   4.661
 4255SOL    HW213665   0.614   1.964   4.559
 4256SOL     OW13666   1.130   0.430   1.540
 4256SOL    HW113667   1.045   0.380   1.557
 4256SOL    HW213668   1.200   0.368   1.505
 4257SOL     OW13669   4.299   2.178   4.908
 4257SOL    HW113670   4.303   2.187   4.808
 4257SOL    HW213671   4.241   2.251   4.946
 4258SOL     OW13672   5.705   6.249   1.975
 4258SOL    HW113673   5.784   6.294   1.932
 4258SOL    HW213674   5.630   6.244   1.909
 4259SOL     OW13675   3.212   2.871   1.664
 4259SOL    HW113676   3.161   2.796   1.705
 4259SOL    HW213677   3.203   2.953   1.722
 4260SOL     OW13678   4.101   5.581   4.897
 4260SOL    HW113679   4.001   5.576   4.894
 4260SOL    HW213680   4.133   5.551   4.987
 4261SOL     OW13681   1.047   1.312   2.869
 4261SOL    HW113682   1.116   1.241   2.882
 4261SOL    HW213683   0.981   1.282   2.800
 4262SOL     OW13684   1.191   6.817   4.990
 4262SOL    HW113685   1.228   6.797   4.899
 4262SOL    HW213686   1.237   6.897   5.027
 4263SOL     OW13687   4.496   5.809   0.027
 4263SOL    HW113688   4.480   5.860   0.112
 4263SOL    HW213689   4.445   5.852   6.976
 4264SOL     OW13690   1.874   0.802   1.277
 4264SOL    HW113691   1.843   0.889   1.240
 4264SOL    HW213692   1.963   0.814   1.320
 4265SOL     OW13693   2.308   1.425   1.175
 4265SOL    HW113694   2.370   1.453   1.102
 4265SOL    HW213695   2.222   1.393   1.136
 4266SOL     OW13696   2.395   5.000   0.313
 4266SOL    HW113697   2.486   4.960   0.302
 4266SOL    HW213698   2.393   5.090   0.269
 4267SOL     OW13699   1.508   3.312   4.888
 4267SOL    HW113700   1.521   3.385   4.955
 4267SOL    HW213701   1.506   3.223   4.936
 4268SOL     OW13702   0.555   1.810   0.772
 4268SOL    HW113703   0.640   1.761   0.753
 4268SOL    HW213704   0.478   1.762   0.729
 4269SOL     OW13705   3.064   3.955   1.245
 4269SOL    HW113706   3.065   4.053   1.268
 4269SOL    HW213707   3.099   3.942   1.153
 4270SOL     OW13708   3.785   3.015   0.042
 4270SOL    HW113709   3.740   3.090   0.090
 4270SOL    HW213710   3.825   3.049   6.980
 4271SOL     OW13711   2.052   0.584   0.887
 4271SOL    HW113712   2.120   0.655   0.908
 4271SOL    HW213713   1.986   0.578   0.961
 4272SOL     OW13714   1.322   4.875   3.481
 4272SOL    HW113715   1.418   4.865   3.504
 4272SOL    HW213716   1.266   4.846   3.559
 4273SOL     OW13717   0.104   6.214   3.269
 4273SOL    HW113718   0.091   6.311   3.285
 4273SOL    HW213719   0.015   6.167   3.269
 4274SOL     OW13720   1.556   0.403   3.418
 4274SOL    HW113721   1.512   0.361   3.338
 4274SOL    HW213722   1.487   0.422   3.488
 4275SOL     OW13723   0.247   0.578   5.954
 4275SOL    HW113724   0.207   0.648   5.894
 4275SOL    HW213725   0.179   0.550   6.022
 4276SOL     OW13726   2.076   3.446   3.175
 4276SOL    HW113727   2.044   3.532   3.213
 4276SOL    HW213728   2.176   3.442   3.180
 4277SOL     OW13729   0.557   6.103   6.016
 4277SOL    HW113730   0.589   6.146   6.101
 4277SOL    HW213731   0.458   6.091   6.020
 4278SOL     OW13732   1.456   6.511   6.415
 4278SOL    HW113733   1.463   6.495   6.317
 4278SOL    HW213734   1.527   6.458   6.463
 4279SOL     OW13735   3.955   5.816   3.697
 4279SOL    HW113736   3.892   5.875   3.646
 4279SOL    HW213737   3.973   5.856   3.787
 4280SOL     OW13738   4.867   3.008   4.318
 4280SOL    HW113739   4.863   3.037   4.222
 4280SOL    HW213740   4.847   2.910   4.324
 4281SOL     OW13741   2.234   4.071   4.511
 4281SOL    HW113742   2.255   4.050   4.606
 4281SOL    HW213743   2.244   4.170   4.496
 4282SOL     OW13744   1.145   0.904   7.018
 4282SOL    HW113745   1.219   0.846   0.028
 4282SOL    HW213746   1.082   0.924   0.070
 4283SOL     OW13747   2.702   1.598   3.742
 4283SOL    HW113748   2.629   1.666   3.738
 4283SOL    HW213749   2.787   1.641   3.771
 4284SOL     OW13750   6.508   2.700   2.886
 4284SOL    HW113751   6.594   2.689   2.836
 4284SOL    HW213752   6.479   2.796   2.882
 4285SOL     OW13753   0.833   6.499   3.713
 4285SOL    HW113754   0.856   6.574   3.775
 4285SOL    HW213755   0.733   6.491   3.706
 4286SOL     OW13756   5.031   5.364   0.706
 4286SOL    HW113757   4.995   5.308   0.781
 4286SOL    HW213758   5.014   5.317   0.619
 4287SOL     OW13759   4.025   5.705   6.089
 4287SOL    HW113760   4.028   5.661   5.999
 4287SOL    HW213761   3.930   5.722   6.115
 4288SOL     OW13762   0.606   6.328   4.639
 4288SOL    HW113763   0.664   6.275   4.577
 4288SOL    HW213764   0.580   6.414   4.594
 4289SOL     OW13765   0.827   4.415   6.570
 4289SOL    HW113766   0.758   4.459   6.628
 4289SOL    HW213767   0.908   4.394   6.625
 4290SOL     OW13768   1.300   1.826   2.649
 4290SOL    HW113769   1.277   1.807   2.553
 4290SOL    HW213770   1.321   1.923   2.660
 4291SOL     OW13771   6.615   3.609   1.796
 4291SOL    HW113772   6.607   3.684   1.861
 4291SOL    HW213773   6.551   3.623   1.721
 4292SOL     OW13774   5.732   6.082   5.272
 4292SOL    HW113775   5.689   6.104   5.184
 4292SOL    HW213776   5.778   6.164   5.307
 4293SOL     OW13777   0.923   2.030   0.390
 4293SOL    HW113778   1.016   2.060   0.367
 4293SOL    HW213779   0.861   2.055   0.316
 4294SOL     OW13780   4.695   2.259   5.655
 4294SOL    HW113781   4.639   2.240   5.575
 4294SOL    HW213782   4.660   2.208   5.733
 4295SOL     OW13783   3.244   4.797   5.695
 4295SOL    HW113784   3.227   4.891   5.726
 4295SOL    HW213785   3.161   4.760   5.654
 4296SOL     OW13786   1.878   1.750   2.432
 4296SOL    HW113787   1.788   1.706   2.424
 4296SOL    HW213788   1.950   1.681   2.424
 4297SOL     OW13789   5.681   0.069   0.006
 4297SOL    HW113790   5.778   0.072   0.032
 4297SOL    HW213791   5.666   0.130   6.951
 4298SOL     OW13792   1.538   4.728   1.900
 4298SOL    HW113793   1.530   4.673   1.983
 4298SOL    HW213794   1.451   4.729   1.852
 4299SOL     OW13795   1.277   5.470   5.018
 4299SOL    HW113796   1.196   5.474   5.076
 4299SOL    HW213797   1.328   5.386   5.039
 4300SOL     OW13798   5.988   0.265   5.660
 4300SOL    HW113799   6.035   0.272   5.748
 4300SOL    HW213800   5.893   0.292   5.671
 4301SOL     OW13801   2.811   0.685   0.531
 4301SOL    HW113802   2.746   0.609   0.532
 4301SOL    HW213803   2.764   0.769   0.504
 4302SOL     OW13804   0.607   0.575   0.243
 4302SOL    HW113805   0.604   0.625   0.156
 4302SOL    HW213806   0.548   0.621   0.310
 4303SOL     OW13807   0.621   4.372   2.194
 4303SOL    HW113808   0.641   4.290   2.142
 4303SOL    HW213809   0.638   4.453   2.138
 4304SOL     OW13810   2.357   3.526   6.108
 4304SOL    HW113811   2.279   3.498   6.164
 4304SOL    HW213812   2.336   3.613   6.063
 4305SOL     OW13813   0.814   1.413   5.204
 4305SOL    HW113814   0.721   1.377   5.207
 4305SOL    HW213815   0.879   1.339   5.190
 4306SOL     OW13816   5.798   5.288   5.817
 4306SOL    HW113817   5.895   5.268   5.804
 4306SOL    HW213818   5.777   5.379   5.781
 4307SOL     OW13819   6.353   3.539   1.177
 4307SOL    HW113820   6.325   3.540   1.273
 4307SOL    HW213821   6.330   3.627   1.136
 4308SOL     OW13822   3.147   0.348   5.331
 4308SOL    HW113823   3.209   0.363   5.255
 4308SOL    HW213824   3.112   0.254   5.328
 4309SOL     OW13825   1.125   0.630   1.351
 4309SOL    HW113826   1.196   0.597   1.289
 4309SOL    HW213827   1.102   0.558   1.417
 4310SOL     OW13828   1.638   6.852   2.751
 4310SOL    HW113829   1.684   6.878   2.836
 4310SOL    HW213830   1.563   6.915   2.733
 4311SOL     OW13831   0.989   5.030   5.062
 4311SOL    HW113832   0.972   5.032   4.963
 4311SOL    HW213833   1.087   5.023   5.079
 4312SOL     OW13834   1.661   5.766   2.309
 4312SOL    HW113835   1.740   5.810   2.350
 4312SOL    HW213836   1.665   5.667   2.325
 4313SOL     OW13837   4.831   1.273   1.028
 4313SOL    HW113838   4.881   1.271   0.941
 4313SOL    HW213839   4.805   1.180   1.054
 4314SOL     OW13840   6.915   3.026   1.556
 4314SOL    HW113841   6.893   3.120   1.529
 4314SOL    HW213842   6.978   3.029   1.634
 4315SOL     OW13843   1.075   1.189   1.838
 4315SOL    HW113844   1.059   1.137   1.922
 4315SOL    HW213845   1.080   1.126   1.761
 4316SOL     OW13846   6.582   1.438   2.391
 4316SOL    HW113847   6.565   1.530   2.426
 4316SOL    HW213848   6.540   1.371   2.452
 4317SOL     OW13849   3.781   1.069   3.080
 4317SOL    HW113850   3.791   0.976   3.116
 4317SOL    HW213851   3.705   1.114   3.127
 4318SOL     OW13852   0.164   2.247   4.975
 4318SOL    HW113853   0.107   2.207   5.047
 4318SOL    HW213854   0.186   2.342   4.999
 4319SOL     OW13855   4.541   2.792   6.285
 4319SOL    HW113856   4.615   2.746   6.332
 4319SOL    HW213857   4.577   2.874   6.240
 4320SOL     OW13858   0.101   6.721   3.679
 4320SOL    HW113859   0.127   6.756   3.769
 4320SOL    HW213860   0.002   6.705   3.677
 4321SOL     OW13861   0.431   0.136   4.294
 4321SOL    HW113862   0.333   0.156   4.295
 4321SOL    HW213863   0.477   0.192   4.363
 4322SOL     OW13864   6.583   1.039   6.968
 4322SOL    HW113865   6.617   0.987   0.023
 4322SOL    HW213866   6.650   1.037   6.894
 4323SOL     OW13867   0.053   2.466   4.212
 4323SOL    HW113868   0.085   2.555   4.245
 4323SOL    HW213869   0.009   2.478   4.123
 4324SOL     OW13870   5.980   2.736   5.538
 4324SOL    HW113871   5.993   2.803   5.465
 4324SOL    HW213872   5.885   2.739   5.570
 4325SOL     OW13873   2.588   2.475   6.253
 4325SOL    HW113874   2.612   2.568   6.228
 4325SOL    HW213875   2.656   2.439   6.318
 4326SOL     OW13876   0.182   2.328   5.398
 4326SOL    HW113877   0.145   2.256   5.338
 4326SOL    HW213878   0.106   2.381   5.437
 4327SOL     OW13879   4.639   0.503   3.178
 4327SOL    HW113880   4.557   0.546   3.217
 4327SOL    HW213881   4.638   0.405   3.200
 4328SOL     OW13882   6.147   4.932   0.906
 4328SOL    HW113883   6.196   4.932   0.993
 4328SOL    HW213884   6.211   4.950   0.831
 4329SOL     OW13885   5.157   1.730   6.094
 4329SOL    HW113886   5.218   1.652   6.082
 4329SOL    HW213887   5.128   1.735   6.190
 4330SOL     OW13888   0.923   0.276   6.479
 4330SOL    HW113889   0.885   0.200   6.427
 4330SOL    HW213890   0.881   0.362   6.449
 4331SOL     OW13891   5.502   2.980   6.039
 4331SOL    HW113892   5.417   2.957   6.087
 4331SOL    HW213893   5.485   3.058   5.978
 4332SOL     OW13894   6.178   4.508   2.006
 4332SOL    HW113895   6.251   4.532   1.942
 4332SOL    HW213896   6.135   4.423   1.977
 4333SOL     OW13897   6.653   1.850   4.888
 4333SOL    HW113898   6.720   1.912   4.848
 4333SOL    HW213899   6.671   1.839   4.985
 4334SOL     OW13900   3.834   6.813   1.780
 4334SOL    HW113901   3.925   6.809   1.739
 4334SOL    HW213902   3.835   6.766   1.868
 4335SOL     OW13903   3.929   4.243   6.295
 4335SOL    HW113904   3.838   4.243   6.335
 4335SOL    HW213905   3.939   4.165   6.233
 4336SOL     OW13906   0.870   0.504   5.599
 4336SOL    HW113907   0.784   0.528   5.644
 4336SOL    HW213908   0.911   0.427   5.648
 4337SOL     OW13909   1.182   5.835   6.201
 4337SOL    HW113910   1.094   5.882   6.211
 4337SOL    HW213911   1.191   5.767   6.274
 4338SOL     OW13912   5.383   6.354   2.916
 4338SOL    HW113913   5.301   6.394   2.958
 4338SOL    HW213914   5.399   6.397   2.827
 4339SOL     OW13915   6.722   1.105   0.236
 4339SOL    HW113916   6.677   1.187   0.272
 4339SOL    HW213917   6.661   1.027   0.245
 4340SOL     OW13918   4.947   3.602   1.465
 4340SOL    HW113919   4.960   3.662   1.544
 4340SOL    HW213920   4.879   3.641   1.403
 4341SOL     OW13921   1.688   3.721   0.734
 4341SOL    HW113922   1.645   3.659   0.800
 4341SOL    HW213923   1.627   3.798   0.715
 4342SOL     OW13924   0.064   2.710   3.009
 4342SOL    HW113925   0.109   2.780   3.065
 4342SOL    HW213926   0.134   2.652   2.967
 4343SOL     OW13927   3.326   3.682   1.582
 4343SOL    HW113928   3.317   3.729   1.494
 4343SOL    HW213929   3.385   3.736   1.642
 4344SOL     OW13930   2.454   3.322   1.669
 4344SOL    HW113931   2.434   3.224   1.671
 4344SOL    HW213932   2.414   3.366   1.750
 4345SOL     OW13933   2.861   0.366   5.816
 4345SOL    HW113934   2.865   0.466   5.816
 4345SOL    HW213935   2.768   0.337   5.838
 4346SOL     OW13936   0.040   3.632   2.036
 4346SOL    HW113937   6.975   3.679   2.033
 4346SOL    HW213938   0.029   3.538   2.004
 4347SOL     OW13939   4.939   6.097   2.629
 4347SOL    HW113940   4.927   5.998   2.639
 4347SOL    HW213941   4.850   6.142   2.625
 4348SOL     OW13942   0.971   3.259   0.324
 4348SOL    HW113943   0.975   3.339   0.264
 4348SOL    HW213944   1.041   3.193   0.296
 4349SOL     OW13945   5.862   1.426   1.003
 4349SOL    HW113946   5.931   1.498   0.998
 4349SOL    HW213947   5.866   1.381   1.092
 4350SOL     OW13948   3.279   0.375   3.773
 4350SOL    HW113949   3.218   0.435   3.721
 4350SOL    HW213950   3.332   0.429   3.838
 4351SOL     OW13951   3.457   0.246   0.331
 4351SOL    HW113952   3.438   0.321   0.268
 4351SOL    HW213953   3.416   0.162   0.296
 4352SOL     OW13954   6.085   1.774   1.662
 4352SOL    HW113955   6.012   1.726   1.613
 4352SOL    HW213956   6.061   1.780   1.759
 4353SOL     OW13957   3.287   5.679   0.580
 4353SOL    HW113958   3.229   5.645   0.506
 4353SOL    HW213959   3.233   5.687   0.664
 4354SOL     OW13960   2.684   1.513   1.529
 4354SOL    HW113961   2.761   1.543   1.586
 4354SOL    HW213962   2.671   1.578   1.454
 4355SOL     OW13963   4.593   0.129   6.391
 4355SOL    HW113964   4.612   0.222   6.423
 4355SOL    HW213965   4.676   0.074   6.396
 4356SOL     OW13966   3.430   3.836   1.149
 4356SOL    HW113967   3.426   3.738   1.132
 4356SOL    HW213968   3.498   3.878   1.089
 4357SOL     OW13969   5.267   0.583   0.517
 4357SOL    HW113970   5.170   0.575   0.495
 4357SOL    HW213971   5.301   0.495   0.549
 4358SOL     OW13972   6.248   0.618   0.765
 4358SOL    HW113973   6.308   0.545   0.734
 4358SOL    HW213974   6.182   0.582   0.830
 4359SOL     OW13975   6.962   3.968   4.478
 4359SOL    HW113976   6.985   3.871   4.476
 4359SOL    HW213977   6.925   3.996   4.390
 4360SOL     OW13978   2.641   3.173   1.398
 4360SOL    HW113979   2.600   3.264   1.399
 4360SOL    HW213980   2.598   3.115   1.468
 4361SOL     OW13981   5.131   1.925   2.826
 4361SOL    HW113982   5.204   1.949   2.763
 4361SOL    HW213983   5.159   1.846   2.881
 4362SOL     OW13984   4.795   3.978   2.680
 4362SOL    HW113985   4.831   4.070   2.667
 4362SOL    HW213986   4.794   3.930   2.592
 4363SOL     OW13987   4.899   0.252   6.412
 4363SOL    HW113988   4.979   0.277   6.358
 4363SOL    HW213989   4.879   0.154   6.400
 4364SOL     OW13990   4.506   3.907   5.312
 4364SOL    HW113991   4.553   3.819   5.305
 4364SOL    HW213992   4.426   3.906   5.251
 4365SOL     OW13993   4.849   2.698   0.058
 4365SOL    HW113994   4.793   2.690   6.999
 4365SOL    HW213995   4.795   2.737   0.132
 4366SOL     OW13996   4.799   4.929   0.681
 4366SOL    HW113997   4.786   4.830   0.676
 4366SOL    HW213998   4.893   4.949   0.708
 4367SOL     OW13999   5.991   6.425   0.968
 4367SOL    HW114000   5.960   6.517   0.991
 4367SOL    HW214001   5.913   6.369   0.942
 4368SOL     OW14002   4.143   5.716   2.113
 4368SOL    HW114003   4.181   5.627   2.088
 4368SOL    HW214004   4.215   5.773   2.153
 4369SOL     OW14005   3.092   5.589   1.339
 4369SOL    HW114006   3.116   5.513   1.280
 4369SOL    HW214007   3.169   5.653   1.345
 4370SOL     OW14008   5.164   3.869   1.305
 4370SOL    HW114009   5.092   3.902   1.366
 4370SOL    HW214010   5.233   3.940   1.293
 4371SOL     OW14011   1.397   1.863   1.762
 4371SOL    HW114012   1.361   1.784   1.813
 4371SOL    HW214013   1.373   1.947   1.810
 4372SOL     OW14014   4.317   0.059   3.763
 4372SOL    HW114015   4.352   0.029   3.852
 4372SOL    HW214016   4.337   0.157   3.751
 4373SOL     OW14017   1.032   1.822   5.209
 4373SOL    HW114018   1.080   1.883   5.271
 4373SOL    HW214019   1.015   1.869   5.122
 4374SOL     OW14020   3.937   1.249   7.001
 4374SOL    HW114021   3.975   1.341   7.001
 4374SOL    HW214022   3.977   1.196   6.926
 4375SOL     OW14023   3.431   5.396   4.635
 4375SOL    HW114024   3.425   5.338   4.554
 4375SOL    HW214025   3.357   5.374   4.698
 4376SOL     OW14026   0.281   2.339   2.811
 4376SOL    HW114027   0.186   2.316   2.831
 4376SOL    HW214028   0.292   2.356   2.713
 4377SOL     OW14029   0.256   4.842   5.764
 4377SOL    HW114030   0.332   4.797   5.718
 4377SOL    HW214031   0.187   4.868   5.697
 4378SOL     OW14032   3.272   1.608   4.271
 4378SOL    HW114033   3.173   1.608   4.280
 4378SOL    HW214034   3.312   1.658   4.348
 4379SOL     OW14035   3.513   1.544   6.096
 4379SOL    HW114036   3.596   1.529   6.043
 4379SOL    HW214037   3.534   1.600   6.176
 4380SOL     OW14038   6.866   1.986   3.361
 4380SOL    HW114039   6.926   1.965   3.284
 4380SOL    HW214040   6.801   2.057   3.334
 4381SOL     OW14041   1.245   4.715   6.624
 4381SOL    HW114042   1.263   4.810   6.650
 4381SOL    HW214043   1.151   4.706   6.592
 4382SOL     OW14044   1.270   4.933   5.083
 4382SOL    HW114045   1.302   4.971   4.996
 4382SOL    HW214046   1.320   4.849   5.104
 4383SOL     OW14047   0.373   4.206   0.262
 4383SOL    HW114048   0.471   4.223   0.252
 4383SOL    HW214049   0.355   4.166   0.352
 4384SOL     OW14050   4.493   6.808   4.443
 4384SOL    HW114051   4.530   6.858   4.364
 4384SOL    HW214052   4.397   6.832   4.454
 4385SOL     OW14053   4.900   0.320   5.867
 4385SOL    HW114054   4.960   0.293   5.942
 4385SOL    HW214055   4.818   0.365   5.904
 4386SOL     OW14056   1.935   3.366   3.591
 4386SOL    HW114057   1.876   3.409   3.522
 4386SOL    HW214058   1.950   3.270   3.567
 4387SOL     OW14059   4.652   2.004   1.028
 4387SOL    HW114060   4.590   2.015   1.106
 4387SOL    HW214061   4.599   2.009   0.943
 4388SOL     OW14062   6.173   2.999   0.389
 4388SOL    HW114063   6.084   3.024   0.351
 4388SOL    HW214064   6.221   3.082   0.418
 4389SOL     OW14065   2.372   1.412   6.389
 4389SOL    HW114066   2.298   1.351   6.418
 4389SOL    HW214067   2.460   1.374   6.416
 4390SOL     OW14068   0.327   1.104   1.731
 4390SOL    HW114069   0.418   1.090   1.693
 4390SOL    HW214070   0.261   1.112   1.657
 4391SOL     OW14071   0.029   6.575   2.209
 4391SOL    HW114072   0.025   6.504   2.279
 4391SOL    HW214073   6.960   6.603   2.183
 4392SOL     OW14074   2.205   2.832   6.440
 4392SOL    HW114075   2.112   2.800   6.418
 4392SOL    HW214076   2.270   2.758   6.425
 4393SOL     OW14077   6.187   0.089   1.750
 4393SOL    HW114078   6.171   0.144   1.833
 4393SOL    HW214079   6.157   7.018   1.765
 4394SOL     OW14080   6.590   1.584   3.008
 4394SOL    HW114081   6.571   1.678   2.979
 4394SOL    HW214082   6.681   1.579   3.048
 4395SOL     OW14083   2.136   3.332   1.041
 4395SOL    HW114084   2.215   3.289   0.999
 4395SOL    HW214085   2.146   3.432   1.038
 4396SOL     OW14086   2.305   1.480   2.475
 4396SOL    HW114087   2.371   1.466   2.402
 4396SOL    HW214088   2.213   1.487   2.436
 4397SOL     OW14089   3.644   1.146   4.981
 4397SOL    HW114090   3.667   1.122   5.075
 4397SOL    HW214091   3.714   1.109   4.920
 4398SOL     OW14092   2.407   2.870   5.931
 4398SOL    HW114093   2.484   2.828   5.977
 4398SOL    HW214094   2.355   2.801   5.881
 4399SOL     OW14095   2.963   5.866   1.725
 4399SOL    HW114096   3.063   5.857   1.726
 4399SOL    HW214097   2.934   5.906   1.638
 4400SOL     OW14098   1.478   5.949   5.390
 4400SOL    HW114099   1.493   6.008   5.310
 4400SOL    HW214100   1.490   6.003   5.474
 4401SOL     OW14101   2.937   0.207   5.618
 4401SOL    HW114102   2.964   0.119   5.658
 4401SOL    HW214103   2.912   0.270   5.692
 4402SOL     OW14104   0.669   0.974   2.229
 4402SOL    HW114105   0.729   1.008   2.302
 4402SOL    HW214106   0.583   1.026   2.229
 4403SOL     OW14107   6.379   6.613   2.791
 4403SOL    HW114108   6.469   6.589   2.754
 4403SOL    HW214109   6.344   6.537   2.845
 4404SOL     OW14110   0.982   6.114   5.048
 4404SOL    HW114111   0.953   6.176   4.975
 4404SOL    HW214112   1.053   6.053   5.012
 4405SOL     OW14113   0.828   5.242   3.100
 4405SOL    HW114114   0.871   5.311   3.158
 4405SOL    HW214115   0.886   5.226   3.020
 4406SOL     OW14116   6.020   4.282   2.698
 4406SOL    HW114117   6.024   4.201   2.639
 4406SOL    HW214118   5.946   4.271   2.764
 4407SOL     OW14119   5.193   0.701   1.189
 4407SOL    HW114120   5.237   0.684   1.101
 4407SOL    HW214121   5.142   0.787   1.185
 4408SOL     OW14122   4.759   0.435   0.107
 4408SOL    HW114123   4.759   0.523   0.155
 4408SOL    HW214124   4.805   0.444   0.019
 4409SOL     OW14125   3.883   0.811   3.650
 4409SOL    HW114126   3.876   0.844   3.556
 4409SOL    HW214127   3.898   0.712   3.649
 4410SOL     OW14128   1.654   0.173   0.723
 4410SOL    HW114129   1.639   0.121   0.807
 4410SOL    HW214130   1.608   0.127   0.647
 4411SOL     OW14131   4.636   4.387   4.789
 4411SOL    HW114132   4.622   4.386   4.888
 4411SOL    HW214133   4.670   4.298   4.759
 4412SOL     OW14134   5.077   6.451   0.910
 4412SOL    HW114135   5.128   6.533   0.885
 4412SOL    HW214136   5.098   6.378   0.845
 4413SOL     OW14137   5.165   6.395   4.695
 4413SOL    HW114138   5.144   6.447   4.612
 4413SOL    HW214139   5.115   6.434   4.772
 4414SOL     OW14140   6.015   3.981   1.264
 4414SOL    HW114141   5.980   4.034   1.342
 4414SOL    HW214142   6.102   4.020   1.234
 4415SOL     OW14143   0.849   4.048   1.427
 4415SOL    HW114144   0.922   4.117   1.423
 4415SOL    HW214145   0.763   4.090   1.400
 4416SOL     OW14146   5.048   3.288   4.141
 4416SOL    HW114147   4.991   3.210   4.118
 4416SOL    HW214148   4.997   3.373   4.125
 4417SOL     OW14149   0.154   4.105   1.973
 4417SOL    HW114150   0.245   4.114   1.933
 4417SOL    HW214151   0.094   4.059   1.908
 4418SOL     OW14152   6.623   2.496   5.089
 4418SOL    HW114153   6.526   2.517   5.103
 4418SOL    HW214154   6.670   2.578   5.057
 4419SOL     OW14155   6.140   6.297   6.264
 4419SOL    HW114156   6.159   6.222   6.200
 4419SOL    HW214157   6.041   6.313   6.266
 4420SOL     OW14158   3.885   0.497   0.500
 4420SOL    HW114159   3.884   0.466   0.595
 4420SOL    HW214160   3.855   0.423   0.440
 4421SOL     OW14161   2.907   2.185   0.480
 4421SOL    HW114162   2.822   2.135   0.465
 4421SOL    HW214163   2.969   2.170   0.403
 4422SOL     OW14164   0.717   3.043   6.558
 4422SOL    HW114165   0.624   3.061   6.588
 4422SOL    HW214166   0.779   3.045   6.636
 4423SOL     OW14167   6.201   4.537   4.168
 4423SOL    HW114168   6.119   4.519   4.114
 4423SOL    HW214169   6.266   4.462   4.154
 4424SOL     OW14170   3.716   5.128   2.530
 4424SOL    HW114171   3.793   5.069   2.553
 4424SOL    HW214172   3.744   5.193   2.459
 4425SOL     OW14173   0.440   6.035   0.608
 4425SOL    HW114174   0.521   6.087   0.584
 4425SOL    HW214175   0.358   6.088   0.587
 4426SOL     OW14176   0.779   0.696   4.200
 4426SOL    HW114177   0.727   0.752   4.265
 4426SOL    HW214178   0.835   0.630   4.251
 4427SOL     OW14179   3.712   5.962   0.113
 4427SOL    HW114180   3.776   6.008   0.051
 4427SOL    HW214181   3.628   6.015   0.119
 4428SOL     OW14182   6.124   5.690   2.894
 4428SOL    HW114183   6.207   5.684   2.950
 4428SOL    HW214184   6.069   5.767   2.925
 4429SOL     OW14185   2.051   5.325   2.533
 4429SOL    HW114186   1.989   5.359   2.462
 4429SOL    HW214187   2.091   5.402   2.583
 4430SOL     OW14188   5.478   4.063   4.032
 4430SOL    HW114189   5.413   4.071   3.957
 4430SOL    HW214190   5.482   3.967   4.062
 4431SOL     OW14191   4.826   0.195   4.683
 4431SOL    HW114192   4.881   0.273   4.713
 4431SOL    HW214193   4.839   0.180   4.585
 4432SOL     OW14194   2.105   3.473   6.268
 4432SOL    HW114195   2.066   3.565   6.272
 4432SOL    HW214196   2.087   3.427   6.355
 4433SOL     OW14197   0.375   0.477   5.053
 4433SOL    HW114198   0.378   0.383   5.086
 4433SOL    HW214199   0.462   0.522   5.072
 4434SOL     OW14200   6.851   0.402   2.343
 4434SOL    HW114201   6.821   0.493   2.313
 4434SOL    HW214202   6.784   0.365   2.407
 4435SOL     OW14203   1.870   4.468   1.724
 4435SOL    HW114204   1.819   4.457   1.639
 4435SOL    HW214205   1.939   4.395   1.731
 4436SOL     OW14206   4.979   2.328   1.801
 4436SOL    HW114207   4.943   2.350   1.711
 4436SOL    HW214208   5.062   2.273   1.792
 4437SOL     OW14209   0.236   5.794   6.977
 4437SOL    HW114210   0.169   5.727   7.006
 4437SOL    HW214211   0.315   5.747   6.937
 4438SOL     OW14212   3.626   1.852   4.710
 4438SOL    HW114213   3.684   1.838   4.630
 4438SOL    HW214214   3.557   1.921   4.689
 4439SOL     OW14215   3.075   5.370   2.130
 4439SOL    HW114216   3.064   5.346   2.034
 4439SOL    HW214217   3.068   5.288   2.186
 4440SOL     OW14218   2.090   5.440   6.197
 4440SOL    HW114219   2.127   5.468   6.108
 4440SOL    HW214220   1.993   5.417   6.187
 4441SOL     OW14221   6.370   1.108   1.012
 4441SOL    HW114222   6.316   1.036   0.969
 4441SOL    HW214223   6.310   1.173   1.057
 4442SOL     OW14224   1.838   4.563   0.826
 4442SOL    HW114225   1.804   4.535   0.916
 4442SOL    HW214226   1.885   4.651   0.833
 4443SOL     OW14227   1.192   5.912   5.407
 4443SOL    HW114228   1.290   5.926   5.422
 4443SOL    HW214229   1.174   5.908   5.309
 4444SOL     OW14230   4.404   6.212   0.374
 4444SOL    HW114231   4.423   6.209   0.275
 4444SOL    HW214232   4.336   6.282   0.393
 4445SOL     OW14233   1.920   3.409   0.879
 4445SOL    HW114234   1.998   3.370   0.929
 4445SOL    HW214235   1.842   3.347   0.888
 4446SOL     OW14236   5.882   2.272   1.510
 4446SOL    HW114237   5.953   2.226   1.456
 4446SOL    HW214238   5.794   2.265   1.462
 4447SOL     OW14239   5.217   5.444   6.120
 4447SOL    HW114240   5.132   5.407   6.157
 4447SOL    HW214241   5.293   5.384   6.143
 4448SOL     OW14242   2.304   6.451   2.607
 4448SOL    HW114243   2.349   6.491   2.688
 4448SOL    HW214244   2.373   6.412   2.547
 4449SOL     OW14245   3.857   1.986   5.329
 4449SOL    HW114246   3.885   1.907   5.274
 4449SOL    HW214247   3.800   2.047   5.273
 4450SOL     OW14248   2.532   5.466   0.734
 4450SOL    HW114249   2.550   5.458   0.635
 4450SOL    HW214250   2.460   5.535   0.749
 4451SOL     OW14251   5.105   6.439   3.066
 4451SOL    HW114252   5.082   6.433   2.969
 4451SOL    HW214253   5.049   6.374   3.117
 4452SOL     OW14254   5.239   4.749   3.488
 4452SOL    HW114255   5.205   4.833   3.531
 4452SOL    HW214256   5.339   4.745   3.500
 4453SOL     OW14257   0.061   5.650   1.411
 4453SOL    HW114258   6.994   5.694   1.408
 4453SOL    HW214259   0.063   5.581   1.484
 4454SOL     OW14260   6.889   0.829   0.025
 4454SOL    HW114261   6.939   0.899   0.077
 4454SOL    HW214262   6.798   0.818   0.063
 4455SOL     OW14263   0.823   0.482   3.878
 4455SOL    HW114264   0.800   0.415   3.807
 4455SOL    HW214265   0.816   0.440   3.968
 4456SOL     OW14266   1.506   5.594   4.103
 4456SOL    HW114267   1.509   5.686   4.142
 4456SOL    HW214268   1.592   5.574   4.057
 4457SOL     OW14269   1.367   2.216   4.559
 4457SOL    HW114270   1.438   2.233   4.490
 4457SOL    HW214271   1.345   2.119   4.561
 4458SOL     OW14272   2.144   2.115   5.475
 4458SOL    HW114273   2.157   2.026   5.518
 4458SOL    HW214274   2.231   2.147   5.438
 4459SOL     OW14275   1.625   4.770   3.322
 4459SOL    HW114276   1.611   4.800   3.228
 4459SOL    HW214277   1.699   4.824   3.363
 4460SOL     OW14278   0.009   3.414   5.172
 4460SOL    HW114279   6.981   3.467   5.105
 4460SOL    HW214280   0.053   3.476   5.238
 4461SOL     OW14281   2.749   0.110   0.520
 4461SOL    HW114282   2.699   0.184   0.564
 4461SOL    HW214283   2.701   0.082   0.437
 4462SOL     OW14284   0.591   4.468   2.532
 4462SOL    HW114285   0.571   4.373   2.506
 4462SOL    HW214286   0.643   4.512   2.458
 4463SOL     OW14287   5.639   2.065   6.885
 4463SOL    HW114288   5.609   2.154   6.918
 4463SOL    HW214289   5.713   2.031   6.944
 4464SOL     OW14290   0.937   3.305   0.953
 4464SOL    HW114291   0.857   3.278   0.900
 4464SOL    HW214292   0.961   3.233   1.018
 4465SOL     OW14293   4.601   4.718   0.974
 4465SOL    HW114294   4.687   4.765   0.953
 4465SOL    HW214295   4.616   4.652   1.047
 4466SOL     OW14296   0.898   3.053   2.446
 4466SOL    HW114297   0.937   3.128   2.499
 4466SOL    HW214298   0.806   3.032   2.481
 4467SOL     OW14299   5.400   4.702   2.046
 4467SOL    HW114300   5.375   4.641   1.971
 4467SOL    HW214301   5.319   4.723   2.100
 4468SOL     OW14302   1.785   3.648   0.256
 4468SOL    HW114303   1.815   3.614   0.345
 4468SOL    HW214304   1.785   3.748   0.256
 4469SOL     OW14305   0.879   6.532   2.268
 4469SOL    HW114306   0.968   6.535   2.315
 4469SOL    HW214307   0.891   6.497   2.176
 4470SOL     OW14308   0.786   0.302   3.177
 4470SOL    HW114309   0.867   0.269   3.128
 4470SOL    HW214310   0.704   0.257   3.141
 4471SOL     OW14311   1.637   0.537   6.499
 4471SOL    HW114312   1.635   0.635   6.520
 4471SOL    HW214313   1.567   0.516   6.431
 4472SOL     OW14314   2.414   3.267   1.107
 4472SOL    HW114315   2.415   3.354   1.057
 4472SOL    HW214316   2.417   3.286   1.206
 4473SOL     OW14317   0.797   2.956   5.409
 4473SOL    HW114318   0.888   2.957   5.452
 4473SOL    HW214319   0.755   2.866   5.422
 4474SOL     OW14320   1.369   6.155   1.474
 4474SOL    HW114321   1.370   6.247   1.436
 4474SOL    HW214322   1.342   6.159   1.571
 4475SOL     OW14323   1.170   3.475   0.898
 4475SOL    HW114324   1.090   3.418   0.913
 4475SOL    HW214325   1.240   3.455   0.967
 4476SOL     OW14326   4.670   0.733   3.469
 4476SOL    HW114327   4.744   0.755   3.532
 4476SOL    HW214328   4.704   0.672   3.397
 4477SOL     OW14329   6.534   1.400   4.713
 4477SOL    HW114330   6.556   1.476   4.774
 4477SOL    HW214331   6.614   1.341   4.702
 4478SOL     OW14332   0.996   0.287   2.182
 4478SOL    HW114333   1.056   0.367   2.189
 4478SOL    HW214334   1.038   0.220   2.120
 4479SOL     OW14335   3.127   3.275   0.259
 4479SOL    HW114336   3.212   3.232   0.290
 4479SOL    HW214337   3.060   3.205   0.236
 4480SOL     OW14338   6.805   1.184   3.428
 4480SOL    HW114339   6.860   1.100   3.426
 4480SOL    HW214340   6.853   1.253   3.482
 4481SOL     OW14341   1.988   4.089   6.180
 4481SOL    HW114342   1.950   4.108   6.090
 4481SOL    HW214343   1.951   4.154   6.247
 4482SOL     OW14344   2.848   6.838   1.228
 4482SOL    HW114345   2.945   6.828   1.252
 4482SOL    HW214346   2.792   6.788   1.295
 4483SOL     OW14347   1.625   2.608   1.600
 4483SOL    HW114348   1.714   2.564   1.614
 4483SOL    HW214349   1.602   2.662   1.681
 4484SOL     OW14350   4.372   0.294   0.542
 4484SOL    HW114351   4.392   0.389   0.519
 4484SOL    HW214352   4.458   0.246   0.562
 4485SOL     OW14353   0.491   1.917   5.557
 4485SOL    HW114354   0.509   2.009   5.520
 4485SOL    HW214355   0.395   1.893   5.541
 4486SOL     OW14356   5.364   5.127   3.837
 4486SOL    HW114357   5.349   5.226   3.830
 4486SOL    HW214358   5.399   5.092   3.750
 4487SOL     OW14359   0.114   3.577   6.993
 4487SOL    HW114360   0.105   3.495   6.936
 4487SOL    HW214361   0.080   3.656   6.943
 4488SOL     OW14362   5.512   4.752   3.539
 4488SOL    HW114363   5.485   4.708   3.625
 4488SOL    HW214364   5.576   4.693   3.490
 4489SOL     OW14365   3.411   6.000   5.876
 4489SOL    HW114366   3.326   6.002   5.822
 4489SOL    HW214367   3.475   6.067   5.839
 4490SOL     OW14368   4.965   1.797   1.904
 4490SOL    HW114369   4.881   1.851   1.912
 4490SOL    HW214370   5.022   1.811   1.985
 4491SOL     OW14371   0.170   4.784   3.149
 4491SOL    HW114372   0.076   4.808   3.126
 4491SOL    HW214373   0.221   4.764   3.065
 4492SOL     OW14374   6.665   0.880   1.892
 4492SOL    HW114375   6.571   0.893   1.923
 4492SOL    HW214376   6.722   0.954   1.927
 4493SOL     OW14377   5.322   1.008   6.004
 4493SOL    HW114378   5.290   0.924   6.048
 4493SOL    HW214379   5.390   0.985   5.934
 4494SOL     OW14380   0.741   1.563   2.373
 4494SOL    HW114381   0.695   1.602   2.453
 4494SOL    HW214382   0.793   1.634   2.326
 4495SOL     OW14383   3.593   6.045   1.635
 4495SOL    HW114384   3.564   6.041   1.731
 4495SOL    HW214385   3.672   6.106   1.627
 4496SOL     OW14386   2.119   5.075   5.546
 4496SOL    HW114387   2.119   4.982   5.583
 4496SOL    HW214388   2.056   5.081   5.469
 4497SOL     OW14389   5.289   6.599   4.984
 4497SOL    HW114390   5.203   6.562   4.950
 4497SOL    HW214391   5.362   6.533   4.967
 4498SOL     OW14392   1.955   5.617   3.432
 4498SOL    HW114393   1.920   5.547   3.496
 4498SOL    HW214394   1.934   5.708   3.468
 4499SOL     OW14395   5.141   1.852   2.119
 4499SOL    HW114396   5.190   1.938   2.132
 4499SOL    HW214397   5.197   1.777   2.156
 4500SOL     OW14398   3.446   6.373   0.185
 4500SOL    HW114399   3.534   6.343   0.222
 4500SOL    HW214400   3.380   6.383   0.259
 4501SOL     OW14401   5.297   0.882   3.037
 4501SOL    HW114402   5.265   0.849   2.948
 4501SOL    HW214403   5.331   0.975   3.028
 4502SOL     OW14404   0.848   3.688   0.123
 4502SOL    HW114405   0.777   3.707   0.055
 4502SOL    HW214406   0.820   3.726   0.212
 4503SOL     OW14407   3.043   1.415   3.375
 4503SOL    HW114408   3.040   1.507   3.414
 4503SOL    HW214409   2.953   1.391   3.339
 4504SOL     OW14410   0.572   3.377   3.937
 4504SOL    HW114411   0.615   3.465   3.915
 4504SOL    HW214412   0.617   3.304   3.887
 4505SOL     OW14413   6.350   3.844   3.978
 4505SOL    HW114414   6.296   3.897   4.043
 4505SOL    HW214415   6.362   3.896   3.893
 4506SOL     OW14416   4.055   4.266   6.811
 4506SOL    HW114417   3.995   4.186   6.803
 4506SOL    HW214418   4.073   4.303   6.720
 4507SOL     OW14419   5.501   2.310   2.910
 4507SOL    HW114420   5.525   2.216   2.933
 4507SOL    HW214421   5.509   2.368   2.991
 4508SOL     OW14422   6.899   4.176   0.876
 4508SOL    HW114423   6.829   4.120   0.919
 4508SOL    HW214424   6.924   4.136   0.788
 4509SOL     OW14425   4.621   1.240   2.687
 4509SOL    HW114426   4.563   1.170   2.647
 4509SOL    HW214427   4.691   1.268   2.621
 4510SOL     OW14428   4.959   1.676   3.570
 4510SOL    HW114429   4.971   1.606   3.501
 4510SOL    HW214430   5.009   1.758   3.544
 4511SOL     OW14431   0.939   3.982   7.008
 4511SOL    HW114432   0.953   3.885   6.989
 4511SOL    HW214433   0.877   4.021   6.939
 4512SOL     OW14434   2.932   3.850   6.362
 4512SOL    HW114435   2.922   3.766   6.309
 4512SOL    HW214436   2.979   3.830   6.449
 4513SOL     OW14437   0.241   1.769   0.755
 4513SOL    HW114438   0.227   1.783   0.853
 4513SOL    HW214439   0.217   1.675   0.731
 4514SOL     OW14440   4.167   5.461   7.007
 4514SOL    HW114441   4.159   5.461   6.908
 4514SOL    HW214442   4.206   5.374   0.015
 4515SOL     OW14443   4.801   6.760   5.834
 4515SOL    HW114444   4.812   6.785   5.738
 4515SOL    HW214445   4.706   6.736   5.852
 4516SOL     OW14446   3.701   1.783   4.956
 4516SOL    HW114447   3.651   1.714   5.008
 4516SOL    HW214448   3.664   1.787   4.863
 4517SOL     OW14449   3.834   0.064   4.085
 4517SOL    HW114450   3.863   0.160   4.079
 4517SOL    HW214451   3.791   0.037   3.999
 4518SOL     OW14452   6.650   6.357   0.773
 4518SOL    HW114453   6.652   6.406   0.860
 4518SOL    HW214454   6.560   6.316   0.760
 4519SOL     OW14455   5.575   6.322   6.225
 4519SOL    HW114456   5.535   6.231   6.238
 4519SOL    HW214457   5.546   6.382   6.299
 4520SOL     OW14458   4.973   5.095   4.986
 4520SOL    HW114459   5.000   5.005   4.951
 4520SOL    HW214460   4.955   5.156   4.909
 4521SOL     OW14461   5.320   2.600   4.068
 4521SOL    HW114462   5.371   2.538   4.128
 4521SOL    HW214463   5.299   2.684   4.118
 4522SOL     OW14464   5.701   4.163   3.899
 4522SOL    HW114465   5.705   4.254   3.941
 4522SOL    HW214466   5.626   4.112   3.941
 4523SOL     OW14467   1.156   2.454   0.529
 4523SOL    HW114468   1.128   2.457   0.433
 4523SOL    HW214469   1.253   2.428   0.534
 4524SOL     OW14470   1.931   3.768   1.761
 4524SOL    HW114471   1.886   3.857   1.754
 4524SOL    HW214472   2.030   3.782   1.768
 4525SOL     OW14473   3.364   2.053   6.085
 4525SOL    HW114474   3.420   2.126   6.045
 4525SOL    HW214475   3.270   2.085   6.094
 4526SOL     OW14476   0.685   6.875   5.156
 4526SOL    HW114477   0.749   6.870   5.080
 4526SOL    HW214478   0.619   6.800   5.149
 4527SOL     OW14479   1.212   2.668   2.632
 4527SOL    HW114480   1.248   2.761   2.642
 4527SOL    HW214481   1.218   2.620   2.719
 4528SOL     OW14482   5.041   1.926   4.148
 4528SOL    HW114483   5.046   1.857   4.075
 4528SOL    HW214484   4.947   1.960   4.155
 4529SOL     OW14485   1.512   2.848   3.054
 4529SOL    HW114486   1.561   2.825   3.138
 4529SOL    HW214487   1.414   2.830   3.067
 4530SOL     OW14488   4.109   4.432   6.281
 4530SOL    HW114489   4.052   4.350   6.288
 4530SOL    HW214490   4.205   4.405   6.281
 4531SOL     OW14491   1.141   6.434   5.078
 4531SOL    HW114492   1.119   6.496   5.003
 4531SOL    HW214493   1.213   6.474   5.135
 4532SOL     OW14494   5.863   0.506   2.105
 4532SOL    HW114495   5.871   0.450   2.023
 4532SOL    HW214496   5.824   0.452   2.179
 4533SOL     OW14497   2.741   6.212   0.789
 4533SOL    HW114498   2.734   6.161   0.704
 4533SOL    HW214499   2.793   6.159   0.856
 4534SOL     OW14500   6.366   1.600   5.109
 4534SOL    HW114501   6.395   1.510   5.139
 4534SOL    HW214502   6.294   1.591   5.039
 4535SOL     OW14503   1.804   6.941   0.581
 4535SOL    HW114504   1.883   7.002   0.574
 4535SOL    HW214505   1.813   6.867   0.515
 4536SOL     OW14506   4.006   0.552   5.475
 4536SOL    HW114507   3.928   0.510   5.520
 4536SOL    HW214508   3.974   0.609   5.399
 4537SOL     OW14509   3.722   3.741   3.213
 4537SOL    HW114510   3.660   3.770   3.286
 4537SOL    HW214511   3.668   3.710   3.135
 4538SOL     OW14512   1.726   2.820   0.327
 4538SOL    HW114513   1.826   2.813   0.323
 4538SOL    HW214514   1.690   2.747   0.385
 4539SOL     OW14515   0.786   4.772   5.142
 4539SOL    HW114516   0.784   4.704   5.069
 4539SOL    HW214517   0.753   4.860   5.107
 4540SOL     OW14518   1.437   1.305   7.016
 4540SOL    HW114519   1.360   1.329   0.052
 4540SOL    HW214520   1.434   1.207   6.995
 4541SOL     OW14521   4.268   2.850   0.460
 4541SOL    HW114522   4.185   2.901   0.439
 4541SOL    HW214523   4.263   2.759   0.418
 4542SOL     OW14524   6.938   2.326   0.127
 4542SOL    HW114525   6.869   2.345   0.196
 4542SOL    HW214526   6.955   2.408   0.072
 4543SOL     OW14527   4.373   1.085   0.390
 4543SOL    HW114528   4.432   1.102   0.469
 4543SOL    HW214529   4.277   1.092   0.418
 4544SOL     OW14530   4.647   5.973   6.851
 4544SOL    HW114531   4.559   5.961   6.896
 4544SOL    HW214532   4.666   5.893   6.794
 4545SOL     OW14533   2.806   3.033   6.196
 4545SOL    HW114534   2.721   3.009   6.147
 4545SOL    HW214535   2.880   3.043   6.129
 4546SOL     OW14536   4.751   6.481   5.154
 4546SOL    HW114537   4.740   6.381   5.148
 4546SOL    HW214538   4.831   6.502   5.210
 4547SOL     OW14539   6.928   6.783   1.189
 4547SOL    HW114540   7.009   6.797   1.132
 4547SOL    HW214541   6.847   6.779   1.132
 4548SOL     OW14542   3.893   1.006   1.536
 4548SOL    HW114543   3.805   1.023   1.490
 4548SOL    HW214544   3.952   0.953   1.476
 4549SOL     OW14545   6.844   5.511   3.555
 4549SOL    HW114546   6.928   5.457   3.549
 4549SOL    HW214547   6.806   5.524   3.463
 4550SOL     OW14548   2.308   5.812   0.043
 4550SOL    HW114549   2.302   5.756   0.125
 4550SOL    HW214550   2.381   5.778   7.007
 4551SOL     OW14551   3.743   3.298   6.316
 4551SOL    HW114552   3.663   3.342   6.277
 4551SOL    HW214553   3.720   3.205   6.344
 4552SOL     OW14554   5.708   0.659   6.200
 4552SOL    HW114555   5.751   0.742   6.235
 4552SOL    HW214556   5.715   0.586   6.268
 4553SOL     OW14557   0.090   6.813   0.979
 4553SOL    HW114558   0.103   6.716   0.959
 4553SOL    HW214559   0.066   6.862   0.896
 4554SOL     OW14560   5.429   6.000   2.673
 4554SOL    HW114561   5.366   5.947   2.616
 4554SOL    HW214562   5.378   6.042   2.748
 4555SOL     OW14563   0.725   0.696   3.603
 4555SOL    HW114564   0.682   0.678   3.515
 4555SOL    HW214565   0.665   0.665   3.676
 4556SOL     OW14566   5.411   5.101   4.564
 4556SOL    HW114567   5.467   5.180   4.589
 4556SOL    HW214568   5.314   5.126   4.573
 4557SOL     OW14569   0.373   6.125   5.427
 4557SOL    HW114570   0.357   6.097   5.522
 4557SOL    HW214571   0.374   6.225   5.423
 4558SOL     OW14572   0.769   4.272   3.940
 4558SOL    HW114573   0.853   4.218   3.950
 4558SOL    HW214574   0.791   4.362   3.902
 4559SOL     OW14575   0.345   3.435   4.076
 4559SOL    HW114576   0.426   3.407   4.025
 4559SOL    HW214577   0.293   3.354   4.103
 4560SOL     OW14578   6.474   3.175   4.529
 4560SOL    HW114579   6.503   3.137   4.617
 4560SOL    HW214580   6.527   3.133   4.455
 4561SOL     OW14581   5.407   3.727   4.858
 4561SOL    HW114582   5.392   3.631   4.835
 4561SOL    HW214583   5.429   3.778   4.775
 4562SOL     OW14584   4.910   0.948   0.755
 4562SOL    HW114585   4.965   1.022   0.792
 4562SOL    HW214586   4.965   0.864   0.748
 4563SOL     OW14587   1.198   3.517   2.820
 4563SOL    HW114588   1.260   3.445   2.790
 4563SOL    HW214589   1.249   3.588   2.867
 4564SOL     OW14590   2.166   3.912   2.435
 4564SOL    HW114591   2.198   3.827   2.393
 4564SOL    HW214592   2.159   3.899   2.534
 4565SOL     OW14593   2.316   6.239   4.887
 4565SOL    HW114594   2.228   6.200   4.861
 4565SOL    HW214595   2.339   6.210   4.979
 4566SOL     OW14596   6.655   5.088   2.729
 4566SOL    HW114597   6.614   5.175   2.758
 4566SOL    HW214598   6.623   5.066   2.637
 4567SOL     OW14599   1.478   0.587   0.515
 4567SOL    HW114600   1.412   0.612   0.586
 4567SOL    HW214601   1.571   0.594   0.552
 4568SOL     OW14602   0.036   4.525   4.639
 4568SOL    HW114603   0.131   4.520   4.669
 4568SOL    HW214604   0.032   4.569   4.549
 4569SOL     OW14605   6.746   2.550   3.560
 4569SOL    HW114606   6.706   2.461   3.537
 4569SOL    HW214607   6.778   2.548   3.655
 4570SOL     OW14608   4.811   5.497   1.515
 4570SOL    HW114609   4.788   5.422   1.577
 4570SOL    HW214610   4.768   5.481   1.426
 4571SOL     OW14611   1.989   2.469   4.782
 4571SOL    HW114612   1.948   2.514   4.702
 4571SOL    HW214613   1.920   2.457   4.853
 4572SOL     OW14614   5.298   3.248   1.371
 4572SOL    HW114615   5.271   3.188   1.446
 4572SOL    HW214616   5.237   3.328   1.368
 4573SOL     OW14617   3.047   4.934   1.179
 4573SOL    HW114618   3.056   5.007   1.111
 4573SOL    HW214619   2.955   4.936   1.217
 4574SOL     OW14620   4.633   0.097   2.027
 4574SOL    HW114621   4.657   0.013   2.075
 4574SOL    HW214622   4.612   0.168   2.094
 4575SOL     OW14623   0.128   1.419   5.454
 4575SOL    HW114624   0.129   1.339   5.513
 4575SOL    HW214625   0.074   1.400   5.372
 4576SOL     OW14626   3.242   3.918   6.718
 4576SOL    HW114627   3.288   3.862   6.786
 4576SOL    HW214628   3.310   3.960   6.658
 4577SOL     OW14629   0.035   1.545   2.234
 4577SOL    HW114630   6.968   1.502   2.239
 4577SOL    HW214631   0.102   1.480   2.197
 4578SOL     OW14632   2.115   0.547   2.387
 4578SOL    HW114633   2.125   0.463   2.334
 4578SOL    HW214634   2.193   0.556   2.449
 4579SOL     OW14635   3.406   0.808   2.230
 4579SOL    HW114636   3.369   0.807   2.137
 4579SOL    HW214637   3.333   0.790   2.295
 4580SOL     OW14638   0.991   0.141   1.507
 4580SOL    HW114639   0.970   0.095   1.421
 4580SOL    HW214640   1.086   0.123   1.532
 4581SOL     OW14641   3.493   0.106   1.014
 4581SOL    HW114642   3.461   0.180   1.073
 4581SOL    HW214643   3.592   0.108   1.007
 4582SOL     OW14644   6.066   1.242   4.843
 4582SOL    HW114645   6.147   1.290   4.809
 4582SOL    HW214646   6.002   1.226   4.768
 4583SOL     OW14647   1.657   5.984   6.648
 4583SOL    HW114648   1.699   6.035   6.724
 4583SOL    HW214649   1.559   6.005   6.644
 4584SOL     OW14650   6.209   0.628   4.392
 4584SOL    HW114651   6.210   0.565   4.470
 4584SOL    HW214652   6.300   0.633   4.352
 4585SOL     OW14653   1.270   3.531   2.411
 4585SOL    HW114654   1.238   3.532   2.317
 4585SOL    HW214655   1.332   3.454   2.425
 4586SOL     OW14656   0.381   4.532   6.195
 4586SOL    HW114657   0.373   4.500   6.290
 4586SOL    HW214658   0.424   4.623   6.195
 4587SOL     OW14659   3.747   3.619   5.909
 4587SOL    HW114660   3.831   3.582   5.870
 4587SOL    HW214661   3.766   3.660   5.998
 4588SOL     OW14662   2.076   4.893   6.586
 4588SOL    HW114663   2.038   4.965   6.528
 4588SOL    HW214664   2.012   4.871   6.660
 4589SOL     OW14665   4.485   6.305   2.172
 4589SOL    HW114666   4.559   6.240   2.186
 4589SOL    HW214667   4.511   6.370   2.100
 4590SOL     OW14668   1.787   4.980   1.776
 4590SOL    HW114669   1.764   4.883   1.779
 4590SOL    HW214670   1.880   4.992   1.741
 4591SOL     OW14671   2.240   1.865   5.659
 4591SOL    HW114672   2.285   1.775   5.663
 4591SOL    HW214673   2.307   1.936   5.681
 4592SOL     OW14674   2.259   2.495   2.627
 4592SOL    HW114675   2.242   2.402   2.594
 4592SOL    HW214676   2.341   2.495   2.685
 4593SOL     OW14677   1.950   5.439   5.678
 4593SOL    HW114678   2.031   5.404   5.725
 4593SOL    HW214679   1.912   5.517   5.728
 4594SOL     OW14680   0.896   6.987   3.297
 4594SOL    HW114681   0.933   0.054   3.322
 4594SOL    HW214682   0.957   6.943   3.230
 4595SOL     OW14683   5.506   1.654   6.568
 4595SOL    HW114684   5.600   1.672   6.598
 4595SOL    HW214685   5.449   1.732   6.592
 4596SOL     OW14686   0.283   1.685   2.376
 4596SOL    HW114687   0.315   1.622   2.447
 4596SOL    HW214688   0.208   1.643   2.326
 4597SOL     OW14689   2.176   5.200   0.729
 4597SOL    HW114690   2.106   5.185   0.659
 4597SOL    HW214691   2.137   5.183   0.819
 4598SOL     OW14692   0.455   2.574   0.557
 4598SOL    HW114693   0.475   2.487   0.513
 4598SOL    HW214694   0.527   2.640   0.536
 4599SOL     OW14695   2.985   6.132   3.179
 4599SOL    HW114696   2.926   6.190   3.122
 4599SOL    HW214697   2.994   6.174   3.270
 4600SOL     OW14698   0.224   6.477   5.877
 4600SOL    HW114699   0.217   6.381   5.902
 4600SOL    HW214700   0.175   6.493   5.791
 4601SOL     OW14701   1.784   1.346   5.251
 4601SOL    HW114702   1.692   1.380   5.273
 4601SOL    HW214703   1.804   1.367   5.155
 4602SOL     OW14704   4.589   7.003   5.583
 4602SOL    HW114705   4.593   0.018   5.491
 4602SOL    HW214706   4.600   0.053   5.650
 4603SOL     OW14707   4.586   6.805   0.304
 4603SOL    HW114708   4.635   6.730   0.261
 4603SOL    HW214709   4.487   6.790   0.294
 4604SOL     OW14710   0.119   0.152   3.760
 4604SOL    HW114711   0.211   0.159   3.720
 4604SOL    HW214712   0.079   0.064   3.736
 4605SOL     OW14713   4.032   1.458   2.417
 4605SOL    HW114714   3.978   1.375   2.426
 4605SOL    HW214715   4.126   1.440   2.446
 4606SOL     OW14716   6.756   0.243   4.329
 4606SOL    HW114717   6.672   0.297   4.334
 4606SOL    HW214718   6.740   0.161   4.275
 4607SOL     OW14719   2.482   1.794   1.643
 4607SOL    HW114720   2.511   1.721   1.581
 4607SOL    HW214721   2.455   1.875   1.589
 4608SOL     OW14722   0.319   2.751   6.046
 4608SOL    HW114723   0.261   2.807   5.987
 4608SOL    HW214724   0.275   2.664   6.063
 4609SOL     OW14725   5.406   4.386   6.402
 4609SOL    HW114726   5.334   4.425   6.459
 4609SOL    HW214727   5.426   4.293   6.433
 4610SOL     OW14728   4.618   4.155   6.179
 4610SOL    HW114729   4.631   4.058   6.156
 4610SOL    HW214730   4.592   4.205   6.096
 4611SOL     OW14731   0.382   0.476   6.567
 4611SOL    HW114732   0.458   0.416   6.592
 4611SOL    HW214733   0.418   0.563   6.532
 4612SOL     OW14734   1.319   0.815   2.293
 4612SOL    HW114735   1.392   0.748   2.301
 4612SOL    HW214736   1.231   0.770   2.307
 4613SOL     OW14737   1.295   5.072   3.861
 4613SOL    HW114738   1.238   5.019   3.798
 4613SOL    HW214739   1.390   5.040   3.855
 4614SOL     OW14740   6.540   5.027   2.464
 4614SOL    HW114741   6.504   4.964   2.395
 4614SOL    HW214742   6.501   5.118   2.450
 4615SOL     OW14743   0.548   4.813   6.721
 4615SOL    HW114744   0.456   4.811   6.760
 4615SOL    HW214745   0.609   4.865   6.780
 4616SOL     OW14746   1.448   5.052   5.816
 4616SOL    HW114747   1.502   4.981   5.771
 4616SOL    HW214748   1.493   5.141   5.804
 4617SOL     OW14749   0.816   4.415   4.715
 4617SOL    HW114750   0.889   4.432   4.782
 4617SOL    HW214751   0.733   4.388   4.764
 4618SOL     OW14752   2.157   4.219   5.100
 4618SOL    HW114753   2.118   4.227   5.192
 4618SOL    HW214754   2.215   4.138   5.094
 4619SOL     OW14755   5.049   5.787   6.594
 4619SOL    HW114756   5.124   5.844   6.630
 4619SOL    HW214757   4.969   5.845   6.576
 4620SOL     OW14758   0.500   5.095   2.401
 4620SOL    HW114759   0.528   5.189   2.423
 4620SOL    HW214760   0.565   5.031   2.441
 4621SOL     OW14761   2.578   0.071   2.151
 4621SOL    HW114762   2.657   0.036   2.201
 4621SOL    HW214763   2.574   0.171   2.158
 4622SOL     OW14764   6.171   6.764   0.500
 4622SOL    HW114765   6.179   6.846   0.557
 4622SOL    HW214766   6.201   6.684   0.552
 4623SOL     OW14767   3.174   4.882   2.284
 4623SOL    HW114768   3.137   4.960   2.235
 4623SOL    HW214769   3.234   4.914   2.357
 4624SOL     OW14770   5.614   1.604   0.156
 4624SOL    HW114771   5.562   1.628   0.075
 4624SOL    HW214772   5.638   1.687   0.207
 4625SOL     OW14773   1.120   0.159   1.984
 4625SOL    HW114774   1.209   0.199   1.964
 4625SOL    HW214775   1.061   0.168   1.904
 4626SOL     OW14776   4.108   3.948   1.911
 4626SOL    HW114777   4.157   3.879   1.859
 4626SOL    HW214778   4.119   4.037   1.867
 4627SOL     OW14779   5.785   6.301   5.023
 4627SOL    HW114780   5.782   6.365   4.947
 4627SOL    HW214781   5.859   6.326   5.086
 4628SOL     OW14782   6.424   3.179   2.207
 4628SOL    HW114783   6.457   3.232   2.128
 4628SOL    HW214784   6.458   3.220   2.291
 4629SOL     OW14785   1.106   5.226   0.663
 4629SOL    HW114786   1.045   5.293   0.704
 4629SOL    HW214787   1.193   5.227   0.712
 4630SOL     OW14788   1.646   3.404   1.429
 4630SOL    HW114789   1.678   3.431   1.338
 4630SOL    HW214790   1.611   3.310   1.425
 4631SOL     OW14791   5.561   1.524   1.139
 4631SOL    HW114792   5.586   1.587   1.065
 4631SOL    HW214793   5.501   1.452   1.102
 4632SOL     OW14794   2.374   5.073   3.621
 4632SOL    HW114795   2.380   5.109   3.528
 4632SOL    HW214796   2.458   5.094   3.671
 4633SOL     OW14797   4.960   3.725   3.900
 4633SOL    HW114798   5.050   3.763   3.878
 4633SOL    HW214799   4.938   3.653   3.834
 4634SOL     OW14800   3.721   2.897   4.737
 4634SOL    HW114801   3.639   2.843   4.756
 4634SOL    HW214802   3.760   2.868   4.650
 4635SOL     OW14803   3.531   0.357   2.072
 4635SOL    HW114804   3.514   0.455   2.061
 4635SOL    HW214805   3.543   0.315   1.982
 4636SOL     OW14806   1.762   5.726   6.561
 4636SOL    HW114807   1.766   5.822   6.589
 4636SOL    HW214808   1.681   5.683   6.600
 4637SOL     OW14809   1.919   2.632   3.468
 4637SOL    HW114810   1.843   2.584   3.425
 4637SOL    HW214811   1.893   2.660   3.560
 4638SOL     OW14812   4.055   4.571   6.566
 4638SOL    HW114813   4.078   4.485   6.521
 4638SOL    HW214814   4.096   4.573   6.657
 4639SOL     OW14815   3.917   2.762   1.546
 4639SOL    HW114816   3.824   2.760   1.581
 4639SOL    HW214817   3.975   2.817   1.605
 4640SOL     OW14818   0.577   2.351   0.422
 4640SOL    HW114819   0.524   2.279   0.378
 4640SOL    HW214820   0.670   2.318   0.440
 4641SOL     OW14821   1.292   6.210   5.068
 4641SOL    HW114822   1.310   6.218   4.970
 4641SOL    HW214823   1.219   6.274   5.094
 4642SOL     OW14824   5.827   1.272   6.015
 4642SOL    HW114825   5.893   1.341   6.044
 4642SOL    HW214826   5.845   1.247   5.920
 4643SOL     OW14827   1.049   2.056   6.909
 4643SOL    HW114828   1.062   2.066   6.811
 4643SOL    HW214829   0.962   2.096   6.936
 4644SOL     OW14830   1.416   1.766   1.037
 4644SOL    HW114831   1.456   1.856   1.020
 4644SOL    HW214832   1.331   1.757   0.984
 4645SOL     OW14833   5.564   2.755   5.215
 4645SOL    HW114834   5.569   2.698   5.297
 4645SOL    HW214835   5.537   2.848   5.240
 4646SOL     OW14836   1.366   4.028   2.458
 4646SOL    HW114837   1.279   4.065   2.424
 4646SOL    HW214838   1.440   4.092   2.436
 4647SOL     OW14839   1.491   6.213   1.995
 4647SOL    HW114840   1.421   6.154   2.036
 4647SOL    HW214841   1.512   6.288   2.058
 4648SOL     OW14842   2.702   1.507   4.236
 4648SOL    HW114843   2.655   1.547   4.315
 4648SOL    HW214844   2.648   1.430   4.201
 4649SOL     OW14845   4.829   3.807   1.263
 4649SOL    HW114846   4.879   3.867   1.326
 4649SOL    HW214847   4.866   3.816   1.171
 4650SOL     OW14848   3.795   4.673   0.579
 4650SOL    HW114849   3.719   4.739   0.582
 4650SOL    HW214850   3.858   4.690   0.654
 4651SOL     OW14851   1.759   3.137   0.246
 4651SOL    HW114852   1.703   3.073   0.299
 4651SOL    HW214853   1.710   3.165   0.164
 4652SOL     OW14854   6.133   6.880   5.651
 4652SOL    HW114855   6.088   6.829   5.724
 4652SOL    HW214856   6.226   6.903   5.679
 4653SOL     OW14857   0.893   6.776   0.559
 4653SOL    HW114858   0.895   6.823   0.471
 4653SOL    HW214859   0.875   6.679   0.544
 4654SOL     OW14860   0.575   0.901   5.421
 4654SOL    HW114861   0.476   0.911   5.427
 4654SOL    HW214862   0.607   0.940   5.336
 4655SOL     OW14863   5.386   5.382   3.331
 4655SOL    HW114864   5.418   5.365   3.238
 4655SOL    HW214865   5.319   5.312   3.357
 4656SOL     OW14866   6.601   0.432   1.384
 4656SOL    HW114867   6.629   0.349   1.335
 4656SOL    HW214868   6.572   0.501   1.317
 4657SOL     OW14869   3.598   1.981   2.166
 4657SOL    HW114870   3.610   2.064   2.113
 4657SOL    HW214871   3.682   1.926   2.162
 4658SOL     OW14872   1.646   0.974   6.915
 4658SOL    HW114873   1.548   0.992   6.904
 4658SOL    HW214874   1.698   1.048   6.872
 4659SOL     OW14875   2.422   5.228   1.135
 4659SOL    HW114876   2.375   5.141   1.152
 4659SOL    HW214877   2.423   5.246   1.036
 4660SOL     OW14878   0.458   5.147   4.941
 4660SOL    HW114879   0.395   5.090   4.889
 4660SOL    HW214880   0.474   5.233   4.892
 4661SOL     OW14881   0.347   1.119   5.013
 4661SOL    HW114882   0.265   1.120   4.956
 4661SOL    HW214883   0.326   1.158   5.102
 4662SOL     OW14884   2.634   0.402   6.533
 4662SOL    HW114885   2.537   0.387   6.552
 4662SOL    HW214886   2.686   0.397   6.619
 4663SOL     OW14887   0.476   6.966   1.335
 4663SOL    HW114888   0.536   6.887   1.321
 4663SOL    HW214889   0.420   6.980   1.252
 4664SOL     OW14890   6.523   6.093   5.496
 4664SOL    HW114891   6.569   6.010   5.465
 4664SOL    HW214892   6.591   6.157   5.531
 4665SOL     OW14893   6.969   1.674   2.458
 4665SOL    HW114894   0.031   1.671   2.510
 4665SOL    HW214895   6.986   1.645   2.364
 4666SOL     OW14896   1.961   2.551   5.566
 4666SOL    HW114897   1.991   2.632   5.616
 4666SOL    HW214898   1.938   2.479   5.631
 4667SOL     OW14899   6.234   2.088   1.378
 4667SOL    HW114900   6.140   2.078   1.345
 4667SOL    HW214901   6.233   2.091   1.478
 4668SOL     OW14902   4.838   1.972   5.291
 4668SOL    HW114903   4.848   1.932   5.199
 4668SOL    HW214904   4.800   1.903   5.353
 4669SOL     OW14905   5.866   6.343   6.275
 4669SOL    HW114906   5.867   6.404   6.355
 4669SOL    HW214907   5.792   6.372   6.213
 4670SOL     OW14908   1.022   3.477   0.166
 4670SOL    HW114909   1.112   3.512   0.141
 4670SOL    HW214910   0.956   3.552   0.166
 4671SOL     OW14911   6.821   2.069   1.780
 4671SOL    HW114912   6.743   2.006   1.786
 4671SOL    HW214913   6.822   2.111   1.689
 4672SOL     OW14914   4.177   3.018   0.796
 4672SOL    HW114915   4.125   2.932   0.787
 4672SOL    HW214916   4.114   3.095   0.788
 4673SOL     OW14917   4.848   1.569   0.431
 4673SOL    HW114918   4.869   1.664   0.452
 4673SOL    HW214919   4.835   1.558   0.332
 4674SOL     OW14920   0.904   2.813   0.531
 4674SOL    HW114921   0.974   2.885   0.537
 4674SOL    HW214922   0.934   2.733   0.583
 4675SOL     OW14923   1.803   6.677   0.325
 4675SOL    HW114924   1.895   6.640   0.337
 4675SOL    HW214925   1.738   6.626   0.382
 4676SOL     OW14926   0.215   5.667   4.557
 4676SOL    HW114927   0.260   5.701   4.639
 4676SOL    HW214928   0.116   5.684   4.564
 4677SOL     OW14929   5.228   6.788   6.988
 4677SOL    HW114930   5.314   6.738   6.981
 4677SOL    HW214931   5.177   6.756   0.045
 4678SOL     OW14932   2.364   5.219   0.483
 4678SOL    HW114933   2.352   5.138   0.426
 4678SOL    HW214934   2.290   5.224   0.550
 4679SOL     OW14935   1.909   6.590   5.646
 4679SOL    HW114936   1.870   6.680   5.627
 4679SOL    HW214937   1.983   6.598   5.712
 4680SOL     OW14938   0.924   5.353   5.839
 4680SOL    HW114939   0.944   5.271   5.892
 4680SOL    HW214940   0.925   5.433   5.900
 4681SOL     OW14941   6.661   6.126   5.955
 4681SOL    HW114942   6.680   6.032   5.983
 4681SOL    HW214943   6.723   6.188   6.003
 4682SOL     OW14944   2.986   6.800   0.536
 4682SOL    HW114945   3.005   6.896   0.555
 4682SOL    HW214946   3.072   6.749   0.535
 4683SOL     OW14947   0.652   5.144   3.812
 4683SOL    HW114948   0.681   5.112   3.902
 4683SOL    HW214949   0.609   5.233   3.821
 4684SOL     OW14950   1.806   0.801   4.430
 4684SOL    HW114951   1.767   0.822   4.519
 4684SOL    HW214952   1.884   0.740   4.441
 4685SOL     OW14953   5.260   4.823   4.108
 4685SOL    HW114954   5.232   4.885   4.034
 4685SOL    HW214955   5.359   4.833   4.124
 4686SOL     OW14956   4.594   5.364   5.852
 4686SOL    HW114957   4.637   5.365   5.762
 4686SOL    HW214958   4.511   5.421   5.850
 4687SOL     OW14959   4.627   0.971   4.894
 4687SOL    HW114960   4.708   0.927   4.856
 4687SOL    HW214961   4.655   1.051   4.948
 4688SOL     OW14962   0.281   0.322   1.237
 4688SOL    HW114963   0.225   0.261   1.293
 4688SOL    HW214964   0.224   0.367   1.168
 4689SOL     OW14965   1.926   6.053   4.650
 4689SOL    HW114966   1.991   5.991   4.606
 4689SOL    HW214967   1.874   6.103   4.580
 4690SOL     OW14968   3.262   2.124   6.951
 4690SOL    HW114969   3.321   2.044   6.955
 4690SOL    HW214970   3.255   2.156   6.856
 4691SOL     OW14971   2.810   4.676   0.073
 4691SOL    HW114972   2.806   4.598   0.135
 4691SOL    HW214973   2.895   4.727   0.088
 4692SOL     OW14974   0.935   4.815   3.265
 4692SOL    HW114975   0.848   4.853   3.234
 4692SOL    HW214976   1.004   4.828   3.194
 4693SOL     OW14977   0.651   2.075   2.599
 4693SOL    HW114978   0.680   2.142   2.667
 4693SOL    HW214979   0.642   2.120   2.510
 4694SOL     OW14980   1.720   0.897   4.910
 4694SOL    HW114981   1.647   0.957   4.943
 4694SOL    HW214982   1.709   0.881   4.812
 4695SOL     OW14983   3.555   3.675   3.001
 4695SOL    HW114984   3.513   3.698   2.913
 4695SOL    HW214985   3.487   3.684   3.073
 4696SOL     OW14986   0.624   2.341   6.612
 4696SOL    HW114987   0.720   2.326   6.588
 4696SOL    HW214988   0.569   2.262   6.583
 4697SOL     OW14989   0.849   4.980   6.540
 4697SOL    HW114990   0.765   5.023   6.572
 4697SOL    HW214991   0.928   5.029   6.578
 4698SOL     OW14992   5.712   3.312   2.167
 4698SOL    HW114993   5.660   3.239   2.211
 4698SOL    HW214994   5.765   3.274   2.090
 4699SOL     OW14995   6.883   0.599   2.921
 4699SOL    HW114996   6.905   0.559   3.010
 4699SOL    HW214997   6.951   0.668   2.898
 4700SOL     OW14998   5.209   0.031   5.025
 4700SOL    HW114999   5.233   6.976   4.967
 4700SOL    HW215000   5.167   7.020   5.109
 4701SOL     OW15001   2.643   1.230   6.076
 4701SOL    HW115002   2.663   1.155   6.139
 4701SOL    HW215003   2.662   1.200   5.982
 4702SOL     OW15004   3.459   3.045   0.772
 4702SOL    HW115005   3.447   3.142   0.747
 4702SOL    HW215006   3.370   2.999   0.765
 4703SOL     OW15007   0.872   6.476   1.973
 4703SOL    HW115008   0.900   6.397   1.918
 4703SOL    HW215009   0.939   6.549   1.962
 4704SOL     OW15010   4.593   6.917   6.179
 4704SOL    HW115011   4.637   6.993   6.130
 4704SOL    HW215012   4.540   6.954   6.255
 4705SOL     OW15013   3.469   2.834   4.842
 4705SOL    HW115014   3.440   2.826   4.746
 4705SOL    HW215015   3.390   2.824   4.902
 4706SOL     OW15016   5.791   2.815   0.264
 4706SOL    HW115017   5.885   2.782   0.250
 4706SOL    HW215018   5.785   2.911   0.236
 4707SOL     OW15019   2.830   4.256   1.030
 4707SOL    HW115020   2.763   4.288   1.097
 4707SOL    HW215021   2.808   4.162   1.003
 4708SOL     OW15022   2.257   2.746   2.282
 4708SOL    HW115023   2.158   2.741   2.296
 4708SOL    HW215024   2.283   2.840   2.259
 4709SOL     OW15025   2.832   3.816   0.391
 4709SOL    HW115026   2.926   3.849   0.395
 4709SOL    HW215027   2.818   3.747   0.462
 4710SOL     OW15028   4.608   2.261   1.301
 4710SOL    HW115029   4.625   2.274   1.204
 4710SOL    HW215030   4.646   2.338   1.353
 4711SOL     OW15031   2.636   0.365   3.723
 4711SOL    HW115032   2.553   0.326   3.683
 4711SOL    HW215033   2.713   0.349   3.662
 4712SOL     OW15034   1.410   3.198   6.861
 4712SOL    HW115035   1.493   3.222   6.811
 4712SOL    HW215036   1.330   3.213   6.802
 4713SOL     OW15037   0.537   6.195   1.039
 4713SOL    HW115038   0.461   6.164   0.982
 4713SOL    HW215039   0.619   6.142   1.017
 4714SOL     OW15040   4.414   2.020   1.199
 4714SOL    HW115041   4.411   2.086   1.273
 4714SOL    HW215042   4.440   1.930   1.235
 4715SOL     OW15043   5.212   3.859   5.010
 4715SOL    HW115044   5.259   3.799   4.944
 4715SOL    HW215045   5.114   3.852   4.996
 4716SOL     OW15046   1.867   5.042   6.493
 4716SOL    HW115047   1.788   4.993   6.457
 4716SOL    HW215048   1.837   5.107   6.564
 4717SOL     OW15049   1.815   4.822   4.863
 4717SOL    HW115050   1.861   4.904   4.896
 4717SOL    HW215051   1.809   4.755   4.937
 4718SOL     OW15052   4.970   6.863   6.905
 4718SOL    HW115053   4.925   6.774   6.900
 4718SOL    HW215054   5.069   6.850   6.909
 4719SOL     OW15055   4.669   2.892   1.309
 4719SOL    HW115056   4.694   2.975   1.358
 4719SOL    HW215057   4.579   2.905   1.267
 4720SOL     OW15058   2.011   1.769   3.609
 4720SOL    HW115059   1.949   1.844   3.631
 4720SOL    HW215060   2.033   1.771   3.511
 4721SOL     OW15061   1.838   1.648   2.130
 4721SOL    HW115062   1.904   1.636   2.204
 4721SOL    HW215063   1.849   1.574   2.064
 4722SOL     OW15064   2.427   1.190   2.548
 4722SOL    HW115065   2.493   1.148   2.610
 4722SOL    HW215066   2.350   1.226   2.600
 4723SOL     OW15067   3.358   0.626   5.354
 4723SOL    HW115068   3.353   0.543   5.410
 4723SOL    HW215069   3.287   0.623   5.283
 4724SOL     OW15070   4.387   5.631   1.151
 4724SOL    HW115071   4.326   5.574   1.096
 4724SOL    HW215072   4.478   5.590   1.154
 4725SOL     OW15073   6.152   5.081   2.735
 4725SOL    HW115074   6.063   5.035   2.736
 4725SOL    HW215075   6.217   5.026   2.682
 4726SOL     OW15076   6.408   0.129   4.221
 4726SOL    HW115077   6.399   0.090   4.313
 4726SOL    HW215078   6.406   0.055   4.154
 4727SOL     OW15079   4.603   6.658   1.712
 4727SOL    HW115080   4.570   6.569   1.681
 4727SOL    HW215081   4.696   6.648   1.748
 4728SOL     OW15082   6.691   6.132   6.676
 4728SOL    HW115083   6.610   6.081   6.649
 4728SOL    HW215084   6.747   6.153   6.595
 4729SOL     OW15085   3.440   0.399   1.116
 4729SOL    HW115086   3.486   0.424   1.202
 4729SOL    HW215087   3.421   0.482   1.064
 4730SOL     OW15088   1.193   0.658   6.497
 4730SOL    HW115089   1.263   0.707   6.548
 4730SOL    HW215090   1.175   0.704   6.411
 4731SOL     OW15091   5.106   1.495   5.684
 4731SOL    HW115092   5.063   1.521   5.771
 4731SOL    HW215093   5.071   1.406   5.655
 4732SOL     OW15094   0.912   6.813   6.469
 4732SOL    HW115095   0.868   6.724   6.456
 4732SOL    HW215096   0.858   6.868   6.533
 4733SOL     OW15097   5.581   4.086   3.204
 4733SOL    HW115098   5.503   4.068   3.263
 4733SOL    HW215099   5.607   4.003   3.155
 4734SOL     OW15100   6.477   3.560   6.060
 4734SOL    HW115101   6.506   3.656   6.063
 4734SOL    HW215102   6.393   3.552   6.008
 4735SOL     OW15103   0.717   3.931   3.617
 4735SOL    HW115104   0.809   3.969   3.612
 4735SOL    HW215105   0.707   3.877   3.700
 4736SOL     OW15106   1.402   0.193   2.387
 4736SOL    HW115107   1.451   0.155   2.309
 4736SOL    HW215108   1.327   0.251   2.355
 4737SOL     OW15109   3.218   5.172   2.427
 4737SOL    HW115110   3.253   5.109   2.496
 4737SOL    HW215111   3.235   5.266   2.456
 4738SOL     OW15112   1.060   0.421   3.569
 4738SOL    HW115113   1.158   0.428   3.552
 4738SOL    HW215114   1.010   0.450   3.487
 4739SOL     OW15115   3.320   6.867   1.583
 4739SOL    HW115116   3.295   6.823   1.497
 4739SOL    HW215117   3.366   6.800   1.642
 4740SOL     OW15118   1.117   2.153   4.925
 4740SOL    HW115119   1.057   2.189   4.996
 4740SOL    HW215120   1.150   2.229   4.868
 4741SOL     OW15121   4.094   3.681   4.082
 4741SOL    HW115122   4.070   3.587   4.058
 4741SOL    HW215123   4.140   3.683   4.171
 4742SOL     OW15124   4.211   0.832   3.315
 4742SOL    HW115125   4.210   0.917   3.262
 4742SOL    HW215126   4.179   0.850   3.408
 4743SOL     OW15127   0.343   5.199   0.890
 4743SOL    HW115128   0.396   5.272   0.848
 4743SOL    HW215129   0.336   5.122   0.826
 4744SOL     OW15130   1.063   4.879   1.654
 4744SOL    HW115131   0.975   4.833   1.647
 4744SOL    HW215132   1.125   4.844   1.584
 4745SOL     OW15133   2.032   3.187   0.224
 4745SOL    HW115134   1.937   3.180   0.254
 4745SOL    HW215135   2.080   3.254   0.281
 4746SOL     OW15136   5.828   5.988   4.370
 4746SOL    HW115137   5.815   5.922   4.445
 4746SOL    HW215138   5.839   5.938   4.284
 4747SOL     OW15139   4.136   0.554   0.823
 4747SOL    HW115140   4.106   0.648   0.840
 4747SOL    HW215141   4.056   0.495   0.812
 4748SOL     OW15142   2.150   0.130   3.777
 4748SOL    HW115143   2.108   0.043   3.749
 4748SOL    HW215144   2.081   0.188   3.819
 4749SOL     OW15145   2.495   1.208   1.238
 4749SOL    HW115146   2.423   1.277   1.228
 4749SOL    HW215147   2.459   1.130   1.289
 4750SOL     OW15148   5.611   2.878   5.785
 4750SOL    HW115149   5.701   2.836   5.794
 4750SOL    HW215150   5.543   2.822   5.833
 4751SOL     OW15151   3.558   1.620   2.485
 4751SOL    HW115152   3.542   1.718   2.493
 4751SOL    HW215153   3.500   1.572   2.551
 4752SOL     OW15154   6.167   6.793   6.739
 4752SOL    HW115155   6.152   6.761   6.833
 4752SOL    HW215156   6.080   6.821   6.699
 4753SOL     OW15157   3.241   5.771   5.177
 4753SOL    HW115158   3.283   5.814   5.257
 4753SOL    HW215159   3.147   5.744   5.198
 4754SOL     OW15160   5.939   4.708   0.533
 4754SOL    HW115161   5.885   4.627   0.512
 4754SOL    HW215162   5.918   4.780   0.466
 4755SOL     OW15163   6.938   1.008   2.105
 4755SOL    HW115164   6.984   0.919   2.104
 4755SOL    HW215165   6.987   1.071   2.165
 4756SOL     OW15166   0.303   4.132   4.718
 4756SOL    HW115167   0.318   4.042   4.759
 4756SOL    HW215168   0.287   4.121   4.620
 4757SOL     OW15169   2.405   3.577   1.431
 4757SOL    HW115170   2.386   3.481   1.410
 4757SOL    HW215171   2.420   3.587   1.529
 4758SOL     OW15172   1.897   5.351   1.960
 4758SOL    HW115173   1.865   5.311   1.874
 4758SOL    HW215174   1.907   5.278   2.028
 4759SOL     OW15175   0.477   6.664   3.165
 4759SOL    HW115176   0.540   6.636   3.094
 4759SOL    HW215177   0.395   6.704   3.124
 4760SOL     OW15178   1.079   0.679   2.339
 4760SOL    HW115179   1.041   0.709   2.251
 4760SOL    HW215180   1.008   0.635   2.393
 4761SOL     OW15181   4.242   6.216   2.261
 4761SOL    HW115182   4.239   6.205   2.360
 4761SOL    HW215183   4.331   6.256   2.235
 4762SOL     OW15184   1.000   0.857   2.550
 4762SOL    HW115185   0.928   0.819   2.608
 4762SOL    HW215186   1.025   0.789   2.480
 4763SOL     OW15187   5.186   4.044   1.821
 4763SOL    HW115188   5.250   4.087   1.757
 4763SOL    HW215189   5.210   3.948   1.832
 4764SOL     OW15190   4.487   2.957   6.776
 4764SOL    HW115191   4.552   2.995   6.841
 4764SOL    HW215192   4.535   2.898   6.711
 4765SOL     OW15193   3.421   1.487   5.658
 4765SOL    HW115194   3.350   1.438   5.707
 4765SOL    HW215195   3.380   1.552   5.594
 4766SOL     OW15196   1.239   0.887   3.257
 4766SOL    HW115197   1.290   0.935   3.328
 4766SOL    HW215198   1.280   0.907   3.168
 4767SOL     OW15199   2.693   4.837   2.847
 4767SOL    HW115200   2.690   4.932   2.817
 4767SOL    HW215201   2.661   4.778   2.773
 4768SOL     OW15202   4.629   2.402   6.423
 4768SOL    HW115203   4.659   2.352   6.342
 4768SOL    HW215204   4.529   2.402   6.426
 4769SOL     OW15205   3.324   3.087   0.444
 4769SOL    HW115206   3.234   3.119   0.473
 4769SOL    HW215207   3.329   2.987   0.456
 4770SOL     OW15208   7.008   1.696   3.849
 4770SOL    HW115209   6.985   1.735   3.938
 4770SOL    HW215210   7.018   1.769   3.781
 4771SOL     OW15211   2.862   1.207   4.265
 4771SOL    HW115212   2.774   1.212   4.218
 4771SOL    HW215213   2.897   1.300   4.280
 4772SOL     OW15214   2.856   5.280   2.432
 4772SOL    HW115215   2.921   5.332   2.488
 4772SOL    HW215216   2.788   5.342   2.393
 4773SOL     OW15217   3.140   5.508   4.070
 4773SOL    HW115218   3.238   5.529   4.065
 4773SOL    HW215219   3.089   5.591   4.092
 4774SOL     OW15220   0.504   4.488   0.460
 4774SOL    HW115221   0.536   4.508   0.367
 4774SOL    HW215222   0.579   4.451   0.514
 4775SOL     OW15223   5.383   5.142   4.252
 4775SOL    HW115224   5.408   5.068   4.190
 4775SOL    HW215225   5.391   5.111   4.347
 4776SOL     OW15226   6.889   1.639   5.416
 4776SOL    HW115227   6.959   1.590   5.468
 4776SOL    HW215228   6.857   1.717   5.469
 4777SOL     OW15229   1.075   6.677   3.459
 4777SOL    HW115230   1.106   6.599   3.514
 4777SOL    HW215231   0.975   6.684   3.466
 4778SOL     OW15232   1.354   0.479   0.992
 4778SOL    HW115233   1.272   0.441   1.035
 4778SOL    HW215234   1.369   0.435   0.903
 4779SOL     OW15235   4.744   1.593   4.512
 4779SOL    HW115236   4.715   1.639   4.428
 4779SOL    HW215237   4.735   1.656   4.589
 4780SOL     OW15238   4.986   2.811   4.611
 4780SOL    HW115239   5.001   2.786   4.707
 4780SOL    HW215240   4.891   2.837   4.598
 4781SOL     OW15241   3.007   5.105   1.534
 4781SOL    HW115242   2.947   5.039   1.489
 4781SOL    HW215243   2.956   5.189   1.553
 4782SOL     OW15244   0.954   0.265   2.970
 4782SOL    HW115245   1.049   0.295   2.968
 4782SOL    HW215246   0.899   0.321   2.908
 4783SOL     OW15247   1.070   4.117   6.715
 4783SOL    HW115248   0.972   4.133   6.712
 4783SOL    HW215249   1.091   4.028   6.674
 4784SOL     OW15250   6.015   2.511   6.903
 4784SOL    HW115251   5.996   2.413   6.913
 4784SOL    HW215252   6.036   2.530   6.807
 4785SOL     OW15253   0.621   1.547   4.429
 4785SOL    HW115254   0.544   1.514   4.484
 4785SOL    HW215255   0.701   1.492   4.448
 4786SOL     OW15256   1.646   6.493   0.502
 4786SOL    HW115257   1.665   6.487   0.600
 4786SOL    HW215258   1.584   6.419   0.476
 4787SOL     OW15259   4.502   1.697   5.410
 4787SOL    HW115260   4.512   1.692   5.310
 4787SOL    HW215261   4.415   1.741   5.433
 4788SOL     OW15262   6.757   5.809   0.869
 4788SOL    HW115263   6.763   5.802   0.969
 4788SOL    HW215264   6.694   5.739   0.835
 4789SOL     OW15265   5.569   0.972   1.558
 4789SOL    HW115266   5.553   1.071   1.557
 4789SOL    HW215267   5.481   0.924   1.551
 4790SOL     OW15268   0.625   2.597   6.504
 4790SOL    HW115269   0.615   2.509   6.551
 4790SOL    HW215270   0.605   2.585   6.407
 4791SOL     OW15271   0.921   0.721   6.564
 4791SOL    HW115272   1.020   0.723   6.551
 4791SOL    HW215273   0.884   0.637   6.523
 4792SOL     OW15274   0.794   4.032   1.713
 4792SOL    HW115275   0.854   4.033   1.793
 4792SOL    HW215276   0.850   4.020   1.630
 4793SOL     OW15277   1.217   3.092   5.026
 4793SOL    HW115278   1.315   3.075   5.031
 4793SOL    HW215279   1.189   3.149   5.103
 4794SOL     OW15280   5.787   1.557   6.335
 4794SOL    HW115281   5.775   1.458   6.341
 4794SOL    HW215282   5.798   1.595   6.427
 4795SOL     OW15283   6.923   6.604   6.981
 4795SOL    HW115284   6.883   6.596   6.890
 4795SOL    HW215285   6.993   6.675   6.981
 4796SOL     OW15286   5.759   1.942   5.823
 4796SOL    HW115287   5.689   1.922   5.892
 4796SOL    HW215288   5.848   1.953   5.868
 4797SOL     OW15289   2.819   5.353   5.386
 4797SOL    HW115290   2.849   5.434   5.437
 4797SOL    HW215291   2.743   5.309   5.434
 4798SOL     OW15292   3.576   6.082   6.801
 4798SOL    HW115293   3.585   6.103   6.899
 4798SOL    HW215294   3.665   6.056   6.764
 4799SOL     OW15295   4.365   3.696   1.229
 4799SOL    HW115296   4.275   3.652   1.225
 4799SOL    HW215297   4.384   3.741   1.141
 4800SOL     OW15298   0.802   4.444   0.001
 4800SOL    HW115299   0.872   4.464   6.957
 4800SOL    HW215300   0.743   4.370   6.990
 4801SOL     OW15301   4.939   3.449   3.435
 4801SOL    HW115302   4.913   3.536   3.477
 4801SOL    HW215303   5.026   3.419   3.472
 4802SOL     OW15304   6.795   0.573   4.670
 4802SOL    HW115305   6.827   0.632   4.596
 4802SOL    HW215306   6.696   0.583   4.681
 4803SOL     OW15307   5.254   3.535   5.676
 4803SOL    HW115308   5.202   3.456   5.643
 4803SOL    HW215309   5.350   3.511   5.684
 4804SOL     OW15310   5.763   2.930   0.832
 4804SOL    HW115311   5.683   2.925   0.771
 4804SOL    HW215312   5.733   2.917   0.926
 4805SOL     OW15313   5.944   0.505   5.411
 4805SOL    HW115314   5.887   0.505   5.329
 4805SOL    HW215315   5.890   0.539   5.489
 4806SOL     OW15316   1.762   2.910   3.260
 4806SOL    HW115317   1.788   2.837   3.196
 4806SOL    HW215318   1.810   2.994   3.236
 4807SOL     OW15319   1.247   3.744   0.828
 4807SOL    HW115320   1.161   3.722   0.875
 4807SOL    HW215321   1.323   3.700   0.876
 4808SOL     OW15322   2.679   6.520   3.447
 4808SOL    HW115323   2.761   6.518   3.389
 4808SOL    HW215324   2.706   6.526   3.543
 4809SOL     OW15325   2.787   3.760   0.778
 4809SOL    HW115326   2.869   3.703   0.780
 4809SOL    HW215327   2.736   3.741   0.694
 4810SOL     OW15328   1.801   5.550   4.544
 4810SOL    HW115329   1.736   5.539   4.469
 4810SOL    HW215330   1.765   5.616   4.610
 4811SOL     OW15331   3.263   3.142   4.822
 4811SOL    HW115332   3.268   3.146   4.922
 4811SOL    HW215333   3.223   3.054   4.795
 4812SOL     OW15334   1.734   6.227   1.184
 4812SOL    HW115335   1.758   6.178   1.268
 4812SOL    HW215336   1.654   6.185   1.142
 4813SOL     OW15337   0.863   2.450   5.110
 4813SOL    HW115338   0.789   2.384   5.096
 4813SOL    HW215339   0.824   2.540   5.132
 4814SOL     OW15340   4.859   1.585   0.172
 4814SOL    HW115341   4.802   1.594   0.091
 4814SOL    HW215342   4.949   1.549   0.146
 4815SOL     OW15343   6.702   4.008   3.179
 4815SOL    HW115344   6.744   4.047   3.097
 4815SOL    HW215345   6.661   4.082   3.233
 4816SOL     OW15346   2.312   0.420   3.023
 4816SOL    HW115347   2.394   0.478   3.020
 4816SOL    HW215348   2.333   0.330   2.985
 4817SOL     OW15349   4.556   3.336   6.794
 4817SOL    HW115350   4.538   3.279   6.875
 4817SOL    HW215351   4.628   3.401   6.815
 4818SOL     OW15352   4.691   6.097   5.633
 4818SOL    HW115353   4.784   6.106   5.597
 4818SOL    HW215354   4.652   6.188   5.647
 4819SOL     OW15355   3.715   0.015   0.674
 4819SOL    HW115356   3.695   6.984   0.756
 4819SOL    HW215357   3.799   0.068   0.690
 4820SOL     OW15358   0.442   5.491   1.071
 4820SOL    HW115359   0.466   5.401   1.108
 4820SOL    HW215360   0.523   5.534   1.032
 4821SOL     OW15361   6.783   5.698   1.411
 4821SOL    HW115362   6.701   5.644   1.392
 4821SOL    HW215363   6.772   5.744   1.499
 4822SOL     OW15364   0.442   3.624   2.177
 4822SOL    HW115365   0.374   3.551   2.179
 4822SOL    HW215366   0.481   3.630   2.085
 4823SOL     OW15367   6.526   1.963   2.582
 4823SOL    HW115368   6.599   1.996   2.522
 4823SOL    HW215369   6.443   1.948   2.527
 4824SOL     OW15370   4.886   1.113   2.825
 4824SOL    HW115371   4.863   1.030   2.775
 4824SOL    HW215372   4.804   1.149   2.871
 4825SOL     OW15373   2.303   4.327   4.492
 4825SOL    HW115374   2.255   4.415   4.495
 4825SOL    HW215375   2.377   4.332   4.425
 4826SOL     OW15376   0.730   5.948   6.807
 4826SOL    HW115377   0.669   5.960   6.885
 4826SOL    HW215378   0.768   5.856   6.809
 4827SOL     OW15379   5.191   0.552   6.596
 4827SOL    HW115380   5.126   0.477   6.607
 4827SOL    HW215381   5.142   0.639   6.593
 4828SOL     OW15382   6.606   2.492   6.779
 4828SOL    HW115383   6.686   2.516   6.724
 4828SOL    HW215384   6.587   2.395   6.768
 4829SOL     OW15385   2.468   1.129   5.591
 4829SOL    HW115386   2.407   1.120   5.513
 4829SOL    HW215387   2.487   1.038   5.628
 4830SOL     OW15388   6.138   4.730   4.813
 4830SOL    HW115389   6.056   4.783   4.793
 4830SOL    HW215390   6.137   4.703   4.909
 4831SOL     OW15391   0.113   1.966   6.688
 4831SOL    HW115392   0.016   1.952   6.669
 4831SOL    HW215393   0.163   1.972   6.602
 4832SOL     OW15394   1.882   2.670   6.404
 4832SOL    HW115395   1.921   2.600   6.343
 4832SOL    HW215396   1.929   2.668   6.492
 4833SOL     OW15397   6.694   2.405   2.114
 4833SOL    HW115398   6.654   2.491   2.145
 4833SOL    HW215399   6.753   2.421   2.035
 4834SOL     OW15400   5.783   0.510   3.299
 4834SOL    HW115401   5.741   0.424   3.327
 4834SOL    HW215402   5.878   0.494   3.272
 4835SOL     OW15403   2.384   2.360   5.701
 4835SOL    HW115404   2.301   2.311   5.726
 4835SOL    HW215405   2.391   2.365   5.601
 4836SOL     OW15406   5.933   4.844   3.482
 4836SOL    HW115407   5.899   4.832   3.576
 4836SOL    HW215408   5.885   4.780   3.422
 4837SOL     OW15409   0.106   5.266   1.927
 4837SOL    HW115410   0.131   5.279   1.831
 4837SOL    HW215411   0.008   5.284   1.938
 4838SOL     OW15412   2.949   6.595   2.681
 4838SOL    HW115413   2.850   6.595   2.669
 4838SOL    HW215414   2.986   6.684   2.656
 4839SOL     OW15415   0.553   0.098   6.027
 4839SOL    HW115416   0.632   0.039   6.039
 4839SOL    HW215417   0.547   0.162   6.103
 4840SOL     OW15418   6.441   5.400   5.890
 4840SOL    HW115419   6.471   5.307   5.910
 4840SOL    HW215420   6.425   5.409   5.791
 4841SOL     OW15421   1.158   5.373   2.082
 4841SOL    HW115422   1.119   5.326   2.004
 4841SOL    HW215423   1.102   5.454   2.103
 4842SOL     OW15424   3.664   6.769   0.386
 4842SOL    HW115425   3.570   6.774   0.422
 4842SOL    HW215426   3.668   6.815   0.297
 4843SOL     OW15427   2.335   3.998   0.657
 4843SOL    HW115428   2.320   3.906   0.620
 4843SOL    HW215429   2.413   3.997   0.719
 4844SOL     OW15430   0.211   1.164   5.580
 4844SOL    HW115431   0.129   1.107   5.577
 4844SOL    HW215432   0.292   1.109   5.559
 4845SOL     OW15433   5.932   6.663   3.813
 4845SOL    HW115434   5.906   6.666   3.716
 4845SOL    HW215435   6.019   6.614   3.823
 4846SOL     OW15436   0.192   4.387   5.103
 4846SOL    HW115437   0.190   4.319   5.177
 4846SOL    HW215438   0.277   4.439   5.109
 4847SOL     OW15439   5.128   3.786   4.224
 4847SOL    HW115440   5.183   3.791   4.140
 4847SOL    HW215441   5.184   3.746   4.297
 4848SOL     OW15442   3.117   3.632   1.171
 4848SOL    HW115443   3.094   3.588   1.257
 4848SOL    HW215444   3.205   3.598   1.138
 4849SOL     OW15445   2.515   6.572   6.873
 4849SOL    HW115446   2.475   6.517   6.801
 4849SOL    HW215447   2.583   6.518   6.923
 4850SOL     OW15448   3.503   6.844   3.138
 4850SOL    HW115449   3.508   6.856   3.237
 4850SOL    HW215450   3.445   6.766   3.116
 4851SOL     OW15451   5.319   1.889   5.397
 4851SOL    HW115452   5.255   1.964   5.415
 4851SOL    HW215453   5.298   1.812   5.457
 4852SOL     OW15454   0.898   2.065   1.608
 4852SOL    HW115455   0.953   2.057   1.524
 4852SOL    HW215456   0.955   2.042   1.687
 4853SOL     OW15457   3.181   0.644   0.766
 4853SOL    HW115458   3.154   0.639   0.670
 4853SOL    HW215459   3.164   0.556   0.810
 4854SOL     OW15460   4.560   0.126   5.319
 4854SOL    HW115461   4.550   0.100   5.223
 4854SOL    HW215462   4.485   0.187   5.345
 4855SOL     OW15463   0.039   2.735   2.469
 4855SOL    HW115464   0.019   2.644   2.431
 4855SOL    HW215465   0.079   2.793   2.398
 4856SOL     OW15466   6.947   4.868   3.067
 4856SOL    HW115467   6.878   4.922   3.019
 4856SOL    HW215468   6.915   4.848   3.160
 4857SOL     OW15469   6.661   1.295   5.954
 4857SOL    HW115470   6.632   1.388   5.934
 4857SOL    HW215471   6.620   1.266   6.041
 4858SOL     OW15472   1.417   7.006   2.935
 4858SOL    HW115473   1.473   0.051   2.984
 4858SOL    HW215474   1.435   7.013   2.837
 4859SOL     OW15475   3.438   6.817   5.702
 4859SOL    HW115476   3.381   6.758   5.645
 4859SOL    HW215477   3.412   6.913   5.689
 4860SOL     OW15478   2.758   5.329   0.071
 4860SOL    HW115479   2.723   5.291   7.008
 4860SOL    HW215480   2.838   5.386   0.052
 4861SOL     OW15481   4.259   4.194   5.907
 4861SOL    HW115482   4.248   4.102   5.945
 4861SOL    HW215483   4.173   4.243   5.912
 4862SOL     OW15484   2.056   0.520   0.466
 4862SOL    HW115485   2.009   0.608   0.466
 4862SOL    HW215486   1.989   0.447   0.453
 4863SOL     OW15487   4.930   3.844   5.760
 4863SOL    HW115488   4.988   3.923   5.737
 4863SOL    HW215489   4.959   3.765   5.707
 4864SOL     OW15490   3.391   1.450   4.053
 4864SOL    HW115491   3.407   1.502   4.137
 4864SOL    HW215492   3.344   1.365   4.075
 4865SOL     OW15493   1.348   5.700   5.133
 4865SOL    HW115494   1.372   5.674   5.226
 4865SOL    HW215495   1.325   5.619   5.080
 4866SOL     OW15496   0.227   4.189   5.558
 4866SOL    HW115497   0.313   4.139   5.557
 4866SOL    HW215498   0.169   4.153   5.631
 4867SOL     OW15499   3.780   1.272   3.469
 4867SOL    HW115500   3.874   1.295   3.444
 4867SOL    HW215501   3.718   1.295   3.394
 4868SOL     OW15502   0.071   5.843   1.610
 4868SOL    HW115503   0.146   5.878   1.665
 4868SOL    HW215504   0.106   5.777   1.544
 4869SOL     OW15505   0.118   0.663   0.499
 4869SOL    HW115506   0.075   0.741   0.544
 4869SOL    HW215507   0.048   0.594   0.479
 4870SOL     OW15508   1.728   0.646   0.655
 4870SOL    HW115509   1.764   0.585   0.726
 4870SOL    HW215510   1.804   0.686   0.604
 4871SOL     OW15511   0.688   1.865   4.078
 4871SOL    HW115512   0.608   1.918   4.107
 4871SOL    HW215513   0.668   1.767   4.088
 4872SOL     OW15514   5.368   0.548   2.959
 4872SOL    HW115515   5.440   0.618   2.957
 4872SOL    HW215516   5.314   0.558   3.043
 4873SOL     OW15517   6.398   0.207   3.763
 4873SOL    HW115518   6.323   0.241   3.705
 4873SOL    HW215519   6.470   0.276   3.767
 4874SOL     OW15520   6.008   4.543   2.555
 4874SOL    HW115521   5.977   4.456   2.592
 4874SOL    HW215522   6.090   4.573   2.604
 4875SOL     OW15523   6.722   6.876   4.649
 4875SOL    HW115524   6.769   6.937   4.712
 4875SOL    HW215525   6.775   6.793   4.635
 4876SOL     OW15526   5.920   1.759   2.148
 4876SOL    HW115527   5.952   1.829   2.212
 4876SOL    HW215528   5.950   1.669   2.180
 4877SOL     OW15529   0.728   1.515   0.486
 4877SOL    HW115530   0.793   1.589   0.499
 4877SOL    HW215531   0.654   1.546   0.426
 4878SOL     OW15532   6.384   4.296   4.453
 4878SOL    HW115533   6.427   4.269   4.367
 4878SOL    HW215534   6.291   4.329   4.435
 4879SOL     OW15535   5.750   1.011   2.770
 4879SOL    HW115536   5.711   0.919   2.762
 4879SOL    HW215537   5.700   1.074   2.711
 4880SOL     OW15538   0.357   3.435   6.621
 4880SOL    HW115539   0.273   3.482   6.647
 4880SOL    HW215540   0.428   3.451   6.690
 4881SOL     OW15541   6.698   3.713   2.178
 4881SOL    HW115542   6.750   3.799   2.181
 4881SOL    HW215543   6.699   3.670   2.268
 4882SOL     OW15544   5.095   2.223   4.026
 4882SOL    HW115545   5.081   2.134   4.071
 4882SOL    HW215546   5.099   2.295   4.094
 4883SOL     OW15547   0.075   4.126   6.355
 4883SOL    HW115548   0.125   4.041   6.338
 4883SOL    HW215549   7.005   4.117   6.321
 4884SOL     OW15550   1.773   2.324   1.517
 4884SOL    HW115551   1.760   2.366   1.428
 4884SOL    HW215552   1.855   2.362   1.560
 4885SOL     OW15553   1.109   6.241   6.484
 4885SOL    HW115554   1.181   6.237   6.553
 4885SOL    HW215555   1.147   6.218   6.394
 4886SOL     OW15556   3.572   0.872   1.981
 4886SOL    HW115557   3.518   0.883   1.898
 4886SOL    HW215558   3.667   0.897   1.963
 4887SOL     OW15559   5.254   5.662   0.653
 4887SOL    HW115560   5.289   5.599   0.722
 4887SOL    HW215561   5.181   5.717   0.692
 4888SOL     OW15562   3.672   6.758   2.724
 4888SOL    HW115563   3.758   6.742   2.773
 4888SOL    HW215564   3.601   6.784   2.789
 4889SOL     OW15565   5.253   3.323   3.788
 4889SOL    HW115566   5.224   3.314   3.693
 4889SOL    HW215567   5.338   3.273   3.803
 4890SOL     OW15568   6.698   2.321   4.828
 4890SOL    HW115569   6.768   2.363   4.772
 4890SOL    HW215570   6.607   2.348   4.795
 4891SOL     OW15571   3.157   5.737   0.237
 4891SOL    HW115572   3.120   5.659   0.288
 4891SOL    HW215573   3.096   5.758   0.161
 4892SOL     OW15574   5.148   4.790   1.838
 4892SOL    HW115575   5.208   4.847   1.895
 4892SOL    HW215576   5.173   4.694   1.849
 4893SOL     OW15577   2.774   2.781   0.879
 4893SOL    HW115578   2.797   2.879   0.874
 4893SOL    HW215579   2.675   2.771   0.885
 4894SOL     OW15580   4.850   5.923   0.272
 4894SOL    HW115581   4.811   5.859   0.205
 4894SOL    HW215582   4.949   5.927   0.259
 4895SOL     OW15583   6.297   3.548   5.253
 4895SOL    HW115584   6.354   3.613   5.204
 4895SOL    HW215585   6.295   3.461   5.203
 4896SOL     OW15586   2.369   4.682   5.257
 4896SOL    HW115587   2.428   4.637   5.191
 4896SOL    HW215588   2.389   4.648   5.349
 4897SOL     OW15589   3.129   1.845   5.877
 4897SOL    HW115590   3.074   1.794   5.943
 4897SOL    HW215591   3.080   1.926   5.848
 4898SOL     OW15592   4.835   2.448   3.231
 4898SOL    HW115593   4.761   2.513   3.247
 4898SOL    HW215594   4.900   2.487   3.166
 4899SOL     OW15595   6.304   5.306   1.100
 4899SOL    HW115596   6.235   5.240   1.130
 4899SOL    HW215597   6.359   5.266   1.027
 4900SOL     OW15598   3.341   5.510   5.802
 4900SOL    HW115599   3.314   5.502   5.706
 4900SOL    HW215600   3.439   5.496   5.810
 4901SOL     OW15601   2.465   0.724   6.494
 4901SOL    HW115602   2.475   0.668   6.411
 4901SOL    HW215603   2.374   0.709   6.533
 4902SOL     OW15604   2.209   6.963   5.699
 4902SOL    HW115605   2.226   0.034   5.671
 4902SOL    HW215606   2.296   6.914   5.710
 4903SOL     OW15607   5.207   3.716   2.992
 4903SOL    HW115608   5.154   3.681   2.915
 4903SOL    HW215609   5.303   3.694   2.980
 4904SOL     OW15610   2.666   0.457   2.305
 4904SOL    HW115611   2.588   0.403   2.272
 4904SOL    HW215612   2.723   0.482   2.227
 4905SOL     OW15613   2.463   1.346   1.593
 4905SOL    HW115614   2.512   1.264   1.620
 4905SOL    HW215615   2.528   1.413   1.555
 4906SOL     OW15616   5.632   3.671   5.016
 4906SOL    HW115617   5.603   3.601   5.081
 4906SOL    HW215618   5.563   3.682   4.945
 4907SOL     OW15619   4.511   1.807   0.488
 4907SOL    HW115620   4.487   1.721   0.532
 4907SOL    HW215621   4.430   1.865   0.482
 4908SOL     OW15622   2.361   6.787   6.992
 4908SOL    HW115623   2.377   6.692   6.965
 4908SOL    HW215624   2.306   6.833   6.922
 4909SOL     OW15625   5.034   6.507   4.930
 4909SOL    HW115626   5.012   6.591   4.979
 4909SOL    HW215627   4.953   6.471   4.885
 4910SOL     OW15628   4.331   2.134   6.471
 4910SOL    HW115629   4.365   2.113   6.562
 4910SOL    HW215630   4.240   2.094   6.459
 4911SOL     OW15631   6.514   4.683   3.801
 4911SOL    HW115632   6.578   4.645   3.734
 4911SOL    HW215633   6.544   4.774   3.828
 4912SOL     OW15634   5.998   3.629   4.457
 4912SOL    HW115635   5.982   3.570   4.536
 4912SOL    HW215636   6.052   3.708   4.485
 4913SOL     OW15637   1.434   4.120   6.047
 4913SOL    HW115638   1.417   4.211   6.009
 4913SOL    HW215639   1.515   4.080   6.004
 4914SOL     OW15640   2.909   6.880   4.224
 4914SOL    HW115641   2.850   6.852   4.300
 4914SOL    HW215642   2.949   6.800   4.180
 4915SOL     OW15643   4.886   6.932   4.875
 4915SOL    HW115644   4.876   6.983   4.789
 4915SOL    HW215645   4.903   6.996   4.950
 4916SOL     OW15646   6.073   3.014   3.762
 4916SOL    HW115647   6.026   3.079   3.820
 4916SOL    HW215648   6.167   3.045   3.747
 4917SOL     OW15649   5.060   6.131   6.960
 4917SOL    HW115650   5.099   6.055   6.909
 4917SOL    HW215651   4.994   6.179   6.902
 4918SOL     OW15652   4.500   6.244   4.048
 4918SOL    HW115653   4.408   6.207   4.053
 4918SOL    HW215654   4.509   6.302   3.967
 4919SOL     OW15655   4.941   4.097   1.893
 4919SOL    HW115656   5.033   4.077   1.861
 4919SOL    HW215657   4.874   4.069   1.824
 4920SOL     OW15658   6.166   0.997   5.730
 4920SOL    HW115659   6.156   1.055   5.811
 4920SOL    HW215660   6.108   1.032   5.657
 4921SOL     OW15661   6.354   0.600   2.225
 4921SOL    HW115662   6.437   0.593   2.280
 4921SOL    HW215663   6.378   0.637   2.135
 4922SOL     OW15664   4.016   0.032   5.950
 4922SOL    HW115665   3.969   7.000   6.020
 4922SOL    HW215666   4.088   7.001   5.907
 4923SOL     OW15667   3.860   1.253   2.400
 4923SOL    HW115668   3.767   1.271   2.370
 4923SOL    HW215669   3.861   1.173   2.460
 4924SOL     OW15670   2.773   1.832   4.590
 4924SOL    HW115671   2.712   1.907   4.613
 4924SOL    HW215672   2.863   1.869   4.565
 4925SOL     OW15673   5.340   0.160   3.554
 4925SOL    HW115674   5.333   0.189   3.459
 4925SOL    HW215675   5.311   0.234   3.614
 4926SOL     OW15676   4.538   2.491   2.327
 4926SOL    HW115677   4.453   2.438   2.325
 4926SOL    HW215678   4.599   2.461   2.255
 4927SOL     OW15679   2.389   2.122   0.611
 4927SOL    HW115680   2.401   2.025   0.590
 4927SOL    HW215681   2.374   2.133   0.710
 4928SOL     OW15682   1.058   1.619   1.630
 4928SOL    HW115683   0.969   1.643   1.669
 4928SOL    HW215684   1.048   1.543   1.567
 4929SOL     OW15685   6.748   0.193   5.100
 4929SOL    HW115686   6.835   0.233   5.128
 4929SOL    HW215687   6.699   0.258   5.042
 4930SOL     OW15688   4.627   5.787   2.329
 4930SOL    HW115689   4.685   5.801   2.248
 4930SOL    HW215690   4.680   5.740   2.400
 4931SOL     OW15691   4.494   0.299   1.248
 4931SOL    HW115692   4.587   0.335   1.246
 4931SOL    HW215693   4.495   0.207   1.288
 4932SOL     OW15694   3.947   3.888   4.013
 4932SOL    HW115695   4.012   3.814   4.032
 4932SOL    HW215696   3.919   3.930   4.100
 4933SOL     OW15697   1.951   0.939   5.045
 4933SOL    HW115698   1.871   0.941   4.987
 4933SOL    HW215699   1.951   1.019   5.105
 4934SOL     OW15700   2.043   7.005   2.864
 4934SOL    HW115701   2.141   7.022   2.880
 4934SOL    HW215702   2.030   6.971   2.771
 4935SOL     OW15703   6.474   0.310   4.712
 4935SOL    HW115704   6.496   0.302   4.615
 4935SOL    HW215705   6.452   0.219   4.748
 4936SOL     OW15706   4.502   2.385   0.326
 4936SOL    HW115707   4.543   2.453   0.267
 4936SOL    HW215708   4.513   2.413   0.422
 4937SOL     OW15709   3.960   2.846   5.260
 4937SOL    HW115710   3.977   2.751   5.285
 4937SOL    HW215711   4.028   2.905   5.304
 4938SOL     OW15712   2.794   5.109   6.441
 4938SOL    HW115713   2.768   5.134   6.348
 4938SOL    HW215714   2.714   5.117   6.501
 4939SOL     OW15715   5.170   2.994   6.536
 4939SOL    HW115716   5.130   3.083   6.513
 4939SOL    HW215717   5.242   3.007   6.604
 4940SOL     OW15718   0.792   6.047   3.151
 4940SOL    HW115719   0.876   6.019   3.104
 4940SOL    HW215720   0.798   6.143   3.177
 4941SOL     OW15721   6.580   0.411   0.133
 4941SOL    HW115722   6.606   0.354   0.055
 4941SOL    HW215723   6.520   0.485   0.102
 4942SOL     OW15724   5.294   2.747   5.903
 4942SOL    HW115725   5.291   2.691   5.985
 4942SOL    HW215726   5.211   2.803   5.898
 4943SOL     OW15727   6.697   3.221   1.265
 4943SOL    HW115728   6.656   3.276   1.192
 4943SOL    HW215729   6.625   3.176   1.318
 4944SOL     OW15730   1.908   3.677   2.311
 4944SOL    HW115731   1.918   3.579   2.297
 4944SOL    HW215732   1.820   3.695   2.355
 4945SOL     OW15733   6.760   6.065   3.820
 4945SOL    HW115734   6.725   5.987   3.872
 4945SOL    HW215735   6.810   6.033   3.740
 4946SOL     OW15736   6.558   4.481   2.631
 4946SOL    HW115737   6.471   4.498   2.583
 4946SOL    HW215738   6.540   4.472   2.729
 4947SOL     OW15739   5.724   6.983   0.312
 4947SOL    HW115740   5.718   0.059   0.327
 4947SOL    HW215741   5.791   6.944   0.375
 4948SOL     OW15742   2.489   1.055   2.027
 4948SOL    HW115743   2.435   1.014   1.954
 4948SOL    HW215744   2.435   1.127   2.072
 4949SOL     OW15745   5.516   2.161   5.873
 4949SOL    HW115746   5.464   2.174   5.957
 4949SOL    HW215747   5.456   2.174   5.794
 4950SOL     OW15748   3.437   5.245   4.093
 4950SOL    HW115749   3.449   5.193   4.008
 4950SOL    HW215750   3.425   5.181   4.169
 4951SOL     OW15751   4.604   2.597   3.984
 4951SOL    HW115752   4.631   2.502   3.996
 4951SOL    HW215753   4.562   2.631   4.068
 4952SOL     OW15754   6.020   5.376   4.660
 4952SOL    HW115755   6.043   5.464   4.701
 4952SOL    HW215756   6.017   5.306   4.732
 4953SOL     OW15757   0.851   5.286   1.823
 4953SOL    HW115758   0.793   5.282   1.904
 4953SOL    HW215759   0.891   5.377   1.816
 4954SOL     OW15760   0.321   6.749   5.762
 4954SOL    HW115761   0.421   6.757   5.754
 4954SOL    HW215762   0.298   6.677   5.827
 4955SOL     OW15763   1.454   0.453   1.855
 4955SOL    HW115764   1.378   0.390   1.841
 4955SOL    HW215765   1.496   0.477   1.767
 4956SOL     OW15766   6.201   5.656   2.625
 4956SOL    HW115767   6.175   5.665   2.721
 4956SOL    HW215768   6.167   5.734   2.573
 4957SOL     OW15769   1.443   5.309   4.604
 4957SOL    HW115770   1.478   5.275   4.692
 4957SOL    HW215771   1.424   5.232   4.543
 4958SOL     OW15772   6.735   6.231   0.210
 4958SOL    HW115773   6.810   6.268   0.266
 4958SOL    HW215774   6.670   6.184   0.269
 4959SOL     OW15775   1.097   2.457   0.270
 4959SOL    HW115776   1.005   2.495   0.277
 4959SOL    HW215777   1.150   2.510   0.203
 4960SOL     OW15778   4.159   6.340   5.374
 4960SOL    HW115779   4.156   6.302   5.282
 4960SOL    HW215780   4.250   6.327   5.413
 4961SOL     OW15781   5.729   6.863   4.704
 4961SOL    HW115782   5.806   6.926   4.691
 4961SOL    HW215783   5.680   6.886   4.788
 4962SOL     OW15784   5.967   2.217   2.396
 4962SOL    HW115785   6.033   2.261   2.458
 4962SOL    HW215786   5.942   2.281   2.323
 4963SOL     OW15787   0.806   4.715   1.627
 4963SOL    HW115788   0.736   4.780   1.656
 4963SOL    HW215789   0.773   4.662   1.549
 4964SOL     OW15790   3.760   0.924   3.872
 4964SOL    HW115791   3.706   1.004   3.843
 4964SOL    HW215792   3.803   0.882   3.792
 4965SOL     OW15793   0.139   5.612   5.103
 4965SOL    HW115794   0.162   5.642   5.196
 4965SOL    HW215795   0.061   5.550   5.107
 4966SOL     OW15796   5.145   5.660   5.918
 4966SOL    HW115797   5.152   5.601   5.998
 4966SOL    HW215798   5.208   5.737   5.928
 4967SOL     OW15799   5.618   0.749   6.839
 4967SOL    HW115800   5.546   0.682   6.821
 4967SOL    HW215801   5.578   0.830   6.881
 4968SOL     OW15802   5.522   3.260   6.737
 4968SOL    HW115803   5.532   3.292   6.643
 4968SOL    HW215804   5.611   3.231   6.772
 4969SOL     OW15805   0.845   0.462   1.458
 4969SOL    HW115806   0.766   0.493   1.405
 4969SOL    HW215807   0.819   0.384   1.514
 4970SOL     OW15808   2.103   2.029   6.141
 4970SOL    HW115809   2.109   2.017   6.042
 4970SOL    HW215810   2.149   1.952   6.186
 4971SOL     OW15811   6.460   5.887   3.291
 4971SOL    HW115812   6.441   5.879   3.193
 4971SOL    HW215813   6.530   5.820   3.317
 4972SOL     OW15814   2.085   2.320   4.382
 4972SOL    HW115815   2.098   2.346   4.286
 4972SOL    HW215816   2.100   2.222   4.392
 4973SOL     OW15817   4.309   5.834   3.151
 4973SOL    HW115818   4.286   5.736   3.156
 4973SOL    HW215819   4.317   5.861   3.055
 4974SOL     OW15820   3.555   6.916   6.061
 4974SOL    HW115821   3.542   6.949   6.154
 4974SOL    HW215822   3.556   6.993   5.998
 4975SOL     OW15823   3.934   6.069   7.002
 4975SOL    HW115824   3.963   6.151   6.952
 4975SOL    HW215825   4.009   6.038   0.038
 4976SOL     OW15826   2.738   1.271   4.928
 4976SOL    HW115827   2.744   1.234   4.835
 4976SOL    HW215828   2.822   1.320   4.950
 4977SOL     OW15829   3.728   3.057   2.188
 4977SOL    HW115830   3.794   3.056   2.262
 4977SOL    HW215831   3.707   3.152   2.163
 4978SOL     OW15832   5.931   3.661   6.290
 4978SOL    HW115833   5.837   3.696   6.290
 4978SOL    HW215834   5.934   3.575   6.340
 4979SOL     OW15835   1.302   1.870   3.734
 4979SOL    HW115836   1.247   1.795   3.771
 4979SOL    HW215837   1.243   1.933   3.684
 4980SOL     OW15838   2.450   4.857   2.444
 4980SOL    HW115839   2.362   4.906   2.450
 4980SOL    HW215840   2.493   4.857   2.534
 4981SOL     OW15841   5.318   5.889   5.983
 4981SOL    HW115842   5.348   5.955   6.052
 4981SOL    HW215843   5.378   5.809   5.986
 4982SOL     OW15844   2.956   1.840   6.543
 4982SOL    HW115845   2.924   1.810   6.633
 4982SOL    HW215846   2.914   1.927   6.519
 4983SOL     OW15847   6.741   1.710   4.368
 4983SOL    HW115848   6.647   1.744   4.363
 4983SOL    HW215849   6.781   1.735   4.456
 4984SOL     OW15850   5.673   5.641   3.958
 4984SOL    HW115851   5.583   5.638   3.915
 4984SOL    HW215852   5.743   5.619   3.891
 4985SOL     OW15853   5.958   3.672   1.306
 4985SOL    HW115854   5.912   3.643   1.222
 4985SOL    HW215855   5.983   3.769   1.299
 4986SOL     OW15856   3.207   5.297   3.872
 4986SOL    HW115857   3.255   5.384   3.863
 4986SOL    HW215858   3.228   5.257   3.961
 4987SOL     OW15859   1.586   2.937   0.118
 4987SOL    HW115860   1.620   2.897   0.204
 4987SOL    HW215861   1.487   2.941   0.120
 4988SOL     OW15862   2.230   1.965   4.930
 4988SOL    HW115863   2.226   1.923   5.021
 4988SOL    HW215864   2.284   1.907   4.869
 4989SOL     OW15865   6.951   0.803   1.050
 4989SOL    HW115866   6.946   0.891   1.003
 4989SOL    HW215867   0.015   0.797   1.100
 4990SOL     OW15868   1.932   1.970   6.582
 4990SOL    HW115869   1.882   1.995   6.499
 4990SOL    HW215870   1.981   2.050   6.617
 4991SOL     OW15871   2.816   1.975   5.604
 4991SOL    HW115872   2.784   1.888   5.642
 4991SOL    HW215873   2.895   2.007   5.656
 4992SOL     OW15874   4.397   0.208   4.505
 4992SOL    HW115875   4.417   0.115   4.538
 4992SOL    HW215876   4.479   0.245   4.461
 4993SOL     OW15877   1.186   6.270   4.494
 4993SOL    HW115878   1.150   6.349   4.444
 4993SOL    HW215879   1.134   6.188   4.470
 4994SOL     OW15880   0.125   6.797   2.847
 4994SOL    HW115881   0.190   6.789   2.771
 4994SOL    HW215882   0.053   6.862   2.823
 4995SOL     OW15883   6.141   2.919   4.981
 4995SOL    HW115884   6.066   2.901   4.918
 4995SOL    HW215885   6.108   2.909   5.075
 4996SOL     OW15886   0.651   1.538   3.679
 4996SOL    HW115887   0.608   1.463   3.727
 4996SOL    HW215888   0.699   1.597   3.744
 4997SOL     OW15889   6.913   2.392   3.390
 4997SOL    HW115890   6.834   2.386   3.452
 4997SOL    HW215891   6.892   2.456   3.316
 4998SOL     OW15892   1.123   5.735   5.611
 4998SOL    HW115893   1.173   5.772   5.689
 4998SOL    HW215894   1.150   5.784   5.528
 4999SOL     OW15895   6.830   4.628   0.946
 4999SOL    HW115896   6.831   4.555   1.015
 4999SOL    HW215897   6.757   4.610   0.880
 5000SOL     OW15898   5.982   5.820   3.409
 5000SOL    HW115899   6.031   5.896   3.366
 5000SOL    HW215900   6.018   5.733   3.375
 5001SOL     OW15901   4.941   3.614   5.273
 5001SOL    HW115902   4.877   3.573   5.208
 5001SOL    HW215903   4.939   3.714   5.263
 5002SOL     OW15904   1.538   2.307   1.651
 5002SOL    HW115905   1.534   2.251   1.734
 5002SOL    HW215906   1.632   2.311   1.618
 5003SOL     OW15907   5.694   5.842   4.554
 5003SOL    HW115908   5.610   5.853   4.501
 5003SOL    HW215909   5.699   5.748   4.589
 5004SOL     OW15910   2.199   5.062   6.199
 5004SOL    HW115911   2.181   4.965   6.215
 5004SOL    HW215912   2.113   5.113   6.198
 5005SOL     OW15913   5.345   2.003   6.855
 5005SOL    HW115914   5.288   2.068   6.904
 5005SOL    HW215915   5.441   2.016   6.881
 5006SOL     OW15916   4.373   5.286   1.758
 5006SOL    HW115917   4.334   5.365   1.804
 5006SOL    HW215918   4.416   5.314   1.673
 5007SOL     OW15919   3.402   0.898   4.589
 5007SOL    HW115920   3.413   0.996   4.606
 5007SOL    HW215921   3.365   0.885   4.497
 5008SOL     OW15922   6.011   2.068   4.491
 5008SOL    HW115923   6.086   2.133   4.502
 5008SOL    HW215924   6.049   1.977   4.474
 5009SOL     OW15925   3.181   6.880   2.344
 5009SOL    HW115926   3.143   6.946   2.280
 5009SOL    HW215927   3.255   6.828   2.300
 5010SOL     OW15928   3.360   4.017   6.187
 5010SOL    HW115929   3.338   4.029   6.091
 5010SOL    HW215930   3.404   4.099   6.222
 5011SOL     OW15931   0.700   2.215   5.057
 5011SOL    HW115932   0.672   2.171   4.971
 5011SOL    HW215933   0.686   2.152   5.133
 5012SOL     OW15934   6.500   1.985   7.004
 5012SOL    HW115935   6.555   1.903   6.988
 5012SOL    HW215936   6.509   2.013   0.076
 5013SOL     OW15937   4.911   1.847   5.018
 5013SOL    HW115938   5.002   1.848   5.060
 5013SOL    HW215939   4.877   1.753   5.014
 5014SOL     OW15940   1.085   4.444   6.387
 5014SOL    HW115941   1.107   4.457   6.483
 5014SOL    HW215942   1.005   4.500   6.364
 5015SOL     OW15943   4.903   2.567   3.923
 5015SOL    HW115944   4.809   2.556   3.892
 5015SOL    HW215945   4.903   2.599   4.018
 5016SOL     OW15946   1.868   5.699   1.363
 5016SOL    HW115947   1.786   5.749   1.391
 5016SOL    HW215948   1.949   5.744   1.401
 5017SOL     OW15949   0.073   1.223   1.612
 5017SOL    HW115950   7.018   1.264   1.658
 5017SOL    HW215951   0.056   1.221   1.513
 5018SOL     OW15952   6.152   5.505   3.948
 5018SOL    HW115953   6.130   5.476   4.041
 5018SOL    HW215954   6.130   5.432   3.883
 5019SOL     OW15955   2.888   5.616   4.699
 5019SOL    HW115956   2.937   5.637   4.783
 5019SOL    HW215957   2.802   5.666   4.697
 5020SOL     OW15958   5.055   5.240   0.456
 5020SOL    HW115959   5.008   5.153   0.436
 5020SOL    HW215960   5.138   5.246   0.400
 5021SOL     OW15961   2.693   4.819   5.361
 5021SOL    HW115962   2.673   4.722   5.367
 5021SOL    HW215963   2.725   4.842   5.269
 5022SOL     OW15964   1.750   2.812   6.184
 5022SOL    HW115965   1.774   2.798   6.281
 5022SOL    HW215966   1.798   2.892   6.149
 5023SOL     OW15967   6.143   3.709   3.597
 5023SOL    HW115968   6.103   3.641   3.536
 5023SOL    HW215969   6.242   3.710   3.586
 5024SOL     OW15970   4.908   4.107   5.400
 5024SOL    HW115971   4.869   4.162   5.474
 5024SOL    HW215972   5.007   4.120   5.397
 5025SOL     OW15973   6.001   6.837   5.034
 5025SOL    HW115974   6.045   6.872   5.117
 5025SOL    HW215975   6.046   6.875   4.953
 5026SOL     OW15976   1.161   5.837   2.713
 5026SOL    HW115977   1.175   5.754   2.767
 5026SOL    HW215978   1.063   5.853   2.701
 5027SOL     OW15979   0.945   5.796   2.947
 5027SOL    HW115980   0.936   5.845   2.861
 5027SOL    HW215981   1.023   5.734   2.942
 5028SOL     OW15982   0.687   6.905   2.875
 5028SOL    HW115983   0.588   6.906   2.892
 5028SOL    HW215984   0.716   6.995   2.844
 5029SOL     OW15985   5.850   0.794   4.374
 5029SOL    HW115986   5.784   0.793   4.449
 5029SOL    HW215987   5.865   0.701   4.341
 5030SOL     OW15988   1.260   5.915   0.799
 5030SOL    HW115989   1.316   5.972   0.739
 5030SOL    HW215990   1.308   5.902   0.886
 5031SOL     OW15991   5.067   0.178   0.019
 5031SOL    HW115992   4.977   0.155   7.005
 5031SOL    HW215993   5.061   0.261   0.074
 5032SOL     OW15994   1.778   5.578   2.946
 5032SOL    HW115995   1.823   5.597   3.033
 5032SOL    HW215996   1.679   5.587   2.958
 5033SOL     OW15997   1.348   4.363   4.830
 5033SOL    HW115998   1.396   4.341   4.746
 5033SOL    HW215999   1.385   4.309   4.905
 5034SOL     OW16000   1.344   2.625   5.823
 5034SOL    HW116001   1.268   2.629   5.888
 5034SOL    HW216002   1.354   2.531   5.789
 5035SOL     OW16003   6.977   4.379   0.660
 5035SOL    HW116004   6.997   4.314   0.733
 5035SOL    HW216005   6.997   4.472   0.692
 5036SOL     OW16006   1.200   1.478   2.620
 5036SOL    HW116007   1.268   1.536   2.664
 5036SOL    HW216008   1.131   1.450   2.687
 5037SOL     OW16009   5.563   3.781   1.162
 5037SOL    HW116010   5.532   3.734   1.245
 5037SOL    HW216011   5.652   3.746   1.135
 5038SOL     OW16012   3.152   5.724   5.849
 5038SOL    HW116013   3.174   5.642   5.902
 5038SOL    HW216014   3.142   5.699   5.753
 5039SOL     OW16015   0.460   2.061   4.202
 5039SOL    HW116016   0.373   2.028   4.164
 5039SOL    HW216017   0.474   2.156   4.174
 5040SOL     OW16018   1.837   2.992   6.659
 5040SOL    HW116019   1.805   3.036   6.743
 5040SOL    HW216020   1.767   3.002   6.588
 5041SOL     OW16021   0.707   5.464   0.061
 5041SOL    HW116022   0.645   5.474   0.140
 5041SOL    HW216023   0.793   5.512   0.080
 5042SOL     OW16024   5.751   0.975   6.076
 5042SOL    HW116025   5.654   0.978   6.099
 5042SOL    HW216026   5.780   1.064   6.042
 5043SOL     OW16027   5.817   5.894   4.126
 5043SOL    HW116028   5.745   5.826   4.109
 5043SOL    HW216029   5.826   5.951   4.044
 5044SOL     OW16030   0.477   4.258   2.390
 5044SOL    HW116031   0.531   4.303   2.320
 5044SOL    HW216032   0.395   4.313   2.409
 5045SOL     OW16033   5.210   3.305   5.470
 5045SOL    HW116034   5.159   3.241   5.413
 5045SOL    HW216035   5.219   3.393   5.423
 5046SOL     OW16036   3.701   3.350   6.004
 5046SOL    HW116037   3.714   3.298   5.920
 5046SOL    HW216038   3.759   3.432   6.002
 5047SOL     OW16039   6.906   1.327   1.751
 5047SOL    HW116040   6.841   1.283   1.813
 5047SOL    HW216041   6.861   1.405   1.707
 5048SOL     OW16042   5.598   4.288   0.107
 5048SOL    HW116043   5.641   4.375   0.083
 5048SOL    HW216044   5.505   4.305   0.139
 5049SOL     OW16045   0.849   0.594   6.995
 5049SOL    HW116046   0.941   0.591   6.956
 5049SOL    HW216047   0.832   0.509   0.022
 5050SOL     OW16048   1.484   3.882   1.226
 5050SOL    HW116049   1.451   3.794   1.263
 5050SOL    HW216050   1.456   3.891   1.131
 5051SOL     OW16051   2.435   4.016   5.800
 5051SOL    HW116052   2.389   3.942   5.752
 5051SOL    HW216053   2.421   4.006   5.898
 5052SOL     OW16054   6.691   2.554   1.297
 5052SOL    HW116055   6.702   2.590   1.204
 5052SOL    HW216056   6.594   2.557   1.322
 5053SOL     OW16057   0.780   3.958   1.152
 5053SOL    HW116058   0.867   4.006   1.163
 5053SOL    HW216059   0.707   4.010   1.197
 5054SOL     OW16060   4.402   5.568   4.978
 5054SOL    HW116061   4.371   5.531   4.890
 5054SOL    HW216062   4.362   5.659   4.991
 5055SOL     OW16063   0.948   6.690   4.231
 5055SOL    HW116064   0.908   6.633   4.159
 5055SOL    HW216065   1.047   6.683   4.229
 5056SOL     OW16066   3.044   1.236   6.843
 5056SOL    HW116067   3.036   1.334   6.828
 5056SOL    HW216068   3.128   1.217   6.896
 5057SOL     OW16069   0.703   3.825   3.215
 5057SOL    HW116070   0.646   3.767   3.157
 5057SOL    HW216071   0.760   3.767   3.274
 5058SOL     OW16072   3.872   1.882   6.916
 5058SOL    HW116073   3.950   1.924   6.871
 5058SOL    HW216074   3.829   1.947   6.978
 5059SOL     OW16075   5.280   2.533   2.993
 5059SOL    HW116076   5.242   2.484   2.914
 5059SOL    HW216077   5.245   2.627   2.992
 5060SOL     OW16078   0.383   3.191   5.804
 5060SOL    HW116079   0.286   3.216   5.804
 5060SOL    HW216080   0.433   3.251   5.742
 5061SOL     OW16081   4.458   2.459   6.144
 5061SOL    HW116082   4.539   2.402   6.155
 5061SOL    HW216083   4.401   2.452   6.225
 5062SOL     OW16084   5.607   1.250   2.988
 5062SOL    HW116085   5.676   1.190   3.028
 5062SOL    HW216086   5.650   1.338   2.965
 5063SOL     OW16087   0.358   0.669   0.402
 5063SOL    HW116088   0.268   0.663   0.446
 5063SOL    HW216089   0.399   0.757   0.424
 5064SOL     OW16090   6.773   5.071   0.352
 5064SOL    HW116091   6.794   5.019   0.269
 5064SOL    HW216092   6.759   5.008   0.428
 5065SOL     OW16093   0.846   1.836   2.641
 5065SOL    HW116094   0.804   1.925   2.622
 5065SOL    HW216095   0.785   1.782   2.699
 5066SOL     OW16096   0.696   5.298   3.570
 5066SOL    HW116097   0.701   5.240   3.651
 5066SOL    HW216098   0.775   5.280   3.511
 5067SOL     OW16099   4.363   2.733   0.690
 5067SOL    HW116100   4.341   2.778   0.604
 5067SOL    HW216101   4.299   2.764   0.760
 5068SOL     OW16102   1.296   6.344   0.873
 5068SOL    HW116103   1.235   6.394   0.812
 5068SOL    HW216104   1.370   6.404   0.903
 5069SOL     OW16105   3.963   4.841   6.198
 5069SOL    HW116106   3.891   4.837   6.267
 5069SOL    HW216107   3.923   4.856   6.108
 5070SOL     OW16108   0.963   3.605   6.470
 5070SOL    HW116109   0.912   3.634   6.551
 5070SOL    HW216110   0.972   3.681   6.407
 5071SOL     OW16111   1.474   6.607   2.877
 5071SOL    HW116112   1.523   6.648   2.800
 5071SOL    HW216113   1.407   6.541   2.842
 5072SOL     OW16114   0.816   2.461   2.906
 5072SOL    HW116115   0.754   2.540   2.904
 5072SOL    HW216116   0.819   2.423   2.998
 5073SOL     OW16117   1.898   1.531   4.272
 5073SOL    HW116118   1.920   1.448   4.221
 5073SOL    HW216119   1.981   1.566   4.316
 5074SOL     OW16120   3.991   2.091   1.538
 5074SOL    HW116121   3.947   2.169   1.493
 5074SOL    HW216122   4.049   2.125   1.613
 5075SOL     OW16123   6.254   1.980   6.914
 5075SOL    HW116124   6.353   1.994   6.917
 5075SOL    HW216125   6.232   1.916   6.841
 5076SOL     OW16126   6.924   1.769   6.089
 5076SOL    HW116127   6.934   1.697   6.158
 5076SOL    HW216128   7.013   1.785   6.045
 5077SOL     OW16129   0.906   5.322   4.619
 5077SOL    HW116130   0.825   5.315   4.560
 5077SOL    HW216131   0.975   5.258   4.587
 5078SOL     OW16132   5.551   1.658   2.996
 5078SOL    HW116133   5.494   1.593   3.047
 5078SOL    HW216134   5.611   1.608   2.934
 5079SOL     OW16135   1.653   3.720   6.022
 5079SOL    HW116136   1.733   3.659   6.023
 5079SOL    HW216137   1.577   3.673   5.977
 5080SOL     OW16138   6.518   5.944   6.597
 5080SOL    HW116139   6.442   5.908   6.542
 5080SOL    HW216140   6.562   5.869   6.646
 5081SOL     OW16141   3.712   4.214   5.951
 5081SOL    HW116142   3.715   4.311   5.974
 5081SOL    HW216143   3.627   4.194   5.902
 5082SOL     OW16144   5.622   0.118   2.864
 5082SOL    HW116145   5.550   0.068   2.912
 5082SOL    HW216146   5.710   0.076   2.884
 5083SOL     OW16147   0.176   0.817   3.294
 5083SOL    HW116148   0.262   0.826   3.343
 5083SOL    HW216149   0.126   0.737   3.328
 5084SOL     OW16150   3.592   5.323   5.803
 5084SOL    HW116151   3.632   5.239   5.839
 5084SOL    HW216152   3.658   5.398   5.810
 5085SOL     OW16153   1.193   3.485   6.560
 5085SOL    HW116154   1.115   3.505   6.502
 5085SOL    HW216155   1.167   3.418   6.630
 5086SOL     OW16156   0.664   4.615   2.064
 5086SOL    HW116157   0.651   4.712   2.043
 5086SOL    HW216158   0.690   4.567   1.980
 5087SOL     OW16159   6.620   5.244   1.704
 5087SOL    HW116160   6.648   5.211   1.614
 5087SOL    HW216161   6.660   5.187   1.775
 5088SOL     OW16162   4.656   4.729   2.163
 5088SOL    HW116163   4.616   4.647   2.121
 5088SOL    HW216164   4.741   4.752   2.116
 5089SOL     OW16165   4.435   5.711   5.903
 5089SOL    HW116166   4.396   5.746   5.988
 5089SOL    HW216167   4.404   5.617   5.888
 5090SOL     OW16168   2.193   6.646   4.655
 5090SOL    HW116169   2.146   6.711   4.714
 5090SOL    HW216170   2.232   6.573   4.710
 5091SOL     OW16171   6.008   5.616   4.811
 5091SOL    HW116172   6.105   5.624   4.837
 5091SOL    HW216173   5.954   5.590   4.891
 5092SOL     OW16174   3.366   2.850   4.592
 5092SOL    HW116175   3.391   2.895   4.506
 5092SOL    HW216176   3.302   2.775   4.573
 5093SOL     OW16177   3.325   2.014   3.247
 5093SOL    HW116178   3.363   2.042   3.159
 5093SOL    HW216179   3.322   1.914   3.251
 5094SOL     OW16180   2.288   4.752   4.720
 5094SOL    HW116181   2.351   4.689   4.766
 5094SOL    HW216182   2.309   4.845   4.748
 5095SOL     OW16183   6.039   2.359   3.184
 5095SOL    HW116184   5.943   2.353   3.154
 5095SOL    HW216185   6.046   2.425   3.259
 5096SOL     OW16186   6.343   3.253   5.179
 5096SOL    HW116187   6.442   3.237   5.173
 5096SOL    HW216188   6.307   3.267   5.087
 5097SOL     OW16189   0.776   0.412   5.935
 5097SOL    HW116190   0.687   0.367   5.942
 5097SOL    HW216191   0.841   0.350   5.891
 5098SOL     OW16192   2.918   1.752   0.634
 5098SOL    HW116193   2.898   1.671   0.689
 5098SOL    HW216194   2.919   1.728   0.537
 5099SOL     OW16195   1.415   5.650   1.552
 5099SOL    HW116196   1.356   5.729   1.538
 5099SOL    HW216197   1.431   5.637   1.650
 5100SOL     OW16198   0.351   3.627   1.608
 5100SOL    HW116199   0.278   3.675   1.656
 5100SOL    HW216200   0.397   3.564   1.671
 5101SOL     OW16201   4.804   1.955   6.117
 5101SOL    HW116202   4.763   2.028   6.172
 5101SOL    HW216203   4.734   1.917   6.055
 5102SOL     OW16204   5.804   4.787   5.178
 5102SOL    HW116205   5.846   4.747   5.259
 5102SOL    HW216206   5.825   4.884   5.173
 5103SOL     OW16207   0.272   0.179   5.143
 5103SOL    HW116208   0.198   0.226   5.191
 5103SOL    HW216209   0.233   0.127   5.067
 5104SOL     OW16210   3.453   2.954   3.656
 5104SOL    HW116211   3.411   2.872   3.694
 5104SOL    HW216212   3.431   3.033   3.714
 5105SOL     OW16213   4.622   2.033   6.574
 5105SOL    HW116214   4.549   1.972   6.544
 5105SOL    HW216215   4.593   2.082   6.656
 5106SOL     OW16216   4.327   0.510   1.273
 5106SOL    HW116217   4.328   0.544   1.179
 5106SOL    HW216218   4.372   0.421   1.277
 5107SOL     OW16219   6.544   4.300   0.300
 5107SOL    HW116220   6.598   4.216   0.291
 5107SOL    HW216221   6.447   4.276   0.307
 5108SOL     OW16222   4.509   4.079   0.768
 5108SOL    HW116223   4.520   3.980   0.762
 5108SOL    HW216224   4.556   4.113   0.850
 5109SOL     OW16225   1.403   2.492   2.088
 5109SOL    HW116226   1.432   2.531   2.176
 5109SOL    HW216227   1.484   2.467   2.035
 5110SOL     OW16228   3.466   6.861   4.909
 5110SOL    HW116229   3.538   6.795   4.888
 5110SOL    HW216230   3.409   6.874   4.827
 5111SOL     OW16231   2.468   6.463   6.615
 5111SOL    HW116232   2.391   6.402   6.594
 5111SOL    HW216233   2.446   6.555   6.583
 5112SOL     OW16234   0.817   3.962   2.563
 5112SOL    HW116235   0.729   4.004   2.543
 5112SOL    HW216236   0.807   3.897   2.638
 5113SOL     OW16237   2.947   4.861   1.437
 5113SOL    HW116238   2.934   4.772   1.480
 5113SOL    HW216239   3.033   4.861   1.386
 5114SOL     OW16240   5.062   3.777   1.086
 5114SOL    HW116241   5.091   3.791   1.180
 5114SOL    HW216242   5.140   3.785   1.025
 5115SOL     OW16243   1.520   3.920   0.349
 5115SOL    HW116244   1.579   3.906   0.269
 5115SOL    HW216245   1.509   3.834   0.398
 5116SOL     OW16246   0.774   5.942   5.972
 5116SOL    HW116247   0.723   5.860   5.944
 5116SOL    HW216248   0.710   6.013   6.001
 5117SOL     OW16249   0.338   3.865   4.335
 5117SOL    HW116250   0.394   3.891   4.256
 5117SOL    HW216251   0.276   3.791   4.310
 5118SOL     OW16252   5.212   5.136   0.900
 5118SOL    HW116253   5.120   5.153   0.934
 5118SOL    HW216254   5.279   5.177   0.962
 5119SOL     OW16255   5.407   1.173   0.067
 5119SOL    HW116256   5.320   1.215   0.042
 5119SOL    HW216257   5.456   1.234   0.129
 5120SOL     OW16258   5.393   6.102   0.308
 5120SOL    HW116259   5.452   6.045   0.252
 5120SOL    HW216260   5.372   6.054   0.394
 5121SOL     OW16261   2.243   3.756   0.081
 5121SOL    HW116262   2.210   3.681   0.023
 5121SOL    HW216263   2.294   3.718   0.158
 5122SOL     OW16264   4.910   5.696   3.513
 5122SOL    HW116265   4.854   5.753   3.453
 5122SOL    HW216266   4.855   5.669   3.592
 5123SOL     OW16267   4.459   2.381   1.587
 5123SOL    HW116268   4.522   2.456   1.567
 5123SOL    HW216269   4.510   2.304   1.625
 5124SOL     OW16270   0.421   6.091   4.327
 5124SOL    HW116271   0.393   6.124   4.417
 5124SOL    HW216272   0.387   5.998   4.313
 5125SOL     OW16273   5.241   3.085   3.963
 5125SOL    HW116274   5.259   3.072   3.865
 5125SOL    HW216275   5.194   3.172   3.977
 5126SOL     OW16276   2.774   0.554   2.903
 5126SOL    HW116277   2.731   0.571   2.814
 5126SOL    HW216278   2.826   0.635   2.931
 5127SOL     OW16279   2.072   5.899   0.987
 5127SOL    HW116280   2.141   5.835   1.021
 5127SOL    HW216281   2.051   5.878   0.891
 5128SOL     OW16282   3.826   0.550   2.187
 5128SOL    HW116283   3.789   0.643   2.193
 5128SOL    HW216284   3.752   0.484   2.178
 5129SOL     OW16285   6.128   5.522   0.027
 5129SOL    HW116286   6.142   5.446   0.091
 5129SOL    HW216287   6.055   5.500   6.986
 5130SOL     OW16288   5.855   4.808   2.244
 5130SOL    HW116289   5.826   4.800   2.149
 5130SOL    HW216290   5.920   4.735   2.265
 5131SOL     OW16291   2.242   2.085   1.950
 5131SOL    HW116292   2.206   2.150   1.884
 5131SOL    HW216293   2.342   2.081   1.942
 5132SOL     OW16294   2.349   6.274   6.262
 5132SOL    HW116295   2.442   6.247   6.287
 5132SOL    HW216296   2.306   6.202   6.208
 5133SOL     OW16297   3.951   5.244   4.775
 5133SOL    HW116298   3.981   5.315   4.712
 5133SOL    HW216299   3.903   5.172   4.725
 5134SOL     OW16300   0.809   2.902   0.121
 5134SOL    HW116301   0.743   2.870   0.053
 5134SOL    HW216302   0.759   2.947   0.196
 5135SOL     OW16303   6.061   1.694   2.691
 5135SOL    HW116304   5.977   1.694   2.638
 5135SOL    HW216305   6.063   1.614   2.751
 5136SOL     OW16306   3.580   1.776   6.923
 5136SOL    HW116307   3.525   1.853   6.958
 5136SOL    HW216308   3.555   1.758   6.828
 5137SOL     OW16309   4.320   3.700   6.962
 5137SOL    HW116310   4.328   3.650   6.875
 5137SOL    HW216311   4.273   3.786   6.947
 5138SOL     OW16312   2.571   2.750   6.157
 5138SOL    HW116313   2.500   2.782   6.219
 5138SOL    HW216314   2.652   2.725   6.209
 5139SOL     OW16315   0.495   6.620   4.182
 5139SOL    HW116316   0.469   6.711   4.214
 5139SOL    HW216317   0.473   6.611   4.085
 5140SOL     OW16318   3.269   3.247   2.637
 5140SOL    HW116319   3.333   3.317   2.606
 5140SOL    HW216320   3.214   3.284   2.713
 5141SOL     OW16321   1.491   3.028   5.065
 5141SOL    HW116322   1.582   3.004   5.032
 5141SOL    HW216323   1.497   3.054   5.162
 5142SOL     OW16324   5.193   3.100   1.566
 5142SOL    HW116325   5.112   3.053   1.529
 5142SOL    HW216326   5.174   3.131   1.659
 5143SOL     OW16327   6.956   4.937   6.501
 5143SOL    HW116328   6.960   5.037   6.494
 5143SOL    HW216329   6.877   4.911   6.556
 5144SOL     OW16330   2.427   1.307   4.801
 5144SOL    HW116331   2.429   1.344   4.893
 5144SOL    HW216332   2.427   1.207   4.805
 5145SOL     OW16333   3.245   5.016   6.743
 5145SOL    HW116334   3.339   5.037   6.770
 5145SOL    HW216335   3.199   4.967   6.817
 5146SOL     OW16336   3.589   5.314   1.312
 5146SOL    HW116337   3.571   5.396   1.366
 5146SOL    HW216338   3.564   5.233   1.365
 5147SOL     OW16339   0.682   5.742   6.175
 5147SOL    HW116340   0.610   5.752   6.105
 5147SOL    HW216341   0.697   5.830   6.219
 5148SOL     OW16342   6.895   0.746   1.689
 5148SOL    HW116343   6.958   0.747   1.767
 5148SOL    HW216344   6.847   0.833   1.683
 5149SOL     OW16345   6.423   0.492   5.021
 5149SOL    HW116346   6.493   0.438   4.974
 5149SOL    HW216347   6.332   0.460   4.993
 5150SOL     OW16348   2.934   5.198   5.841
 5150SOL    HW116349   2.973   5.289   5.829
 5150SOL    HW216350   2.844   5.206   5.886
 5151SOL     OW16351   5.096   6.768   6.285
 5151SOL    HW116352   5.016   6.741   6.232
 5151SOL    HW216353   5.154   6.828   6.230
 5152SOL     OW16354   6.905   4.823   6.245
 5152SOL    HW116355   6.883   4.874   6.328
 5152SOL    HW216356   6.958   4.881   6.184
 5153SOL     OW16357   3.152   3.180   1.135
 5153SOL    HW116358   3.251   3.169   1.139
 5153SOL    HW216359   3.116   3.196   1.227
 5154SOL     OW16360   1.316   3.856   5.091
 5154SOL    HW116361   1.308   3.810   5.002
 5154SOL    HW216362   1.225   3.872   5.128
 5155SOL     OW16363   4.213   0.774   2.401
 5155SOL    HW116364   4.114   0.785   2.388
 5155SOL    HW216365   4.236   0.792   2.496
 5156SOL     OW16366   5.587   3.586   5.427
 5156SOL    HW116367   5.588   3.531   5.510
 5156SOL    HW216368   5.619   3.678   5.447
 5157SOL     OW16369   6.991   2.746   3.792
 5157SOL    HW116370   0.020   2.827   3.765
 5157SOL    HW216371   6.899   2.772   3.821
 5158SOL     OW16372   4.130   0.886   1.905
 5158SOL    HW116373   4.222   0.852   1.922
 5158SOL    HW216374   4.103   0.863   1.812
 5159SOL     OW16375   1.569   3.950   5.058
 5159SOL    HW116376   1.487   3.904   5.090
 5159SOL    HW216377   1.644   3.932   5.121
 5160SOL     OW16378   2.312   2.216   3.194
 5160SOL    HW116379   2.279   2.123   3.209
 5160SOL    HW216380   2.367   2.219   3.110
 5161SOL     OW16381   1.733   2.414   6.874
 5161SOL    HW116382   1.753   2.511   6.890
 5161SOL    HW216383   1.679   2.379   6.951
 5162SOL     OW16384   6.102   5.762   5.168
 5162SOL    HW116385   6.075   5.681   5.219
 5162SOL    HW216386   6.022   5.802   5.124
 5163SOL     OW16387   6.567   3.388   1.109
 5163SOL    HW116388   6.599   3.443   1.032
 5163SOL    HW216389   6.478   3.422   1.140
 5164SOL     OW16390   6.612   6.742   5.016
 5164SOL    HW116391   6.608   6.651   5.057
 5164SOL    HW216392   6.675   6.799   5.068
 5165SOL     OW16393   5.671   4.566   5.035
 5165SOL    HW116394   5.720   4.637   5.086
 5165SOL    HW216395   5.597   4.530   5.092
 5166SOL     OW16396   0.200   0.759   3.034
 5166SOL    HW116397   0.192   0.799   3.125
 5166SOL    HW216398   0.150   0.815   2.968
 5167SOL     OW16399   2.163   0.128   4.884
 5167SOL    HW116400   2.069   0.158   4.895
 5167SOL    HW216401   2.191   0.142   4.789
 5168SOL     OW16402   3.127   1.432   2.038
 5168SOL    HW116403   3.090   1.465   2.125
 5168SOL    HW216404   3.195   1.496   2.003
 5169SOL     OW16405   3.437   5.908   6.603
 5169SOL    HW116406   3.338   5.918   6.594
 5169SOL    HW216407   3.475   5.986   6.652
 5170SOL     OW16408   4.169   5.043   4.616
 5170SOL    HW116409   4.194   5.120   4.556
 5170SOL    HW216410   4.076   5.055   4.649
 5171SOL     OW16411   2.566   4.275   5.752
 5171SOL    HW116412   2.629   4.262   5.828
 5171SOL    HW216413   2.502   4.198   5.749
 5172SOL     OW16414   1.769   3.378   6.161
 5172SOL    HW116415   1.823   3.459   6.135
 5172SOL    HW216416   1.675   3.389   6.129
 5173SOL     OW16417   0.686   2.141   4.790
 5173SOL    HW116418   0.758   2.192   4.743
 5173SOL    HW216419   0.673   2.052   4.746
 5174SOL     OW16420   2.615   4.890   6.777
 5174SOL    HW116421   2.581   4.884   6.683
 5174SOL    HW216422   2.601   4.802   6.823
 5175SOL     OW16423   1.018   5.562   0.330
 5175SOL    HW116424   1.073   5.486   0.297
 5175SOL    HW216425   0.944   5.527   0.387
 5176SOL     OW16426   5.816   3.350   6.628
 5176SOL    HW116427   5.757   3.302   6.563
 5176SOL    HW216428   5.794   3.319   6.721
 5177SOL     OW16429   4.946   5.433   0.296
 5177SOL    HW116430   4.977   5.504   0.360
 5177SOL    HW216431   4.959   5.344   0.338
 5178SOL     OW16432   3.362   4.748   0.498
 5178SOL    HW116433   3.415   4.733   0.415
 5178SOL    HW216434   3.307   4.831   0.488
 5179SOL     OW16435   2.948   6.072   5.703
 5179SOL    HW116436   2.985   6.164   5.711
 5179SOL    HW216437   2.882   6.055   5.777
 5180SOL     OW16438   4.960   1.607   5.908
 5180SOL    HW116439   4.969   1.517   5.952
 5180SOL    HW216440   5.020   1.672   5.954
 5181SOL     OW16441   2.772   6.193   3.020
 5181SOL    HW116442   2.720   6.137   3.085
 5181SOL    HW216443   2.768   6.151   2.930
 5182SOL     OW16444   4.868   4.055   0.631
 5182SOL    HW116445   4.828   4.017   0.714
 5182SOL    HW216446   4.799   4.108   0.582
 5183SOL     OW16447   3.012   1.105   3.227
 5183SOL    HW116448   3.013   1.010   3.259
 5183SOL    HW216449   2.944   1.156   3.279
 5184SOL     OW16450   0.853   1.899   3.307
 5184SOL    HW116451   0.905   1.936   3.384
 5184SOL    HW216452   0.887   1.940   3.222
 5185SOL     OW16453   4.704   0.562   1.929
 5185SOL    HW116454   4.676   0.481   1.980
 5185SOL    HW216455   4.783   0.540   1.872
 5186SOL     OW16456   5.366   3.445   6.854
 5186SOL    HW116457   5.355   3.408   6.946
 5186SOL    HW216458   5.426   3.385   6.801
 5187SOL     OW16459   4.896   4.145   4.391
 5187SOL    HW116460   4.850   4.069   4.437
 5187SOL    HW216461   4.929   4.115   4.302
 5188SOL     OW16462   0.991   0.800   3.300
 5188SOL    HW116463   0.944   0.850   3.372
 5188SOL    HW216464   1.080   0.843   3.282
 5189SOL     OW16465   4.748   5.419   5.589
 5189SOL    HW116466   4.704   5.504   5.560
 5189SOL    HW216467   4.845   5.436   5.607
 5190SOL     OW16468   1.568   1.909   2.380
 5190SOL    HW116469   1.583   1.845   2.304
 5190SOL    HW216470   1.606   1.869   2.464
 5191SOL     OW16471   4.994   1.284   2.281
 5191SOL    HW116472   5.025   1.379   2.283
 5191SOL    HW216473   5.042   1.235   2.209
 5192SOL     OW16474   6.507   3.892   2.355
 5192SOL    HW116475   6.475   3.952   2.428
 5192SOL    HW216476   6.607   3.885   2.358
 5193SOL     OW16477   3.760   4.869   3.145
 5193SOL    HW116478   3.752   4.919   3.231
 5193SOL    HW216479   3.805   4.781   3.161
 5194SOL     OW16480   5.636   0.460   0.136
 5194SOL    HW116481   5.714   0.454   0.198
 5194SOL    HW216482   5.570   0.388   0.158
 5195SOL     OW16483   0.422   5.094   5.576
 5195SOL    HW116484   0.353   5.047   5.521
 5195SOL    HW216485   0.507   5.040   5.576
 5196SOL     OW16486   1.498   3.475   3.083
 5196SOL    HW116487   1.459   3.455   3.173
 5196SOL    HW216488   1.557   3.399   3.054
 5197SOL     OW16489   3.368   6.293   5.339
 5197SOL    HW116490   3.393   6.228   5.268
 5197SOL    HW216491   3.425   6.279   5.420
 5198SOL     OW16492   4.344   1.335   6.385
 5198SOL    HW116493   4.340   1.253   6.328
 5198SOL    HW216494   4.259   1.386   6.376
 5199SOL     OW16495   0.762   6.269   3.316
 5199SOL    HW116496   0.832   6.254   3.385
 5199SOL    HW216497   0.674   6.233   3.349
 5200SOL     OW16498   5.822   6.544   6.070
 5200SOL    HW116499   5.909   6.511   6.035
 5200SOL    HW216500   5.760   6.563   5.994
 5201SOL     OW16501   6.729   3.916   5.388
 5201SOL    HW116502   6.809   3.893   5.332
 5201SOL    HW216503   6.730   3.859   5.471
 5202SOL     OW16504   3.802   2.907   6.055
 5202SOL    HW116505   3.751   2.852   5.989
 5202SOL    HW216506   3.853   2.846   6.117
 5203SOL     OW16507   0.296   6.903   5.388
 5203SOL    HW116508   0.394   6.922   5.379
 5203SOL    HW216509   0.248   6.988   5.412
 5204SOL     OW16510   2.004   0.357   2.054
 5204SOL    HW116511   2.052   0.288   2.107
 5204SOL    HW216512   1.939   0.313   1.992
 5205SOL     OW16513   5.863   6.828   1.770
 5205SOL    HW116514   5.797   6.835   1.845
 5205SOL    HW216515   5.845   6.745   1.717
 5206SOL     OW16516   1.098   4.705   5.041
 5206SOL    HW116517   1.138   4.788   5.003
 5206SOL    HW216518   1.069   4.722   5.135
 5207SOL     OW16519   4.745   1.806   4.692
 5207SOL    HW116520   4.678   1.879   4.701
 5207SOL    HW216521   4.837   1.844   4.693
 5208SOL     OW16522   6.813   1.363   0.684
 5208SOL    HW116523   6.719   1.373   0.652
 5208SOL    HW216524   6.866   1.308   0.620
 5209SOL     OW16525   4.581   5.668   2.950
 5209SOL    HW116526   4.521   5.593   2.979
 5209SOL    HW216527   4.633   5.639   2.870
 5210SOL     OW16528   6.316   3.995   2.126
 5210SOL    HW116529   6.348   4.008   2.220
 5210SOL    HW216530   6.223   4.031   2.118
 5211SOL     OW16531   4.848   3.039   4.763
 5211SOL    HW116532   4.799   2.973   4.706
 5211SOL    HW216533   4.804   3.045   4.853
 5212SOL     OW16534   6.688   4.033   0.251
 5212SOL    HW116535   6.699   3.944   0.208
 5212SOL    HW216536   6.704   4.105   0.183
 5213SOL     OW16537   3.040   3.232   4.420
 5213SOL    HW116538   3.039   3.322   4.463
 5213SOL    HW216539   2.950   3.189   4.432
 5214SOL     OW16540   5.982   3.267   5.117
 5214SOL    HW116541   6.025   3.225   5.196
 5214SOL    HW216542   5.925   3.199   5.070
 5215SOL     OW16543   0.432   4.511   5.122
 5215SOL    HW116544   0.432   4.601   5.165
 5215SOL    HW216545   0.519   4.466   5.139
 5216SOL     OW16546   0.210   4.086   0.049
 5216SOL    HW116547   0.145   4.016   0.077
 5216SOL    HW216548   0.273   4.104   0.124
 5217SOL     OW16549   3.234   0.872   2.002
 5217SOL    HW116550   3.218   0.916   1.914
 5217SOL    HW216551   3.174   0.912   2.071
 5218SOL     OW16552   6.517   6.663   0.461
 5218SOL    HW116553   6.504   6.708   0.372
 5218SOL    HW216554   6.558   6.728   0.525
 5219SOL     OW16555   4.254   2.006   4.466
 5219SOL    HW116556   4.245   1.927   4.405
 5219SOL    HW216557   4.215   2.087   4.421
 5220SOL     OW16558   2.176   4.567   4.524
 5220SOL    HW116559   2.122   4.621   4.460
 5220SOL    HW216560   2.202   4.624   4.602
 5221SOL     OW16561   4.160   0.130   0.594
 5221SOL    HW116562   4.194   0.050   0.645
 5221SOL    HW216563   4.238   0.179   0.554
 5222SOL     OW16564   5.635   2.338   1.913
 5222SOL    HW116565   5.632   2.289   2.000
 5222SOL    HW216566   5.684   2.425   1.925
 5223SOL     OW16567   0.106   1.454   0.329
 5223SOL    HW116568   0.111   1.550   0.300
 5223SOL    HW216569   0.067   1.448   0.420
 5224SOL     OW16570   1.969   1.741   4.509
 5224SOL    HW116571   2.021   1.722   4.593
 5224SOL    HW216572   1.963   1.839   4.494
 5225SOL     OW16573   6.849   3.591   6.241
 5225SOL    HW116574   6.865   3.532   6.162
 5225SOL    HW216575   6.859   3.687   6.213
 5226SOL     OW16576   0.552   0.357   4.011
 5226SOL    HW116577   0.613   0.295   3.961
 5226SOL    HW216578   0.466   0.367   3.961
 5227SOL     OW16579   2.989   2.521   6.669
 5227SOL    HW116580   3.083   2.486   6.663
 5227SOL    HW216581   2.983   2.609   6.621
 5228SOL     OW16582   0.368   2.348   6.133
 5228SOL    HW116583   0.399   2.379   6.043
 5228SOL    HW216584   0.355   2.427   6.193
 5229SOL     OW16585   3.927   1.618   1.764
 5229SOL    HW116586   4.025   1.639   1.760
 5229SOL    HW216587   3.913   1.522   1.739
 5230SOL     OW16588   6.094   0.928   2.077
 5230SOL    HW116589   6.028   0.970   2.139
 5230SOL    HW216590   6.051   0.916   1.987
 5231SOL     OW16591   6.784   3.892   2.382
 5231SOL    HW116592   6.802   3.990   2.396
 5231SOL    HW216593   6.871   3.845   2.363
 5232SOL     OW16594   2.375   1.273   6.035
 5232SOL    HW116595   2.383   1.278   5.935
 5232SOL    HW216596   2.466   1.274   6.076
 5233SOL     OW16597   2.126   6.686   3.850
 5233SOL    HW116598   2.193   6.681   3.776
 5233SOL    HW216599   2.172   6.711   3.935
 5234SOL     OW16600   3.908   2.677   6.150
 5234SOL    HW116601   3.836   2.609   6.142
 5234SOL    HW216602   3.939   2.683   6.245
 5235SOL     OW16603   2.884   2.840   1.587
 5235SOL    HW116604   2.815   2.775   1.555
 5235SOL    HW216605   2.946   2.795   1.651
 5236SOL     OW16606   2.701   5.346   1.852
 5236SOL    HW116607   2.792   5.361   1.891
 5236SOL    HW216608   2.707   5.280   1.777
 5237SOL     OW16609   0.893   1.142   1.341
 5237SOL    HW116610   0.793   1.143   1.352
 5237SOL    HW216611   0.923   1.047   1.328
 5238SOL     OW16612   6.044   1.323   3.406
 5238SOL    HW116613   5.985   1.274   3.470
 5238SOL    HW216614   6.139   1.302   3.426
 5239SOL     OW16615   2.537   3.610   6.934
 5239SOL    HW116616   2.492   3.614   7.023
 5239SOL    HW216617   2.633   3.583   6.946
 5240SOL     OW16618   1.629   3.638   4.783
 5240SOL    HW116619   1.581   3.632   4.871
 5240SOL    HW216620   1.639   3.734   4.757
 5241SOL     OW16621   2.440   4.966   2.746
 5241SOL    HW116622   2.517   4.951   2.809
 5241SOL    HW216623   2.374   5.028   2.789
 5242SOL     OW16624   4.490   5.967   5.769
 5242SOL    HW116625   4.561   6.000   5.707
 5242SOL    HW216626   4.519   5.879   5.809
 5243SOL     OW16627   2.327   5.455   4.222
 5243SOL    HW116628   2.419   5.446   4.186
 5243SOL    HW216629   2.260   5.443   4.149
 5244SOL     OW16630   5.694   6.685   6.681
 5244SOL    HW116631   5.627   6.610   6.682
 5244SOL    HW216632   5.647   6.769   6.654
 5245SOL     OW16633   3.187   3.811   1.935
 5245SOL    HW116634   3.193   3.907   1.961
 5245SOL    HW216635   3.264   3.787   1.876
 5246SOL     OW16636   6.680   2.915   5.455
 5246SOL    HW116637   6.761   2.877   5.500
 5246SOL    HW216638   6.697   2.925   5.357
 5247SOL     OW16639   4.713   1.372   4.827
 5247SOL    HW116640   4.711   1.472   4.829
 5247SOL    HW216641   4.728   1.341   4.733
 5248SOL     OW16642   4.437   1.056   2.601
 5248SOL    HW116643   4.362   1.048   2.667
 5248SOL    HW216644   4.400   1.075   2.510
 5249SOL     OW16645   0.446   5.545   2.329
 5249SOL    HW116646   0.509   5.620   2.345
 5249SOL    HW216647   0.367   5.577   2.278
 5250SOL     OW16648   1.718   4.959   6.943
 5250SOL    HW116649   1.734   5.039   7.001
 5250SOL    HW216650   1.639   4.908   6.978
 5251SOL     OW16651   2.432   4.079   6.428
 5251SOL    HW116652   2.416   3.992   6.473
 5251SOL    HW216653   2.530   4.098   6.426
 5252SOL     OW16654   3.856   5.516   4.105
 5252SOL    HW116655   3.850   5.496   4.007
 5252SOL    HW216656   3.789   5.460   4.154
 5253SOL     OW16657   0.212   6.504   4.011
 5253SOL    HW116658   0.272   6.465   4.081
 5253SOL    HW216659   0.258   6.582   3.968
 5254SOL     OW16660   4.220   6.406   1.895
 5254SOL    HW116661   4.308   6.433   1.934
 5254SOL    HW216662   4.154   6.394   1.969
 5255SOL     OW16663   0.677   1.621   6.367
 5255SOL    HW116664   0.722   1.589   6.450
 5255SOL    HW216665   0.580   1.637   6.385
 5256SOL     OW16666   3.852   1.610   2.554
 5256SOL    HW116667   3.755   1.627   2.539
 5256SOL    HW216668   3.897   1.591   2.467
 5257SOL     OW16669   5.902   0.953   6.747
 5257SOL    HW116670   5.973   1.012   6.708
 5257SOL    HW216671   5.822   1.008   6.770
 5258SOL     OW16672   6.185   2.285   5.035
 5258SOL    HW116673   6.157   2.368   5.083
 5258SOL    HW216674   6.141   2.205   5.076
 5259SOL     OW16675   4.671   6.463   4.642
 5259SOL    HW116676   4.639   6.550   4.603
 5259SOL    HW216677   4.727   6.415   4.574
 5260SOL     OW16678   1.830   0.103   2.294
 5260SOL    HW116679   1.785   0.016   2.314
 5260SOL    HW216680   1.866   0.101   2.201
 5261SOL     OW16681   7.021   5.081   6.943
 5261SOL    HW116682   0.079   5.085   7.001
 5261SOL    HW216683   0.022   5.040   6.854
 5262SOL     OW16684   1.967   2.042   1.945
 5262SOL    HW116685   1.868   2.025   1.947
 5262SOL    HW216686   2.013   1.974   2.001
 5263SOL     OW16687   0.155   5.940   1.858
 5263SOL    HW116688   0.209   5.994   1.922
 5263SOL    HW216689   0.072   5.907   1.905
 5264SOL     OW16690   5.806   2.625   2.874
 5264SOL    HW116691   5.801   2.525   2.881
 5264SOL    HW216692   5.747   2.655   2.798
 5265SOL     OW16693   1.365   5.896   5.989
 5265SOL    HW116694   1.310   5.887   6.072
 5265SOL    HW216695   1.438   5.828   5.989
 5266SOL     OW16696   0.627   0.369   6.599
 5266SOL    HW116697   0.637   0.272   6.578
 5266SOL    HW216698   0.616   0.381   6.697
 5267SOL     OW16699   6.418   1.651   4.591
 5267SOL    HW116700   6.452   1.606   4.674
 5267SOL    HW216701   6.318   1.657   4.594
 5268SOL     OW16702   5.294   0.494   5.149
 5268SOL    HW116703   5.366   0.519   5.214
 5268SOL    HW216704   5.219   0.450   5.197
 5269SOL     OW16705   1.262   0.544   4.230
 5269SOL    HW116706   1.332   0.604   4.192
 5269SOL    HW216707   1.223   0.587   4.312
 5270SOL     OW16708   1.663   1.759   6.498
 5270SOL    HW116709   1.710   1.685   6.547
 5270SOL    HW216710   1.705   1.772   6.409
 5271SOL     OW16711   1.407   6.723   5.989
 5271SOL    HW116712   1.412   6.821   6.009
 5271SOL    HW216713   1.341   6.708   5.916
 5272SOL     OW16714   4.296   0.139   5.983
 5272SOL    HW116715   4.208   0.183   5.968
 5272SOL    HW216716   4.285   0.040   5.973
 5273SOL     OW16717   2.070   1.749   3.327
 5273SOL    HW116718   2.021   1.663   3.323
 5273SOL    HW216719   2.086   1.783   3.234
 5274SOL     OW16720   6.614   4.433   1.244
 5274SOL    HW116721   6.665   4.403   1.164
 5274SOL    HW216722   6.556   4.511   1.219
 5275SOL     OW16723   5.637   0.049   6.430
 5275SOL    HW116724   5.575   0.061   6.353
 5275SOL    HW216725   5.707   0.120   6.428
 5276SOL     OW16726   2.473   6.438   1.175
 5276SOL    HW116727   2.568   6.412   1.185
 5276SOL    HW216728   2.426   6.430   1.262
 5277SOL     OW16729   1.563   2.777   1.237
 5277SOL    HW116730   1.534   2.694   1.190
 5277SOL    HW216731   1.592   2.754   1.330
 5278SOL     OW16732   4.160   3.515   4.844
 5278SOL    HW116733   4.161   3.587   4.774
 5278SOL    HW216734   4.188   3.428   4.803
 5279SOL     OW16735   1.625   0.135   3.065
 5279SOL    HW116736   1.705   0.077   3.077
 5279SOL    HW216737   1.637   0.192   2.983
 5280SOL     OW16738   3.660   1.018   3.444
 5280SOL    HW116739   3.714   1.087   3.490
 5280SOL    HW216740   3.615   1.058   3.364
 5281SOL     OW16741   6.725   2.826   3.516
 5281SOL    HW116742   6.749   2.729   3.517
 5281SOL    HW216743   6.754   2.867   3.429
 5282SOL     OW16744   4.859   2.363   1.535
 5282SOL    HW116745   4.911   2.416   1.469
 5282SOL    HW216746   4.877   2.265   1.521
 5283SOL     OW16747   5.840   5.111   5.175
 5283SOL    HW116748   5.895   5.193   5.160
 5283SOL    HW216749   5.744   5.130   5.154
 5284SOL     OW16750   5.663   2.696   3.900
 5284SOL    HW116751   5.648   2.682   3.998
 5284SOL    HW216752   5.758   2.673   3.878
 5285SOL     OW16753   4.487   5.010   2.635
 5285SOL    HW116754   4.461   4.931   2.579
 5285SOL    HW216755   4.520   5.084   2.576
 5286SOL     OW16756   1.666   5.074   2.030
 5286SOL    HW116757   1.741   5.100   1.970
 5286SOL    HW216758   1.579   5.096   1.985
 5287SOL     OW16759   6.981   0.899   2.952
 5287SOL    HW116760   6.899   0.945   2.985
 5287SOL    HW216761   7.020   0.951   2.876
 5288SOL     OW16762   4.084   0.616   0.386
 5288SOL    HW116763   4.007   0.563   0.422
 5288SOL    HW216764   4.126   0.668   0.460
 5289SOL     OW16765   1.723   0.113   1.684
 5289SOL    HW116766   1.711   0.019   1.653
 5289SOL    HW216767   1.761   0.168   1.610
 5290SOL     OW16768   5.479   6.505   6.769
 5290SOL    HW116769   5.457   6.551   6.855
 5290SOL    HW216770   5.401   6.450   6.740
 5291SOL     OW16771   0.985   4.997   0.741
 5291SOL    HW116772   1.021   5.077   0.694
 5291SOL    HW216773   1.046   4.919   0.725
 5292SOL     OW16774   5.573   1.199   1.330
 5292SOL    HW116775   5.529   1.111   1.347
 5292SOL    HW216776   5.519   1.252   1.265
 5293SOL     OW16777   1.860   0.996   3.833
 5293SOL    HW116778   1.783   1.040   3.787
 5293SOL    HW216779   1.847   0.897   3.833
 5294SOL     OW16780   3.462   1.980   6.685
 5294SOL    HW116781   3.389   1.925   6.726
 5294SOL    HW216782   3.444   2.077   6.702
 5295SOL     OW16783   6.990   2.249   3.661
 5295SOL    HW116784   6.954   2.230   3.570
 5295SOL    HW216785   6.929   2.210   3.730
 5296SOL     OW16786   0.351   4.165   6.216
 5296SOL    HW116787   0.296   4.094   6.259
 5296SOL    HW216788   0.347   4.248   6.272
 5297SOL     OW16789   1.266   2.106   1.882
 5297SOL    HW116790   1.316   2.178   1.832
 5297SOL    HW216791   1.266   2.128   1.979
 5298SOL     OW16792   1.083   3.258   2.091
 5298SOL    HW116793   1.138   3.231   2.171
 5298SOL    HW216794   1.021   3.332   2.118
 5299SOL     OW16795   3.674   0.434   6.584
 5299SOL    HW116796   3.735   0.496   6.535
 5299SOL    HW216797   3.673   0.345   6.538
 5300SOL     OW16798   0.007   5.079   4.436
 5300SOL    HW116799   0.000   4.983   4.463
 5300SOL    HW216800   0.098   5.113   4.458
 5301SOL     OW16801   5.720   6.890   5.914
 5301SOL    HW116802   5.723   6.796   5.879
 5301SOL    HW216803   5.717   6.954   5.838
 5302SOL     OW16804   0.010   3.728   2.846
 5302SOL    HW116805   0.052   3.802   2.793
 5302SOL    HW216806   0.048   3.641   2.815
 5303SOL     OW16807   2.661   5.001   1.996
 5303SOL    HW116808   2.654   4.977   2.093
 5303SOL    HW216809   2.729   5.073   1.984
 5304SOL     OW16810   5.676   2.039   6.156
 5304SOL    HW116811   5.610   1.981   6.110
 5304SOL    HW216812   5.768   2.001   6.145
 5305SOL     OW16813   3.974   1.736   5.176
 5305SOL    HW116814   3.958   1.771   5.084
 5305SOL    HW216815   4.006   1.641   5.171
 5306SOL     OW16816   2.387   6.529   3.998
 5306SOL    HW116817   2.403   6.486   4.087
 5306SOL    HW216818   2.295   6.569   3.997
 5307SOL     OW16819   4.876   6.676   6.453
 5307SOL    HW116820   4.830   6.654   6.367
 5307SOL    HW216821   4.807   6.695   6.524
 5308SOL     OW16822   6.395   1.474   0.860
 5308SOL    HW116823   6.492   1.469   0.884
 5308SOL    HW216824   6.342   1.502   0.940
 5309SOL     OW16825   3.277   4.401   6.436
 5309SOL    HW116826   3.344   4.364   6.372
 5309SOL    HW216827   3.295   4.498   6.452
 5310SOL     OW16828   5.307   2.419   0.215
 5310SOL    HW116829   5.329   2.478   0.293
 5310SOL    HW216830   5.215   2.440   0.182
 5311SOL     OW16831   6.680   5.200   0.105
 5311SOL    HW116832   6.631   5.263   0.045
 5311SOL    HW216833   6.663   5.223   0.201
 5312SOL     OW16834   0.715   4.212   1.998
 5312SOL    HW116835   0.694   4.221   1.900
 5312SOL    HW216836   0.811   4.234   2.013
 5313SOL     OW16837   0.903   6.262   6.201
 5313SOL    HW116838   0.995   6.297   6.182
 5313SOL    HW216839   0.905   6.162   6.202
 5314SOL     OW16840   4.906   4.216   1.221
 5314SOL    HW116841   4.884   4.313   1.229
 5314SOL    HW216842   4.904   4.189   1.125
 5315SOL     OW16843   5.372   0.288   2.996
 5315SOL    HW116844   5.335   0.262   2.907
 5315SOL    HW216845   5.344   0.381   3.018
 5316SOL     OW16846   5.622   5.624   5.159
 5316SOL    HW116847   5.526   5.623   5.130
 5316SOL    HW216848   5.635   5.694   5.229
 5317SOL     OW16849   0.217   4.667   1.490
 5317SOL    HW116850   0.219   4.706   1.582
 5317SOL    HW216851   0.149   4.714   1.435
 5318SOL     OW16852   6.976   2.800   3.368
 5318SOL    HW116853   7.002   2.714   3.325
 5318SOL    HW216854   6.910   2.847   3.310
 5319SOL     OW16855   2.975   6.049   2.549
 5319SOL    HW116856   2.886   6.008   2.533
 5319SOL    HW216857   2.965   6.148   2.558
 5320SOL     OW16858   6.882   1.775   0.921
 5320SOL    HW116859   6.800   1.832   0.921
 5320SOL    HW216860   6.955   1.821   0.973
 5321SOL     OW16861   2.512   5.447   0.124
 5321SOL    HW116862   2.505   5.407   0.033
 5321SOL    HW216863   2.606   5.438   0.158
 5322SOL     OW16864   3.022   6.352   6.983
 5322SOL    HW116865   3.065   6.426   0.013
 5322SOL    HW216866   2.998   6.277   0.021
 5323SOL     OW16867   6.742   3.790   0.149
 5323SOL    HW116868   6.646   3.760   0.141
 5323SOL    HW216869   6.796   3.719   0.192
 5324SOL     OW16870   4.138   3.323   2.293
 5324SOL    HW116871   4.205   3.358   2.359
 5324SOL    HW216872   4.086   3.399   2.254
 5325SOL     OW16873   2.995   0.095   5.313
 5325SOL    HW116874   3.058   0.043   5.256
 5325SOL    HW216875   2.903   0.057   5.304
 5326SOL     OW16876   5.504   0.388   4.051
 5326SOL    HW116877   5.551   0.379   3.964
 5326SOL    HW216878   5.531   0.313   4.111
 5327SOL     OW16879   6.371   6.812   3.942
 5327SOL    HW116880   6.415   6.792   3.855
 5327SOL    HW216881   6.298   6.879   3.928
 5328SOL     OW16882   2.463   4.886   5.770
 5328SOL    HW116883   2.396   4.921   5.835
 5328SOL    HW216884   2.467   4.945   5.690
 5329SOL     OW16885   0.598   6.785   5.747
 5329SOL    HW116886   0.683   6.788   5.694
 5329SOL    HW216887   0.618   6.802   5.844
 5330SOL     OW16888   4.612   3.636   0.206
 5330SOL    HW116889   4.693   3.694   0.220
 5330SOL    HW216890   4.632   3.568   0.135
 5331SOL     OW16891   6.046   0.579   0.138
 5331SOL    HW116892   6.039   0.489   0.093
 5331SOL    HW216893   5.986   0.644   0.092
 5332SOL     OW16894   0.797   3.319   6.867
 5332SOL    HW116895   0.731   3.292   6.797
 5332SOL    HW216896   0.762   3.399   6.915
 5333SOL     OW16897   0.407   6.866   4.344
 5333SOL    HW116898   0.435   6.962   4.350
 5333SOL    HW216899   0.307   6.861   4.341
 5334SOL     OW16900   3.458   6.008   0.603
 5334SOL    HW116901   3.457   5.947   0.683
 5334SOL    HW216902   3.530   6.077   0.615
 5335SOL     OW16903   6.672   4.746   1.829
 5335SOL    HW116904   6.678   4.649   1.853
 5335SOL    HW216905   6.609   4.792   1.892
 5336SOL     OW16906   1.831   3.026   5.823
 5336SOL    HW116907   1.734   3.047   5.835
 5336SOL    HW216908   1.886   3.098   5.865
 5337SOL     OW16909   6.586   2.289   0.958
 5337SOL    HW116910   6.611   2.384   0.978
 5337SOL    HW216911   6.507   2.264   1.014
 5338SOL     OW16912   6.812   2.211   1.554
 5338SOL    HW116913   6.825   2.281   1.484
 5338SOL    HW216914   6.714   2.199   1.571
 5339SOL     OW16915   4.852   3.833   2.393
 5339SOL    HW116916   4.781   3.763   2.402
 5339SOL    HW216917   4.842   3.878   2.304
 5340SOL     OW16918   5.416   3.298   1.036
 5340SOL    HW116919   5.402   3.200   1.050
 5340SOL    HW216920   5.466   3.336   1.114
 5341SOL     OW16921   4.485   4.888   3.500
 5341SOL    HW116922   4.439   4.958   3.554
 5341SOL    HW216923   4.478   4.911   3.403
 5342SOL     OW16924   5.917   4.880   4.735
 5342SOL    HW116925   5.851   4.951   4.762
 5342SOL    HW216926   5.966   4.909   4.653
 5343SOL     OW16927   4.155   3.773   0.934
 5343SOL    HW116928   4.238   3.726   0.903
 5343SOL    HW216929   4.128   3.841   0.866
 5344SOL     OW16930   6.743   1.686   6.873
 5344SOL    HW116931   6.756   1.744   6.954
 5344SOL    HW216932   6.817   1.620   6.868
 5345SOL     OW16933   3.789   0.722   6.782
 5345SOL    HW116934   3.710   0.712   6.843
 5345SOL    HW216935   3.825   0.632   6.759
 5346SOL     OW16936   2.355   5.931   2.923
 5346SOL    HW116937   2.401   5.988   2.855
 5346SOL    HW216938   2.378   5.963   3.015
 5347SOL     OW16939   6.100   2.912   5.267
 5347SOL    HW116940   6.002   2.901   5.284
 5347SOL    HW216941   6.127   3.005   5.292
 5348SOL     OW16942   5.656   2.851   4.959
 5348SOL    HW116943   5.603   2.848   5.043
 5348SOL    HW216944   5.692   2.760   4.939
 5349SOL     OW16945   1.127   4.161   0.605
 5349SOL    HW116946   1.081   4.250   0.597
 5349SOL    HW216947   1.226   4.176   0.604
 5350SOL     OW16948   1.280   0.043   6.622
 5350SOL    HW116949   1.239   0.130   6.596
 5350SOL    HW216950   1.318   0.051   6.714
 5351SOL     OW16951   0.395   6.384   3.159
 5351SOL    HW116952   0.465   6.313   3.163
 5351SOL    HW216953   0.433   6.470   3.194
 5352SOL     OW16954   0.140   2.969   6.226
 5352SOL    HW116955   0.228   3.001   6.262
 5352SOL    HW216956   0.076   2.957   6.301
 5353SOL     OW16957   2.386   6.543   2.881
 5353SOL    HW116958   2.461   6.508   2.936
 5353SOL    HW216959   2.302   6.548   2.936
 5354SOL     OW16960   2.079   6.462   1.606
 5354SOL    HW116961   2.067   6.477   1.508
 5354SOL    HW216962   1.991   6.449   1.650
 5355SOL     OW16963   4.706   4.307   5.575
 5355SOL    HW116964   4.732   4.274   5.666
 5355SOL    HW216965   4.638   4.245   5.535
 5356SOL     OW16966   6.475   6.768   1.169
 5356SOL    HW116967   6.450   6.858   1.204
 5356SOL    HW216968   6.561   6.775   1.118
 5357SOL     OW16969   6.651   3.046   2.457
 5357SOL    HW116970   6.730   2.995   2.491
 5357SOL    HW216971   6.626   3.116   2.523
 5358SOL     OW16972   5.286   6.608   5.261
 5358SOL    HW116973   5.307   6.515   5.290
 5358SOL    HW216974   5.290   6.614   5.161
 5359SOL     OW16975   3.392   1.804   6.268
 5359SOL    HW116976   3.355   1.895   6.249
 5359SOL    HW216977   3.326   1.734   6.240
 5360SOL     OW16978   5.046   5.706   2.451
 5360SOL    HW116979   4.997   5.726   2.366
 5360SOL    HW216980   4.984   5.660   2.515
 5361SOL     OW16981   1.152   3.893   2.820
 5361SOL    HW116982   1.111   3.980   2.791
 5361SOL    HW216983   1.080   3.832   2.854
 5362SOL     OW16984   5.856   1.701   4.191
 5362SOL    HW116985   5.836   1.709   4.289
 5362SOL    HW216986   5.818   1.779   4.142
 5363SOL     OW16987   6.245   4.006   6.405
 5363SOL    HW116988   6.155   3.974   6.435
 5363SOL    HW216989   6.254   3.995   6.306
 5364SOL     OW16990   4.875   2.106   1.991
 5364SOL    HW116991   4.904   2.178   1.928
 5364SOL    HW216992   4.949   2.086   2.056
 5365SOL     OW16993   3.288   2.707   6.561
 5365SOL    HW116994   3.337   2.794   6.564
 5365SOL    HW216995   3.189   2.725   6.558
 5366SOL     OW16996   0.156   4.392   3.609
 5366SOL    HW116997   0.179   4.487   3.628
 5366SOL    HW216998   0.057   4.379   3.617
 5367SOL     OW16999   6.265   5.034   1.359
 5367SOL    HW117000   6.209   5.116   1.368
 5367SOL    HW217001   6.285   4.997   1.450
 5368SOL     OW17002   6.987   5.975   4.740
 5368SOL    HW117003   6.945   6.030   4.812
 5368SOL    HW217004   6.922   5.963   4.665
 5369SOL     OW17005   3.679   0.796   2.243
 5369SOL    HW117006   3.585   0.760   2.238
 5369SOL    HW217007   3.699   0.848   2.160
 5370SOL     OW17008   2.253   2.358   6.988
 5370SOL    HW117009   2.184   2.371   0.036
 5370SOL    HW217010   2.288   2.447   6.958
 5371SOL     OW17011   6.285   5.285   3.008
 5371SOL    HW117012   6.328   5.197   2.987
 5371SOL    HW217013   6.220   5.309   2.936
 5372SOL     OW17014   1.047   1.093   4.670
 5372SOL    HW117015   1.139   1.117   4.638
 5372SOL    HW217016   1.036   1.122   4.765
 5373SOL     OW17017   4.250   6.556   0.911
 5373SOL    HW117018   4.270   6.507   0.996
 5373SOL    HW217019   4.151   6.564   0.900
 5374SOL     OW17020   2.048   3.565   1.508
 5374SOL    HW117021   2.013   3.622   1.583
 5374SOL    HW217022   2.016   3.601   1.421
 5375SOL     OW17023   2.816   4.877   5.129
 5375SOL    HW117024   2.902   4.929   5.125
 5375SOL    HW217025   2.830   4.787   5.088
 5376SOL     OW17026   6.402   6.641   2.308
 5376SOL    HW117027   6.315   6.688   2.296
 5376SOL    HW217028   6.445   6.671   2.393
 5377SOL     OW17029   0.701   3.329   1.123
 5377SOL    HW117030   0.710   3.308   1.220
 5377SOL    HW217031   0.763   3.404   1.099
 5378SOL     OW17032   4.887   0.610   5.106
 5378SOL    HW117033   4.859   0.693   5.155
 5378SOL    HW217034   4.984   0.616   5.085
 5379SOL     OW17035   3.508   1.997   4.194
 5379SOL    HW117036   3.457   1.912   4.204
 5379SOL    HW217037   3.474   2.064   4.260
 5380SOL     OW17038   4.364   6.725   1.487
 5380SOL    HW117039   4.458   6.705   1.513
 5380SOL    HW217040   4.324   6.789   1.553
 5381SOL     OW17041   2.736   1.860   2.185
 5381SOL    HW117042   2.724   1.955   2.155
 5381SOL    HW217043   2.733   1.856   2.285
 5382SOL     OW17044   3.513   0.316   2.729
 5382SOL    HW117045   3.477   0.265   2.650
 5382SOL    HW217046   3.529   0.252   2.804
 5383SOL     OW17047   2.195   4.347   5.351
 5383SOL    HW117048   2.192   4.293   5.435
 5383SOL    HW217049   2.283   4.395   5.346
 5384SOL     OW17050   5.079   6.042   5.889
 5384SOL    HW117051   5.112   6.079   5.802
 5384SOL    HW217052   5.156   6.008   5.943
 5385SOL     OW17053   3.996   4.068   1.067
 5385SOL    HW117054   3.907   4.103   1.038
 5385SOL    HW217055   4.046   4.034   0.987
 5386SOL     OW17056   3.776   5.627   3.433
 5386SOL    HW117057   3.756   5.649   3.528
 5386SOL    HW217058   3.747   5.533   3.413
 5387SOL     OW17059   1.023   2.642   5.468
 5387SOL    HW117060   1.056   2.547   5.470
 5387SOL    HW217061   0.954   2.654   5.540
 5388SOL     OW17062   6.801   6.652   3.052
 5388SOL    HW117063   6.744   6.581   3.094
 5388SOL    HW217064   6.864   6.609   2.987
 5389SOL     OW17065   6.848   2.010   4.797
 5389SOL    HW117066   6.913   2.022   4.872
 5389SOL    HW217067   6.831   2.099   4.754
 5390SOL     OW17068   5.711   2.294   3.604
 5390SOL    HW117069   5.699   2.351   3.523
 5390SOL    HW217070   5.796   2.242   3.597
 5391SOL     OW17071   4.943   3.160   1.155
 5391SOL    HW117072   4.978   3.108   1.233
 5391SOL    HW217073   4.907   3.096   1.087
 5392SOL     OW17074   5.223   1.038   3.671
 5392SOL    HW117075   5.309   1.030   3.722
 5392SOL    HW217076   5.152   1.077   3.729
 5393SOL     OW17077   4.804   2.800   2.358
 5393SOL    HW117078   4.756   2.771   2.275
 5393SOL    HW217079   4.775   2.892   2.383
 5394SOL     OW17080   0.551   3.581   3.489
 5394SOL    HW117081   0.503   3.636   3.558
 5394SOL    HW217082   0.495   3.574   3.407
 5395SOL     OW17083   0.623   0.387   1.762
 5395SOL    HW117084   0.676   0.331   1.698
 5395SOL    HW217085   0.575   0.459   1.711
 5396SOL     OW17086   3.807   2.259   6.944
 5396SOL    HW117087   3.806   2.179   7.004
 5396SOL    HW217088   3.780   2.340   6.997
 5397SOL     OW17089   6.962   0.130   3.109
 5397SOL    HW117090   6.973   0.031   3.100
 5397SOL    HW217091   7.013   0.175   3.036
 5398SOL     OW17092   6.062   2.290   3.625
 5398SOL    HW117093   6.025   2.224   3.560
 5398SOL    HW217094   6.139   2.339   3.583
 5399SOL     OW17095   2.843   2.461   0.408
 5399SOL    HW117096   2.825   2.372   0.450
 5399SOL    HW217097   2.761   2.495   0.363
 5400SOL     OW17098   4.203   3.057   1.071
 5400SOL    HW117099   4.171   2.968   1.104
 5400SOL    HW217100   4.197   3.060   0.972
 5401SOL     OW17101   4.729   3.297   1.280
 5401SOL    HW117102   4.806   3.278   1.220
 5401SOL    HW217103   4.644   3.268   1.235
 5402SOL     OW17104   1.912   5.433   1.426
 5402SOL    HW117105   1.875   5.524   1.406
 5402SOL    HW217106   2.011   5.433   1.407
 5403SOL     OW17107   6.731   2.956   5.166
 5403SOL    HW117108   6.715   2.868   5.121
 5403SOL    HW217109   6.825   2.959   5.200
 5404SOL     OW17110   4.303   6.650   6.928
 5404SOL    HW117111   4.383   6.703   6.901
 5404SOL    HW217112   4.311   6.624   0.002
 5405SOL     OW17113   5.823   5.233   6.561
 5405SOL    HW117114   5.783   5.196   6.477
 5405SOL    HW217115   5.921   5.213   6.563
 5406SOL     OW17116   2.129   1.679   4.763
 5406SOL    HW117117   2.070   1.731   4.825
 5406SOL    HW217118   2.220   1.720   4.763
 5407SOL     OW17119   1.954   2.061   2.390
 5407SOL    HW117120   2.054   2.062   2.388
 5407SOL    HW217121   1.921   1.972   2.359
 5408SOL     OW17122   2.348   2.223   4.113
 5408SOL    HW117123   2.407   2.295   4.151
 5408SOL    HW217124   2.254   2.256   4.109
 5409SOL     OW17125   6.920   4.379   3.692
 5409SOL    HW117126   6.929   4.406   3.788
 5409SOL    HW217127   6.850   4.307   3.685
 5410SOL     OW17128   5.999   0.956   0.280
 5410SOL    HW117129   5.935   0.886   0.314
 5410SOL    HW217130   5.957   1.046   0.289
 5411SOL     OW17131   2.675   6.305   1.841
 5411SOL    HW117132   2.753   6.276   1.785
 5411SOL    HW217133   2.602   6.338   1.781
 5412SOL     OW17134   2.767   2.448   5.684
 5412SOL    HW117135   2.696   2.501   5.730
 5412SOL    HW217136   2.819   2.508   5.623
 5413SOL     OW17137   6.895   5.139   5.666
 5413SOL    HW117138   6.931   5.212   5.725
 5413SOL    HW217139   6.805   5.165   5.632
 5414SOL     OW17140   5.855   5.584   5.851
 5414SOL    HW117141   5.954   5.566   5.853
 5414SOL    HW217142   5.831   5.646   5.926
 5415SOL     OW17143   2.571   6.951   7.016
 5415SOL    HW117144   2.513   6.871   7.000
 5415SOL    HW217145   2.525   0.010   6.981
 5416SOL     OW17146   4.180   4.942   5.815
 5416SOL    HW117147   4.237   5.022   5.797
 5416SOL    HW217148   4.235   4.871   5.860
 5417SOL     OW17149   4.843   0.271   1.918
 5417SOL    HW117150   4.868   0.277   2.015
 5417SOL    HW217151   4.761   0.215   1.908
 5418SOL     OW17152   0.025   3.187   6.145
 5418SOL    HW117153   0.079   3.270   6.162
 5418SOL    HW217154   0.062   3.111   6.198
 5419SOL     OW17155   4.342   2.691   6.117
 5419SOL    HW117156   4.412   2.746   6.162
 5419SOL    HW217157   4.371   2.595   6.118
 5420SOL     OW17158   1.237   1.466   0.871
 5420SOL    HW117159   1.303   1.434   0.940
 5420SOL    HW217160   1.194   1.550   0.904
 5421SOL     OW17161   3.724   5.274   0.849
 5421SOL    HW117162   3.699   5.370   0.837
 5421SOL    HW217163   3.750   5.257   0.944
 5422SOL     OW17164   2.412   0.132   3.769
 5422SOL    HW117165   2.313   0.121   3.775
 5422SOL    HW217166   2.446   0.175   3.853
 5423SOL     OW17167   4.001   5.491   3.033
 5423SOL    HW117168   4.032   5.423   2.967
 5423SOL    HW217169   4.010   5.454   3.126
 5424SOL     OW17170   4.321   2.980   5.818
 5424SOL    HW117171   4.225   2.995   5.796
 5424SOL    HW217172   4.360   3.063   5.858
 5425SOL     OW17173   2.111   5.848   4.554
 5425SOL    HW117174   2.109   5.749   4.540
 5425SOL    HW217175   2.170   5.890   4.485
 5426SOL     OW17176   1.510   3.246   0.124
 5426SOL    HW117177   1.520   3.342   0.151
 5426SOL    HW217178   1.498   3.241   0.025
 5427SOL     OW17179   4.647   1.861   0.189
 5427SOL    HW117180   4.613   1.793   0.124
 5427SOL    HW217181   4.645   1.822   0.281
 5428SOL     OW17182   4.885   5.766   2.214
 5428SOL    HW117183   4.848   5.737   2.125
 5428SOL    HW217184   4.954   5.837   2.200
 5429SOL     OW17185   2.938   6.501   2.945
 5429SOL    HW117186   2.967   6.405   2.945
 5429SOL    HW217187   2.945   6.538   2.852
 5430SOL     OW17188   0.949   3.721   5.417
 5430SOL    HW117189   0.897   3.794   5.373
 5430SOL    HW217190   0.994   3.757   5.499
 5431SOL     OW17191   5.221   4.034   0.997
 5431SOL    HW117192   5.172   4.061   1.080
 5431SOL    HW217193   5.198   4.097   0.923
 5432SOL     OW17194   1.337   5.345   5.488
 5432SOL    HW117195   1.401   5.275   5.520
 5432SOL    HW217196   1.266   5.360   5.558
 5433SOL     OW17197   3.227   6.645   2.159
 5433SOL    HW117198   3.325   6.625   2.159
 5433SOL    HW217199   3.209   6.717   2.092
 5434SOL     OW17200   4.976   6.533   4.273
 5434SOL    HW117201   5.009   6.449   4.317
 5434SOL    HW217202   4.997   6.530   4.176
 5435SOL     OW17203   0.905   3.105   6.962
 5435SOL    HW117204   0.843   3.028   6.973
 5435SOL    HW217205   0.853   3.185   6.931
 5436SOL     OW17206   1.430   4.243   0.950
 5436SOL    HW117207   1.472   4.276   1.035
 5436SOL    HW217208   1.439   4.143   0.945
 5437SOL     OW17209   3.200   0.267   5.594
 5437SOL    HW117210   3.115   0.225   5.626
 5437SOL    HW217211   3.190   0.296   5.499
 5438SOL     OW17212   4.095   6.695   3.541
 5438SOL    HW117213   4.064   6.684   3.446
 5438SOL    HW217214   4.079   6.609   3.591
 5439SOL     OW17215   1.624   3.680   2.078
 5439SOL    HW117216   1.619   3.762   2.020
 5439SOL    HW217217   1.623   3.708   2.174
 5440SOL     OW17218   4.937   6.264   2.861
 5440SOL    HW117219   4.998   6.226   2.931
 5440SOL    HW217220   4.962   6.227   2.771
 5441SOL     OW17221   5.902   0.042   4.662
 5441SOL    HW117222   5.879   0.126   4.711
 5441SOL    HW217223   5.889   0.057   4.564
 5442SOL     OW17224   2.653   6.240   0.142
 5442SOL    HW117225   2.561   6.272   0.164
 5442SOL    HW217226   2.690   6.189   0.219
 5443SOL     OW17227   5.391   1.494   3.108
 5443SOL    HW117228   5.350   1.547   3.182
 5443SOL    HW217229   5.377   1.396   3.125
 5444SOL     OW17230   2.386   1.519   6.143
 5444SOL    HW117231   2.366   1.494   6.238
 5444SOL    HW217232   2.373   1.439   6.085
 5445SOL     OW17233   0.268   6.011   5.990
 5445SOL    HW117234   0.194   6.049   6.045
 5445SOL    HW217235   0.285   6.069   5.911
 5446SOL     OW17236   2.637   4.032   0.329
 5446SOL    HW117237   2.714   3.990   0.378
 5446SOL    HW217238   2.673   4.086   0.252
 5447SOL     OW17239   5.277   2.646   1.913
 5447SOL    HW117240   5.187   2.623   1.951
 5447SOL    HW217241   5.284   2.745   1.900
 5448SOL     OW17242   5.879   5.548   1.123
 5448SOL    HW117243   5.971   5.548   1.084
 5448SOL    HW217244   5.819   5.606   1.068
 5449SOL     OW17245   2.412   0.317   2.302
 5449SOL    HW117246   2.324   0.273   2.284
 5449SOL    HW217247   2.460   0.267   2.374
 5450SOL     OW17248   4.453   4.578   1.955
 5450SOL    HW117249   4.483   4.586   1.860
 5450SOL    HW217250   4.458   4.483   1.984
 5451SOL     OW17251   0.262   5.524   3.463
 5451SOL    HW117252   0.281   5.500   3.368
 5451SOL    HW217253   0.341   5.499   3.520
 5452SOL     OW17254   2.328   4.209   3.514
 5452SOL    HW117255   2.306   4.307   3.516
 5452SOL    HW217256   2.343   4.181   3.420
 5453SOL     OW17257   5.710   4.907   4.358
 5453SOL    HW117258   5.643   4.872   4.424
 5453SOL    HW217259   5.766   4.832   4.323
 5454SOL     OW17260   6.780   3.674   2.732
 5454SOL    HW117261   6.863   3.686   2.787
 5454SOL    HW217262   6.762   3.757   2.679
 5455SOL     OW17263   1.774   1.982   2.944
 5455SOL    HW117264   1.798   1.906   2.885
 5455SOL    HW217265   1.718   1.949   3.020
 5456SOL     OW17266   5.975   2.752   7.017
 5456SOL    HW117267   6.039   2.759   0.071
 5456SOL    HW217268   5.986   2.663   6.973
 5457SOL     OW17269   5.713   0.693   0.582
 5457SOL    HW117270   5.773   0.673   0.659
 5457SOL    HW217271   5.655   0.614   0.563
 5458SOL     OW17272   5.934   4.260   6.504
 5458SOL    HW117273   5.994   4.339   6.491
 5458SOL    HW217274   5.968   4.205   6.581
 5459SOL     OW17275   2.049   3.420   4.849
 5459SOL    HW117276   2.103   3.379   4.775
 5459SOL    HW217277   1.962   3.452   4.811
 5460SOL     OW17278   6.652   1.512   0.940
 5460SOL    HW117279   6.614   1.570   0.868
 5460SOL    HW217280   6.656   1.563   1.026
 5461SOL     OW17281   5.842   0.517   5.701
 5461SOL    HW117282   5.778   0.541   5.774
 5461SOL    HW217283   5.803   0.445   5.645
 5462SOL     OW17284   5.680   4.995   0.744
 5462SOL    HW117285   5.670   5.002   0.645
 5462SOL    HW217286   5.757   4.935   0.765
 5463SOL     OW17287   3.086   4.952   6.960
 5463SOL    HW117288   3.117   5.038   7.001
 5463SOL    HW217289   3.062   4.887   0.009
 5464SOL     OW17290   2.423   5.764   4.277
 5464SOL    HW117291   2.372   5.683   4.247
 5464SOL    HW217292   2.511   5.766   4.231
 5465SOL     OW17293   0.089   1.739   5.224
 5465SOL    HW117294   0.061   1.675   5.295
 5465SOL    HW217295   0.180   1.714   5.190
 5466SOL     OW17296   5.521   2.326   4.832
 5466SOL    HW117297   5.616   2.357   4.838
 5466SOL    HW217298   5.460   2.400   4.861
 5467SOL     OW17299   4.369   4.559   2.974
 5467SOL    HW117300   4.286   4.504   2.988
 5467SOL    HW217301   4.449   4.507   3.002
 5468SOL     OW17302   0.476   2.481   1.372
 5468SOL    HW117303   0.506   2.386   1.379
 5468SOL    HW217304   0.554   2.542   1.392
 5469SOL     OW17305   4.347   0.599   2.875
 5469SOL    HW117306   4.422   0.665   2.880
 5469SOL    HW217307   4.380   0.513   2.837
 5470SOL     OW17308   2.983   4.843   2.977
 5470SOL    HW117309   2.944   4.750   2.977
 5470SOL    HW217310   3.038   4.856   3.059
 5471SOL     OW17311   5.472   1.414   3.797
 5471SOL    HW117312   5.418   1.374   3.723
 5471SOL    HW217313   5.557   1.452   3.760
 5472SOL     OW17314   2.605   5.018   0.818
 5472SOL    HW117315   2.537   5.090   0.830
 5472SOL    HW217316   2.691   5.059   0.787
 5473SOL     OW17317   3.052   4.777   1.980
 5473SOL    HW117318   2.974   4.715   1.975
 5473SOL    HW217319   3.090   4.776   2.072
 5474SOL     OW17320   1.298   5.286   1.240
 5474SOL    HW117321   1.212   5.332   1.262
 5474SOL    HW217322   1.369   5.355   1.222
 5475SOL     OW17323   0.015   1.340   5.218
 5475SOL    HW117324   0.019   1.247   5.181
 5475SOL    HW217325   0.014   1.406   5.143
 5476SOL     OW17326   3.003   1.390   4.436
 5476SOL    HW117327   2.931   1.426   4.496
 5476SOL    HW217328   3.017   1.293   4.455
 5477SOL     OW17329   2.241   4.109   2.646
 5477SOL    HW117330   2.283   4.065   2.725
 5477SOL    HW217331   2.312   4.153   2.591
 5478SOL     OW17332   6.682   3.270   5.434
 5478SOL    HW117333   6.699   3.299   5.340
 5478SOL    HW217334   6.588   3.235   5.441
 5479SOL     OW17335   5.640   4.382   4.704
 5479SOL    HW117336   5.647   4.334   4.792
 5479SOL    HW217337   5.685   4.472   4.712
 5480SOL     OW17338   2.745   2.336   6.502
 5480SOL    HW117339   2.732   2.255   6.445
 5480SOL    HW217340   2.838   2.370   6.491
 5481SOL     OW17341   3.326   0.134   0.793
 5481SOL    HW117342   3.374   0.088   0.867
 5481SOL    HW217343   3.385   0.139   0.713
 5482SOL     OW17344   5.740   4.610   2.487
 5482SOL    HW117345   5.836   4.593   2.513
 5482SOL    HW217346   5.694   4.656   2.562
 5483SOL     OW17347   6.075   1.580   0.987
 5483SOL    HW117348   6.068   1.663   0.932
 5483SOL    HW217349   6.164   1.577   1.033
 5484SOL     OW17350   5.928   0.022   5.544
 5484SOL    HW117351   5.948   0.105   5.596
 5484SOL    HW217352   5.997   6.976   5.565
 5485SOL     OW17353   2.343   1.529   3.824
 5485SOL    HW117354   2.251   1.531   3.785
 5485SOL    HW217355   2.404   1.587   3.769
 5486SOL     OW17356   5.977   1.461   3.855
 5486SOL    HW117357   5.989   1.546   3.906
 5486SOL    HW217358   5.973   1.384   3.919
 5487SOL     OW17359   4.546   6.026   1.367
 5487SOL    HW117360   4.498   6.029   1.279
 5487SOL    HW217361   4.505   5.956   1.425
 5488SOL     OW17362   4.839   6.989   6.446
 5488SOL    HW117363   4.918   6.932   6.426
 5488SOL    HW217364   4.799   6.962   6.533
 5489SOL     OW17365   6.854   2.899   2.523
 5489SOL    HW117366   6.934   2.840   2.516
 5489SOL    HW217367   6.868   2.965   2.597
 5490SOL     OW17368   2.833   1.211   6.620
 5490SOL    HW117369   2.883   1.212   6.534
 5490SOL    HW217370   2.883   1.267   6.687
 5491SOL     OW17371   6.170   6.405   1.396
 5491SOL    HW117372   6.192   6.328   1.336
 5491SOL    HW217373   6.146   6.484   1.340
 5492SOL     OW17374   1.472   1.094   5.930
 5492SOL    HW117375   1.446   1.182   5.890
 5492SOL    HW217376   1.571   1.082   5.923
 5493SOL     OW17377   3.996   0.868   6.358
 5493SOL    HW117378   4.016   0.924   6.439
 5493SOL    HW217379   4.081   0.844   6.312
 5494SOL     OW17380   5.591   3.072   2.218
 5494SOL    HW117381   5.643   2.988   2.202
 5494SOL    HW217382   5.562   3.110   2.130
 5495SOL     OW17383   3.558   3.019   5.045
 5495SOL    HW117384   3.478   3.078   5.052
 5495SOL    HW217385   3.541   2.947   4.977
 5496SOL     OW17386   4.647   4.990   2.040
 5496SOL    HW117387   4.573   4.992   2.106
 5496SOL    HW217388   4.645   5.074   1.985
 5497SOL     OW17389   5.555   6.573   0.277
 5497SOL    HW117390   5.639   6.536   0.237
 5497SOL    HW217391   5.509   6.501   0.330
 5498SOL     OW17392   4.089   1.110   3.309
 5498SOL    HW117393   4.068   1.134   3.404
 5498SOL    HW217394   4.116   1.193   3.259
 5499SOL     OW17395   0.596   0.651   5.111
 5499SOL    HW117396   0.556   0.742   5.097
 5499SOL    HW217397   0.649   0.651   5.195
 5500SOL     OW17398   1.542   6.244   0.453
 5500SOL    HW117399   1.447   6.265   0.428
 5500SOL    HW217400   1.569   6.158   0.410
 5501SOL     OW17401   2.064   1.557   2.360
 5501SOL    HW117402   2.119   1.543   2.277
 5501SOL    HW217403   2.004   1.478   2.372
 5502SOL     OW17404   5.643   4.649   0.652
 5502SOL    HW117405   5.707   4.613   0.719
 5502SOL    HW217406   5.680   4.635   0.560
 5503SOL     OW17407   6.470   0.769   4.109
 5503SOL    HW117408   6.544   0.737   4.169
 5503SOL    HW217409   6.443   0.861   4.137
 5504SOL     OW17410   2.412   2.186   4.729
 5504SOL    HW117411   2.325   2.232   4.715
 5504SOL    HW217412   2.429   2.176   4.827
 5505SOL     OW17413   3.379   5.377   0.818
 5505SOL    HW117414   3.407   5.373   0.914
 5505SOL    HW217415   3.422   5.457   0.775
 5506SOL     OW17416   1.369   6.528   5.198
 5506SOL    HW117417   1.379   6.612   5.253
 5506SOL    HW217418   1.443   6.524   5.131
 5507SOL     OW17419   2.480   5.146   5.239
 5507SOL    HW117420   2.391   5.170   5.200
 5507SOL    HW217421   2.486   5.182   5.332
 5508SOL     OW17422   2.853   1.726   5.255
 5508SOL    HW117423   2.784   1.797   5.240
 5508SOL    HW217424   2.911   1.719   5.174
 5509SOL     OW17425   0.088   6.892   5.751
 5509SOL    HW117426   0.095   6.992   5.740
 5509SOL    HW217427   0.179   6.852   5.742
 5510SOL     OW17428   0.397   0.480   5.486
 5510SOL    HW117429   0.480   0.511   5.533
 5510SOL    HW217430   0.401   0.381   5.473
 5511SOL     OW17431   0.393   2.332   0.947
 5511SOL    HW117432   0.336   2.381   1.013
 5511SOL    HW217433   0.398   2.235   0.971
 5512SOL     OW17434   6.567   6.424   0.056
 5512SOL    HW117435   6.568   6.425   6.979
 5512SOL    HW217436   6.643   6.369   0.090
 5513SOL     OW17437   2.253   6.542   4.913
 5513SOL    HW117438   2.300   6.463   4.951
 5513SOL    HW217439   2.155   6.533   4.927
 5514SOL     OW17440   5.796   5.789   3.585
 5514SOL    HW117441   5.873   5.809   3.524
 5514SOL    HW217442   5.828   5.783   3.679
 5515SOL     OW17443   1.456   3.954   3.793
 5515SOL    HW117444   1.435   3.897   3.714
 5515SOL    HW217445   1.549   3.935   3.825
 5516SOL     OW17446   2.123   2.930   0.270
 5516SOL    HW117447   2.172   2.977   0.343
 5516SOL    HW217448   2.061   2.994   0.224
 5517SOL     OW17449   3.174   0.724   2.392
 5517SOL    HW117450   3.122   0.706   2.308
 5517SOL    HW217451   3.112   0.721   2.470
 5518SOL     OW17452   4.658   3.578   6.265
 5518SOL    HW117453   4.678   3.480   6.265
 5518SOL    HW217454   4.733   3.628   6.309
 5519SOL     OW17455   5.165   3.856   2.223
 5519SOL    HW117456   5.234   3.789   2.198
 5519SOL    HW217457   5.079   3.809   2.242
 5520SOL     OW17458   1.480   2.589   1.060
 5520SOL    HW117459   1.432   2.583   0.973
 5520SOL    HW217460   1.535   2.507   1.074
 5521SOL     OW17461   5.399   4.121   6.481
 5521SOL    HW117462   5.396   4.063   6.562
 5521SOL    HW217463   5.322   4.100   6.422
 5522SOL     OW17464   1.922   2.792   1.633
 5522SOL    HW117465   1.919   2.848   1.716
 5522SOL    HW217466   1.925   2.853   1.553
 5523SOL     OW17467   2.284   6.577   1.720
 5523SOL    HW117468   2.218   6.514   1.679
 5523SOL    HW217469   2.289   6.661   1.666
 5524SOL     OW17470   6.466   6.612   5.857
 5524SOL    HW117471   6.391   6.574   5.912
 5524SOL    HW217472   6.502   6.541   5.796
 5525SOL     OW17473   6.641   0.064   2.983
 5525SOL    HW117474   6.650   0.040   3.080
 5525SOL    HW217475   6.647   7.003   2.928
 5526SOL     OW17476   5.565   3.948   4.711
 5526SOL    HW117477   5.610   4.015   4.653
 5526SOL    HW217478   5.543   3.990   4.799
 5527SOL     OW17479   3.442   2.662   0.257
 5527SOL    HW117480   3.528   2.702   0.228
 5527SOL    HW217481   3.369   2.688   0.193
 5528SOL     OW17482   6.339   2.964   2.530
 5528SOL    HW117483   6.321   2.929   2.438
 5528SOL    HW217484   6.331   2.890   2.596
 5529SOL     OW17485   1.318   1.205   4.611
 5529SOL    HW117486   1.356   1.233   4.523
 5529SOL    HW217487   1.392   1.192   4.677
 5530SOL     OW17488   0.054   2.730   6.887
 5530SOL    HW117489   0.065   2.632   6.870
 5530SOL    HW217490   0.113   2.758   6.963
 5531SOL     OW17491   2.902   2.816   0.452
 5531SOL    HW117492   2.900   2.760   0.535
 5531SOL    HW217493   2.979   2.787   0.394
 5532SOL     OW17494   2.224   3.019   1.809
 5532SOL    HW117495   2.138   3.037   1.762
 5532SOL    HW217496   2.301   3.043   1.750
 5533SOL     OW17497   3.024   0.306   0.594
 5533SOL    HW117498   3.030   0.210   0.566
 5533SOL    HW217499   2.936   0.322   0.639
 5534SOL     OW17500   0.653   3.772   5.183
 5534SOL    HW117501   0.652   3.806   5.277
 5534SOL    HW217502   0.658   3.850   5.120
 5535SOL     OW17503   4.897   5.327   3.352
 5535SOL    HW117504   4.814   5.378   3.377
 5535SOL    HW217505   4.947   5.377   3.281
 5536SOL     OW17506   2.051   1.224   4.326
 5536SOL    HW117507   2.029   1.131   4.295
 5536SOL    HW217508   2.086   1.277   4.248
 5537SOL     OW17509   3.670   1.584   3.534
 5537SOL    HW117510   3.675   1.668   3.587
 5537SOL    HW217511   3.733   1.517   3.571
 5538SOL     OW17512   4.680   2.365   3.001
 5538SOL    HW117513   4.741   2.342   2.925
 5538SOL    HW217514   4.707   2.313   3.082
 5539SOL     OW17515   1.138   0.290   6.277
 5539SOL    HW117516   1.152   0.380   6.235
 5539SOL    HW217517   1.077   0.299   6.356
 5540SOL     OW17518   4.682   6.749   5.056
 5540SOL    HW117519   4.775   6.786   5.060
 5540SOL    HW217520   4.686   6.649   5.061
 5541SOL     OW17521   4.587   2.817   5.163
 5541SOL    HW117522   4.647   2.871   5.103
 5541SOL    HW217523   4.612   2.720   5.156
 5542SOL     OW17524   4.938   4.572   0.120
 5542SOL    HW117525   4.974   4.537   0.207
 5542SOL    HW217526   4.885   4.500   0.075
 5543SOL     OW17527   0.466   0.395   5.897
 5543SOL    HW117528   0.432   0.305   5.868
 5543SOL    HW217529   0.388   0.455   5.918
 5544SOL     OW17530   3.919   5.219   6.806
 5544SOL    HW117531   4.015   5.243   6.796
 5544SOL    HW217532   3.864   5.273   6.742
 5545SOL     OW17533   4.922   2.650   3.448
 5545SOL    HW117534   4.859   2.728   3.456
 5545SOL    HW217535   4.874   2.574   3.405
 5546SOL     OW17536   0.846   6.235   3.706
 5546SOL    HW117537   0.767   6.210   3.763
 5546SOL    HW217538   0.837   6.329   3.674
 5547SOL     OW17539   5.139   1.685   4.247
 5547SOL    HW117540   5.062   1.631   4.280
 5547SOL    HW217541   5.108   1.777   4.224
 5548SOL     OW17542   1.222   3.768   4.772
 5548SOL    HW117543   1.217   3.694   4.840
 5548SOL    HW217544   1.181   3.737   4.686
 5549SOL     OW17545   4.272   3.815   0.220
 5549SOL    HW117546   4.290   3.759   0.139
 5549SOL    HW217547   4.278   3.757   0.302
 5550SOL     OW17548   3.106   4.209   1.323
 5550SOL    HW117549   3.064   4.275   1.386
 5550SOL    HW217550   3.196   4.243   1.295
 5551SOL     OW17551   1.082   4.249   2.232
 5551SOL    HW117552   1.105   4.180   2.164
 5551SOL    HW217553   1.063   4.336   2.185
 5552SOL     OW17554   0.326   0.998   0.697
 5552SOL    HW117555   0.384   1.056   0.639
 5552SOL    HW217556   0.347   1.016   0.793
 5553SOL     OW17557   6.049   5.755   1.761
 5553SOL    HW117558   6.018   5.817   1.834
 5553SOL    HW217559   6.018   5.790   1.673
 5554SOL     OW17560   0.103   2.729   1.604
 5554SOL    HW117561   0.082   2.769   1.693
 5554SOL    HW217562   0.201   2.715   1.596
 5555SOL     OW17563   0.655   4.885   1.967
 5555SOL    HW117564   0.591   4.936   2.025
 5555SOL    HW217565   0.748   4.898   2.001
 5556SOL     OW17566   6.480   1.774   5.267
 5556SOL    HW117567   6.434   1.701   5.218
 5556SOL    HW217568   6.512   1.739   5.356
 5557SOL     OW17569   3.172   0.038   2.732
 5557SOL    HW117570   3.141   6.974   2.693
 5557SOL    HW217571   3.264   0.059   2.700
 5558SOL     OW17572   3.990   4.011   6.127
 5558SOL    HW117573   3.990   3.918   6.163
 5558SOL    HW217574   4.053   4.017   6.050
 5559SOL     OW17575   3.543   0.617   3.457
 5559SOL    HW117576   3.546   0.709   3.497
 5559SOL    HW217577   3.450   0.581   3.463
 5560SOL     OW17578   0.205   4.945   3.488
 5560SOL    HW117579   0.277   5.012   3.508
 5560SOL    HW217580   0.138   4.944   3.562
 5561SOL     OW17581   2.749   0.768   3.711
 5561SOL    HW117582   2.788   0.857   3.687
 5561SOL    HW217583   2.732   0.716   3.628
 5562SOL     OW17584   4.655   2.833   0.995
 5562SOL    HW117585   4.625   2.919   1.036
 5562SOL    HW217586   4.753   2.822   1.012
 5563SOL     OW17587   1.451   4.380   2.436
 5563SOL    HW117588   1.502   4.428   2.508
 5563SOL    HW217589   1.499   4.296   2.412
 5564SOL     OW17590   4.298   6.993   6.632
 5564SOL    HW117591   4.297   0.048   6.696
 5564SOL    HW217592   4.270   0.002   6.542
 5565SOL     OW17593   2.771   2.120   6.349
 5565SOL    HW117594   2.742   2.027   6.374
 5565SOL    HW217595   2.735   2.143   6.259
 5566SOL     OW17596   1.434   5.236   5.085
 5566SOL    HW117597   1.526   5.256   5.118
 5566SOL    HW217598   1.368   5.251   5.159
 5567SOL     OW17599   1.513   5.032   6.628
 5567SOL    HW117600   1.462   5.107   6.584
 5567SOL    HW217601   1.605   5.063   6.649
 5568SOL     OW17602   4.928   5.431   2.398
 5568SOL    HW117603   4.896   5.358   2.338
 5568SOL    HW217604   5.008   5.476   2.356
 5569SOL     OW17605   1.663   2.242   2.896
 5569SOL    HW117606   1.719   2.295   2.959
 5569SOL    HW217607   1.711   2.157   2.872
 5570SOL     OW17608   0.146   3.398   0.980
 5570SOL    HW117609   0.135   3.299   0.994
 5570SOL    HW217610   0.193   3.414   0.893
 5571SOL     OW17611   6.653   4.638   6.739
 5571SOL    HW117612   6.713   4.717   6.749
 5571SOL    HW217613   6.677   4.587   6.657
 5572SOL     OW17614   1.172   4.436   5.797
 5572SOL    HW117615   1.184   4.508   5.728
 5572SOL    HW217616   1.110   4.469   5.868
 5573SOL     OW17617   3.149   4.933   3.224
 5573SOL    HW117618   3.149   4.916   3.322
 5573SOL    HW217619   3.239   4.911   3.186
 5574SOL     OW17620   1.144   1.350   6.027
 5574SOL    HW117621   1.053   1.351   5.985
 5574SOL    HW217622   1.135   1.361   6.126
 5575SOL     OW17623   0.525   0.243   1.950
 5575SOL    HW117624   0.571   0.297   1.880
 5575SOL    HW217625   0.428   0.234   1.928
 5576SOL     OW17626   1.953   5.526   3.173
 5576SOL    HW117627   1.944   5.572   3.261
 5576SOL    HW217628   2.050   5.516   3.150
 5577SOL     OW17629   3.638   1.700   6.311
 5577SOL    HW117630   3.666   1.716   6.405
 5577SOL    HW217631   3.546   1.736   6.297
 5578SOL     OW17632   4.074   3.792   3.499
 5578SOL    HW117633   4.007   3.864   3.483
 5578SOL    HW217634   4.090   3.784   3.598
 5579SOL     OW17635   6.109   3.135   1.918
 5579SOL    HW117636   6.118   3.046   1.874
 5579SOL    HW217637   6.190   3.191   1.899
 5580SOL     OW17638   6.003   2.210   5.825
 5580SOL    HW117639   5.918   2.222   5.876
 5580SOL    HW217640   6.024   2.295   5.776
 5581SOL     OW17641   1.336   0.852   5.694
 5581SOL    HW117642   1.350   0.813   5.786
 5581SOL    HW217643   1.253   0.814   5.655
 5582SOL     OW17644   3.071   2.923   6.292
 5582SOL    HW117645   3.132   2.904   6.215
 5582SOL    HW217646   2.977   2.927   6.260
 5583SOL     OW17647   5.446   6.948   1.269
 5583SOL    HW117648   5.419   0.015   1.235
 5583SOL    HW217649   5.534   6.955   1.315
 5584SOL     OW17650   0.525   4.006   5.028
 5584SOL    HW117651   0.603   4.059   4.995
 5584SOL    HW217652   0.477   3.965   4.949
 5585SOL     OW17653   6.243   4.718   1.391
 5585SOL    HW117654   6.281   4.784   1.456
 5585SOL    HW217655   6.151   4.747   1.365
 5586SOL     OW17656   1.283   6.501   2.045
 5586SOL    HW117657   1.234   6.415   2.062
 5586SOL    HW217658   1.369   6.501   2.097
 5587SOL     OW17659   5.651   1.375   4.611
 5587SOL    HW117660   5.619   1.469   4.623
 5587SOL    HW217661   5.697   1.367   4.523
 5588SOL     OW17662   3.344   6.474   0.716
 5588SOL    HW117663   3.318   6.384   0.750
 5588SOL    HW217664   3.348   6.539   0.792
 5589SOL     OW17665   0.635   4.877   5.694
 5589SOL    HW117666   0.688   4.951   5.652
 5589SOL    HW217667   0.575   4.837   5.626
 5590SOL     OW17668   5.199   5.707   3.511
 5590SOL    HW117669   5.252   5.627   3.537
 5590SOL    HW217670   5.103   5.680   3.497
 5591SOL     OW17671   4.923   1.054   2.490
 5591SOL    HW117672   4.873   1.127   2.442
 5591SOL    HW217673   4.868   1.021   2.566
 5592SOL     OW17674   6.935   5.586   4.631
 5592SOL    HW117675   6.978   5.647   4.698
 5592SOL    HW217676   6.866   5.530   4.678
 5593SOL     OW17677   2.157   4.419   1.387
 5593SOL    HW117678   2.134   4.480   1.462
 5593SOL    HW217679   2.242   4.371   1.408
 5594SOL     OW17680   6.154   7.017   5.352
 5594SOL    HW117681   6.077   0.011   5.412
 5594SOL    HW217682   6.212   0.075   5.348
 5595SOL     OW17683   0.071   1.428   1.054
 5595SOL    HW117684   0.039   1.449   0.962
 5595SOL    HW217685   0.111   1.336   1.055
 5596SOL     OW17686   4.023   6.588   2.996
 5596SOL    HW117687   4.118   6.585   2.966
 5596SOL    HW217688   3.989   6.494   3.008
 5597SOL     OW17689   4.848   3.101   2.304
 5597SOL    HW117690   4.804   3.040   2.238
 5597SOL    HW217691   4.837   3.196   2.275
 5598SOL     OW17692   2.937   0.616   4.080
 5598SOL    HW117693   2.849   0.626   4.126
 5598SOL    HW217694   2.925   0.566   3.994
 5599SOL     OW17695   1.186   1.623   3.784
 5599SOL    HW117696   1.146   1.609   3.874
 5599SOL    HW217697   1.119   1.601   3.714
 5600SOL     OW17698   2.751   2.545   5.329
 5600SOL    HW117699   2.745   2.644   5.318
 5600SOL    HW217700   2.829   2.523   5.388
 5601SOL     OW17701   1.591   0.232   6.886
 5601SOL    HW117702   1.645   0.186   6.816
 5601SOL    HW217703   1.501   0.191   6.891
 5602SOL     OW17704   1.859   1.082   0.185
 5602SOL    HW117705   1.798   1.162   0.178
 5602SOL    HW217706   1.808   1.005   0.222
 5603SOL     OW17707   6.743   3.294   4.939
 5603SOL    HW117708   6.840   3.306   4.915
 5603SOL    HW217709   6.691   3.371   4.903
 5604SOL     OW17710   5.404   0.875   6.634
 5604SOL    HW117711   5.472   0.805   6.610
 5604SOL    HW217712   5.451   0.960   6.655
 5605SOL     OW17713   1.381   1.615   6.518
 5605SOL    HW117714   1.371   1.529   6.469
 5605SOL    HW217715   1.478   1.640   6.522
 5606SOL     OW17716   5.994   6.294   2.919
 5606SOL    HW117717   6.088   6.329   2.916
 5606SOL    HW217718   5.990   6.216   2.982
 5607SOL     OW17719   5.277   6.636   0.624
 5607SOL    HW117720   5.291   6.695   0.545
 5607SOL    HW217721   5.274   6.691   0.707
 5608SOL     OW17722   3.670   6.521   5.256
 5608SOL    HW117723   3.624   6.588   5.314
 5608SOL    HW217724   3.768   6.519   5.279
 5609SOL     OW17725   1.694   6.016   4.892
 5609SOL    HW117726   1.622   5.945   4.892
 5609SOL    HW217727   1.713   6.043   4.986
 5610SOL     OW17728   5.472   6.750   6.475
 5610SOL    HW117729   5.404   6.821   6.496
 5610SOL    HW217730   5.506   6.763   6.382
 5611SOL     OW17731   1.687   4.654   4.091
 5611SOL    HW117732   1.598   4.649   4.045
 5611SOL    HW217733   1.673   4.672   4.188
 5612SOL     OW17734   3.833   6.368   4.378
 5612SOL    HW117735   3.733   6.377   4.377
 5612SOL    HW217736   3.869   6.396   4.289
 5613SOL     OW17737   2.594   5.199   2.538
 5613SOL    HW117738   2.634   5.260   2.470
 5613SOL    HW217739   2.503   5.170   2.507
 5614SOL     OW17740   5.120   2.296   4.560
 5614SOL    HW117741   5.067   2.223   4.603
 5614SOL    HW217742   5.215   2.267   4.548
 5615SOL     OW17743   0.895   1.350   1.658
 5615SOL    HW117744   0.944   1.318   1.739
 5615SOL    HW217745   0.960   1.373   1.586
 5616SOL     OW17746   2.998   6.670   4.933
 5616SOL    HW117747   2.965   6.576   4.938
 5616SOL    HW217748   3.094   6.674   4.961
 5617SOL     OW17749   0.061   1.079   5.942
 5617SOL    HW117750   0.129   1.028   5.891
 5617SOL    HW217751   0.058   1.174   5.909
 5618SOL     OW17752   6.467   5.182   3.836
 5618SOL    HW117753   6.423   5.199   3.748
 5618SOL    HW217754   6.567   5.184   3.825
 5619SOL     OW17755   2.176   3.155   4.225
 5619SOL    HW117756   2.087   3.163   4.180
 5619SOL    HW217757   2.245   3.131   4.157
 5620SOL     OW17758   5.380   2.150   6.158
 5620SOL    HW117759   5.439   2.222   6.193
 5620SOL    HW217760   5.360   2.085   6.231
 5621SOL     OW17761   2.783   1.778   4.957
 5621SOL    HW117762   2.746   1.836   5.028
 5621SOL    HW217763   2.872   1.814   4.927
 5622SOL     OW17764   5.880   1.780   4.753
 5622SOL    HW117765   5.903   1.686   4.778
 5622SOL    HW217766   5.817   1.817   4.820
 5623SOL     OW17767   0.283   6.120   6.359
 5623SOL    HW117768   0.217   6.099   6.431
 5623SOL    HW217769   0.314   6.215   6.369
 5624SOL     OW17770   1.280   3.952   3.059
 5624SOL    HW117771   1.309   4.047   3.056
 5624SOL    HW217772   1.229   3.930   2.975
 5625SOL     OW17773   6.279   1.712   6.102
 5625SOL    HW117774   6.337   1.640   6.139
 5625SOL    HW217775   6.280   1.708   6.002
 5626SOL     OW17776   5.831   6.542   5.416
 5626SOL    HW117777   5.847   6.594   5.500
 5626SOL    HW217778   5.832   6.604   5.338
 5627SOL     OW17779   1.555   0.527   1.608
 5627SOL    HW117780   1.576   0.588   1.532
 5627SOL    HW217781   1.515   0.442   1.572
 5628SOL     OW17782   0.959   1.787   4.247
 5628SOL    HW117783   0.912   1.875   4.240
 5628SOL    HW217784   1.041   1.788   4.190
 5629SOL     OW17785   3.564   3.542   3.444
 5629SOL    HW117786   3.480   3.503   3.407
 5629SOL    HW217787   3.587   3.497   3.531
 5630SOL     OW17788   6.275   3.794   1.061
 5630SOL    HW117789   6.296   3.871   1.122
 5630SOL    HW217790   6.339   3.794   0.984
 5631SOL     OW17791   6.309   1.070   6.335
 5631SOL    HW117792   6.269   1.019   6.259
 5631SOL    HW217793   6.333   1.006   6.408
 5632SOL     OW17794   3.620   2.375   1.276
 5632SOL    HW117795   3.693   2.339   1.334
 5632SOL    HW217796   3.545   2.408   1.332
 5633SOL     OW17797   6.959   2.900   6.011
 5633SOL    HW117798   0.021   2.920   6.060
 5633SOL    HW217799   6.941   2.971   5.943
 5634SOL     OW17800   4.618   5.860   5.435
 5634SOL    HW117801   4.635   5.819   5.525
 5634SOL    HW217802   4.619   5.960   5.443
 5635SOL     OW17803   2.582   1.584   0.062
 5635SOL    HW117804   2.645   1.639   0.007
 5635SOL    HW217805   2.494   1.576   0.013
 5636SOL     OW17806   4.602   0.868   4.276
 5636SOL    HW117807   4.508   0.893   4.300
 5636SOL    HW217808   4.637   0.931   4.207
 5637SOL     OW17809   5.913   0.097   2.843
 5637SOL    HW117810   5.981   0.140   2.902
 5637SOL    HW217811   5.927   0.126   2.748
 5638SOL     OW17812   0.211   3.350   0.441
 5638SOL    HW117813   0.196   3.317   0.535
 5638SOL    HW217814   0.166   3.289   0.377
 5639SOL     OW17815   4.298   0.401   6.590
 5639SOL    HW117816   4.226   0.331   6.582
 5639SOL    HW217817   4.360   0.377   6.665
 5640SOL     OW17818   1.371   0.144   3.479
 5640SOL    HW117819   1.391   0.208   3.405
 5640SOL    HW217820   1.360   0.052   3.442
 5641SOL     OW17821   6.659   6.098   4.707
 5641SOL    HW117822   6.729   6.045   4.659
 5641SOL    HW217823   6.569   6.060   4.686
 5642SOL     OW17824   1.436   0.422   0.214
 5642SOL    HW117825   1.459   0.382   0.303
 5642SOL    HW217826   1.517   0.425   0.157
 5643SOL     OW17827   4.944   2.306   0.370
 5643SOL    HW117828   4.979   2.322   0.462
 5643SOL    HW217829   4.858   2.255   0.376
 5644SOL     OW17830   2.583   0.331   5.852
 5644SOL    HW117831   2.533   0.392   5.790
 5644SOL    HW217832   2.520   0.263   5.890
 5645SOL     OW17833   4.906   4.008   3.888
 5645SOL    HW117834   4.905   4.032   3.791
 5645SOL    HW217835   4.911   3.908   3.897
 5646SOL     OW17836   1.460   4.791   2.810
 5646SOL    HW117837   1.473   4.788   2.711
 5646SOL    HW217838   1.362   4.780   2.830
 5647SOL     OW17839   4.154   5.414   2.708
 5647SOL    HW117840   4.202   5.334   2.743
 5647SOL    HW217841   4.142   5.406   2.610
 5648SOL     OW17842   5.839   6.705   3.574
 5648SOL    HW117843   5.744   6.683   3.592
 5648SOL    HW217844   5.871   6.653   3.495
 5649SOL     OW17845   0.575   0.701   4.684
 5649SOL    HW117846   0.601   0.795   4.664
 5649SOL    HW217847   0.501   0.673   4.622
 5650SOL     OW17848   0.722   3.800   6.282
 5650SOL    HW117849   0.749   3.868   6.213
 5650SOL    HW217850   0.747   3.709   6.251
 5651SOL     OW17851   3.058   0.819   1.286
 5651SOL    HW117852   3.055   0.916   1.260
 5651SOL    HW217853   2.982   0.798   1.347
 5652SOL     OW17854   0.333   6.069   2.018
 5652SOL    HW117855   0.372   6.160   2.007
 5652SOL    HW217856   0.348   6.037   2.112
 5653SOL     OW17857   0.328   0.448   2.663
 5653SOL    HW117858   0.404   0.406   2.713
 5653SOL    HW217859   0.250   0.386   2.663
 5654SOL     OW17860   3.188   6.235   6.017
 5654SOL    HW117861   3.168   6.223   6.114
 5654SOL    HW217862   3.286   6.251   6.005
 5655SOL     OW17863   6.481   3.362   4.304
 5655SOL    HW117864   6.499   3.306   4.385
 5655SOL    HW217865   6.383   3.376   4.294
 5656SOL     OW17866   0.264   4.761   1.736
 5656SOL    HW117867   0.341   4.704   1.763
 5656SOL    HW217868   0.293   4.857   1.733
 5657SOL     OW17869   6.131   6.385   5.684
 5657SOL    HW117870   6.061   6.350   5.622
 5657SOL    HW217871   6.215   6.333   5.672
 5658SOL     OW17872   3.042   2.350   5.428
 5658SOL    HW117873   3.107   2.353   5.352
 5658SOL    HW217874   2.988   2.265   5.422
 5659SOL     OW17875   2.592   3.887   5.617
 5659SOL    HW117876   2.561   3.949   5.689
 5659SOL    HW217877   2.665   3.828   5.652
 5660SOL     OW17878   4.158   0.751   4.353
 5660SOL    HW117879   4.171   0.733   4.255
 5660SOL    HW217880   4.071   0.712   4.382
 5661SOL     OW17881   0.540   6.021   5.699
 5661SOL    HW117882   0.573   5.962   5.773
 5661SOL    HW217883   0.480   6.091   5.737
 5662SOL     OW17884   2.674   5.768   0.686
 5662SOL    HW117885   2.694   5.685   0.738
 5662SOL    HW217886   2.599   5.817   0.730
 5663SOL     OW17887   3.513   1.336   6.236
 5663SOL    HW117888   3.494   1.402   6.164
 5663SOL    HW217889   3.590   1.366   6.291
 5664SOL     OW17890   4.886   6.071   5.073
 5664SOL    HW117891   4.844   6.050   4.985
 5664SOL    HW217892   4.874   5.994   5.136
 5665SOL     OW17893   2.270   1.226   0.935
 5665SOL    HW117894   2.345   1.281   0.971
 5665SOL    HW217895   2.263   1.141   0.987
 5666SOL     OW17896   6.162   3.568   4.748
 5666SOL    HW117897   6.115   3.485   4.717
 5666SOL    HW217898   6.098   3.623   4.802
 5667SOL     OW17899   2.580   4.551   4.097
 5667SOL    HW117900   2.550   4.517   4.008
 5667SOL    HW217901   2.664   4.604   4.087
 5668SOL     OW17902   4.441   4.593   4.111
 5668SOL    HW117903   4.468   4.678   4.157
 5668SOL    HW217904   4.342   4.585   4.110
 5669SOL     OW17905   5.676   3.354   5.908
 5669SOL    HW117906   5.757   3.363   5.965
 5669SOL    HW217907   5.638   3.444   5.889
 5670SOL     OW17908   0.759   3.412   4.305
 5670SOL    HW117909   0.664   3.403   4.336
 5670SOL    HW217910   0.821   3.394   4.381
 5671SOL     OW17911   5.786   6.040   2.791
 5671SOL    HW117912   5.740   6.030   2.703
 5671SOL    HW217913   5.754   5.968   2.853
 5672SOL     OW17914   5.984   3.393   4.620
 5672SOL    HW117915   5.905   3.351   4.663
 5672SOL    HW217916   6.055   3.324   4.605
 5673SOL     OW17917   0.960   2.333   0.695
 5673SOL    HW117918   1.028   2.370   0.632
 5673SOL    HW217919   0.982   2.360   0.789
 5674SOL     OW17920   3.196   5.119   5.523
 5674SOL    HW117921   3.159   5.163   5.441
 5674SOL    HW217922   3.296   5.120   5.519
 5675SOL     OW17923   3.829   2.070   0.893
 5675SOL    HW117924   3.734   2.051   0.921
 5675SOL    HW217925   3.889   2.061   0.972
 5676SOL     OW17926   3.550   1.553   1.893
 5676SOL    HW117927   3.624   1.619   1.883
 5676SOL    HW217928   3.588   1.464   1.919
 5677SOL     OW17929   1.282   1.057   6.103
 5677SOL    HW117930   1.200   1.090   6.056
 5677SOL    HW217931   1.355   1.045   6.036
 5678SOL     OW17932   4.001   1.889   1.938
 5678SOL    HW117933   3.987   1.916   2.034
 5678SOL    HW217934   3.939   1.940   1.879
 5679SOL     OW17935   1.296   3.958   5.691
 5679SOL    HW117936   1.295   4.057   5.673
 5679SOL    HW217937   1.380   3.919   5.656
 5680SOL     OW17938   0.988   6.092   3.983
 5680SOL    HW117939   0.918   6.024   3.964
 5680SOL    HW217940   0.954   6.183   3.961
 5681SOL     OW17941   1.817   3.638   2.976
 5681SOL    HW117942   1.757   3.683   3.043
 5681SOL    HW217943   1.761   3.602   2.901
 5682SOL     OW17944   2.085   4.466   0.144
 5682SOL    HW117945   2.165   4.526   0.134
 5682SOL    HW217946   2.102   4.401   0.217
 5683SOL     OW17947   6.773   5.990   6.230
 5683SOL    HW117948   6.796   5.897   6.257
 5683SOL    HW217949   6.835   6.020   6.157
 5684SOL     OW17950   2.069   3.694   4.143
 5684SOL    HW117951   2.123   3.770   4.179
 5684SOL    HW217952   2.091   3.610   4.194
 5685SOL     OW17953   1.787   1.949   1.568
 5685SOL    HW117954   1.868   1.927   1.623
 5685SOL    HW217955   1.765   2.046   1.578
 5686SOL     OW17956   5.834   5.475   5.497
 5686SOL    HW117957   5.782   5.446   5.417
 5686SOL    HW217958   5.884   5.397   5.534
 5687SOL     OW17959   0.926   0.367   6.796
 5687SOL    HW117960   0.925   0.369   6.696
 5687SOL    HW217961   0.993   0.433   6.830
 5688SOL     OW17962   1.392   2.857   2.506
 5688SOL    HW117963   1.434   2.766   2.504
 5688SOL    HW217964   1.393   2.895   2.413
 5689SOL     OW17965   0.117   1.494   0.655
 5689SOL    HW117966   0.043   1.492   0.723
 5689SOL    HW217967   0.196   1.445   0.690
 5690SOL     OW17968   3.419   5.330   7.021
 5690SOL    HW117969   3.469   5.264   6.965
 5690SOL    HW217970   3.477   5.362   0.072
 5691SOL     OW17971   4.947   3.127   3.360
 5691SOL    HW117972   5.040   3.096   3.342
 5691SOL    HW217973   4.948   3.223   3.390
 5692SOL     OW17974   6.494   4.611   2.220
 5692SOL    HW117975   6.490   4.519   2.182
 5692SOL    HW217976   6.585   4.627   2.258
 5693SOL     OW17977   2.989   0.955   2.226
 5693SOL    HW117978   2.970   1.032   2.166
 5693SOL    HW217979   2.983   0.870   2.174
 5694SOL     OW17980   6.892   6.515   0.948
 5694SOL    HW117981   6.990   6.520   0.964
 5694SOL    HW217982   6.863   6.593   0.892
 5695SOL     OW17983   1.635   0.948   2.240
 5695SOL    HW117984   1.608   0.855   2.265
 5695SOL    HW217985   1.569   0.985   2.174
 5696SOL     OW17986   6.465   1.442   3.283
 5696SOL    HW117987   6.511   1.462   3.369
 5696SOL    HW217988   6.529   1.395   3.221
 5697SOL     OW17989   5.906   1.729   0.441
 5697SOL    HW117990   5.955   1.760   0.360
 5697SOL    HW217991   5.810   1.715   0.419
 5698SOL     OW17992   2.762   2.035   3.195
 5698SOL    HW117993   2.780   1.937   3.192
 5698SOL    HW217994   2.838   2.084   3.153
 5699SOL     OW17995   2.352   2.456   2.339
 5699SOL    HW117996   2.331   2.412   2.426
 5699SOL    HW217997   2.320   2.551   2.340
 5700SOL     OW17998   5.648   0.657   2.177
 5700SOL    HW117999   5.734   0.614   2.148
 5700SOL    HW218000   5.627   0.630   2.271
 5701SOL     OW18001   1.981   1.355   0.724
 5701SOL    HW118002   1.939   1.437   0.764
 5701SOL    HW218003   2.066   1.381   0.677
 5702SOL     OW18004   1.420   6.307   4.814
 5702SOL    HW118005   1.431   6.218   4.768
 5702SOL    HW218006   1.510   6.348   4.828
 5703SOL     OW18007   0.873   3.282   5.774
 5703SOL    HW118008   0.924   3.356   5.818
 5703SOL    HW218009   0.775   3.295   5.789
 5704SOL     OW18010   4.583   5.958   4.412
 5704SOL    HW118011   4.654   5.912   4.466
 5704SOL    HW218012   4.505   5.979   4.471
 5705SOL     OW18013   6.200   1.581   4.886
 5705SOL    HW118014   6.109   1.553   4.854
 5705SOL    HW218015   6.264   1.505   4.873
 5706SOL     OW18016   5.678   0.594   1.271
 5706SOL    HW118017   5.741   0.599   1.194
 5706SOL    HW218018   5.626   0.680   1.278
 5707SOL     OW18019   5.879   6.202   1.272
 5707SOL    HW118020   5.967   6.198   1.225
 5707SOL    HW218021   5.894   6.203   1.371
 5708SOL     OW18022   4.477   6.813   1.906
 5708SOL    HW118023   4.387   6.855   1.890
 5708SOL    HW218024   4.503   6.759   1.827
 5709SOL     OW18025   6.532   2.412   2.467
 5709SOL    HW118026   6.486   2.458   2.542
 5709SOL    HW218027   6.596   2.475   2.423
 5710SOL     OW18028   5.311   1.226   0.425
 5710SOL    HW118029   5.212   1.217   0.419
 5710SOL    HW218030   5.351   1.137   0.445
 5711SOL     OW18031   4.326   1.385   2.959
 5711SOL    HW118032   4.419   1.389   2.922
 5711SOL    HW218033   4.267   1.444   2.903
 5712SOL     OW18034   6.613   5.775   6.793
 5712SOL    HW118035   6.684   5.817   6.850
 5712SOL    HW218036   6.646   5.688   6.756
 5713SOL     OW18037   1.369   1.046   6.883
 5713SOL    HW118038   1.275   1.049   6.917
 5713SOL    HW218039   1.385   1.122   6.820
 5714SOL     OW18040   4.904   0.236   1.006
 5714SOL    HW118041   4.950   0.159   1.049
 5714SOL    HW218042   4.809   0.211   0.985
 5715SOL     OW18043   0.309   6.018   0.953
 5715SOL    HW118044   0.235   6.033   1.019
 5715SOL    HW218045   0.277   6.043   0.861
 5716SOL     OW18046   6.884   4.722   5.771
 5716SOL    HW118047   6.827   4.762   5.843
 5716SOL    HW218048   6.860   4.626   5.759
 5717SOL     OW18049   7.013   6.334   2.374
 5717SOL    HW118050   6.973   6.339   2.466
 5717SOL    HW218051   0.088   6.314   2.382
 5718SOL     OW18052   1.816   4.540   6.037
 5718SOL    HW118053   1.834   4.565   5.942
 5718SOL    HW218054   1.769   4.451   6.040
 5719SOL     OW18055   3.586   3.534   1.674
 5719SOL    HW118056   3.488   3.524   1.693
 5719SOL    HW218057   3.630   3.578   1.752
 5720SOL     OW18058   2.418   3.825   6.818
 5720SOL    HW118059   2.333   3.778   6.792
 5720SOL    HW218060   2.480   3.759   6.861
 5721SOL     OW18061   1.061   3.047   0.593
 5721SOL    HW118062   1.042   3.032   0.690
 5721SOL    HW218063   1.079   3.144   0.578
 5722SOL     OW18064   1.504   0.616   6.060
 5722SOL    HW118065   1.483   0.575   6.149
 5722SOL    HW218066   1.603   0.614   6.045
 5723SOL     OW18067   4.501   3.947   0.052
 5723SOL    HW118068   4.404   3.922   0.057
 5723SOL    HW218069   4.515   4.036   0.097
 5724SOL     OW18070   6.710   2.226   6.239
 5724SOL    HW118071   6.790   2.272   6.201
 5724SOL    HW218072   6.712   2.129   6.213
 5725SOL     OW18073   6.481   4.223   4.911
 5725SOL    HW118074   6.407   4.255   4.851
 5725SOL    HW218075   6.564   4.276   4.892
 5726SOL     OW18076   4.278   4.772   1.971
 5726SOL    HW118077   4.323   4.857   1.944
 5726SOL    HW218078   4.346   4.699   1.975
 5727SOL     OW18079   1.127   3.200   6.064
 5727SOL    HW118080   1.029   3.190   6.080
 5727SOL    HW218081   1.169   3.249   6.140
 5728SOL     OW18082   2.138   5.823   4.025
 5728SOL    HW118083   2.186   5.899   4.068
 5728SOL    HW218084   2.064   5.792   4.086
 5729SOL     OW18085   2.702   1.890   4.213
 5729SOL    HW118086   2.624   1.835   4.243
 5729SOL    HW218087   2.670   1.973   4.169
 5730SOL     OW18088   6.350   4.836   4.422
 5730SOL    HW118089   6.288   4.827   4.344
 5730SOL    HW218090   6.442   4.856   4.388
 5731SOL     OW18091   6.731   6.853   2.486
 5731SOL    HW118092   6.806   6.852   2.552
 5731SOL    HW218093   6.765   6.887   2.398
 5732SOL     OW18094   5.258   0.227   3.291
 5732SOL    HW118095   5.159   0.215   3.285
 5732SOL    HW218096   5.303   0.166   3.225
 5733SOL     OW18097   2.985   0.756   5.200
 5733SOL    HW118098   2.928   0.758   5.117
 5733SOL    HW218099   3.036   0.841   5.207
 5734SOL     OW18100   2.292   6.062   4.082
 5734SOL    HW118101   2.361   6.099   4.019
 5734SOL    HW218102   2.332   6.050   4.172
 5735SOL     OW18103   2.557   0.849   1.360
 5735SOL    HW118104   2.506   0.870   1.443
 5735SOL    HW218105   2.505   0.785   1.304
 5736SOL     OW18106   1.736   4.444   1.489
 5736SOL    HW118107   1.697   4.534   1.469
 5736SOL    HW218108   1.807   4.422   1.421
 5737SOL     OW18109   5.891   3.771   0.262
 5737SOL    HW118110   5.958   3.801   0.194
 5737SOL    HW218111   5.898   3.830   0.343
 5738SOL     OW18112   0.973   5.787   4.521
 5738SOL    HW118113   0.888   5.837   4.534
 5738SOL    HW218114   1.046   5.850   4.493
 5739SOL     OW18115   0.814   2.316   1.122
 5739SOL    HW118116   0.846   2.374   1.196
 5739SOL    HW218117   0.779   2.373   1.047
 5740SOL     OW18118   4.504   5.098   0.249
 5740SOL    HW118119   4.541   5.187   0.223
 5740SOL    HW218120   4.404   5.101   0.246
 5741SOL     OW18121   0.241   2.283   1.699
 5741SOL    HW118122   0.149   2.307   1.668
 5741SOL    HW218123   0.258   2.186   1.681
 5742SOL     OW18124   0.098   5.304   3.786
 5742SOL    HW118125   0.009   5.277   3.823
 5742SOL    HW218126   0.165   5.232   3.804
 5743SOL     OW18127   0.783   0.604   4.824
 5743SOL    HW118128   0.736   0.608   4.912
 5743SOL    HW218129   0.722   0.639   4.752
 5744SOL     OW18130   6.117   0.758   2.329
 5744SOL    HW118131   6.193   0.708   2.288
 5744SOL    HW218132   6.067   0.807   2.258
 5745SOL     OW18133   6.704   3.599   2.430
 5745SOL    HW118134   6.639   3.527   2.454
 5745SOL    HW218135   6.739   3.642   2.513
 5746SOL     OW18136   0.808   3.600   6.101
 5746SOL    HW118137   0.901   3.599   6.064
 5746SOL    HW218138   0.743   3.575   6.029
 5747SOL     OW18139   6.796   6.727   3.567
 5747SOL    HW118140   6.764   6.691   3.655
 5747SOL    HW218141   6.801   6.652   3.501
 5748SOL     OW18142   1.113   1.265   4.086
 5748SOL    HW118143   1.204   1.293   4.054
 5748SOL    HW218144   1.078   1.333   4.151
 5749SOL     OW18145   0.422   1.438   3.281
 5749SOL    HW118146   0.461   1.519   3.325
 5749SOL    HW218147   0.448   1.436   3.185
 5750SOL     OW18148   4.223   5.870   2.654
 5750SOL    HW118149   4.170   5.897   2.574
 5750SOL    HW218150   4.296   5.936   2.670
 5751SOL     OW18151   1.127   1.761   6.809
 5751SOL    HW118152   1.189   1.761   6.887
 5751SOL    HW218153   1.139   1.845   6.757
 5752SOL     OW18154   2.255   0.761   6.850
 5752SOL    HW118155   2.345   0.733   6.814
 5752SOL    HW218156   2.263   0.851   6.893
 5753SOL     OW18157   3.977   1.368   6.132
 5753SOL    HW118158   3.947   1.273   6.130
 5753SOL    HW218159   4.050   1.381   6.064
 5754SOL     OW18160   6.074   5.911   0.665
 5754SOL    HW118161   6.091   5.931   0.569
 5754SOL    HW218162   6.011   5.833   0.672
 5755SOL     OW18163   3.129   3.675   2.159
 5755SOL    HW118164   3.032   3.654   2.147
 5755SOL    HW218165   3.160   3.737   2.086
 5756SOL     OW18166   6.114   0.482   3.799
 5756SOL    HW118167   6.175   0.511   3.873
 5756SOL    HW218168   6.045   0.552   3.782
 5757SOL     OW18169   6.791   6.830   1.870
 5757SOL    HW118170   6.869   6.767   1.866
 5757SOL    HW218171   6.816   6.910   1.924
 5758SOL     OW18172   2.688   1.186   5.819
 5758SOL    HW118173   2.786   1.165   5.818
 5758SOL    HW218174   2.652   1.181   5.726
 5759SOL     OW18175   0.402   1.332   5.769
 5759SOL    HW118176   0.334   1.262   5.793
 5759SOL    HW218177   0.455   1.300   5.690
 5760SOL     OW18178   6.654   5.977   1.678
 5760SOL    HW118179   6.583   6.031   1.633
 5760SOL    HW218180   6.613   5.918   1.748
 5761SOL     OW18181   3.470   0.643   4.260
 5761SOL    HW118182   3.504   0.558   4.301
 5761SOL    HW218183   3.452   0.629   4.163
 5762SOL     OW18184   4.797   0.393   1.469
 5762SOL    HW118185   4.797   0.417   1.372
 5762SOL    HW218186   4.717   0.433   1.513
 5763SOL     OW18187   3.747   0.647   1.129
 5763SOL    HW118188   3.704   0.635   1.040
 5763SOL    HW218189   3.744   0.743   1.155
 5764SOL     OW18190   3.385   2.796   6.838
 5764SOL    HW118191   3.440   2.828   6.761
 5764SOL    HW218192   3.290   2.825   6.825
 5765SOL     OW18193   6.735   5.047   6.121
 5765SOL    HW118194   6.815   5.020   6.067
 5765SOL    HW218195   6.746   5.141   6.153
 5766SOL     OW18196   2.537   1.776   3.310
 5766SOL    HW118197   2.583   1.826   3.383
 5766SOL    HW218198   2.514   1.684   3.342
 5767SOL     OW18199   4.718   6.306   0.367
 5767SOL    HW118200   4.723   6.305   0.467
 5767SOL    HW218201   4.643   6.366   0.338
 5768SOL     OW18202   5.344   6.965   2.358
 5768SOL    HW118203   5.310   6.884   2.406
 5768SOL    HW218204   5.313   6.963   2.263
 5769SOL     OW18205   0.021   4.972   3.677
 5769SOL    HW118206   6.991   5.032   3.737
 5769SOL    HW218207   7.004   4.880   3.678
 5770SOL     OW18208   4.924   2.694   0.801
 5770SOL    HW118209   4.889   2.780   0.763
 5770SOL    HW218210   5.008   2.711   0.852
 5771SOL     OW18211   0.758   0.234   1.587
 5771SOL    HW118212   0.845   0.200   1.549
 5771SOL    HW218213   0.685   0.171   1.563
 5772SOL     OW18214   5.988   5.001   5.678
 5772SOL    HW118215   5.929   4.949   5.617
 5772SOL    HW218216   5.995   4.954   5.766
 5773SOL     OW18217   5.006   6.357   5.726
 5773SOL    HW118218   4.986   6.274   5.674
 5773SOL    HW218219   4.965   6.435   5.680
 5774SOL     OW18220   1.573   4.369   1.886
 5774SOL    HW118221   1.664   4.347   1.921
 5774SOL    HW218222   1.538   4.450   1.933
 5775SOL     OW18223   1.511   1.413   0.373
 5775SOL    HW118224   1.439   1.435   0.307
 5775SOL    HW218225   1.472   1.359   0.448
 5776SOL     OW18226   5.041   0.384   5.641
 5776SOL    HW118227   5.005   0.455   5.580
 5776SOL    HW218228   4.975   0.368   5.715
 5777SOL     OW18229   4.469   6.516   5.114
 5777SOL    HW118230   4.561   6.480   5.127
 5777SOL    HW218231   4.454   6.533   5.017
 5778SOL     OW18232   2.313   6.703   3.655
 5778SOL    HW118233   2.352   6.690   3.564
 5778SOL    HW218234   2.356   6.783   3.698
 5779SOL     OW18235   2.828   6.359   2.244
 5779SOL    HW118236   2.912   6.407   2.269
 5779SOL    HW218237   2.761   6.426   2.212
 5780SOL     OW18238   0.106   4.399   6.987
 5780SOL    HW118239   0.102   4.306   6.952
 5780SOL    HW218240   0.103   4.397   0.064
 5781SOL     OW18241   4.931   4.981   5.627
 5781SOL    HW118242   4.863   4.997   5.699
 5781SOL    HW218243   4.919   4.890   5.590
 5782SOL     OW18244   4.612   1.759   2.900
 5782SOL    HW118245   4.575   1.667   2.894
 5782SOL    HW218246   4.615   1.801   2.809
 5783SOL     OW18247   2.763   6.201   3.575
 5783SOL    HW118248   2.731   6.107   3.559
 5783SOL    HW218249   2.790   6.210   3.671
 5784SOL     OW18250   0.033   0.016   2.177
 5784SOL    HW118251   0.105   7.016   2.113
 5784SOL    HW218252   6.980   0.060   2.129
 5785SOL     OW18253   2.805   1.023   5.536
 5785SOL    HW118254   2.751   1.011   5.453
 5785SOL    HW218255   2.848   0.936   5.560
 5786SOL     OW18256   2.116   1.167   6.045
 5786SOL    HW118257   2.200   1.221   6.044
 5786SOL    HW218258   2.043   1.219   6.089
 5787SOL     OW18259   0.660   2.384   6.248
 5787SOL    HW118260   0.669   2.298   6.198
 5787SOL    HW218261   0.575   2.429   6.222
 5788SOL     OW18262   0.552   2.337   2.022
 5788SOL    HW118263   0.501   2.252   2.036
 5788SOL    HW218264   0.575   2.377   2.110
 5789SOL     OW18265   3.256   1.826   6.766
 5789SOL    HW118266   3.252   1.726   6.771
 5789SOL    HW218267   3.186   1.865   6.826
 5790SOL     OW18268   6.146   6.179   2.432
 5790SOL    HW118269   6.077   6.191   2.361
 5790SOL    HW218270   6.101   6.155   2.518
 5791SOL     OW18271   3.800   0.866   1.732
 5791SOL    HW118272   3.839   0.925   1.662
 5791SOL    HW218273   3.845   0.884   1.819
 5792SOL     OW18274   4.642   1.638   2.429
 5792SOL    HW118275   4.712   1.571   2.454
 5792SOL    HW218276   4.648   1.717   2.490
 5793SOL     OW18277   4.251   1.583   0.403
 5793SOL    HW118278   4.158   1.545   0.411
 5793SOL    HW218279   4.258   1.665   0.459
 5794SOL     OW18280   3.470   6.574   7.007
 5794SOL    HW118281   3.535   6.542   6.938
 5794SOL    HW218282   3.464   6.507   0.058
 5795SOL     OW18283   0.545   6.686   2.179
 5795SOL    HW118284   0.543   6.779   2.214
 5795SOL    HW218285   0.457   6.641   2.196
 5796SOL     OW18286   4.832   1.082   5.762
 5796SOL    HW118287   4.751   1.075   5.821
 5796SOL    HW218288   4.913   1.062   5.816
 5797SOL     OW18289   6.028   1.405   6.144
 5797SOL    HW118290   6.088   1.383   6.221
 5797SOL    HW218291   5.973   1.485   6.167
 5798SOL     OW18292   2.365   2.775   4.565
 5798SOL    HW118293   2.310   2.729   4.634
 5798SOL    HW218294   2.336   2.870   4.557
 5799SOL     OW18295   2.755   1.048   3.689
 5799SOL    HW118296   2.753   1.129   3.747
 5799SOL    HW218297   2.676   1.049   3.627
 5800SOL     OW18298   1.610   5.781   1.417
 5800SOL    HW118299   1.540   5.846   1.385
 5800SOL    HW218300   1.566   5.712   1.475
 5801SOL     OW18301   1.704   2.246   3.321
 5801SOL    HW118302   1.638   2.298   3.268
 5801SOL    HW218303   1.710   2.283   3.414
 5802SOL     OW18304   0.289   6.576   2.227
 5802SOL    HW118305   0.296   6.576   2.327
 5802SOL    HW218306   0.193   6.587   2.201
 5803SOL     OW18307   0.050   6.901   4.623
 5803SOL    HW118308   7.005   6.974   4.629
 5803SOL    HW218309   0.087   6.897   4.530
 5804SOL     OW18310   6.317   2.814   3.198
 5804SOL    HW118311   6.402   2.866   3.205
 5804SOL    HW218312   6.337   2.718   3.182
 5805SOL     OW18313   0.629   1.369   1.686
 5805SOL    HW118314   0.609   1.455   1.733
 5805SOL    HW218315   0.727   1.362   1.668
 5806SOL     OW18316   6.495   3.819   2.034
 5806SOL    HW118317   6.547   3.755   2.091
 5806SOL    HW218318   6.431   3.871   2.091
 5807SOL     OW18319   0.771   0.958   2.714
 5807SOL    HW118320   0.715   0.931   2.792
 5807SOL    HW218321   0.819   1.043   2.735
 5808SOL     OW18322   5.884   5.766   6.099
 5808SOL    HW118323   5.931   5.832   6.158
 5808SOL    HW218324   5.865   5.683   6.150
 5809SOL     OW18325   6.461   3.989   5.293
 5809SOL    HW118326   6.394   3.929   5.336
 5809SOL    HW218327   6.553   3.962   5.322
 5810SOL     OW18328   0.892   6.293   4.859
 5810SOL    HW118329   0.935   6.383   4.851
 5810SOL    HW218330   0.802   6.303   4.902
 5811SOL     OW18331   3.049   5.432   0.164
 5811SOL    HW118332   3.081   5.476   0.248
 5811SOL    HW218333   3.041   5.500   0.091
 5812SOL     OW18334   5.998   2.454   5.698
 5812SOL    HW118335   6.056   2.526   5.736
 5812SOL    HW218336   5.912   2.494   5.668
 5813SOL     OW18337   6.779   5.260   0.960
 5813SOL    HW118338   6.784   5.274   0.862
 5813SOL    HW218339   6.865   5.221   0.993
 5814SOL     OW18340   4.912   1.743   2.518
 5814SOL    HW118341   5.001   1.722   2.557
 5814SOL    HW218342   4.847   1.764   2.591
 5815SOL     OW18343   0.336   4.917   4.822
 5815SOL    HW118344   0.282   4.900   4.740
 5815SOL    HW218345   0.398   4.840   4.838
 5816SOL     OW18346   6.885   3.809   1.144
 5816SOL    HW118347   6.801   3.765   1.177
 5816SOL    HW218348   6.956   3.740   1.132
 5817SOL     OW18349   0.015   1.891   3.624
 5817SOL    HW118350   6.982   1.959   3.671
 5817SOL    HW218351   0.060   1.934   3.545
 5818SOL     OW18352   2.733   1.818   3.500
 5818SOL    HW118353   2.657   1.801   3.563
 5818SOL    HW218354   2.796   1.885   3.540
 5819SOL     OW18355   4.178   4.450   1.570
 5819SOL    HW118356   4.230   4.366   1.588
 5819SOL    HW218357   4.083   4.436   1.598
 5820SOL     OW18358   0.979   6.220   2.288
 5820SOL    HW118359   0.973   6.178   2.378
 5820SOL    HW218360   0.894   6.203   2.237
 5821SOL     OW18361   4.982   5.987   1.863
 5821SOL    HW118362   4.953   6.069   1.911
 5821SOL    HW218363   4.959   5.995   1.766
 5822SOL     OW18364   1.041   4.159   3.164
 5822SOL    HW118365   1.133   4.170   3.202
 5822SOL    HW218366   1.034   4.213   3.079
 5823SOL     OW18367   1.990   6.743   5.063
 5823SOL    HW118368   2.012   6.792   4.978
 5823SOL    HW218369   1.942   6.804   5.126
 5824SOL     OW18370   1.725   5.513   2.435
 5824SOL    HW118371   1.694   5.440   2.374
 5824SOL    HW218372   1.707   5.487   2.529
 5825SOL     OW18373   3.332   2.120   4.393
 5825SOL    HW118374   3.354   2.215   4.414
 5825SOL    HW218375   3.239   2.114   4.359
 5826SOL     OW18376   1.262   5.966   5.756
 5826SOL    HW118377   1.319   5.966   5.838
 5826SOL    HW218378   1.166   5.980   5.782
 5827SOL     OW18379   1.140   4.980   4.116
 5827SOL    HW118380   1.155   5.066   4.067
 5827SOL    HW218381   1.205   4.911   4.084
 5828SOL     OW18382   5.126   0.282   4.994
 5828SOL    HW118383   5.161   0.189   5.000
 5828SOL    HW218384   5.195   0.341   4.951
 5829SOL     OW18385   1.733   1.067   2.684
 5829SOL    HW118386   1.681   1.063   2.599
 5829SOL    HW218387   1.802   0.994   2.685
 5830SOL     OW18388   4.636   4.783   3.883
 5830SOL    HW118389   4.608   4.688   3.890
 5830SOL    HW218390   4.715   4.799   3.942
 5831SOL     OW18391   2.099   1.461   3.729
 5831SOL    HW118392   2.021   1.523   3.722
 5831SOL    HW218393   2.080   1.378   3.677
 5832SOL     OW18394   3.053   5.455   3.540
 5832SOL    HW118395   3.018   5.378   3.593
 5832SOL    HW218396   3.131   5.496   3.587
 5833SOL     OW18397   2.580   4.599   1.553
 5833SOL    HW118398   2.510   4.651   1.601
 5833SOL    HW218399   2.571   4.614   1.454
 5834SOL     OW18400   6.732   0.495   6.787
 5834SOL    HW118401   6.682   0.576   6.819
 5834SOL    HW218402   6.671   0.416   6.786
 5835SOL     OW18403   3.271   0.976   3.397
 5835SOL    HW118404   3.230   0.889   3.423
 5835SOL    HW218405   3.234   1.049   3.455
 5836SOL     OW18406   5.792   4.643   1.279
 5836SOL    HW118407   5.871   4.696   1.308
 5836SOL    HW218408   5.800   4.622   1.182
 5837SOL     OW18409   2.185   3.986   6.988
 5837SOL    HW118410   2.209   3.899   0.008
 5837SOL    HW218411   2.233   4.060   0.010
 5838SOL     OW18412   3.426   3.499   0.232
 5838SOL    HW118413   3.418   3.418   0.290
 5838SOL    HW218414   3.337   3.543   0.224
 5839SOL     OW18415   2.499   1.952   0.968
 5839SOL    HW118416   2.420   2.013   0.973
 5839SOL    HW218417   2.576   1.999   0.927
 5840SOL     OW18418   6.172   3.451   2.687
 5840SOL    HW118419   6.231   3.393   2.630
 5840SOL    HW218420   6.092   3.479   2.634
 5841SOL     OW18421   4.921   1.559   6.814
 5841SOL    HW118422   5.013   1.541   6.850
 5841SOL    HW218423   4.859   1.485   6.840
 5842SOL     OW18424   3.030   1.891   2.357
 5842SOL    HW118425   2.970   1.939   2.421
 5842SOL    HW218426   3.077   1.958   2.299
 5843SOL     OW18427   3.045   2.897   1.379
 5843SOL    HW118428   2.957   2.914   1.334
 5843SOL    HW218429   3.032   2.891   1.478
 5844SOL     OW18430   6.268   5.644   4.934
 5844SOL    HW118431   6.232   5.701   5.008
 5844SOL    HW218432   6.367   5.656   4.927
 5845SOL     OW18433   2.096   5.892   2.997
 5845SOL    HW118434   2.036   5.939   2.933
 5845SOL    HW218435   2.188   5.886   2.959
 5846SOL     OW18436   0.583   4.395   5.353
 5846SOL    HW118437   0.491   4.425   5.378
 5846SOL    HW218438   0.634   4.372   5.435
 5847SOL     OW18439   2.084   3.597   5.826
 5847SOL    HW118440   2.053   3.625   5.735
 5847SOL    HW218441   2.122   3.505   5.821
 5848SOL     OW18442   2.587   6.525   2.158
 5848SOL    HW118443   2.603   6.624   2.162
 5848SOL    HW218444   2.510   6.507   2.097
 5849SOL     OW18445   3.207   6.467   6.209
 5849SOL    HW118446   3.284   6.468   6.273
 5849SOL    HW218447   3.143   6.539   6.232
 5850SOL     OW18448   5.799   2.618   0.670
 5850SOL    HW118449   5.798   2.718   0.662
 5850SOL    HW218450   5.894   2.586   0.678
 5851SOL     OW18451   1.104   2.959   5.947
 5851SOL    HW118452   1.147   2.885   5.998
 5851SOL    HW218453   1.100   3.041   6.004
 5852SOL     OW18454   4.049   4.779   3.356
 5852SOL    HW118455   4.124   4.738   3.409
 5852SOL    HW218456   4.078   4.789   3.261
 5853SOL     OW18457   4.630   4.901   6.913
 5853SOL    HW118458   4.661   4.845   6.990
 5853SOL    HW218459   4.655   4.996   6.929
 5854SOL     OW18460   2.552   4.190   5.327
 5854SOL    HW118461   2.492   4.137   5.268
 5854SOL    HW218462   2.513   4.195   5.419
 5855SOL     OW18463   0.967   2.075   4.471
 5855SOL    HW118464   0.904   2.117   4.538
 5855SOL    HW218465   0.953   1.976   4.471
 5856SOL     OW18466   0.225   0.887   2.421
 5856SOL    HW118467   0.175   0.801   2.427
 5856SOL    HW218468   0.266   0.895   2.330
 5857SOL     OW18469   6.354   5.668   6.865
 5857SOL    HW118470   6.264   5.707   6.887
 5857SOL    HW218471   6.419   5.742   6.848
 5858SOL     OW18472   3.375   1.841   0.937
 5858SOL    HW118473   3.297   1.900   0.916
 5858SOL    HW218474   3.454   1.898   0.963
 5859SOL     OW18475   6.610   4.428   1.568
 5859SOL    HW118476   6.512   4.438   1.550
 5859SOL    HW218477   6.661   4.435   1.482
 5860SOL     OW18478   1.528   3.108   1.778
 5860SOL    HW118479   1.590   3.071   1.847
 5860SOL    HW218480   1.449   3.048   1.768
 5861SOL     OW18481   4.831   6.358   4.837
 5861SOL    HW118482   4.794   6.403   4.756
 5861SOL    HW218483   4.863   6.266   4.813
 5862SOL     OW18484   0.270   5.228   1.395
 5862SOL    HW118485   0.251   5.244   1.299
 5862SOL    HW218486   0.278   5.315   1.443
 5863SOL     OW18487   3.598   0.058   5.570
 5863SOL    HW118488   3.600   0.115   5.488
 5863SOL    HW218489   3.648   6.996   5.554
 5864SOL     OW18490   3.937   3.907   3.119
 5864SOL    HW118491   3.967   3.969   3.191
 5864SOL    HW218492   3.865   3.847   3.155
 5865SOL     OW18493   6.765   6.073   1.358
 5865SOL    HW118494   6.785   6.012   1.281
 5865SOL    HW218495   6.848   6.087   1.412
 5866SOL     OW18496   3.303   3.832   3.608
 5866SOL    HW118497   3.356   3.916   3.620
 5866SOL    HW218498   3.219   3.853   3.558
 5867SOL     OW18499   5.122   0.649   0.183
 5867SOL    HW118500   5.095   0.739   0.218
 5867SOL    HW218501   5.167   0.659   0.094
 5868SOL     OW18502   1.483   0.839   0.364
 5868SOL    HW118503   1.389   0.868   0.348
 5868SOL    HW218504   1.483   0.753   0.416
 5869SOL     OW18505   2.273   5.575   3.611
 5869SOL    HW118506   2.297   5.578   3.708
 5869SOL    HW218507   2.192   5.518   3.598
 5870SOL     OW18508   3.918   6.704   3.831
 5870SOL    HW118509   3.841   6.644   3.812
 5870SOL    HW218510   4.001   6.649   3.843
 5871SOL     OW18511   4.072   3.535   3.366
 5871SOL    HW118512   4.098   3.621   3.409
 5871SOL    HW218513   4.096   3.458   3.425
 5872SOL     OW18514   3.993   5.120   1.845
 5872SOL    HW118515   3.994   5.167   1.756
 5872SOL    HW218516   3.942   5.035   1.836
 5873SOL     OW18517   3.574   6.981   1.952
 5873SOL    HW118518   3.611   0.003   1.871
 5873SOL    HW218519   3.564   0.025   2.025
 5874SOL     OW18520   0.612   3.142   4.186
 5874SOL    HW118521   0.595   3.214   4.119
 5874SOL    HW218522   0.699   3.097   4.166
 5875SOL     OW18523   3.992   2.584   1.326
 5875SOL    HW118524   3.972   2.599   1.423
 5875SOL    HW218525   4.030   2.667   1.285
 5876SOL     OW18526   4.064   3.739   2.715
 5876SOL    HW118527   4.115   3.762   2.798
 5876SOL    HW218528   4.025   3.823   2.676
 5877SOL     OW18529   4.638   4.837   1.806
 5877SOL    HW118530   4.598   4.887   1.729
 5877SOL    HW218531   4.656   4.900   1.881
 5878SOL     OW18532   0.858   3.822   2.345
 5878SOL    HW118533   0.854   3.866   2.434
 5878SOL    HW218534   0.952   3.826   2.311
 5879SOL     OW18535   1.904   4.125   4.967
 5879SOL    HW118536   1.990   4.168   4.997
 5879SOL    HW218537   1.924   4.056   4.897
 5880SOL     OW18538   2.165   5.405   0.339
 5880SOL    HW118539   2.232   5.456   0.286
 5880SOL    HW218540   2.204   5.378   0.427
 5881SOL     OW18541   1.551   6.019   4.621
 5881SOL    HW118542   1.633   5.993   4.673
 5881SOL    HW218543   1.499   5.937   4.597
 5882SOL     OW18544   5.197   0.756   2.799
 5882SOL    HW118545   5.266   0.683   2.800
 5882SOL    HW218546   5.107   0.717   2.822
 5883SOL     OW18547   0.847   3.538   5.574
 5883SOL    HW118548   0.866   3.613   5.510
 5883SOL    HW218549   0.922   3.472   5.571
 5884SOL     OW18550   6.959   1.400   3.553
 5884SOL    HW118551   6.876   1.394   3.609
 5884SOL    HW218552   0.012   1.432   3.610
 5885SOL     OW18553   6.440   5.078   0.409
 5885SOL    HW118554   6.489   5.004   0.456
 5885SOL    HW218555   6.383   5.126   0.475
 5886SOL     OW18556   6.063   1.962   5.927
 5886SOL    HW118557   6.056   2.054   5.889
 5886SOL    HW218558   6.159   1.939   5.941
 5887SOL     OW18559   3.498   6.874   2.278
 5887SOL    HW118560   3.454   6.929   2.207
 5887SOL    HW218561   3.581   6.921   2.310
 5888SOL     OW18562   0.018   5.991   2.379
 5888SOL    HW118563   6.959   5.937   2.399
 5888SOL    HW218564   7.021   6.088   2.397
 5889SOL     OW18565   3.215   6.681   0.592
 5889SOL    HW118566   3.197   6.737   0.673
 5889SOL    HW218567   3.264   6.598   0.619
 5890SOL     OW18568   4.111   5.353   6.024
 5890SOL    HW118569   4.156   5.265   6.036
 5890SOL    HW218570   4.017   5.348   6.057
 5891SOL     OW18571   2.375   3.206   6.569
 5891SOL    HW118572   2.414   3.264   6.640
 5891SOL    HW218573   2.431   3.211   6.487
 5892SOL     OW18574   3.176   5.317   1.213
 5892SOL    HW118575   3.086   5.287   1.179
 5892SOL    HW218576   3.245   5.251   1.185
 5893SOL     OW18577   0.396   3.055   2.043
 5893SOL    HW118578   0.490   3.087   2.059
 5893SOL    HW218579   0.381   2.971   2.095
 5894SOL     OW18580   2.144   4.454   3.501
 5894SOL    HW118581   2.185   4.536   3.460
 5894SOL    HW218582   2.100   4.399   3.430
 5895SOL     OW18583   4.717   5.168   3.210
 5895SOL    HW118584   4.797   5.205   3.257
 5895SOL    HW218585   4.729   5.070   3.196
 5896SOL     OW18586   5.793   2.406   5.430
 5896SOL    HW118587   5.703   2.362   5.428
 5896SOL    HW218588   5.864   2.336   5.429
 5897SOL     OW18589   4.538   4.504   0.086
 5897SOL    HW118590   4.548   4.581   0.148
 5897SOL    HW218591   4.444   4.469   0.090
 5898SOL     OW18592   1.827   5.862   2.487
 5898SOL    HW118593   1.781   5.842   2.573
 5898SOL    HW218594   1.894   5.790   2.468
 5899SOL     OW18595   4.923   0.409   3.655
 5899SOL    HW118596   4.869   0.326   3.672
 5899SOL    HW218597   4.901   0.445   3.564
 5900SOL     OW18598   3.762   5.114   2.041
 5900SOL    HW118599   3.813   5.163   1.970
 5900SOL    HW218600   3.714   5.180   2.099
 5901SOL     OW18601   2.896   6.475   3.242
 5901SOL    HW118602   2.854   6.501   3.155
 5901SOL    HW218603   2.995   6.480   3.234
 5902SOL     OW18604   6.979   1.677   0.487
 5902SOL    HW118605   6.884   1.648   0.491
 5902SOL    HW218606   0.009   1.628   0.557
 5903SOL     OW18607   1.151   2.215   6.233
 5903SOL    HW118608   1.061   2.253   6.256
 5903SOL    HW218609   1.140   2.119   6.207
 5904SOL     OW18610   0.050   2.972   2.273
 5904SOL    HW118611   7.023   3.035   2.213
 5904SOL    HW218612   0.056   3.011   2.365
 5905SOL     OW18613   6.982   3.480   2.351
 5905SOL    HW118614   6.883   3.462   2.347
 5905SOL    HW218615   0.006   3.398   2.384
 5906SOL     OW18616   5.915   1.561   3.290
 5906SOL    HW118617   5.987   1.630   3.280
 5906SOL    HW218618   5.950   1.484   3.343
 5907SOL     OW18619   1.627   0.971   1.775
 5907SOL    HW118620   1.544   0.989   1.723
 5907SOL    HW218621   1.625   0.878   1.811
 5908SOL     OW18622   0.567   2.794   4.761
 5908SOL    HW118623   0.661   2.802   4.793
 5908SOL    HW218624   0.515   2.739   4.826
 5909SOL     OW18625   6.885   4.270   6.174
 5909SOL    HW118626   6.962   4.333   6.163
 5909SOL    HW218627   6.800   4.319   6.154
 5910SOL     OW18628   1.539   1.755   3.365
 5910SOL    HW118629   1.452   1.709   3.349
 5910SOL    HW218630   1.604   1.729   3.293
 5911SOL     OW18631   5.652   4.512   6.506
 5911SOL    HW118632   5.730   4.523   6.445
 5911SOL    HW218633   5.577   4.467   6.457
 5912SOL     OW18634   0.819   1.236   2.012
 5912SOL    HW118635   0.874   1.286   1.945
 5912SOL    HW218636   0.723   1.235   1.982
 5913SOL     OW18637   0.201   3.180   1.336
 5913SOL    HW118638   0.288   3.158   1.380
 5913SOL    HW218639   0.132   3.111   1.360
 5914SOL     OW18640   1.107   6.473   0.724
 5914SOL    HW118641   1.165   6.531   0.667
 5914SOL    HW218642   1.055   6.411   0.666
 5915SOL     OW18643   5.386   0.862   5.290
 5915SOL    HW118644   5.367   0.888   5.385
 5915SOL    HW218645   5.300   0.857   5.239
 5916SOL     OW18646   1.015   0.706   3.053
 5916SOL    HW118647   1.010   0.765   3.134
 5916SOL    HW218648   1.048   0.760   2.975
 5917SOL     OW18649   3.829   3.701   0.975
 5917SOL    HW118650   3.760   3.636   0.943
 5917SOL    HW218651   3.920   3.669   0.948
 5918SOL     OW18652   3.308   6.621   5.553
 5918SOL    HW118653   3.209   6.636   5.556
 5918SOL    HW218654   3.341   6.642   5.461
 5919SOL     OW18655   2.983   3.588   4.360
 5919SOL    HW118656   3.024   3.671   4.322
 5919SOL    HW218657   2.991   3.591   4.460
 5920SOL     OW18658   1.715   0.605   5.286
 5920SOL    HW118659   1.710   0.692   5.335
 5920SOL    HW218660   1.686   0.619   5.191
 5921SOL     OW18661   3.403   4.704   1.408
 5921SOL    HW118662   3.366   4.785   1.361
 5921SOL    HW218663   3.395   4.716   1.507
 5922SOL     OW18664   5.247   2.328   2.520
 5922SOL    HW118665   5.259   2.365   2.428
 5922SOL    HW218666   5.326   2.352   2.577
 5923SOL     OW18667   6.012   1.064   2.329
 5923SOL    HW118668   6.026   1.012   2.413
 5923SOL    HW218669   5.927   1.116   2.335
 5924SOL     OW18670   0.303   6.070   2.975
 5924SOL    HW118671   0.327   6.071   3.072
 5924SOL    HW218672   0.311   5.977   2.940
 5925SOL     OW18673   4.389   0.467   0.801
 5925SOL    HW118674   4.403   0.407   0.723
 5925SOL    HW218675   4.300   0.513   0.791
 5926SOL     OW18676   4.943   3.447   3.160
 5926SOL    HW118677   4.889   3.522   3.124
 5926SOL    HW218678   4.923   3.435   3.258
 5927SOL     OW18679   1.130   0.425   1.165
 5927SOL    HW118680   1.071   0.464   1.235
 5927SOL    HW218681   1.199   0.367   1.209
 5928SOL     OW18682   3.076   6.978   5.813
 5928SOL    HW118683   3.100   6.941   5.724
 5928SOL    HW218684   3.158   6.988   5.869
 5929SOL     OW18685   1.809   0.867   0.893
 5929SOL    HW118686   1.775   0.792   0.950
 5929SOL    HW218687   1.885   0.912   0.940
 5930SOL     OW18688   6.920   4.740   2.276
 5930SOL    HW118689   6.853   4.695   2.335
 5930SOL    HW218690   6.957   4.820   2.324
 5931SOL     OW18691   5.164   0.874   5.149
 5931SOL    HW118692   5.074   0.918   5.151
 5931SOL    HW218693   5.168   0.810   5.072
 5932SOL     OW18694   2.638   5.631   1.057
 5932SOL    HW118695   2.732   5.603   1.041
 5932SOL    HW218696   2.585   5.621   0.972
 5933SOL     OW18697   6.075   5.502   4.287
 5933SOL    HW118698   6.010   5.564   4.330
 5933SOL    HW218699   6.168   5.528   4.314
 5934SOL     OW18700   2.788   4.346   0.301
 5934SOL    HW118701   2.802   4.256   0.342
 5934SOL    HW218702   2.727   4.338   0.222
 5935SOL     OW18703   1.510   0.374   5.172
 5935SOL    HW118704   1.608   0.356   5.182
 5935SOL    HW218705   1.462   0.338   5.253
 5936SOL     OW18706   3.521   2.819   1.870
 5936SOL    HW118707   3.509   2.869   1.784
 5936SOL    HW218708   3.485   2.727   1.860
 5937SOL     OW18709   0.655   2.909   0.802
 5937SOL    HW118710   0.560   2.914   0.771
 5937SOL    HW218711   0.680   2.813   0.815
 5938SOL     OW18712   0.923   3.204   3.935
 5938SOL    HW118713   0.938   3.116   3.981
 5938SOL    HW218714   0.940   3.278   4.000
 5939SOL     OW18715   5.232   2.282   5.973
 5939SOL    HW118716   5.185   2.369   5.990
 5939SOL    HW218717   5.258   2.240   6.060
 5940SOL     OW18718   4.343   4.817   1.144
 5940SOL    HW118719   4.397   4.795   1.226
 5940SOL    HW218720   4.403   4.854   1.073
 5941SOL     OW18721   1.759   1.881   3.725
 5941SOL    HW118722   1.672   1.842   3.696
 5941SOL    HW218723   1.779   1.962   3.669
 5942SOL     OW18724   4.691   2.321   6.162
 5942SOL    HW118725   4.762   2.386   6.135
 5942SOL    HW218726   4.732   2.248   6.218
 5943SOL     OW18727   2.310   4.918   2.154
 5943SOL    HW118728   2.295   4.842   2.091
 5943SOL    HW218729   2.270   4.895   2.243
 5944SOL     OW18730   0.165   3.396   5.822
 5944SOL    HW118731   0.153   3.402   5.723
 5944SOL    HW218732   0.094   3.338   5.861
 5945SOL     OW18733   0.410   6.369   4.154
 5945SOL    HW118734   0.479   6.305   4.188
 5945SOL    HW218735   0.445   6.462   4.159
 5946SOL     OW18736   3.049   2.432   0.015
 5946SOL    HW118737   3.142   2.398   0.028
 5946SOL    HW218738   3.053   2.522   6.994
 5947SOL     OW18739   3.275   3.803   5.956
 5947SOL    HW118740   3.205   3.779   6.024
 5947SOL    HW218741   3.270   3.901   5.938
 5948SOL     OW18742   5.283   2.836   1.278
 5948SOL    HW118743   5.317   2.742   1.277
 5948SOL    HW218744   5.189   2.837   1.244
 5949SOL     OW18745   1.059   4.839   4.366
 5949SOL    HW118746   1.111   4.881   4.292
 5949SOL    HW218747   1.100   4.751   4.391
 5950SOL     OW18748   2.052   6.129   4.866
 5950SOL    HW118749   1.979   6.162   4.925
 5950SOL    HW218750   2.015   6.109   4.775
 5951SOL     OW18751   6.923   3.532   6.511
 5951SOL    HW118752   6.888   3.619   6.546
 5951SOL    HW218753   6.942   3.540   6.413
 5952SOL     OW18754   3.832   4.020   1.846
 5952SOL    HW118755   3.850   3.934   1.797
 5952SOL    HW218756   3.917   4.069   1.860
 5953SOL     OW18757   0.339   2.978   6.540
 5953SOL    HW118758   0.356   2.975   6.441
 5953SOL    HW218759   0.248   2.942   6.559
 5954SOL     OW18760   2.844   5.499   3.848
 5954SOL    HW118761   2.885   5.426   3.792
 5954SOL    HW218762   2.751   5.516   3.817
 5955SOL     OW18763   4.306   2.624   6.623
 5955SOL    HW118764   4.239   2.586   6.559
 5955SOL    HW218765   4.271   2.709   6.661
 5956SOL     OW18766   3.840   1.624   6.796
 5956SOL    HW118767   3.843   1.709   6.848
 5956SOL    HW218768   3.763   1.626   6.732
 5957SOL     OW18769   7.004   3.251   3.735
 5957SOL    HW118770   6.913   3.214   3.716
 5957SOL    HW218771   7.018   3.335   3.683
 5958SOL     OW18772   1.954   6.424   2.141
 5958SOL    HW118773   1.974   6.372   2.059
 5958SOL    HW218774   2.033   6.481   2.165
 5959SOL     OW18775   4.907   4.554   3.341
 5959SOL    HW118776   4.901   4.644   3.298
 5959SOL    HW218777   4.822   4.504   3.325
 5960SOL     OW18778   6.913   6.601   6.669
 5960SOL    HW118779   6.833   6.543   6.654
 5960SOL    HW218780   6.901   6.688   6.621
 5961SOL     OW18781   1.521   2.024   3.437
 5961SOL    HW118782   1.536   1.926   3.427
 5961SOL    HW218783   1.579   2.074   3.372
 5962SOL     OW18784   5.548   5.409   0.816
 5962SOL    HW118785   5.495   5.380   0.737
 5962SOL    HW218786   5.494   5.472   0.872
 5963SOL     OW18787   2.283   3.807   1.337
 5963SOL    HW118788   2.270   3.882   1.402
 5963SOL    HW218789   2.332   3.732   1.382
 5964SOL     OW18790   1.512   6.185   4.423
 5964SOL    HW118791   1.423   6.224   4.447
 5964SOL    HW218792   1.534   6.112   4.487
 5965SOL     OW18793   2.208   0.266   1.452
 5965SOL    HW118794   2.153   0.290   1.372
 5965SOL    HW218795   2.252   0.349   1.488
 5966SOL     OW18796   2.593   1.651   4.847
 5966SOL    HW118797   2.590   1.569   4.905
 5966SOL    HW218798   2.670   1.708   4.873
 5967SOL     OW18799   5.066   2.602   5.650
 5967SOL    HW118800   4.981   2.623   5.601
 5967SOL    HW218801   5.052   2.522   5.708
 5968SOL     OW18802   6.073   1.779   3.373
 5968SOL    HW118803   6.169   1.781   3.346
 5968SOL    HW218804   6.065   1.744   3.466
 5969SOL     OW18805   5.322   6.235   1.515
 5969SOL    HW118806   5.299   6.141   1.490
 5969SOL    HW218807   5.295   6.296   1.441
 5970SOL     OW18808   6.569   1.344   0.266
 5970SOL    HW118809   6.486   1.323   0.215
 5970SOL    HW218810   6.638   1.380   0.203
 5971SOL     OW18811   6.793   5.307   3.841
 5971SOL    HW118812   6.777   5.373   3.915
 5971SOL    HW218813   6.842   5.228   3.877
 5972SOL     OW18814   6.851   4.982   0.083
 5972SOL    HW118815   6.777   5.049   0.090
 5972SOL    HW218816   6.916   5.011   0.012
 5973SOL     OW18817   3.521   0.478   1.705
 5973SOL    HW118818   3.427   0.482   1.670
 5973SOL    HW218819   3.531   0.398   1.765
 5974SOL     OW18820   5.803   0.854   4.782
 5974SOL    HW118821   5.735   0.802   4.833
 5974SOL    HW218822   5.803   0.825   4.686
 5975SOL     OW18823   3.800   4.307   0.294
 5975SOL    HW118824   3.714   4.256   0.291
 5975SOL    HW218825   3.813   4.344   0.386
 5976SOL     OW18826   0.731   2.160   6.049
 5976SOL    HW118827   0.693   2.190   5.961
 5976SOL    HW218828   0.829   2.146   6.040
 5977SOL     OW18829   0.452   5.795   1.685
 5977SOL    HW118830   0.371   5.745   1.716
 5977SOL    HW218831   0.440   5.824   1.591
 5978SOL     OW18832   3.198   3.655   6.410
 5978SOL    HW118833   3.285   3.701   6.392
 5978SOL    HW218834   3.132   3.680   6.338
 5979SOL     OW18835   5.838   1.024   1.574
 5979SOL    HW118836   5.813   1.121   1.567
 5979SOL    HW218837   5.755   0.968   1.564
 5980SOL     OW18838   3.839   2.856   0.468
 5980SOL    HW118839   3.880   2.766   0.455
 5980SOL    HW218840   3.877   2.920   0.401
 5981SOL     OW18841   4.285   1.987   0.467
 5981SOL    HW118842   4.289   2.040   0.552
 5981SOL    HW218843   4.196   1.944   0.459
 5982SOL     OW18844   5.894   2.449   1.054
 5982SOL    HW118845   5.926   2.408   0.969
 5982SOL    HW218846   5.949   2.531   1.074
 5983SOL     OW18847   0.598   1.322   4.222
 5983SOL    HW118848   0.592   1.289   4.316
 5983SOL    HW218849   0.602   1.245   4.159
 5984SOL     OW18850   6.731   6.024   2.189
 5984SOL    HW118851   6.709   5.927   2.174
 5984SOL    HW218852   6.646   6.076   2.196
 5985SOL     OW18853   0.191   4.394   2.405
 5985SOL    HW118854   0.159   4.337   2.330
 5985SOL    HW218855   0.220   4.483   2.370
 5986SOL     OW18856   4.091   3.279   3.485
 5986SOL    HW118857   4.019   3.241   3.542
 5986SOL    HW218858   4.087   3.237   3.394
 5987SOL     OW18859   0.148   6.283   3.722
 5987SOL    HW118860   0.163   6.214   3.652
 5987SOL    HW218861   0.169   6.374   3.685
 5988SOL     OW18862   1.631   2.158   0.099
 5988SOL    HW118863   1.706   2.101   0.066
 5988SOL    HW218864   1.595   2.120   0.184
 5989SOL     OW18865   2.751   6.561   5.852
 5989SOL    HW118866   2.824   6.522   5.908
 5989SOL    HW218867   2.766   6.660   5.843
 5990SOL     OW18868   2.284   4.097   1.798
 5990SOL    HW118869   2.346   4.173   1.816
 5990SOL    HW218870   2.257   4.054   1.884
 5991SOL     OW18871   5.185   1.056   6.878
 5991SOL    HW118872   5.266   0.998   6.872
 5991SOL    HW218873   5.191   1.130   6.812
 5992SOL     OW18874   2.415   4.585   2.320
 5992SOL    HW118875   2.499   4.564   2.269
 5992SOL    HW218876   2.420   4.679   2.354
 5993SOL     OW18877   5.901   0.768   6.974
 5993SOL    HW118878   5.974   0.818   6.929
 5993SOL    HW218879   5.820   0.766   6.915
 5994SOL     OW18880   0.585   5.241   1.174
 5994SOL    HW118881   0.541   5.153   1.157
 5994SOL    HW218882   0.659   5.228   1.240
 5995SOL     OW18883   5.711   4.480   1.468
 5995SOL    HW118884   5.743   4.534   1.390
 5995SOL    HW218885   5.613   4.462   1.458
 5996SOL     OW18886   2.843   0.734   1.489
 5996SOL    HW118887   2.815   0.798   1.562
 5996SOL    HW218888   2.764   0.681   1.459
 5997SOL     OW18889   6.449   0.886   4.754
 5997SOL    HW118890   6.467   0.896   4.851
 5997SOL    HW218891   6.360   0.927   4.732
 5998SOL     OW18892   5.598   6.201   0.022
 5998SOL    HW118893   5.691   6.210   0.057
 5998SOL    HW218894   5.537   6.264   0.071
 5999SOL     OW18895   6.302   2.929   0.935
 5999SOL    HW118896   6.216   2.886   0.905
 5999SOL    HW218897   6.281   3.009   0.990
 6000SOL     OW18898   0.357   5.521   1.997
 6000SOL    HW118899   0.408   5.597   2.036
 6000SOL    HW218900   0.298   5.481   2.067
 6001SOL     OW18901   0.015   6.380   6.338
 6001SOL    HW118902   0.109   6.374   6.370
 6001SOL    HW218903   0.001   6.466   6.289
 6002SOL     OW18904   5.646   4.605   4.464
 6002SOL    HW118905   5.587   4.682   4.487
 6002SOL    HW218906   5.714   4.592   4.537
 6003SOL     OW18907   2.331   0.483   4.719
 6003SOL    HW118908   2.415   0.538   4.725
 6003SOL    HW218909   2.259   0.526   4.774
 6004SOL     OW18910   5.547   3.236   4.962
 6004SOL    HW118911   5.620   3.301   4.983
 6004SOL    HW218912   5.571   3.183   4.880
 6005SOL     OW18913   3.857   4.022   0.409
 6005SOL    HW118914   3.955   4.010   0.419
 6005SOL    HW218915   3.838   4.091   0.340
 6006SOL     OW18916   3.068   6.648   5.901
 6006SOL    HW118917   3.069   6.681   5.806
 6006SOL    HW218918   3.026   6.557   5.904
 6007SOL     OW18919   2.765   0.043   4.083
 6007SOL    HW118920   2.809   7.001   4.144
 6007SOL    HW218921   2.802   0.135   4.100
 6008SOL     OW18922   2.474   3.443   6.679
 6008SOL    HW118923   2.505   3.477   6.767
 6008SOL    HW218924   2.455   3.520   6.617
 6009SOL     OW18925   2.084   5.691   2.166
 6009SOL    HW118926   2.028   5.688   2.083
 6009SOL    HW218927   2.156   5.622   2.159
 6010SOL     OW18928   0.431   5.502   6.493
 6010SOL    HW118929   0.367   5.511   6.569
 6010SOL    HW218930   0.389   5.536   6.409
 6011SOL     OW18931   5.117   2.048   3.339
 6011SOL    HW118932   5.027   2.044   3.384
 6011SOL    HW218933   5.158   2.138   3.355
 6012SOL     OW18934   6.136   1.364   5.776
 6012SOL    HW118935   6.060   1.412   5.821
 6012SOL    HW218936   6.134   1.383   5.678
 6013SOL     OW18937   5.976   1.969   3.195
 6013SOL    HW118938   5.975   1.919   3.108
 6013SOL    HW218939   6.022   1.913   3.265
 6014SOL     OW18940   3.994   3.232   3.877
 6014SOL    HW118941   3.973   3.162   3.945
 6014SOL    HW218942   4.050   3.191   3.804
 6015SOL     OW18943   6.716   0.255   3.227
 6015SOL    HW118944   6.790   0.198   3.190
 6015SOL    HW218945   6.651   0.277   3.154
 6016SOL     OW18946   4.557   2.108   4.312
 6016SOL    HW118947   4.522   2.117   4.405
 6016SOL    HW218948   4.494   2.052   4.258
 6017SOL     OW18949   1.040   2.752   5.220
 6017SOL    HW118950   1.076   2.690   5.151
 6017SOL    HW218951   1.038   2.706   5.309
 6018SOL     OW18952   2.082   1.151   3.958
 6018SOL    HW118953   2.155   1.094   3.920
 6018SOL    HW218954   1.998   1.097   3.964
 6019SOL     OW18955   6.750   3.132   6.201
 6019SOL    HW118956   6.687   3.210   6.202
 6019SOL    HW218957   6.831   3.157   6.147
 6020SOL     OW18958   0.362   5.849   4.800
 6020SOL    HW118959   0.435   5.917   4.794
 6020SOL    HW218960   0.305   5.868   4.880
 6021SOL     OW18961   5.724   6.998   4.237
 6021SOL    HW118962   5.814   6.984   4.279
 6021SOL    HW218963   5.720   6.948   4.151
 6022SOL     OW18964   6.480   3.370   1.544
 6022SOL    HW118965   6.434   3.344   1.629
 6022SOL    HW218966   6.505   3.467   1.549
 6023SOL     OW18967   3.863   0.144   2.799
 6023SOL    HW118968   3.868   0.155   2.700
 6023SOL    HW218969   3.767   0.139   2.827
 6024SOL     OW18970   0.372   6.657   0.041
 6024SOL    HW118971   0.430   6.711   0.100
 6024SOL    HW218972   0.285   6.705   0.026
 6025SOL     OW18973   3.639   0.533   5.263
 6025SOL    HW118974   3.726   0.583   5.257
 6025SOL    HW218975   3.617   0.514   5.358
 6026SOL     OW18976   5.246   6.316   3.678
 6026SOL    HW118977   5.161   6.264   3.688
 6026SOL    HW218978   5.237   6.380   3.603
 6027SOL     OW18979   6.010   4.063   6.101
 6027SOL    HW118980   6.087   4.007   6.132
 6027SOL    HW218981   5.948   4.079   6.178
 6028SOL     OW18982   6.429   5.531   6.422
 6028SOL    HW118983   6.459   5.501   6.513
 6028SOL    HW218984   6.508   5.561   6.369
 6029SOL     OW18985   2.506   1.441   2.270
 6029SOL    HW118986   2.522   1.540   2.269
 6029SOL    HW218987   2.589   1.395   2.299
 6030SOL     OW18988   6.397   2.973   4.957
 6030SOL    HW118989   6.415   2.933   5.047
 6030SOL    HW218990   6.299   2.989   4.946
 6031SOL     OW18991   6.986   0.445   3.827
 6031SOL    HW118992   6.926   0.438   3.906
 6031SOL    HW218993   0.034   0.375   3.833
 6032SOL     OW18994   3.116   0.339   3.294
 6032SOL    HW118995   3.093   0.301   3.384
 6032SOL    HW218996   3.032   0.365   3.246
 6033SOL     OW18997   0.668   1.689   2.812
 6033SOL    HW118998   0.574   1.694   2.846
 6033SOL    HW218999   0.730   1.670   2.888
 6034SOL     OW19000   0.632   0.548   1.324
 6034SOL    HW119001   0.663   0.641   1.308
 6034SOL    HW219002   0.587   0.513   1.241
 6035SOL     OW19003   2.090   1.491   2.771
 6035SOL    HW119004   2.103   1.394   2.749
 6035SOL    HW219005   2.060   1.540   2.689
 6036SOL     OW19006   6.859   3.476   0.132
 6036SOL    HW119007   6.919   3.511   0.060
 6036SOL    HW219008   6.779   3.432   0.091
 6037SOL     OW19009   4.623   0.092   6.788
 6037SOL    HW119010   4.680   0.097   6.706
 6037SOL    HW219011   4.571   0.176   6.798
 6038SOL     OW19012   2.285   2.020   0.230
 6038SOL    HW119013   2.291   1.981   0.138
 6038SOL    HW219014   2.316   1.952   0.297
 6039SOL     OW19015   2.918   3.667   3.617
 6039SOL    HW119016   2.912   3.568   3.632
 6039SOL    HW219017   2.916   3.686   3.519
 6040SOL     OW19018   6.773   0.447   0.865
 6040SOL    HW119019   6.753   0.350   0.855
 6040SOL    HW219020   6.718   0.500   0.801
 6041SOL     OW19021   0.458   2.997   4.454
 6041SOL    HW119022   0.500   3.084   4.429
 6041SOL    HW219023   0.443   2.943   4.370
 6042SOL     OW19024   2.987   5.685   2.617
 6042SOL    HW119025   3.057   5.738   2.665
 6042SOL    HW219026   3.030   5.637   2.540
 6043SOL     OW19027   2.105   4.512   0.999
 6043SOL    HW119028   2.058   4.567   0.931
 6043SOL    HW219029   2.039   4.453   1.045
 6044SOL     OW19030   6.519   4.020   6.934
 6044SOL    HW119031   6.461   4.014   7.015
 6044SOL    HW219032   6.498   3.944   6.872
 6045SOL     OW19033   4.489   1.195   4.161
 6045SOL    HW119034   4.503   1.216   4.258
 6045SOL    HW219035   4.395   1.164   4.147
 6046SOL     OW19036   3.451   3.866   2.507
 6046SOL    HW119037   3.387   3.912   2.446
 6046SOL    HW219038   3.484   3.782   2.464
 6047SOL     OW19039   6.859   1.150   0.512
 6047SOL    HW119040   6.846   1.168   0.415
 6047SOL    HW219041   6.838   1.055   0.532
 6048SOL     OW19042   6.184   6.026   3.292
 6048SOL    HW119043   6.256   5.958   3.273
 6048SOL    HW219044   6.212   6.083   3.369
 6049SOL     OW19045   5.956   4.886   0.324
 6049SOL    HW119046   5.891   4.892   0.247
 6049SOL    HW219047   6.036   4.943   0.303
 6050SOL     OW19048   2.201   5.627   3.185
 6050SOL    HW119049   2.165   5.661   3.271
 6050SOL    HW219050   2.286   5.675   3.162
 6051SOL     OW19051   0.393   2.074   2.878
 6051SOL    HW119052   0.377   2.169   2.851
 6051SOL    HW219053   0.423   2.022   2.798
 6052SOL     OW19054   5.302   5.589   0.008
 6052SOL    HW119055   5.230   5.596   6.961
 6052SOL    HW219056   5.279   5.515   0.071
 6053SOL     OW19057   3.682   2.052   6.205
 6053SOL    HW119058   3.714   2.048   6.110
 6053SOL    HW219059   3.586   2.025   6.209
 6054SOL     OW19060   4.276   3.946   5.980
 6054SOL    HW119061   4.341   3.913   5.911
 6054SOL    HW219062   4.265   3.876   6.051
 6055SOL     OW19063   3.191   4.882   1.775
 6055SOL    HW119064   3.148   4.830   1.848
 6055SOL    HW219065   3.180   4.980   1.793
 6056SOL     OW19066   5.380   6.780   3.099
 6056SOL    HW119067   5.335   6.726   3.169
 6056SOL    HW219068   5.462   6.732   3.067
 6057SOL     OW19069   5.515   1.301   4.316
 6057SOL    HW119070   5.456   1.311   4.235
 6057SOL    HW219071   5.458   1.286   4.397
 6058SOL     OW19072   6.842   3.789   6.609
 6058SOL    HW119073   6.929   3.827   6.639
 6058SOL    HW219074   6.799   3.852   6.544
 6059SOL     OW19075   4.105   1.957   6.417
 6059SOL    HW119076   4.030   1.926   6.358
 6059SOL    HW219077   4.137   1.880   6.473
 6060SOL     OW19078   2.546   2.012   1.458
 6060SOL    HW119079   2.511   2.028   1.366
 6060SOL    HW219080   2.628   1.955   1.453
 6061SOL     OW19081   2.303   4.648   6.263
 6061SOL    HW119082   2.306   4.578   6.335
 6061SOL    HW219083   2.220   4.703   6.274
 6062SOL     OW19084   1.788   2.029   4.881
 6062SOL    HW119085   1.781   2.110   4.822
 6062SOL    HW219086   1.696   1.997   4.904
 6063SOL     OW19087   4.184   3.667   5.467
 6063SOL    HW119088   4.116   3.679   5.540
 6063SOL    HW219089   4.266   3.624   5.504
 6064SOL     OW19090   5.844   5.505   0.059
 6064SOL    HW119091   5.844   5.568   0.137
 6064SOL    HW219092   5.868   5.413   0.089
 6065SOL     OW19093   1.515   5.474   1.217
 6065SOL    HW119094   1.595   5.466   1.158
 6065SOL    HW219095   1.538   5.528   1.298
 6066SOL     OW19096   4.969   5.864   2.898
 6066SOL    HW119097   4.977   5.843   2.800
 6066SOL    HW219098   5.051   5.833   2.946
 6067SOL     OW19099   6.558   5.246   5.435
 6067SOL    HW119100   6.582   5.258   5.339
 6067SOL    HW219101   6.504   5.163   5.446
 6068SOL     OW19102   4.575   2.082   3.640
 6068SOL    HW119103   4.495   2.085   3.580
 6068SOL    HW219104   4.642   2.150   3.610
 6069SOL     OW19105   1.035   5.171   5.472
 6069SOL    HW119106   1.035   5.246   5.538
 6069SOL    HW219107   1.126   5.160   5.433
 6070SOL     OW19108   2.643   0.397   1.335
 6070SOL    HW119109   2.715   0.432   1.276
 6070SOL    HW219110   2.568   0.361   1.279
 6071SOL     OW19111   6.593   6.709   6.496
 6071SOL    HW119112   6.649   6.627   6.504
 6071SOL    HW219113   6.525   6.711   6.569
 6072SOL     OW19114   0.320   2.587   6.998
 6072SOL    HW119115   0.319   2.562   6.901
 6072SOL    HW219116   0.294   2.507   0.030
 6073SOL     OW19117   4.443   4.391   6.668
 6073SOL    HW119118   4.406   4.484   6.666
 6073SOL    HW219119   4.379   4.328   6.625
 6074SOL     OW19120   1.314   5.915   2.510
 6074SOL    HW119121   1.233   5.894   2.564
 6074SOL    HW219122   1.370   5.832   2.500
 6075SOL     OW19123   6.759   6.651   0.222
 6075SOL    HW119124   6.778   6.607   0.134
 6075SOL    HW219125   6.709   6.587   0.281
 6076SOL     OW19126   6.962   6.031   3.149
 6076SOL    HW119127   6.974   6.046   3.050
 6076SOL    HW219128   0.003   5.960   3.179
 6077SOL     OW19129   4.758   5.878   3.064
 6077SOL    HW119130   4.822   5.864   2.989
 6077SOL    HW219131   4.678   5.819   3.051
 6078SOL     OW19132   5.524   4.082   0.330
 6078SOL    HW119133   5.510   4.073   0.231
 6078SOL    HW219134   5.449   4.036   0.378
 6079SOL     OW19135   3.402   1.938   0.049
 6079SOL    HW119136   3.472   1.901   0.110
 6079SOL    HW219137   3.321   1.963   0.103
 6080SOL     OW19138   5.814   3.351   5.617
 6080SOL    HW119139   5.756   3.314   5.545
 6080SOL    HW219140   5.880   3.281   5.646
 6081SOL     OW19141   2.070   4.895   3.872
 6081SOL    HW119142   2.143   4.828   3.866
 6081SOL    HW219143   2.008   4.871   3.947
 6082SOL     OW19144   4.270   1.446   1.109
 6082SOL    HW119145   4.320   1.509   1.169
 6082SOL    HW219146   4.186   1.490   1.077
 6083SOL     OW19147   5.377   0.920   5.572
 6083SOL    HW119148   5.461   0.946   5.620
 6083SOL    HW219149   5.301   0.973   5.608
 6084SOL     OW19150   6.366   5.176   3.537
 6084SOL    HW119151   6.271   5.143   3.534
 6084SOL    HW219152   6.424   5.104   3.575
 6085SOL     OW19153   0.571   6.471   1.012
 6085SOL    HW119154   0.637   6.494   0.940
 6085SOL    HW219155   0.543   6.375   1.001
 6086SOL     OW19156   4.677   2.934   0.527
 6086SOL    HW119157   4.665   2.879   0.609
 6086SOL    HW219158   4.769   2.973   0.526
 6087SOL     OW19159   3.918   1.099   6.164
 6087SOL    HW119160   3.954   1.043   6.239
 6087SOL    HW219161   3.818   1.095   6.164
 6088SOL     OW19162   3.957   6.100   2.940
 6088SOL    HW119163   4.000   6.025   2.889
 6088SOL    HW219164   3.861   6.106   2.915
 6089SOL     OW19165   6.272   5.383   2.671
 6089SOL    HW119166   6.192   5.347   2.718
 6089SOL    HW219167   6.264   5.482   2.663
 6090SOL     OW19168   3.980   6.176   4.827
 6090SOL    HW119169   4.015   6.217   4.743
 6090SOL    HW219170   4.042   6.103   4.857
 6091SOL     OW19171   0.281   2.820   2.182
 6091SOL    HW119172   0.272   2.721   2.177
 6091SOL    HW219173   0.194   2.861   2.208
 6092SOL     OW19174   1.780   0.046   1.417
 6092SOL    HW119175   1.764   6.985   1.468
 6092SOL    HW219176   1.877   0.055   1.395
 6093SOL     OW19177   3.507   3.410   2.612
 6093SOL    HW119178   3.490   3.389   2.516
 6093SOL    HW219179   3.567   3.340   2.652
 6094SOL     OW19180   0.248   6.619   5.472
 6094SOL    HW119181   0.334   6.594   5.517
 6094SOL    HW219182   0.258   6.709   5.429
 6095SOL     OW19183   5.575   5.174   2.395
 6095SOL    HW119184   5.563   5.136   2.304
 6095SOL    HW219185   5.499   5.235   2.416
 6096SOL     OW19186   4.713   6.415   2.795
 6096SOL    HW119187   4.720   6.479   2.872
 6096SOL    HW219188   4.793   6.355   2.795
 6097SOL     OW19189   2.009   4.956   1.062
 6097SOL    HW119190   2.052   4.946   1.151
 6097SOL    HW219191   1.922   4.906   1.061
 6098SOL     OW19192   6.213   1.648   5.429
 6098SOL    HW119193   6.163   1.710   5.490
 6098SOL    HW219194   6.235   1.696   5.344
 6099SOL     OW19195   3.097   6.947   5.500
 6099SOL    HW119196   3.047   7.011   5.441
 6099SOL    HW219197   3.190   6.982   5.514
 6100SOL     OW19198   6.396   5.365   6.183
 6100SOL    HW119199   6.421   5.424   6.260
 6100SOL    HW219200   6.464   5.374   6.110
 6101SOL     OW19201   0.999   2.962   0.834
 6101SOL    HW119202   0.926   2.896   0.849
 6101SOL    HW219203   1.008   3.020   0.915
 6102SOL     OW19204   2.573   0.365   2.639
 6102SOL    HW119205   2.634   0.425   2.588
 6102SOL    HW219206   2.574   0.274   2.599
 6103SOL     OW19207   5.585   0.397   2.797
 6103SOL    HW119208   5.604   0.301   2.815
 6103SOL    HW219209   5.506   0.427   2.850
 6104SOL     OW19210   0.100   0.350   5.330
 6104SOL    HW119211   0.015   0.350   5.383
 6104SOL    HW219212   0.132   0.444   5.316
 6105SOL     OW19213   3.537   5.290   6.466
 6105SOL    HW119214   3.466   5.282   6.537
 6105SOL    HW219215   3.627   5.275   6.507
 6106SOL     OW19216   6.215   3.521   5.952
 6106SOL    HW119217   6.198   3.423   5.937
 6106SOL    HW219218   6.212   3.569   5.864
 6107SOL     OW19219   6.832   5.020   4.846
 6107SOL    HW119220   6.749   4.978   4.810
 6107SOL    HW219221   6.905   4.952   4.851
 6108SOL     OW19222   3.258   0.662   5.748
 6108SOL    HW119223   3.172   0.700   5.782
 6108SOL    HW219224   3.300   0.726   5.684
 6109SOL     OW19225   6.460   6.426   3.560
 6109SOL    HW119226   6.400   6.418   3.480
 6109SOL    HW219227   6.513   6.342   3.571
 6110SOL     OW19228   0.931   1.796   4.521
 6110SOL    HW119229   0.839   1.799   4.559
 6110SOL    HW219230   0.927   1.768   4.425
 6111SOL     OW19231   3.195   3.264   1.548
 6111SOL    HW119232   3.172   3.191   1.612
 6111SOL    HW219233   3.126   3.269   1.476
 6112SOL     OW19234   4.777   6.159   3.875
 6112SOL    HW119235   4.684   6.124   3.885
 6112SOL    HW219236   4.843   6.085   3.890
 6113SOL     OW19237   3.524   5.099   1.447
 6113SOL    HW119238   3.594   5.043   1.492
 6113SOL    HW219239   3.434   5.072   1.481
 6114SOL     OW19240   5.515   3.718   1.500
 6114SOL    HW119241   5.586   3.648   1.510
 6114SOL    HW219242   5.437   3.680   1.451
 6115SOL     OW19243   5.724   1.025   4.304
 6115SOL    HW119244   5.666   1.012   4.223
 6115SOL    HW219245   5.784   0.945   4.315
 6116SOL     OW19246   6.182   2.382   0.479
 6116SOL    HW119247   6.218   2.390   0.572
 6116SOL    HW219248   6.082   2.375   0.483
 6117SOL     OW19249   3.282   2.036   1.243
 6117SOL    HW119250   3.354   1.968   1.254
 6117SOL    HW219251   3.305   2.119   1.295
 6118SOL     OW19252   6.043   0.286   1.627
 6118SOL    HW119253   6.119   0.221   1.629
 6118SOL    HW219254   6.023   0.316   1.720
 6119SOL     OW19255   0.298   1.183   6.121
 6119SOL    HW119256   0.262   1.108   6.176
 6119SOL    HW219257   0.314   1.151   6.027
 6120SOL     OW19258   3.127   1.251   3.580
 6120SOL    HW119259   3.090   1.297   3.500
 6120SOL    HW219260   3.226   1.267   3.584
 6121SOL     OW19261   4.024   1.297   5.753
 6121SOL    HW119262   4.078   1.300   5.668
 6121SOL    HW219263   4.077   1.337   5.828
 6122SOL     OW19264   4.897   4.341   5.023
 6122SOL    HW119265   4.961   4.339   5.100
 6122SOL    HW219266   4.933   4.402   4.952
 6123SOL     OW19267   6.052   1.932   5.025
 6123SOL    HW119268   6.017   1.839   5.020
 6123SOL    HW219269   6.093   1.957   4.937
 6124SOL     OW19270   1.951   6.079   3.921
 6124SOL    HW119271   2.019   6.008   3.937
 6124SOL    HW219272   1.969   6.123   3.833
 6125SOL     OW19273   3.010   1.104   5.808
 6125SOL    HW119274   3.026   1.138   5.715
 6125SOL    HW219275   3.092   1.059   5.842
 6126SOL     OW19276   6.339   3.069   6.529
 6126SOL    HW119277   6.379   2.992   6.478
 6126SOL    HW219278   6.378   3.072   6.621
 6127SOL     OW19279   4.827   2.263   3.418
 6127SOL    HW119280   4.787   2.320   3.489
 6127SOL    HW219281   4.848   2.319   3.338
 6128SOL     OW19282   6.071   4.984   4.555
 6128SOL    HW119283   6.094   4.904   4.499
 6128SOL    HW219284   6.098   5.067   4.507
 6129SOL     OW19285   2.140   6.031   3.249
 6129SOL    HW119286   2.239   6.022   3.257
 6129SOL    HW219287   2.108   5.986   3.165
 6130SOL     OW19288   6.916   2.110   6.949
 6130SOL    HW119289   6.952   2.187   7.001
 6130SOL    HW219290   6.881   2.041   7.012
 6131SOL     OW19291   6.269   3.236   2.526
 6131SOL    HW119292   6.173   3.224   2.550
 6131SOL    HW219293   6.310   3.148   2.505
 6132SOL     OW19294   4.708   5.755   6.680
 6132SOL    HW119295   4.680   5.663   6.652
 6132SOL    HW219296   4.736   5.807   6.599
 6133SOL     OW19297   0.182   2.414   3.385
 6133SOL    HW119298   0.083   2.422   3.401
 6133SOL    HW219299   0.198   2.361   3.301
 6134SOL     OW19300   0.870   6.898   4.915
 6134SOL    HW119301   0.934   6.837   4.962
 6134SOL    HW219302   0.907   6.990   4.913
 6135SOL     OW19303   6.196   6.275   6.792
 6135SOL    HW119304   6.201   6.305   6.887
 6135SOL    HW219305   6.115   6.313   6.749
 6136SOL     OW19306   1.055   2.419   2.790
 6136SOL    HW119307   1.040   2.434   2.693
 6136SOL    HW219308   0.967   2.418   2.838
 6137SOL     OW19309   6.955   4.528   1.317
 6137SOL    HW119310   6.885   4.461   1.341
 6137SOL    HW219311   6.917   4.620   1.325
 6138SOL     OW19312   4.922   0.678   2.835
 6138SOL    HW119313   4.902   0.580   2.834
 6138SOL    HW219314   4.888   0.718   2.920
 6139SOL     OW19315   1.449   1.930   5.772
 6139SOL    HW119316   1.526   1.866   5.778
 6139SOL    HW219317   1.436   1.959   5.678
 6140SOL     OW19318   2.481   0.496   4.394
 6140SOL    HW119319   2.389   0.529   4.373
 6140SOL    HW219320   2.513   0.536   4.480
 6141SOL     OW19321   0.531   0.620   0.784
 6141SOL    HW119322   0.583   0.613   0.698
 6141SOL    HW219323   0.433   0.622   0.763
 6142SOL     OW19324   0.393   0.031   1.757
 6142SOL    HW119325   0.440   6.967   1.774
 6142SOL    HW219326   0.428   0.072   1.673
 6143SOL     OW19327   1.971   3.013   5.394
 6143SOL    HW119328   2.009   2.923   5.377
 6143SOL    HW219329   1.987   3.039   5.490
 6144SOL     OW19330   3.181   6.061   2.837
 6144SOL    HW119331   3.177   6.114   2.922
 6144SOL    HW219332   3.095   6.073   2.787
 6145SOL     OW19333   5.400   3.627   4.277
 6145SOL    HW119334   5.429   3.621   4.372
 6145SOL    HW219335   5.345   3.547   4.254
 6146SOL     OW19336   6.176   1.663   5.802
 6146SOL    HW119337   6.173   1.565   5.821
 6146SOL    HW219338   6.091   1.689   5.755
 6147SOL     OW19339   1.559   1.936   4.989
 6147SOL    HW119340   1.463   1.925   4.966
 6147SOL    HW219341   1.597   1.849   5.022
 6148SOL     OW19342   4.061   5.490   6.488
 6148SOL    HW119343   4.082   5.395   6.510
 6148SOL    HW219344   4.104   5.515   6.401
 6149SOL     OW19345   4.226   1.730   1.868
 6149SOL    HW119346   4.135   1.768   1.886
 6149SOL    HW219347   4.257   1.678   1.947
 6150SOL     OW19348   0.300   5.124   3.903
 6150SOL    HW119349   0.369   5.164   3.843
 6150SOL    HW219350   0.293   5.177   3.987
 6151SOL     OW19351   3.783   5.341   2.369
 6151SOL    HW119352   3.765   5.391   2.284
 6151SOL    HW219353   3.778   5.404   2.446
 6152SOL     OW19354   0.526   4.188   3.250
 6152SOL    HW119355   0.560   4.104   3.291
 6152SOL    HW219356   0.449   4.168   3.190
 6153SOL     OW19357   5.967   6.199   1.557
 6153SOL    HW119358   6.045   6.261   1.554
 6153SOL    HW219359   5.905   6.227   1.630
 6154SOL     OW19360   3.698   5.371   3.357
 6154SOL    HW119361   3.628   5.305   3.385
 6154SOL    HW219362   3.721   5.356   3.261
 6155SOL     OW19363   1.658   1.657   4.261
 6155SOL    HW119364   1.742   1.603   4.255
 6155SOL    HW219365   1.639   1.699   4.172
 6156SOL     OW19366   4.621   4.453   3.076
 6156SOL    HW119367   4.669   4.367   3.058
 6156SOL    HW219368   4.676   4.530   3.044
 6157SOL     OW19369   0.463   2.426   1.798
 6157SOL    HW119370   0.496   2.392   1.886
 6157SOL    HW219371   0.386   2.369   1.767
 6158SOL     OW19372   3.074   0.726   6.351
 6158SOL    HW119373   3.055   0.631   6.328
 6158SOL    HW219374   3.163   0.733   6.396
 6159SOL     OW19375   6.528   1.153   0.775
 6159SOL    HW119376   6.614   1.170   0.823
 6159SOL    HW219377   6.452   1.191   0.828
 6160SOL     OW19378   1.248   6.904   0.725
 6160SOL    HW119379   1.217   6.834   0.789
 6160SOL    HW219380   1.332   6.946   0.761
 6161SOL     OW19381   6.193   4.202   7.018
 6161SOL    HW119382   6.209   4.184   6.921
 6161SOL    HW219383   6.116   4.147   0.027
 6162SOL     OW19384   6.305   5.818   0.936
 6162SOL    HW119385   6.246   5.839   0.859
 6162SOL    HW219386   6.252   5.824   1.021
 6163SOL     OW19387   5.100   5.499   2.741
 6163SOL    HW119388   5.164   5.423   2.734
 6163SOL    HW219389   5.013   5.467   2.778
 6164SOL     OW19390   3.621   3.753   4.682
 6164SOL    HW119391   3.636   3.836   4.629
 6164SOL    HW219392   3.599   3.777   4.776
 6165SOL     OW19393   3.500   0.666   6.641
 6165SOL    HW119394   3.482   0.635   6.734
 6165SOL    HW219395   3.531   0.589   6.586
 6166SOL     OW19396   3.239   1.374   5.794
 6166SOL    HW119397   3.234   1.462   5.842
 6166SOL    HW219398   3.276   1.305   5.856
 6167SOL     OW19399   1.343   3.771   2.312
 6167SOL    HW119400   1.379   3.847   2.366
 6167SOL    HW219401   1.308   3.700   2.373
 6168SOL     OW19402   1.080   4.043   3.644
 6168SOL    HW119403   1.071   3.990   3.729
 6168SOL    HW219404   1.175   4.073   3.634
 6169SOL     OW19405   2.758   0.903   1.009
 6169SOL    HW119406   2.727   0.892   0.915
 6169SOL    HW219407   2.823   0.830   1.031
 6170SOL     OW19408   2.655   4.601   0.856
 6170SOL    HW119409   2.557   4.581   0.860
 6170SOL    HW219410   2.680   4.659   0.934
 6171SOL     OW19411   2.232   4.164   2.305
 6171SOL    HW119412   2.298   4.216   2.359
 6171SOL    HW219413   2.222   4.073   2.346
 6172SOL     OW19414   2.424   5.049   1.853
 6172SOL    HW119415   2.518   5.023   1.878
 6172SOL    HW219416   2.360   5.008   1.918
 6173SOL     OW19417   0.661   5.683   2.884
 6173SOL    HW119418   0.738   5.672   2.947
 6173SOL    HW219419   0.615   5.770   2.903
 6174SOL     OW19420   5.891   4.444   1.699
 6174SOL    HW119421   5.834   4.461   1.619
 6174SOL    HW219422   5.973   4.503   1.694
 6175SOL     OW19423   5.646   0.230   4.218
 6175SOL    HW119424   5.673   0.136   4.198
 6175SOL    HW219425   5.640   0.244   4.317
 6176SOL     OW19426   6.669   3.300   0.431
 6176SOL    HW119427   6.669   3.299   0.331
 6176SOL    HW219428   6.623   3.383   0.464
 6177SOL     OW19429   5.902   2.938   2.810
 6177SOL    HW119430   5.907   2.939   2.910
 6177SOL    HW219431   5.812   2.905   2.781
 6178SOL     OW19432   0.231   3.805   1.140
 6178SOL    HW119433   0.179   3.890   1.133
 6178SOL    HW219434   0.168   3.727   1.130
 6179SOL     OW19435   0.173   1.508   5.883
 6179SOL    HW119436   0.104   1.437   5.867
 6179SOL    HW219437   0.264   1.466   5.883
 6180SOL     OW19438   3.111   0.816   6.836
 6180SOL    HW119439   3.104   0.915   6.835
 6180SOL    HW219440   3.030   0.776   6.794
 6181SOL     OW19441   4.491   6.632   6.161
 6181SOL    HW119442   4.518   6.718   6.119
 6181SOL    HW219443   4.391   6.624   6.160
 6182SOL     OW19444   4.641   6.802   5.353
 6182SOL    HW119445   4.636   6.797   5.253
 6182SOL    HW219446   4.568   6.862   5.386
 6183SOL     OW19447   2.175   6.670   2.455
 6183SOL    HW119448   2.204   6.590   2.508
 6183SOL    HW219449   2.174   6.750   2.515
 6184SOL     OW19450   6.688   0.021   5.291
 6184SOL    HW119451   6.698   0.094   5.224
 6184SOL    HW219452   6.598   0.028   5.335
 6185SOL     OW19453   2.623   2.477   0.252
 6185SOL    HW119454   2.663   2.534   0.180
 6185SOL    HW219455   2.578   2.398   0.211
 6186SOL     OW19456   4.258   1.071   4.089
 6186SOL    HW119457   4.195   0.994   4.076
 6186SOL    HW219458   4.256   1.129   4.008
 6187SOL     OW19459   3.131   4.996   4.723
 6187SOL    HW119460   3.213   4.961   4.769
 6187SOL    HW219461   3.085   5.061   4.784
 6188SOL     OW19462   2.523   0.119   2.502
 6188SOL    HW119463   2.458   0.043   2.507
 6188SOL    HW219464   2.616   0.083   2.496
 6189SOL     OW19465   5.516   4.997   3.331
 6189SOL    HW119466   5.572   5.066   3.377
 6189SOL    HW219467   5.512   4.914   3.387
 6190SOL     OW19468   5.062   3.192   5.804
 6190SOL    HW119469   5.048   3.141   5.720
 6190SOL    HW219470   5.009   3.277   5.800
 6191SOL     OW19471   0.150   1.262   6.486
 6191SOL    HW119472   0.240   1.264   6.444
 6191SOL    HW219473   0.081   1.242   6.416
 6192SOL     OW19474   3.293   1.655   0.249
 6192SOL    HW119475   3.215   1.601   0.220
 6192SOL    HW219476   3.268   1.752   0.251
 6193SOL     OW19477   0.084   6.638   1.646
 6193SOL    HW119478   0.064   6.559   1.704
 6193SOL    HW219479   0.003   6.661   1.591
 6194SOL     OW19480   3.220   0.221   1.206
 6194SOL    HW119481   3.167   0.297   1.168
 6194SOL    HW219482   3.317   0.237   1.190
 6195SOL     OW19483   2.529   0.564   5.717
 6195SOL    HW119484   2.491   0.640   5.770
 6195SOL    HW219485   2.585   0.599   5.643
 6196SOL     OW19486   1.444   2.018   5.519
 6196SOL    HW119487   1.481   2.107   5.494
 6196SOL    HW219488   1.435   1.961   5.437
 6197SOL     OW19489   2.585   2.629   1.789
 6197SOL    HW119490   2.519   2.704   1.794
 6197SOL    HW219491   2.649   2.635   1.865
 6198SOL     OW19492   2.943   5.722   1.969
 6198SOL    HW119493   3.039   5.701   1.987
 6198SOL    HW219494   2.936   5.778   1.887
 6199SOL     OW19495   0.212   0.276   6.596
 6199SOL    HW119496   0.129   0.326   6.619
 6199SOL    HW219497   0.289   0.340   6.586
 6200SOL     OW19498   4.096   0.631   5.718
 6200SOL    HW119499   4.027   0.656   5.651
 6200SOL    HW219500   4.134   0.541   5.696
 6201SOL     OW19501   2.403   5.306   4.961
 6201SOL    HW119502   2.397   5.360   4.877
 6201SOL    HW219503   2.458   5.356   5.028
 6202SOL     OW19504   1.831   2.437   1.272
 6202SOL    HW119505   1.854   2.512   1.211
 6202SOL    HW219506   1.906   2.372   1.276
 6203SOL     OW19507   5.674   2.663   4.165
 6203SOL    HW119508   5.589   2.671   4.219
 6203SOL    HW219509   5.749   2.636   4.225
 6204SOL     OW19510   1.017   6.986   5.248
 6204SOL    HW119511   1.042   6.951   5.339
 6204SOL    HW219512   0.919   6.972   5.233
 6205SOL     OW19513   4.271   6.644   6.493
 6205SOL    HW119514   4.241   6.715   6.430
 6205SOL    HW219515   4.360   6.670   6.531
 6206SOL     OW19516   4.440   7.013   3.981
 6206SOL    HW119517   4.488   0.062   4.030
 6206SOL    HW219518   4.379   6.964   4.043
 6207SOL     OW19519   2.539   4.599   4.473
 6207SOL    HW119520   2.529   4.596   4.572
 6207SOL    HW219521   2.532   4.506   4.436
 6208SOL     OW19522   5.468   4.394   5.159
 6208SOL    HW119523   5.533   4.365   5.230
 6208SOL    HW219524   5.389   4.331   5.159
 6209SOL     OW19525   1.075   5.818   0.586
 6209SOL    HW119526   1.124   5.855   0.666
 6209SOL    HW219527   0.977   5.837   0.596
 6210SOL     OW19528   0.205   4.230   3.407
 6210SOL    HW119529   0.188   4.296   3.481
 6210SOL    HW219530   0.266   4.272   3.339
 6211SOL     OW19531   2.553   0.337   4.803
 6211SOL    HW119532   2.476   0.361   4.743
 6211SOL    HW219533   2.522   0.340   4.898
 6212SOL     OW19534   6.652   0.875   4.420
 6212SOL    HW119535   6.596   0.793   4.437
 6212SOL    HW219536   6.598   0.956   4.441
 6213SOL     OW19537   6.471   6.993   0.303
 6213SOL    HW119538   6.475   0.056   0.252
 6213SOL    HW219539   6.381   6.950   0.289
 6214SOL     OW19540   5.177   4.306   1.872
 6214SOL    HW119541   5.102   4.365   1.901
 6214SOL    HW219542   5.152   4.211   1.886
 6215SOL     OW19543   3.677   4.295   1.524
 6215SOL    HW119544   3.637   4.203   1.532
 6215SOL    HW219545   3.607   4.358   1.492
 6216SOL     OW19546   5.839   1.693   2.520
 6216SOL    HW119547   5.808   1.765   2.458
 6216SOL    HW219548   5.796   1.606   2.493
 6217SOL     OW19549   4.539   1.363   1.406
 6217SOL    HW119550   4.538   1.462   1.389
 6217SOL    HW219551   4.516   1.314   1.322
 6218SOL     OW19552   4.452   6.300   4.458
 6218SOL    HW119553   4.419   6.395   4.459
 6218SOL    HW219554   4.548   6.299   4.432
 6219SOL     OW19555   0.369   0.804   4.858
 6219SOL    HW119556   0.285   0.753   4.838
 6219SOL    HW219557   0.443   0.769   4.801
 6220SOL     OW19558   1.191   3.590   4.987
 6220SOL    HW119559   1.173   3.501   4.946
 6220SOL    HW219560   1.178   3.584   5.086
 6221SOL     OW19561   4.738   4.370   4.242
 6221SOL    HW119562   4.789   4.297   4.287
 6221SOL    HW219563   4.700   4.432   4.310
 6222SOL     OW19564   7.022   1.853   1.426
 6222SOL    HW119565   0.067   1.927   1.423
 6222SOL    HW219566   0.023   1.784   1.357
 6223SOL     OW19567   5.057   4.905   3.653
 6223SOL    HW119568   5.077   4.926   3.748
 6223SOL    HW219569   5.001   4.823   3.648
 6224SOL     OW19570   2.841   0.196   4.497
 6224SOL    HW119571   2.864   0.232   4.587
 6224SOL    HW219572   2.905   0.123   4.473
 6225SOL     OW19573   3.968   1.603   6.534
 6225SOL    HW119574   3.980   1.621   6.631
 6225SOL    HW219575   3.871   1.612   6.510
 6226SOL     OW19576   0.074   5.988   4.343
 6226SOL    HW119577   0.127   5.923   4.289
 6226SOL    HW219578   0.016   5.939   4.408
 6227SOL     OW19579   2.981   3.996   0.112
 6227SOL    HW119580   2.971   3.932   0.036
 6227SOL    HW219581   2.979   4.090   0.077
 6228SOL     OW19582   0.028   2.189   3.112
 6228SOL    HW119583   0.103   2.255   3.124
 6228SOL    HW219584   0.066   2.097   3.100
 6229SOL     OW19585   1.459   2.619   2.396
 6229SOL    HW119586   1.550   2.578   2.393
 6229SOL    HW219587   1.393   2.549   2.426
 6230SOL     OW19588   1.915   2.667   3.886
 6230SOL    HW119589   1.882   2.646   3.978
 6230SOL    HW219590   2.004   2.625   3.872
 6231SOL     OW19591   6.620   4.239   2.537
 6231SOL    HW119592   6.719   4.240   2.555
 6231SOL    HW219593   6.585   4.332   2.541
 6232SOL     OW19594   0.532   0.813   6.726
 6232SOL    HW119595   0.452   0.868   6.702
 6232SOL    HW219596   0.604   0.828   6.659
 6233SOL     OW19597   4.217   0.864   6.054
 6233SOL    HW119598   4.227   0.957   6.019
 6233SOL    HW219599   4.138   0.820   6.012
 6234SOL     OW19600   2.439   2.390   3.653
 6234SOL    HW119601   2.508   2.388   3.581
 6234SOL    HW219602   2.465   2.457   3.723
 6235SOL     OW19603   1.590   5.230   1.700
 6235SOL    HW119604   1.631   5.141   1.719
 6235SOL    HW219605   1.661   5.298   1.688
 6236SOL     OW19606   0.124   3.872   0.204
 6236SOL    HW119607   0.195   3.802   0.196
 6236SOL    HW219608   0.091   3.877   0.298
 6237SOL     OW19609   3.617   6.079   6.167
 6237SOL    HW119610   3.602   6.178   6.170
 6237SOL    HW219611   3.528   6.033   6.166
 6238SOL     OW19612   5.395   3.063   1.186
 6238SOL    HW119613   5.370   3.139   1.247
 6238SOL    HW219614   5.373   2.977   1.231
 6239SOL     OW19615   3.228   6.127   4.213
 6239SOL    HW119616   3.183   6.057   4.158
 6239SOL    HW219617   3.179   6.214   4.204
 6240SOL     OW19618   2.459   3.812   0.446
 6240SOL    HW119619   2.396   3.770   0.380
 6240SOL    HW219620   2.522   3.872   0.397
 6241SOL     OW19621   3.816   6.782   2.512
 6241SOL    HW119622   3.766   6.769   2.597
 6241SOL    HW219623   3.907   6.817   2.531
 6242SOL     OW19624   3.314   2.065   2.834
 6242SOL    HW119625   3.390   2.001   2.830
 6242SOL    HW219626   3.326   2.129   2.910
 6243SOL     OW19627   6.038   6.126   2.686
 6243SOL    HW119628   5.949   6.124   2.734
 6243SOL    HW219629   6.111   6.129   2.754
 6244SOL     OW19630   1.428   1.849   1.482
 6244SOL    HW119631   1.365   1.850   1.560
 6244SOL    HW219632   1.439   1.942   1.448
 6245SOL     OW19633   2.425   3.293   0.274
 6245SOL    HW119634   2.370   3.255   0.349
 6245SOL    HW219635   2.517   3.255   0.278
 6246SOL     OW19636   4.095   6.968   0.020
 6246SOL    HW119637   4.174   0.006   0.030
 6246SOL    HW219638   4.120   6.890   6.985
 6247SOL     OW19639   6.312   0.262   2.852
 6247SOL    HW119640   6.226   0.285   2.808
 6247SOL    HW219641   6.343   0.172   2.821
 6248SOL     OW19642   0.955   5.406   0.784
 6248SOL    HW119643   0.883   5.409   0.852
 6248SOL    HW219644   1.041   5.440   0.824
 6249SOL     OW19645   6.457   3.256   6.008
 6249SOL    HW119646   6.456   3.283   6.104
 6249SOL    HW219647   6.434   3.159   6.000
 6250SOL     OW19648   6.781   4.070   6.344
 6250SOL    HW119649   6.731   4.086   6.429
 6250SOL    HW219650   6.798   4.158   6.299
 6251SOL     OW19651   5.041   1.127   0.089
 6251SOL    HW119652   4.945   1.146   0.069
 6251SOL    HW219653   5.079   1.068   0.017
 6252SOL     OW19654   2.224   6.299   5.359
 6252SOL    HW119655   2.272   6.275   5.443
 6252SOL    HW219656   2.128   6.273   5.365
 6253SOL     OW19657   2.461   3.356   0.714
 6253SOL    HW119658   2.383   3.294   0.710
 6253SOL    HW219659   2.441   3.430   0.778
 6254SOL     OW19660   5.566   0.325   6.659
 6254SOL    HW119661   5.581   0.227   6.672
 6254SOL    HW219662   5.604   0.375   6.736
 6255SOL     OW19663   1.059   3.419   3.039
 6255SOL    HW119664   1.111   3.457   2.963
 6255SOL    HW219665   1.056   3.486   3.114
 6256SOL     OW19666   4.569   5.400   4.403
 6256SOL    HW119667   4.497   5.390   4.335
 6256SOL    HW219668   4.574   5.495   4.434
 6257SOL     OW19669   3.923   2.692   6.774
 6257SOL    HW119670   3.944   2.790   6.774
 6257SOL    HW219671   3.831   2.678   6.811
 6258SOL     OW19672   4.758   2.010   3.026
 6258SOL    HW119673   4.773   1.918   2.988
 6258SOL    HW219674   4.846   2.058   3.030
 6259SOL     OW19675   3.430   2.166   1.737
 6259SOL    HW119676   3.500   2.133   1.674
 6259SOL    HW219677   3.473   2.218   1.810
 6260SOL     OW19678   4.052   4.151   1.694
 6260SOL    HW119679   3.996   4.234   1.706
 6260SOL    HW219680   4.008   4.092   1.626
 6261SOL     OW19681   4.758   6.309   6.355
 6261SOL    HW119682   4.767   6.280   6.260
 6261SOL    HW219683   4.683   6.375   6.363
 6262SOL     OW19684   0.397   5.805   5.579
 6262SOL    HW119685   0.303   5.833   5.564
 6262SOL    HW219686   0.451   5.883   5.610
 6263SOL     OW19687   6.919   0.387   1.287
 6263SOL    HW119688   6.949   0.440   1.366
 6263SOL    HW219689   6.843   0.434   1.242
 6264SOL     OW19690   2.644   1.193   0.218
 6264SOL    HW119691   2.547   1.215   0.225
 6264SOL    HW219692   2.670   1.133   0.294
 6265SOL     OW19693   6.606   3.650   0.422
 6265SOL    HW119694   6.690   3.635   0.370
 6265SOL    HW219695   6.583   3.747   0.424
 6266SOL     OW19696   2.440   6.797   2.824
 6266SOL    HW119697   2.410   6.704   2.844
 6266SOL    HW219698   2.539   6.803   2.831
 6267SOL     OW19699   2.874   6.288   6.747
 6267SOL    HW119700   2.900   6.307   6.842
 6267SOL    HW219701   2.951   6.309   6.686
 6268SOL     OW19702   2.173   6.560   2.213
 6268SOL    HW119703   2.236   6.607   2.150
 6268SOL    HW219704   2.174   6.607   2.301
 6269SOL     OW19705   6.847   4.544   6.279
 6269SOL    HW119706   6.867   4.642   6.274
 6269SOL    HW219707   6.928   4.492   6.251
 6270SOL     OW19708   0.764   1.576   4.142
 6270SOL    HW119709   0.833   1.624   4.197
 6270SOL    HW219710   0.687   1.550   4.199
 6271SOL     OW19711   5.583   2.013   0.928
 6271SOL    HW119712   5.665   1.960   0.906
 6271SOL    HW219713   5.524   1.960   0.989
 6272SOL     OW19714   2.782   2.356   3.757
 6272SOL    HW119715   2.841   2.332   3.834
 6272SOL    HW219716   2.749   2.273   3.713
 6273SOL     OW19717   3.428   1.502   2.682
 6273SOL    HW119718   3.344   1.556   2.673
 6273SOL    HW219719   3.460   1.506   2.777
 6274SOL     OW19720   2.835   5.781   6.694
 6274SOL    HW119721   2.920   5.789   6.643
 6274SOL    HW219722   2.767   5.843   6.654
 6275SOL     OW19723   3.253   0.897   4.376
 6275SOL    HW119724   3.310   0.975   4.350
 6275SOL    HW219725   3.194   0.872   4.300
 6276SOL     OW19726   0.618   5.685   3.676
 6276SOL    HW119727   0.587   5.668   3.769
 6276SOL    HW219728   0.699   5.629   3.657
 6277SOL     OW19729   6.629   3.510   4.125
 6277SOL    HW119730   6.598   3.453   4.201
 6277SOL    HW219731   6.719   3.548   4.145
 6278SOL     OW19732   4.429   1.190   3.334
 6278SOL    HW119733   4.504   1.255   3.325
 6278SOL    HW219734   4.465   1.099   3.353
 6279SOL     OW19735   3.917   2.127   5.576
 6279SOL    HW119736   3.882   2.221   5.577
 6279SOL    HW219737   3.903   2.089   5.485
 6280SOL     OW19738   1.864   5.409   5.397
 6280SOL    HW119739   1.912   5.322   5.403
 6280SOL    HW219740   1.866   5.454   5.487
 6281SOL     OW19741   3.291   6.256   4.788
 6281SOL    HW119742   3.245   6.292   4.707
 6281SOL    HW219743   3.382   6.223   4.763
 6282SOL     OW19744   0.827   6.174   4.511
 6282SOL    HW119745   0.840   6.107   4.438
 6282SOL    HW219746   0.860   6.135   4.597
 6283SOL     OW19747   1.066   2.995   4.795
 6283SOL    HW119748   0.982   2.952   4.826
 6283SOL    HW219749   1.111   3.040   4.871
 6284SOL     OW19750   2.563   4.753   0.290
 6284SOL    HW119751   2.562   4.734   0.192
 6284SOL    HW219752   2.571   4.667   0.341
 6285SOL     OW19753   2.140   3.798   2.696
 6285SOL    HW119754   2.181   3.722   2.645
 6285SOL    HW219755   2.139   3.775   2.794
 6286SOL     OW19756   6.985   6.447   3.842
 6286SOL    HW119757   0.022   6.370   3.819
 6286SOL    HW219758   0.013   6.514   3.896
 6287SOL     OW19759   3.543   4.922   3.386
 6287SOL    HW119760   3.475   4.896   3.455
 6287SOL    HW219761   3.634   4.918   3.428
 6288SOL     OW19762   0.084   3.861   1.502
 6288SOL    HW119763   0.159   3.905   1.453
 6288SOL    HW219764   0.005   3.854   1.442
 6289SOL     OW19765   0.327   6.964   2.918
 6289SOL    HW119766   0.319   6.982   3.016
 6289SOL    HW219767   0.250   6.907   2.888
 6290SOL     OW19768   5.749   3.412   4.105
 6290SOL    HW119769   5.791   3.464   4.029
 6290SOL    HW219770   5.741   3.472   4.185
 6291SOL     OW19771   3.692   3.923   3.904
 6291SOL    HW119772   3.784   3.937   3.942
 6291SOL    HW219773   3.656   3.835   3.936
 6292SOL     OW19774   6.523   1.216   1.336
 6292SOL    HW119775   6.445   1.169   1.377
 6292SOL    HW219776   6.607   1.191   1.385
 6293SOL     OW19777   5.569   4.274   5.603
 6293SOL    HW119778   5.615   4.274   5.515
 6293SOL    HW219779   5.638   4.271   5.676
 6294SOL     OW19780   2.824   6.496   0.534
 6294SOL    HW119781   2.888   6.445   0.477
 6294SOL    HW219782   2.841   6.475   0.630
 6295SOL     OW19783   6.212   5.658   6.253
 6295SOL    HW119784   6.289   5.611   6.295
 6295SOL    HW219785   6.140   5.672   6.322
 6296SOL     OW19786   5.911   2.091   3.462
 6296SOL    HW119787   5.929   2.077   3.365
 6296SOL    HW219788   5.812   2.101   3.477
 6297SOL     OW19789   5.546   2.503   5.924
 6297SOL    HW119790   5.489   2.446   5.983
 6297SOL    HW219791   5.489   2.545   5.853
 6298SOL     OW19792   6.172   3.001   4.425
 6298SOL    HW119793   6.202   2.918   4.472
 6298SOL    HW219794   6.213   3.004   4.334
 6299SOL     OW19795   0.485   2.248   6.936
 6299SOL    HW119796   0.501   2.197   6.852
 6299SOL    HW219797   0.569   2.294   6.965
 6300SOL     OW19798   5.165   1.110   3.414
 6300SOL    HW119799   5.155   1.032   3.352
 6300SOL    HW219800   5.168   1.077   3.509
 6301SOL     OW19801   3.151   7.020   1.027
 6301SOL    HW119802   3.215   0.073   1.015
 6301SOL    HW219803   3.151   6.990   1.122
 6302SOL     OW19804   6.689   0.764   3.205
 6302SOL    HW119805   6.624   0.749   3.279
 6302SOL    HW219806   6.670   0.701   3.130
 6303SOL     OW19807   2.206   5.131   5.079
 6303SOL    HW119808   2.256   5.046   5.062
 6303SOL    HW219809   2.253   5.206   5.033
 6304SOL     OW19810   4.357   0.880   4.994
 6304SOL    HW119811   4.449   0.904   4.960
 6304SOL    HW219812   4.316   0.813   4.932
 6305SOL     OW19813   5.023   6.970   2.970
 6305SOL    HW119814   4.932   6.948   2.935
 6305SOL    HW219815   5.091   6.910   2.928
 6306SOL     OW19816   6.308   2.777   4.549
 6306SOL    HW119817   6.279   2.720   4.627
 6306SOL    HW219818   6.407   2.774   4.542
 6307SOL     OW19819   2.236   4.278   0.878
 6307SOL    HW119820   2.309   4.283   0.811
 6307SOL    HW219821   2.198   4.370   0.893
 6308SOL     OW19822   3.682   2.484   6.530
 6308SOL    HW119823   3.674   2.404   6.470
 6308SOL    HW219824   3.743   2.461   6.607
 6309SOL     OW19825   6.453   2.237   5.164
 6309SOL    HW119826   6.487   2.184   5.087
 6309SOL    HW219827   6.356   2.258   5.150
 6310SOL     OW19828   0.156   5.886   5.589
 6310SOL    HW119829   0.078   5.863   5.646
 6310SOL    HW219830   0.125   5.905   5.496
 6311SOL     OW19831   6.366   0.061   4.773
 6311SOL    HW119832   6.273   0.027   4.787
 6311SOL    HW219833   6.432   7.016   4.807
 6312SOL     OW19834   5.761   3.917   5.695
 6312SOL    HW119835   5.837   3.855   5.673
 6312SOL    HW219836   5.762   3.994   5.630
 6313SOL     OW19837   2.594   5.800   4.025
 6313SOL    HW119838   2.523   5.774   3.960
 6313SOL    HW219839   2.660   5.725   4.034
 6314SOL     OW19840   1.434   0.260   3.222
 6314SOL    HW119841   1.343   0.269   3.181
 6314SOL    HW219842   1.485   0.187   3.175
 6315SOL     OW19843   1.614   4.033   0.873
 6315SOL    HW119844   1.657   4.091   0.803
 6315SOL    HW219845   1.538   3.983   0.832
 6316SOL     OW19846   4.302   1.121   4.594
 6316SOL    HW119847   4.315   1.126   4.693
 6316SOL    HW219848   4.205   1.127   4.572
 6317SOL     OW19849   6.707   6.277   4.009
 6317SOL    HW119850   6.740   6.206   3.946
 6317SOL    HW219851   6.632   6.327   3.965
 6318SOL     OW19852   1.257   2.838   3.792
 6318SOL    HW119853   1.232   2.839   3.888
 6318SOL    HW219854   1.260   2.932   3.758
 6319SOL     OW19855   1.205   2.113   2.968
 6319SOL    HW119856   1.229   2.201   3.009
 6319SOL    HW219857   1.126   2.126   2.907
 6320SOL     OW19858   0.358   2.115   2.018
 6320SOL    HW119859   0.276   2.133   1.963
 6320SOL    HW219860   0.408   2.038   1.979
 6321SOL     OW19861   2.343   4.021   5.504
 6321SOL    HW119862   2.426   3.972   5.531
 6321SOL    HW219863   2.304   3.979   5.422
 6322SOL     OW19864   2.075   6.710   0.322
 6322SOL    HW119865   2.129   6.750   0.396
 6322SOL    HW219866   2.071   6.773   0.245
 6323SOL     OW19867   4.641   1.517   1.745
 6323SOL    HW119868   4.713   1.509   1.676
 6323SOL    HW219869   4.682   1.507   1.836
 6324SOL     OW19870   3.100   1.480   1.659
 6324SOL    HW119871   3.196   1.473   1.633
 6324SOL    HW219872   3.074   1.401   1.714
 6325SOL     OW19873   2.032   3.303   2.946
 6325SOL    HW119874   2.004   3.359   3.023
 6325SOL    HW219875   2.069   3.361   2.873
 6326SOL     OW19876   4.274   6.266   1.657
 6326SOL    HW119877   4.239   6.314   1.738
 6326SOL    HW219878   4.202   6.211   1.616
 6327SOL     OW19879   4.158   5.516   5.176
 6327SOL    HW119880   4.167   5.418   5.154
 6327SOL    HW219881   4.145   5.526   5.275
 6328SOL     OW19882   2.990   4.379   0.595
 6328SOL    HW119883   3.046   4.375   0.678
 6328SOL    HW219884   2.943   4.467   0.590
 6329SOL     OW19885   0.958   2.480   3.234
 6329SOL    HW119886   0.958   2.537   3.316
 6329SOL    HW219887   0.869   2.436   3.224
 6330SOL     OW19888   3.518   0.364   6.850
 6330SOL    HW119889   3.500   0.266   6.860
 6330SOL    HW219890   3.580   0.379   6.773
 6331SOL     OW19891   5.907   2.495   1.655
 6331SOL    HW119892   5.893   2.416   1.595
 6331SOL    HW219893   5.827   2.555   1.650
 6332SOL     OW19894   3.476   6.378   2.106
 6332SOL    HW119895   3.478   6.372   2.206
 6332SOL    HW219896   3.498   6.289   2.066
 6333SOL     OW19897   2.025   5.695   2.443
 6333SOL    HW119898   2.052   5.690   2.347
 6333SOL    HW219899   2.093   5.647   2.499
 6334SOL     OW19900   2.440   0.032   1.584
 6334SOL    HW119901   2.437   6.956   1.576
 6334SOL    HW219902   2.534   0.064   1.572
 6335SOL     OW19903   6.371   0.854   0.223
 6335SOL    HW119904   6.323   0.792   0.285
 6335SOL    HW219905   6.337   0.947   0.237
 6336SOL     OW19906   1.677   2.590   5.144
 6336SOL    HW119907   1.589   2.541   5.147
 6336SOL    HW219908   1.675   2.665   5.210
 6337SOL     OW19909   1.041   4.438   5.400
 6337SOL    HW119910   1.018   4.524   5.355
 6337SOL    HW219911   1.131   4.407   5.369
 6338SOL     OW19912   3.587   1.138   3.757
 6338SOL    HW119913   3.569   1.204   3.684
 6338SOL    HW219914   3.527   1.058   3.745
 6339SOL     OW19915   6.736   2.834   4.661
 6339SOL    HW119916   6.666   2.843   4.732
 6339SOL    HW219917   6.771   2.925   4.636
 6340SOL     OW19918   2.945   5.263   3.776
 6340SOL    HW119919   3.012   5.279   3.849
 6340SOL    HW219920   2.869   5.209   3.812
 6341SOL     OW19921   5.565   4.634   1.698
 6341SOL    HW119922   5.606   4.589   1.619
 6341SOL    HW219923   5.607   4.599   1.782
 6342SOL     OW19924   0.761   3.830   0.344
 6342SOL    HW119925   0.667   3.864   0.354
 6342SOL    HW219926   0.823   3.890   0.395
 6343SOL     OW19927   3.524   1.492   7.008
 6343SOL    HW119928   3.571   1.416   6.963
 6343SOL    HW219929   3.571   1.577   6.985
 6344SOL     OW19930   5.776   5.095   4.148
 6344SOL    HW119931   5.807   5.178   4.194
 6344SOL    HW219932   5.767   5.021   4.214
 6345SOL     OW19933   2.094   2.233   1.302
 6345SOL    HW119934   2.190   2.258   1.317
 6345SOL    HW219935   2.074   2.148   1.350
 6346SOL     OW19936   0.818   4.846   4.474
 6346SOL    HW119937   0.837   4.818   4.569
 6346SOL    HW219938   0.903   4.873   4.429
 6347SOL     OW19939   3.259   0.208   0.000
 6347SOL    HW119940   3.176   0.222   6.970
 6347SOL    HW219941   3.305   0.296   0.015
 6348SOL     OW19942   0.075   2.210   4.701
 6348SOL    HW119943   7.005   2.244   4.688
 6348SOL    HW219944   0.099   2.215   4.798
 6349SOL     OW19945   0.195   0.705   0.153
 6349SOL    HW119946   0.212   0.682   0.249
 6349SOL    HW219947   0.194   0.804   0.141
 6350SOL     OW19948   0.084   5.335   3.510
 6350SOL    HW119949   0.084   5.311   3.607
 6350SOL    HW219950   0.153   5.406   3.493
 6351SOL     OW19951   0.259   2.402   2.546
 6351SOL    HW119952   0.166   2.438   2.540
 6351SOL    HW219953   0.260   2.306   2.520
 6352SOL     OW19954   6.084   4.255   2.991
 6352SOL    HW119955   6.018   4.180   2.989
 6352SOL    HW219956   6.035   4.341   3.005
 6353SOL     OW19957   6.154   0.012   2.192
 6353SOL    HW119958   6.109   0.069   2.124
 6353SOL    HW219959   6.170   0.065   2.275
 6354SOL     OW19960   6.353   6.887   5.081
 6354SOL    HW119961   6.329   6.838   5.165
 6354SOL    HW219962   6.452   6.888   5.069
 6355SOL     OW19963   0.915   1.509   0.840
 6355SOL    HW119964   0.997   1.468   0.801
 6355SOL    HW219965   0.847   1.437   0.857
 6356SOL     OW19966   3.307   3.858   1.381
 6356SOL    HW119967   3.341   3.841   1.288
 6356SOL    HW219968   3.209   3.879   1.377
 6357SOL     OW19969   4.745   1.700   0.922
 6357SOL    HW119970   4.656   1.747   0.924
 6357SOL    HW219971   4.802   1.734   0.997
 6358SOL     OW19972   1.046   2.927   5.490
 6358SOL    HW119973   1.048   2.860   5.416
 6358SOL    HW219974   1.109   2.899   5.562
 6359SOL     OW19975   0.284   0.087   6.183
 6359SOL    HW119976   0.344   0.110   6.106
 6359SOL    HW219977   0.272   0.167   6.241
 6360SOL     OW19978   2.370   5.177   4.057
 6360SOL    HW119979   2.399   5.249   4.119
 6360SOL    HW219980   2.304   5.214   3.991
 6361SOL     OW19981   3.011   5.939   5.473
 6361SOL    HW119982   2.952   5.934   5.392
 6361SOL    HW219983   2.962   5.986   5.547
 6362SOL     OW19984   6.515   4.509   5.856
 6362SOL    HW119985   6.469   4.592   5.826
 6362SOL    HW219986   6.527   4.511   5.956
 6363SOL     OW19987   0.846   5.677   3.174
 6363SOL    HW119988   0.863   5.730   3.090
 6363SOL    HW219989   0.794   5.734   3.238
 6364SOL     OW19990   2.404   1.481   6.841
 6364SOL    HW119991   2.495   1.458   6.874
 6364SOL    HW219992   2.407   1.568   6.791
 6365SOL     OW19993   3.834   5.991   2.205
 6365SOL    HW119994   3.745   6.035   2.192
 6365SOL    HW219995   3.831   5.930   2.284
 6366SOL     OW19996   0.945   4.238   5.055
 6366SOL    HW119997   0.999   4.161   5.088
 6366SOL    HW219998   1.003   4.297   4.998
 6367SOL     OW19999   5.155   5.273   2.254
 6367SOL    HW120000   5.147   5.205   2.326
 6367SOL    HW220001   5.185   5.360   2.293
 6368SOL     OW20002   2.665   1.533   1.962
 6368SOL    HW120003   2.735   1.540   2.033
 6368SOL    HW220004   2.659   1.620   1.913
 6369SOL     OW20005   2.567   6.131   5.101
 6369SOL    HW120006   2.476   6.133   5.142
 6369SOL    HW220007   2.608   6.222   5.103
 6370SOL     OW20008   4.988   2.285   2.547
 6370SOL    HW120009   4.956   2.362   2.492
 6370SOL    HW220010   5.088   2.285   2.550
 6371SOL     OW20011   4.312   1.542   3.568
 6371SOL    HW120012   4.304   1.603   3.646
 6371SOL    HW220013   4.273   1.586   3.487
 6372SOL     OW20014   2.795   0.234   2.910
 6372SOL    HW120015   2.756   0.316   2.867
 6372SOL    HW220016   2.839   0.178   2.840
 6373SOL     OW20017   3.357   4.705   0.037
 6373SOL    HW120018   3.270   4.753   0.031
 6373SOL    HW220019   3.351   4.633   0.106
 6374SOL     OW20020   2.965   3.538   4.636
 6374SOL    HW120021   3.040   3.497   4.689
 6374SOL    HW220022   2.922   3.609   4.691
 6375SOL     OW20023   2.160   5.755   1.758
 6375SOL    HW120024   2.088   5.818   1.789
 6375SOL    HW220025   2.237   5.808   1.723
 6376SOL     OW20026   1.426   1.091   5.573
 6376SOL    HW120027   1.370   1.022   5.618
 6376SOL    HW220028   1.514   1.099   5.620
 6377SOL     OW20029   0.488   2.554   3.445
 6377SOL    HW120030   0.459   2.639   3.489
 6377SOL    HW220031   0.457   2.476   3.499
 6378SOL     OW20032   4.109   5.334   3.925
 6378SOL    HW120033   4.127   5.429   3.949
 6378SOL    HW220034   4.192   5.280   3.938
 6379SOL     OW20035   1.984   4.139   1.979
 6379SOL    HW120036   2.039   4.222   1.985
 6379SOL    HW220037   2.034   4.063   2.021
 6380SOL     OW20038   0.624   0.299   6.219
 6380SOL    HW120039   0.697   0.233   6.234
 6380SOL    HW220040   0.664   0.387   6.193
 6381SOL     OW20041   3.978   3.225   3.203
 6381SOL    HW120042   3.900   3.230   3.265
 6381SOL    HW220043   3.963   3.150   3.138
 6382SOL     OW20044   1.265   4.329   5.289
 6382SOL    HW120045   1.354   4.287   5.308
 6382SOL    HW220046   1.233   4.301   5.198
 6383SOL     OW20047   4.057   1.660   4.042
 6383SOL    HW120048   4.144   1.679   3.997
 6383SOL    HW220049   4.070   1.589   4.111
 6384SOL     OW20050   6.522   4.370   2.097
 6384SOL    HW120051   6.616   4.392   2.126
 6384SOL    HW220052   6.509   4.399   2.003
 6385SOL     OW20053   0.892   5.626   5.501
 6385SOL    HW120054   0.972   5.663   5.547
 6385SOL    HW220055   0.895   5.652   5.404
 6386SOL     OW20056   2.186   5.562   2.608
 6386SOL    HW120057   2.256   5.497   2.639
 6386SOL    HW220058   2.118   5.574   2.680
 6387SOL     OW20059   5.573   1.758   5.179
 6387SOL    HW120060   5.561   1.749   5.278
 6387SOL    HW220061   5.485   1.742   5.134
 6388SOL     OW20062   2.308   5.406   1.622
 6388SOL    HW120063   2.396   5.439   1.657
 6388SOL    HW220064   2.236   5.428   1.688
 6389SOL     OW20065   1.949   3.847   1.016
 6389SOL    HW120066   1.971   3.793   0.935
 6389SOL    HW220067   2.007   3.927   1.021
 6390SOL     OW20068   0.573   3.413   4.848
 6390SOL    HW120069   0.543   3.321   4.876
 6390SOL    HW220070   0.671   3.411   4.830
 6391SOL     OW20071   4.319   0.500   0.293
 6391SOL    HW120072   4.252   0.573   0.307
 6391SOL    HW220073   4.358   0.473   0.382
 6392SOL     OW20074   1.342   5.852   4.589
 6392SOL    HW120075   1.374   5.757   4.589
 6392SOL    HW220076   1.287   5.869   4.671
 6393SOL     OW20077   5.035   1.552   6.288
 6393SOL    HW120078   4.963   1.619   6.270
 6393SOL    HW220079   5.017   1.505   6.374
 6394SOL     OW20080   3.389   5.643   2.608
 6394SOL    HW120081   3.340   5.708   2.665
 6394SOL    HW220082   3.476   5.620   2.652
 6395SOL     OW20083   5.486   1.674   6.956
 6395SOL    HW120084   5.579   1.657   6.925
 6395SOL    HW220085   5.470   1.772   6.962
 6396SOL     OW20086   6.875   2.139   6.692
 6396SOL    HW120087   6.895   2.113   6.787
 6396SOL    HW220088   6.779   2.122   6.672
 6397SOL     OW20089   0.246   0.054   0.214
 6397SOL    HW120090   0.175   0.088   0.152
 6397SOL    HW220091   0.214   0.062   0.309
 6398SOL     OW20092   4.645   0.976   1.691
 6398SOL    HW120093   4.567   1.017   1.643
 6398SOL    HW220094   4.673   1.038   1.765
 6399SOL     OW20095   0.783   6.946   6.707
 6399SOL    HW120096   0.870   6.938   6.755
 6399SOL    HW220097   0.727   6.865   6.723
 6400SOL     OW20098   3.022   5.162   4.901
 6400SOL    HW120099   3.042   5.123   4.991
 6400SOL    HW220100   2.928   5.197   4.899
 6401SOL     OW20101   6.571   4.984   5.567
 6401SOL    HW120102   6.576   4.963   5.664
 6401SOL    HW220103   6.664   5.001   5.532
 6402SOL     OW20104   2.194   4.071   2.964
 6402SOL    HW120105   2.107   4.035   2.931
 6402SOL    HW220106   2.199   4.169   2.947
 6403SOL     OW20107   0.420   6.354   2.074
 6403SOL    HW120108   0.486   6.372   2.000
 6403SOL    HW220109   0.377   6.439   2.101
 6404SOL     OW20110   5.148   0.382   1.892
 6404SOL    HW120111   5.091   0.421   1.820
 6404SOL    HW220112   5.118   0.415   1.981
 6405SOL     OW20113   3.624   5.689   1.947
 6405SOL    HW120114   3.581   5.599   1.939
 6405SOL    HW220115   3.592   5.735   2.030
 6406SOL     OW20116   2.206   2.410   3.333
 6406SOL    HW120117   2.274   2.469   3.374
 6406SOL    HW220118   2.251   2.346   3.270
 6407SOL     OW20119   5.481   6.343   0.388
 6407SOL    HW120120   5.574   6.318   0.413
 6407SOL    HW220121   5.433   6.262   0.354
 6408SOL     OW20122   6.987   1.933   1.137
 6408SOL    HW120123   6.972   2.031   1.122
 6408SOL    HW220124   6.951   1.907   1.227
 6409SOL     OW20125   0.500   5.196   1.593
 6409SOL    HW120126   0.443   5.221   1.515
 6409SOL    HW220127   0.584   5.250   1.592
 6410SOL     OW20128   6.685   6.809   0.994
 6410SOL    HW120129   6.731   6.778   0.910
 6410SOL    HW220130   6.670   6.907   0.989
 6411SOL     OW20131   1.588   1.462   3.064
 6411SOL    HW120132   1.573   1.396   2.991
 6411SOL    HW220133   1.516   1.531   3.063
 6412SOL     OW20134   6.236   2.629   4.796
 6412SOL    HW120135   6.237   2.640   4.895
 6412SOL    HW220136   6.142   2.615   4.764
 6413SOL     OW20137   0.105   5.521   1.121
 6413SOL    HW120138   0.127   5.590   1.051
 6413SOL    HW220139   0.007   5.524   1.141
 6414SOL     OW20140   6.517   0.466   3.695
 6414SOL    HW120141   6.599   0.516   3.724
 6414SOL    HW220142   6.436   0.508   3.735
 6415SOL     OW20143   1.280   1.814   2.365
 6415SOL    HW120144   1.301   1.727   2.320
 6415SOL    HW220145   1.365   1.864   2.381
 6416SOL     OW20146   2.929   6.017   6.466
 6416SOL    HW120147   2.846   6.016   6.523
 6416SOL    HW220148   2.941   6.109   6.427
 6417SOL     OW20149   0.039   6.664   4.175
 6417SOL    HW120150   0.078   6.600   4.108
 6417SOL    HW220151   6.980   6.624   4.215
 6418SOL     OW20152   6.340   5.321   1.984
 6418SOL    HW120153   6.266   5.256   2.000
 6418SOL    HW220154   6.366   5.320   1.888
 6419SOL     OW20155   3.225   2.343   0.948
 6419SOL    HW120156   3.209   2.441   0.934
 6419SOL    HW220157   3.310   2.330   0.998
 6420SOL     OW20158   0.744   2.016   0.196
 6420SOL    HW120159   0.758   2.080   0.121
 6420SOL    HW220160   0.651   1.980   0.193
 6421SOL     OW20161   5.864   1.827   0.699
 6421SOL    HW120162   5.940   1.839   0.762
 6421SOL    HW220163   5.898   1.807   0.607
 6422SOL     OW20164   5.670   2.646   3.122
 6422SOL    HW120165   5.722   2.625   3.039
 6422SOL    HW220166   5.688   2.741   3.148
 6423SOL     OW20167   5.722   3.378   0.720
 6423SOL    HW120168   5.736   3.380   0.621
 6423SOL    HW220169   5.650   3.442   0.745
 6424SOL     OW20170   6.626   3.570   4.921
 6424SOL    HW120171   6.568   3.533   4.849
 6424SOL    HW220172   6.576   3.639   4.973
 6425SOL     OW20173   0.870   5.596   1.167
 6425SOL    HW120174   0.806   5.560   1.099
 6425SOL    HW220175   0.821   5.655   1.231
 6426SOL     OW20176   6.689   4.228   3.369
 6426SOL    HW120177   6.775   4.223   3.320
 6426SOL    HW220178   6.673   4.142   3.418
 6427SOL     OW20179   1.187   3.625   5.736
 6427SOL    HW120180   1.249   3.679   5.678
 6427SOL    HW220181   1.145   3.553   5.681
 6428SOL     OW20182   6.536   3.856   5.817
 6428SOL    HW120183   6.514   3.790   5.745
 6428SOL    HW220184   6.590   3.931   5.777
 6429SOL     OW20185   1.610   7.015   4.776
 6429SOL    HW120186   1.596   6.930   4.827
 6429SOL    HW220187   1.561   0.066   4.822
 6430SOL     OW20188   6.288   3.383   6.854
 6430SOL    HW120189   6.372   3.420   6.893
 6430SOL    HW220190   6.289   3.395   6.755
 6431SOL     OW20191   5.292   1.668   2.243
 6431SOL    HW120192   5.328   1.577   2.222
 6431SOL    HW220193   5.347   1.711   2.314
 6432SOL     OW20194   6.442   3.774   0.833
 6432SOL    HW120195   6.384   3.750   0.755
 6432SOL    HW220196   6.537   3.751   0.813
 6433SOL     OW20197   2.093   3.415   1.753
 6433SOL    HW120198   2.075   3.430   1.656
 6433SOL    HW220199   2.190   3.433   1.771
 6434SOL     OW20200   1.466   6.063   0.693
 6434SOL    HW120201   1.484   6.108   0.606
 6434SOL    HW220202   1.493   6.123   0.768
 6435SOL     OW20203   5.963   3.495   0.494
 6435SOL    HW120204   5.931   3.508   0.400
 6435SOL    HW220205   5.885   3.500   0.556
 6436SOL     OW20206   3.140   2.299   0.646
 6436SOL    HW120207   3.151   2.298   0.745
 6436SOL    HW220208   3.042   2.301   0.623
 6437SOL     OW20209   6.651   0.937   2.203
 6437SOL    HW120210   6.567   0.927   2.149
 6437SOL    HW220211   6.729   0.944   2.142
 6438SOL     OW20212   0.850   4.263   4.454
 6438SOL    HW120213   0.834   4.309   4.542
 6438SOL    HW220214   0.793   4.305   4.384
 6439SOL     OW20215   0.175   5.629   2.736
 6439SOL    HW120216   0.088   5.673   2.755
 6439SOL    HW220217   0.174   5.591   2.644
 6440SOL     OW20218   0.441   0.662   2.021
 6440SOL    HW120219   0.376   0.678   2.095
 6440SOL    HW220220   0.529   0.703   2.045
 6441SOL     OW20221   5.160   2.486   3.376
 6441SOL    HW120222   5.241   2.503   3.432
 6441SOL    HW220223   5.095   2.561   3.386
 6442SOL     OW20224   1.377   2.178   3.616
 6442SOL    HW120225   1.417   2.109   3.556
 6442SOL    HW220226   1.420   2.266   3.599
 6443SOL     OW20227   2.657   0.973   0.768
 6443SOL    HW120228   2.626   1.066   0.786
 6443SOL    HW220229   2.591   0.926   0.709
 6444SOL     OW20230   0.396   1.712   2.894
 6444SOL    HW120231   0.449   1.765   2.959
 6444SOL    HW220232   0.306   1.691   2.934
 6445SOL     OW20233   3.727   4.275   6.457
 6445SOL    HW120234   3.758   4.362   6.497
 6445SOL    HW220235   3.709   4.210   6.531
 6446SOL     OW20236   0.425   1.107   1.124
 6446SOL    HW120237   0.446   1.102   1.221
 6446SOL    HW220238   0.505   1.077   1.071
 6447SOL     OW20239   1.735   1.277   3.533
 6447SOL    HW120240   1.665   1.272   3.462
 6447SOL    HW220241   1.735   1.369   3.573
 6448SOL     OW20242   6.068   1.950   1.921
 6448SOL    HW120243   5.992   2.014   1.916
 6448SOL    HW220244   6.036   1.864   1.961
 6449SOL     OW20245   4.239   2.353   0.254
 6449SOL    HW120246   4.321   2.362   0.310
 6449SOL    HW220247   4.265   2.326   0.161
 6450SOL     OW20248   6.416   2.268   0.372
 6450SOL    HW120249   6.325   2.279   0.411
 6450SOL    HW220250   6.467   2.353   0.382
 6451SOL     OW20251   3.280   6.559   4.721
 6451SOL    HW120252   3.369   6.519   4.741
 6451SOL    HW220253   3.219   6.546   4.799
 6452SOL     OW20254   3.573   5.998   4.915
 6452SOL    HW120255   3.623   6.071   4.868
 6452SOL    HW220256   3.555   6.025   5.010
 6453SOL     OW20257   2.743   5.284   6.824
 6453SOL    HW120258   2.808   5.209   6.824
 6453SOL    HW220259   2.712   5.302   6.731
 6454SOL     OW20260   3.897   0.899   5.129
 6454SOL    HW120261   3.994   0.906   5.152
 6454SOL    HW220262   3.846   0.973   5.173
 6455SOL     OW20263   5.761   3.059   0.137
 6455SOL    HW120264   5.811   3.027   0.056
 6455SOL    HW220265   5.668   3.023   0.136
 6456SOL     OW20266   6.351   2.151   4.221
 6456SOL    HW120267   6.326   2.193   4.308
 6456SOL    HW220268   6.330   2.213   4.146
 6457SOL     OW20269   6.048   3.070   1.319
 6457SOL    HW120270   5.981   3.002   1.350
 6457SOL    HW220271   6.030   3.092   1.223
 6458SOL     OW20272   1.037   5.653   4.150
 6458SOL    HW120273   1.116   5.594   4.128
 6458SOL    HW220274   0.953   5.599   4.143
 6459SOL     OW20275   5.942   3.933   6.972
 6459SOL    HW120276   5.976   3.956   6.881
 6459SOL    HW220277   5.891   4.010   7.009
 6460SOL     OW20278   3.748   5.459   2.134
 6460SOL    HW120279   3.815   5.533   2.130
 6460SOL    HW220280   3.709   5.443   2.043
 6461SOL     OW20281   3.305   5.911   4.526
 6461SOL    HW120282   3.344   6.002   4.510
 6461SOL    HW220283   3.328   5.881   4.619
 6462SOL     OW20284   2.130   4.617   2.730
 6462SOL    HW120285   2.165   4.710   2.724
 6462SOL    HW220286   2.135   4.573   2.640
 6463SOL     OW20287   2.484   3.059   5.745
 6463SOL    HW120288   2.531   3.034   5.660
 6463SOL    HW220289   2.451   2.976   5.790
 6464SOL     OW20290   0.983   5.777   2.022
 6464SOL    HW120291   0.906   5.798   2.083
 6464SOL    HW220292   0.953   5.788   1.927
 6465SOL     OW20293   6.259   0.018   3.109
 6465SOL    HW120294   6.323   0.058   3.174
 6465SOL    HW220295   6.298   6.958   3.070
 6466SOL     OW20296   6.559   3.148   4.780
 6466SOL    HW120297   6.641   3.170   4.832
 6466SOL    HW220298   6.488   3.116   4.842
 6467SOL     OW20299   3.847   0.339   5.663
 6467SOL    HW120300   3.753   0.305   5.668
 6467SOL    HW220301   3.853   0.427   5.711
 6468SOL     OW20302   6.312   4.914   2.578
 6468SOL    HW120303   6.410   4.932   2.583
 6468SOL    HW220304   6.289   4.881   2.487
 6469SOL     OW20305   6.987   2.641   5.898
 6469SOL    HW120306   0.057   2.632   5.862
 6469SOL    HW220307   6.963   2.738   5.903
 6470SOL     OW20308   6.497   6.559   4.777
 6470SOL    HW120309   6.481   6.579   4.680
 6470SOL    HW220310   6.413   6.574   4.828
 6471SOL     OW20311   6.657   6.420   5.236
 6471SOL    HW120312   6.576   6.475   5.257
 6471SOL    HW220313   6.734   6.451   5.291
 6472SOL     OW20314   1.840   0.136   1.929
 6472SOL    HW120315   1.785   0.200   1.982
 6472SOL    HW220316   1.823   0.149   1.831
 6473SOL     OW20317   2.114   1.571   5.795
 6473SOL    HW120318   2.207   1.571   5.758
 6473SOL    HW220319   2.048   1.564   5.720
 6474SOL     OW20320   1.600   2.844   6.781
 6474SOL    HW120321   1.664   2.912   6.817
 6474SOL    HW220322   1.521   2.838   6.841
 6475SOL     OW20323   4.281   5.056   3.590
 6475SOL    HW120324   4.277   5.064   3.491
 6475SOL    HW220325   4.247   5.141   3.632
 6476SOL     OW20326   4.849   6.338   3.219
 6476SOL    HW120327   4.760   6.362   3.260
 6476SOL    HW220328   4.858   6.384   3.131
 6477SOL     OW20329   6.678   5.740   0.425
 6477SOL    HW120330   6.751   5.688   0.383
 6477SOL    HW220331   6.615   5.774   0.355
 6478SOL     OW20332   4.537   6.306   0.773
 6478SOL    HW120333   4.585   6.389   0.747
 6478SOL    HW220334   4.532   6.299   0.873
 6479SOL     OW20335   2.750   6.114   2.311
 6479SOL    HW120336   2.795   6.201   2.291
 6479SOL    HW220337   2.816   6.052   2.352
 6480SOL     OW20338   2.455   1.537   0.741
 6480SOL    HW120339   2.483   1.498   0.828
 6480SOL    HW220340   2.529   1.525   0.674
 6481SOL     OW20341   4.564   0.645   0.920
 6481SOL    HW120342   4.509   0.585   0.862
 6481SOL    HW220343   4.592   0.726   0.867
 6482SOL     OW20344   6.926   6.733   5.603
 6482SOL    HW120345   6.849   6.794   5.583
 6482SOL    HW220346   6.991   6.780   5.662
 6483SOL     OW20347   1.193   5.466   0.907
 6483SOL    HW120348   1.242   5.539   0.954
 6483SOL    HW220349   1.237   5.378   0.927
 6484SOL     OW20350   3.848   0.175   2.517
 6484SOL    HW120351   3.936   0.128   2.515
 6484SOL    HW220352   3.848   0.250   2.450
 6485SOL     OW20353   6.937   2.266   2.229
 6485SOL    HW120354   6.940   2.166   2.226
 6485SOL    HW220355   6.853   2.298   2.187
 6486SOL     OW20356   1.650   2.909   2.720
 6486SOL    HW120357   1.740   2.931   2.757
 6486SOL    HW220358   1.582   2.971   2.760
 6487SOL     OW20359   6.515   5.353   2.773
 6487SOL    HW120360   6.423   5.359   2.736
 6487SOL    HW220361   6.522   5.409   2.856
 6488SOL     OW20362   3.458   5.037   4.320
 6488SOL    HW120363   3.387   5.070   4.382
 6488SOL    HW220364   3.543   5.023   4.370
 6489SOL     OW20365   2.786   0.956   6.748
 6489SOL    HW120366   2.788   0.993   6.841
 6489SOL    HW220367   2.817   1.026   6.683
 6490SOL     OW20368   3.996   0.845   6.897
 6490SOL    HW120369   3.914   0.813   6.851
 6490SOL    HW220370   3.995   0.815   6.992
 6491SOL     OW20371   4.896   0.776   5.774
 6491SOL    HW120372   4.939   0.794   5.685
 6491SOL    HW220373   4.959   0.723   5.831
 6492SOL     OW20374   5.610   4.947   6.403
 6492SOL    HW120375   5.518   4.909   6.392
 6492SOL    HW220376   5.614   5.039   6.364
 6493SOL     OW20377   6.701   6.159   5.202
 6493SOL    HW120378   6.704   6.095   5.279
 6493SOL    HW220379   6.692   6.252   5.237
 6494SOL     OW20380   0.076   3.040   2.871
 6494SOL    HW120381   0.088   3.139   2.867
 6494SOL    HW220382   0.134   3.002   2.943
 6495SOL     OW20383   5.567   4.793   2.363
 6495SOL    HW120384   5.645   4.732   2.360
 6495SOL    HW220385   5.550   4.831   2.271
 6496SOL     OW20386   6.863   6.975   3.447
 6496SOL    HW120387   6.841   6.888   3.492
 6496SOL    HW220388   6.822   0.027   3.498
 6497SOL     OW20389   0.998   0.746   0.811
 6497SOL    HW120390   0.955   0.836   0.805
 6497SOL    HW220391   1.087   0.755   0.856
 6498SOL     OW20392   1.200   3.351   4.511
 6498SOL    HW120393   1.242   3.272   4.466
 6498SOL    HW220394   1.249   3.434   4.484
 6499SOL     OW20395   5.848   1.471   3.012
 6499SOL    HW120396   5.865   1.554   3.065
 6499SOL    HW220397   5.893   1.394   3.056
 6500SOL     OW20398   5.548   5.163   2.147
 6500SOL    HW120399   5.502   5.236   2.096
 6500SOL    HW220400   5.540   5.077   2.096
 6501SOL     OW20401   6.594   4.171   0.585
 6501SOL    HW120402   6.574   4.185   0.682
 6501SOL    HW220403   6.511   4.189   0.531
 6502SOL     OW20404   0.060   5.112   2.168
 6502SOL    HW120405   0.077   5.149   2.077
 6502SOL    HW220406   0.043   5.014   2.162
 6503SOL     OW20407   3.999   0.551   3.928
 6503SOL    HW120408   4.052   0.635   3.920
 6503SOL    HW220409   4.014   0.493   3.848
 6504SOL     OW20410   2.361   2.549   0.303
 6504SOL    HW120411   2.329   2.615   0.236
 6504SOL    HW220412   2.455   2.524   0.284
 6505SOL     OW20413   5.456   4.957   0.903
 6505SOL    HW120414   5.538   4.961   0.846
 6505SOL    HW220415   5.394   5.031   0.878
 6506SOL     OW20416   2.415   1.429   1.921
 6506SOL    HW120417   2.410   1.425   1.821
 6506SOL    HW220418   2.493   1.483   1.949
 6507SOL     OW20419   2.932   0.463   1.290
 6507SOL    HW120420   3.014   0.445   1.236
 6507SOL    HW220421   2.957   0.502   1.379
 6508SOL     OW20422   1.120   3.205   1.836
 6508SOL    HW120423   1.102   3.220   1.933
 6508SOL    HW220424   1.150   3.290   1.794
 6509SOL     OW20425   1.104   2.963   3.994
 6509SOL    HW120426   1.152   3.042   3.955
 6509SOL    HW220427   1.171   2.897   4.028
 6510SOL     OW20428   6.216   4.117   6.760
 6510SOL    HW120429   6.301   4.066   6.770
 6510SOL    HW220430   6.159   4.074   6.690
 6511SOL     OW20431   6.706   6.766   5.940
 6511SOL    HW120432   6.627   6.715   5.908
 6511SOL    HW220433   6.722   6.845   5.880
 6512SOL     OW20434   5.296   6.420   4.386
 6512SOL    HW120435   5.316   6.514   4.359
 6512SOL    HW220436   5.377   6.379   4.426
 6513SOL     OW20437   1.182   0.066   3.643
 6513SOL    HW120438   1.216   6.995   3.635
 6513SOL    HW220439   1.245   0.128   3.597
 6514SOL     OW20440   2.642   0.949   4.107
 6514SOL    HW120441   2.661   0.885   4.182
 6514SOL    HW220442   2.587   0.903   4.037
 6515SOL     OW20443   1.361   1.028   3.488
 6515SOL    HW120444   1.312   1.045   3.573
 6515SOL    HW220445   1.378   1.115   3.441
 6516SOL     OW20446   2.377   1.611   5.674
 6516SOL    HW120447   2.457   1.613   5.733
 6516SOL    HW220448   2.405   1.611   5.578
 6517SOL     OW20449   3.474   2.268   1.066
 6517SOL    HW120450   3.555   2.320   1.040
 6517SOL    HW220451   3.454   2.284   1.163
 6518SOL     OW20452   5.244   6.336   1.741
 6518SOL    HW120453   5.255   6.290   1.653
 6518SOL    HW220454   5.152   6.376   1.746
 6519SOL     OW20455   0.491   1.957   3.855
 6519SOL    HW120456   0.428   1.885   3.885
 6519SOL    HW220457   0.439   2.037   3.826
 6520SOL     OW20458   5.990   4.840   1.313
 6520SOL    HW120459   5.944   4.896   1.381
 6520SOL    HW220460   5.952   4.858   1.223
 6521SOL     OW20461   1.366   2.345   6.166
 6521SOL    HW120462   1.407   2.376   6.252
 6521SOL    HW220463   1.290   2.283   6.185
 6522SOL     OW20464   2.353   4.687   4.223
 6522SOL    HW120465   2.349   4.652   4.317
 6522SOL    HW220466   2.436   4.654   4.178
 6523SOL     OW20467   2.609   2.541   1.184
 6523SOL    HW120468   2.519   2.579   1.164
 6523SOL    HW220469   2.670   2.615   1.213
 6524SOL     OW20470   4.171   2.270   5.309
 6524SOL    HW120471   4.205   2.176   5.305
 6524SOL    HW220472   4.108   2.279   5.387
 6525SOL     OW20473   0.481   2.324   4.748
 6525SOL    HW120474   0.564   2.269   4.755
 6525SOL    HW220475   0.503   2.420   4.761
 6526SOL     OW20476   1.631   6.216   2.932
 6526SOL    HW120477   1.603   6.228   2.837
 6526SOL    HW220478   1.596   6.292   2.987
 6527SOL     OW20479   2.033   1.216   4.726
 6527SOL    HW120480   2.100   1.279   4.687
 6527SOL    HW220481   1.996   1.255   4.811
 6528SOL     OW20482   6.837   0.459   2.714
 6528SOL    HW120483   6.828   0.508   2.627
 6528SOL    HW220484   6.845   0.525   2.789
 6529SOL     OW20485   6.155   3.211   2.186
 6529SOL    HW120486   6.255   3.207   2.195
 6529SOL    HW220487   6.129   3.187   2.092
 6530SOL     OW20488   0.084   0.977   0.329
 6530SOL    HW120489   0.179   0.996   0.306
 6530SOL    HW220490   0.025   1.043   0.282
 6531SOL     OW20491   5.140   2.272   5.729
 6531SOL    HW120492   5.089   2.186   5.737
 6531SOL    HW220493   5.163   2.306   5.820
 6532SOL     OW20494   1.902   1.141   6.534
 6532SOL    HW120495   1.897   1.221   6.474
 6532SOL    HW220496   1.865   1.061   6.486
 6533SOL     OW20497   5.276   0.721   6.999
 6533SOL    HW120498   5.298   0.669   6.917
 6533SOL    HW220499   5.334   0.802   7.005
 6534SOL     OW20500   4.233   2.293   6.997
 6534SOL    HW120501   4.177   2.216   6.969
 6534SOL    HW220502   4.280   2.332   6.917
 6535SOL     OW20503   1.566   2.300   4.391
 6535SOL    HW120504   1.624   2.255   4.459
 6535SOL    HW220505   1.555   2.240   4.312
 6536SOL     OW20506   0.639   1.493   0.933
 6536SOL    HW120507   0.658   1.467   0.838
 6536SOL    HW220508   0.550   1.457   0.960
 6537SOL     OW20509   6.817   1.075   6.010
 6537SOL    HW120510   6.914   1.082   5.985
 6537SOL    HW220511   6.772   1.163   5.994
 6538SOL     OW20512   3.177   2.423   5.672
 6538SOL    HW120513   3.266   2.390   5.640
 6538SOL    HW220514   3.108   2.405   5.602
 6539SOL     OW20515   3.132   1.290   6.590
 6539SOL    HW120516   3.171   1.381   6.608
 6539SOL    HW220517   3.110   1.246   6.677
 6540SOL     OW20518   3.921   2.182   3.400
 6540SOL    HW120519   4.006   2.214   3.359
 6540SOL    HW220520   3.879   2.113   3.340
 6541SOL     OW20521   3.032   1.643   5.069
 6541SOL    HW120522   3.102   1.629   5.138
 6541SOL    HW220523   3.058   1.720   5.011
 6542SOL     OW20524   4.294   5.168   2.766
 6542SOL    HW120525   4.208   5.136   2.807
 6542SOL    HW220526   4.344   5.091   2.729
 6543SOL     OW20527   1.484   6.119   6.112
 6543SOL    HW120528   1.532   6.200   6.078
 6543SOL    HW220529   1.426   6.082   6.040
 6544SOL     OW20530   0.848   5.127   2.530
 6544SOL    HW120531   0.819   5.204   2.587
 6544SOL    HW220532   0.777   5.057   2.532
 6545SOL     OW20533   6.215   2.175   6.523
 6545SOL    HW120534   6.278   2.232   6.576
 6545SOL    HW220535   6.140   2.231   6.488
 6546SOL     OW20536   3.318   4.655   6.476
 6546SOL    HW120537   3.378   4.721   6.431
 6546SOL    HW220538   3.234   4.700   6.505
 6547SOL     OW20539   4.377   1.078   6.275
 6547SOL    HW120540   4.348   0.984   6.260
 6547SOL    HW220541   4.457   1.098   6.219
 6548SOL     OW20542   4.458   3.616   5.612
 6548SOL    HW120543   4.458   3.523   5.648
 6548SOL    HW220544   4.506   3.618   5.524
 6549SOL     OW20545   2.503   1.700   2.243
 6549SOL    HW120546   2.436   1.759   2.197
 6549SOL    HW220547   2.591   1.708   2.197
 6550SOL     OW20548   0.733   6.172   2.157
 6550SOL    HW120549   0.640   6.163   2.190
 6550SOL    HW220550   0.731   6.202   2.061
 6551SOL     OW20551   3.276   5.156   1.844
 6551SOL    HW120552   3.355   5.095   1.836
 6551SOL    HW220553   3.299   5.232   1.905
 6552SOL     OW20554   4.833   4.734   6.004
 6552SOL    HW120555   4.748   4.693   6.036
 6552SOL    HW220556   4.863   4.688   5.920
 6553SOL     OW20557   6.267   3.492   2.951
 6553SOL    HW120558   6.234   3.481   2.857
 6553SOL    HW220559   6.189   3.510   3.012
 6554SOL     OW20560   6.642   3.041   4.364
 6554SOL    HW120561   6.655   3.047   4.264
 6554SOL    HW220562   6.731   3.047   4.409
 6555SOL     OW20563   0.664   0.799   1.210
 6555SOL    HW120564   0.748   0.835   1.251
 6555SOL    HW220565   0.585   0.833   1.260
 6556SOL     OW20566   2.708   6.881   3.204
 6556SOL    HW120567   2.782   6.839   3.257
 6556SOL    HW220568   2.622   6.873   3.255
 6557SOL     OW20569   4.997   6.336   0.412
 6557SOL    HW120570   4.901   6.321   0.393
 6557SOL    HW220571   5.053   6.287   0.345
 6558SOL     OW20572   5.746   6.675   6.292
 6558SOL    HW120573   5.776   6.619   6.215
 6558SOL    HW220574   5.653   6.707   6.275
 6559SOL     OW20575   3.113   4.031   0.936
 6559SOL    HW120576   3.137   3.943   0.895
 6559SOL    HW220577   3.015   4.047   0.924
 6560SOL     OW20578   4.821   1.825   1.161
 6560SOL    HW120579   4.766   1.902   1.131
 6560SOL    HW220580   4.912   1.858   1.188
 6561SOL     OW20581   3.140   3.382   4.759
 6561SOL    HW120582   3.111   3.286   4.752
 6561SOL    HW220583   3.228   3.386   4.806
 6562SOL     OW20584   6.999   4.738   4.827
 6562SOL    HW120585   6.928   4.701   4.887
 6562SOL    HW220586   7.020   4.672   4.755
 6563SOL     OW20587   0.762   6.405   2.489
 6563SOL    HW120588   0.815   6.435   2.409
 6563SOL    HW220589   0.812   6.333   2.537
 6564SOL     OW20590   2.208   4.990   3.152
 6564SOL    HW120591   2.306   4.991   3.169
 6564SOL    HW220592   2.159   5.012   3.236
 6565SOL     OW20593   0.057   3.644   5.524
 6565SOL    HW120594   0.144   3.685   5.553
 6565SOL    HW220595   0.069   3.545   5.512
 6566SOL     OW20596   4.500   1.170   0.719
 6566SOL    HW120597   4.441   1.194   0.796
 6566SOL    HW220598   4.545   1.252   0.685
 6567SOL     OW20599   6.950   2.309   0.628
 6567SOL    HW120600   6.912   2.223   0.662
 6567SOL    HW220601   0.002   2.338   0.688
 6568SOL     OW20602   5.648   3.116   1.422
 6568SOL    HW120603   5.672   3.204   1.383
 6568SOL    HW220604   5.621   3.127   1.518
 6569SOL     OW20605   1.116   4.775   5.850
 6569SOL    HW120606   1.170   4.768   5.934
 6569SOL    HW220607   1.166   4.829   5.783
 6570SOL     OW20608   0.829   3.778   2.013
 6570SOL    HW120609   0.905   3.793   2.077
 6570SOL    HW220610   0.753   3.838   2.038
 6571SOL     OW20611   2.308   5.442   4.746
 6571SOL    HW120612   2.357   5.500   4.680
 6571SOL    HW220613   2.228   5.492   4.780
 6572SOL     OW20614   1.519   3.537   5.307
 6572SOL    HW120615   1.568   3.574   5.387
 6572SOL    HW220616   1.579   3.474   5.258
 6573SOL     OW20617   1.129   2.095   1.373
 6573SOL    HW120618   1.226   2.086   1.392
 6573SOL    HW220619   1.084   2.007   1.388
 6574SOL     OW20620   1.897   4.792   4.578
 6574SOL    HW120621   1.883   4.827   4.671
 6574SOL    HW220622   1.856   4.701   4.570
 6575SOL     OW20623   1.341   1.288   2.459
 6575SOL    HW120624   1.292   1.218   2.407
 6575SOL    HW220625   1.275   1.346   2.507
 6576SOL     OW20626   0.308   5.437   4.395
 6576SOL    HW120627   0.396   5.435   4.443
 6576SOL    HW220628   0.243   5.493   4.447
 6577SOL     OW20629   1.073   4.170   5.867
 6577SOL    HW120630   1.121   4.190   5.782
 6577SOL    HW220631   1.104   4.233   5.938
 6578SOL     OW20632   5.246   6.100   4.922
 6578SOL    HW120633   5.179   6.164   4.960
 6578SOL    HW220634   5.313   6.151   4.866
 6579SOL     OW20635   0.730   4.301   4.203
 6579SOL    HW120636   0.699   4.323   4.110
 6579SOL    HW220637   0.777   4.213   4.203
 6580SOL     OW20638   5.218   2.454   1.070
 6580SOL    HW120639   5.228   2.355   1.084
 6580SOL    HW220640   5.220   2.474   0.972
 6581SOL     OW20641   2.724   2.140   5.334
 6581SOL    HW120642   2.791   2.088   5.387
 6581SOL    HW220643   2.718   2.233   5.370
 6582SOL     OW20644   6.015   0.594   2.527
 6582SOL    HW120645   5.964   0.522   2.480
 6582SOL    HW220646   6.036   0.668   2.463
 6583SOL     OW20647   5.986   0.815   6.176
 6583SOL    HW120648   5.911   0.880   6.171
 6583SOL    HW220649   6.011   0.799   6.272
 6584SOL     OW20650   6.000   2.163   0.768
 6584SOL    HW120651   5.901   2.177   0.760
 6584SOL    HW220652   6.035   2.126   0.682
 6585SOL     OW20653   2.252   0.918   2.777
 6585SOL    HW120654   2.295   0.999   2.817
 6585SOL    HW220655   2.270   0.838   2.834
 6586SOL     OW20656   6.035   0.479   6.444
 6586SOL    HW120657   6.094   0.398   6.441
 6586SOL    HW220658   5.977   0.475   6.525
 6587SOL     OW20659   1.490   5.918   2.194
 6587SOL    HW120660   1.539   5.844   2.241
 6587SOL    HW220661   1.472   5.992   2.259
 6588SOL     OW20662   3.614   3.690   0.215
 6588SOL    HW120663   3.561   3.606   0.224
 6588SOL    HW220664   3.710   3.668   0.198
 6589SOL     OW20665   4.595   1.800   6.017
 6589SOL    HW120666   4.570   1.709   5.987
 6589SOL    HW220667   4.516   1.843   6.062
 6590SOL     OW20668   6.418   2.272   5.591
 6590SOL    HW120669   6.475   2.326   5.529
 6590SOL    HW220670   6.476   2.227   5.659
 6591SOL     OW20671   4.656   0.040   2.371
 6591SOL    HW120672   4.753   0.016   2.369
 6591SOL    HW220673   4.601   6.979   2.378
 6592SOL     OW20674   6.466   4.691   5.510
 6592SOL    HW120675   6.523   4.616   5.542
 6592SOL    HW220676   6.522   4.774   5.500
 6593SOL     OW20677   5.445   1.548   2.642
 6593SOL    HW120678   5.418   1.644   2.652
 6593SOL    HW220679   5.501   1.521   2.720
 6594SOL     OW20680   5.492   0.433   6.425
 6594SOL    HW120681   5.528   0.361   6.365
 6594SOL    HW220682   5.486   0.398   6.519
 6595SOL     OW20683   3.811   2.921   6.567
 6595SOL    HW120684   3.791   2.923   6.469
 6595SOL    HW220685   3.727   2.938   6.618
 6596SOL     OW20686   2.150   5.447   5.189
 6596SOL    HW120687   2.151   5.453   5.289
 6596SOL    HW220688   2.056   5.454   5.156
 6597SOL     OW20689   0.732   4.400   0.574
 6597SOL    HW120690   0.719   4.311   0.617
 6597SOL    HW220691   0.829   4.412   0.551
 6598SOL     OW20692   3.158   6.387   4.208
 6598SOL    HW120693   3.116   6.478   4.204
 6598SOL    HW220694   3.256   6.396   4.222
 6599SOL     OW20695   3.991   3.738   5.633
 6599SOL    HW120696   3.893   3.727   5.614
 6599SOL    HW220697   4.019   3.831   5.610
 6600SOL     OW20698   4.394   4.728   5.302
 6600SOL    HW120699   4.365   4.777   5.219
 6600SOL    HW220700   4.449   4.789   5.359
 6601SOL     OW20701   1.003   1.042   2.106
 6601SOL    HW120702   0.954   1.129   2.105
 6601SOL    HW220703   0.962   0.980   2.039
 6602SOL     OW20704   5.214   1.472   0.681
 6602SOL    HW120705   5.255   1.492   0.592
 6602SOL    HW220706   5.115   1.470   0.673
 6603SOL     OW20707   3.171   2.154   1.723
 6603SOL    HW120708   3.269   2.175   1.726
 6603SOL    HW220709   3.156   2.075   1.665
 6604SOL     OW20710   4.346   4.968   4.817
 6604SOL    HW120711   4.300   4.926   4.895
 6604SOL    HW220712   4.283   4.973   4.740
 6605SOL     OW20713   4.637   5.508   0.986
 6605SOL    HW120714   4.609   5.435   0.924
 6605SOL    HW220715   4.634   5.596   0.938
 6606SOL     OW20716   0.610   2.812   3.130
 6606SOL    HW120717   0.692   2.868   3.146
 6606SOL    HW220718   0.540   2.836   3.196
 6607SOL     OW20719   1.926   4.024   2.916
 6607SOL    HW120720   1.919   3.987   2.823
 6607SOL    HW220721   1.841   4.005   2.966
 6608SOL     OW20722   5.272   4.209   4.729
 6608SOL    HW120723   5.343   4.164   4.782
 6608SOL    HW220724   5.207   4.253   4.791
 6609SOL     OW20725   5.847   2.754   5.913
 6609SOL    HW120726   5.851   2.655   5.927
 6609SOL    HW220727   5.814   2.798   5.997
 6610SOL     OW20728   4.153   0.834   0.557
 6610SOL    HW120729   4.167   0.926   0.521
 6610SOL    HW220730   4.079   0.835   0.625
 6611SOL     OW20731   5.487   3.120   1.918
 6611SOL    HW120732   5.452   3.196   1.862
 6611SOL    HW220733   5.550   3.064   1.864
 6612SOL     OW20734   0.524   5.250   6.339
 6612SOL    HW120735   0.508   5.335   6.389
 6612SOL    HW220736   0.453   5.184   6.361
 6613SOL     OW20737   6.356   5.032   0.769
 6613SOL    HW120738   6.432   4.966   0.766
 6613SOL    HW220739   6.365   5.089   0.850
 6614SOL     OW20740   5.700   4.314   5.839
 6614SOL    HW120741   5.622   4.342   5.894
 6614SOL    HW220742   5.773   4.281   5.899
 6615SOL     OW20743   0.762   3.959   4.648
 6615SOL    HW120744   0.723   4.008   4.570
 6615SOL    HW220745   0.763   4.020   4.728
 6616SOL     OW20746   4.896   1.181   3.883
 6616SOL    HW120747   4.973   1.238   3.912
 6616SOL    HW220748   4.890   1.182   3.783
 6617SOL     OW20749   3.676   0.817   4.564
 6617SOL    HW120750   3.582   0.850   4.575
 6617SOL    HW220751   3.724   0.821   4.652
 6618SOL     OW20752   6.711   4.179   1.379
 6618SOL    HW120753   6.768   4.210   1.455
 6618SOL    HW220754   6.697   4.253   1.314
 6619SOL     OW20755   6.091   5.891   2.540
 6619SOL    HW120756   6.087   5.961   2.611
 6619SOL    HW220757   6.093   5.934   2.450
 6620SOL     OW20758   5.307   3.551   5.330
 6620SOL    HW120759   5.279   3.643   5.303
 6620SOL    HW220760   5.391   3.557   5.384
 6621SOL     OW20761   4.449   3.299   1.438
 6621SOL    HW120762   4.367   3.241   1.438
 6621SOL    HW220763   4.481   3.312   1.344
 6622SOL     OW20764   5.775   5.235   0.846
 6622SOL    HW120765   5.740   5.148   0.811
 6622SOL    HW220766   5.710   5.308   0.823
 6623SOL     OW20767   2.874   3.463   2.794
 6623SOL    HW120768   2.848   3.429   2.704
 6623SOL    HW220769   2.871   3.389   2.860
 6624SOL     OW20770   4.690   4.956   4.480
 6624SOL    HW120771   4.683   5.056   4.478
 6624SOL    HW220772   4.673   4.923   4.573
 6625SOL     OW20773   5.406   5.974   0.774
 6625SOL    HW120774   5.390   6.053   0.834
 6625SOL    HW220775   5.318   5.938   0.742
 6626SOL     OW20776   2.702   5.467   4.549
 6626SOL    HW120777   2.781   5.516   4.588
 6626SOL    HW220778   2.726   5.371   4.535
 6627SOL     OW20779   0.203   0.758   1.010
 6627SOL    HW120780   0.214   0.771   0.911
 6627SOL    HW220781   0.151   0.674   1.027
 6628SOL     OW20782   3.485   6.239   4.140
 6628SOL    HW120783   3.547   6.208   4.213
 6628SOL    HW220784   3.423   6.165   4.115
 6629SOL     OW20785   2.858   4.156   0.479
 6629SOL    HW120786   2.874   4.254   0.489
 6629SOL    HW220787   2.794   4.125   0.549
 6630SOL     OW20788   3.092   1.105   5.540
 6630SOL    HW120789   3.090   1.204   5.524
 6630SOL    HW220790   3.003   1.066   5.517
 6631SOL     OW20791   3.100   6.504   1.935
 6631SOL    HW120792   3.069   6.440   2.005
 6631SOL    HW220793   3.156   6.575   1.977
 6632SOL     OW20794   6.305   3.523   2.040
 6632SOL    HW120795   6.294   3.592   1.970
 6632SOL    HW220796   6.216   3.499   2.079
 6633SOL     OW20797   0.944   6.312   3.111
 6633SOL    HW120798   0.921   6.373   3.036
 6633SOL    HW220799   0.880   6.327   3.187
 6634SOL     OW20800   6.557   2.116   4.960
 6634SOL    HW120801   6.506   2.046   4.909
 6634SOL    HW220802   6.610   2.172   4.897
 6635SOL     OW20803   4.246   5.011   4.232
 6635SOL    HW120804   4.161   4.976   4.272
 6635SOL    HW220805   4.324   4.968   4.278
 6636SOL     OW20806   2.119   3.583   2.474
 6636SOL    HW120807   2.063   3.653   2.430
 6636SOL    HW220808   2.135   3.508   2.409
 6637SOL     OW20809   0.193   2.258   7.017
 6637SOL    HW120810   0.293   2.253   7.012
 6637SOL    HW220811   0.166   2.338   0.046
 6638SOL     OW20812   2.022   0.510   6.766
 6638SOL    HW120813   1.926   0.491   6.743
 6638SOL    HW220814   2.026   0.568   6.847
 6639SOL     OW20815   4.352   5.676   6.438
 6639SOL    HW120816   4.317   5.647   6.349
 6639SOL    HW220817   4.329   5.607   6.506
 6640SOL     OW20818   5.196   4.135   3.136
 6640SOL    HW120819   5.159   4.224   3.163
 6640SOL    HW220820   5.137   4.094   3.067
 6641SOL     OW20821   2.509   5.340   6.294
 6641SOL    HW120822   2.481   5.280   6.219
 6641SOL    HW220823   2.487   5.297   6.381
 6642SOL     OW20824   6.392   5.820   6.105
 6642SOL    HW120825   6.324   5.764   6.151
 6642SOL    HW220826   6.402   5.907   6.153
 6643SOL     OW20827   4.174   5.233   1.240
 6643SOL    HW120828   4.239   5.157   1.234
 6643SOL    HW220829   4.084   5.196   1.266
 6644SOL     OW20830   1.022   2.843   1.915
 6644SOL    HW120831   0.971   2.925   1.890
 6644SOL    HW220832   0.961   2.764   1.913
 6645SOL     OW20833   0.338   5.351   5.427
 6645SOL    HW120834   0.371   5.279   5.487
 6645SOL    HW220835   0.406   5.424   5.421
 6646SOL     OW20836   1.940   5.364   3.854
 6646SOL    HW120837   1.845   5.339   3.838
 6646SOL    HW220838   1.999   5.310   3.794
 6647SOL     OW20839   4.249   1.261   1.776
 6647SOL    HW120840   4.229   1.202   1.697
 6647SOL    HW220841   4.303   1.339   1.746
 6648SOL     OW20842   3.546   5.179   2.204
 6648SOL    HW120843   3.572   5.220   2.292
 6648SOL    HW220844   3.573   5.083   2.202
 6649SOL     OW20845   4.170   1.898   5.486
 6649SOL    HW120846   4.216   1.946   5.412
 6649SOL    HW220847   4.075   1.879   5.460
 6650SOL     OW20848   3.225   1.567   3.859
 6650SOL    HW120849   3.283   1.565   3.778
 6650SOL    HW220850   3.281   1.571   3.941
 6651SOL     OW20851   0.640   1.226   1.356
 6651SOL    HW120852   0.683   1.311   1.324
 6651SOL    HW220853   0.548   1.246   1.391
 6652SOL     OW20854   0.314   5.750   3.699
 6652SOL    HW120855   0.263   5.700   3.769
 6652SOL    HW220856   0.258   5.759   3.617
 6653SOL     OW20857   3.864   4.074   4.475
 6653SOL    HW120858   3.919   3.996   4.503
 6653SOL    HW220859   3.846   4.132   4.554
 6654SOL     OW20860   1.389   3.600   1.735
 6654SOL    HW120861   1.484   3.569   1.737
 6654SOL    HW220862   1.364   3.637   1.825
 6655SOL     OW20863   1.745   0.818   6.611
 6655SOL    HW120864   1.691   0.864   6.681
 6655SOL    HW220865   1.842   0.818   6.639
 6656SOL     OW20866   6.631   1.605   1.211
 6656SOL    HW120867   6.649   1.703   1.213
 6656SOL    HW220868   6.545   1.585   1.259
 6657SOL     OW20869   3.485   4.787   5.583
 6657SOL    HW120870   3.541   4.714   5.623
 6657SOL    HW220871   3.389   4.759   5.582
 6658SOL     OW20872   6.070   0.265   5.294
 6658SOL    HW120873   6.041   0.308   5.209
 6658SOL    HW220874   6.044   0.322   5.371
 6659SOL     OW20875   2.683   3.002   0.549
 6659SOL    HW120876   2.702   3.017   0.646
 6659SOL    HW220877   2.738   2.925   0.516
 6660SOL     OW20878   0.183   6.730   3.102
 6660SOL    HW120879   0.131   6.755   3.021
 6660SOL    HW220880   0.204   6.812   3.155
 6661SOL     OW20881   6.716   0.267   3.893
 6661SOL    HW120882   6.645   0.320   3.940
 6661SOL    HW220883   6.795   0.256   3.954
 6662SOL     OW20884   1.894   3.611   6.056
 6662SOL    HW120885   1.936   3.604   5.965
 6662SOL    HW220886   1.941   3.681   6.109
 6663SOL     OW20887   0.976   5.522   1.855
 6663SOL    HW120888   0.989   5.567   1.767
 6663SOL    HW220889   0.992   5.588   1.929
 6664SOL     OW20890   7.000   1.851   1.759
 6664SOL    HW120891   6.967   1.798   1.681
 6664SOL    HW220892   6.956   1.941   1.759
 6665SOL     OW20893   2.025   6.943   3.638
 6665SOL    HW120894   2.017   6.880   3.715
 6665SOL    HW220895   1.975   6.906   3.560
 6666SOL     OW20896   5.976   0.386   0.555
 6666SOL    HW120897   5.975   0.460   0.623
 6666SOL    HW220898   5.958   0.299   0.600
 6667SOL     OW20899   5.698   5.087   5.464
 6667SOL    HW120900   5.616   5.142   5.448
 6667SOL    HW220901   5.763   5.104   5.390
 6668SOL     OW20902   6.147   6.513   0.602
 6668SOL    HW120903   6.096   6.529   0.517
 6668SOL    HW220904   6.160   6.414   0.614
 6669SOL     OW20905   0.710   4.719   3.536
 6669SOL    HW120906   0.795   4.676   3.508
 6669SOL    HW220907   0.722   4.762   3.625
 6670SOL     OW20908   5.397   4.800   0.432
 6670SOL    HW120909   5.439   4.777   0.344
 6670SOL    HW220910   5.394   4.719   0.490
 6671SOL     OW20911   1.098   2.362   5.494
 6671SOL    HW120912   1.043   2.318   5.423
 6671SOL    HW220913   1.128   2.293   5.560
 6672SOL     OW20914   6.759   1.299   5.284
 6672SOL    HW120915   6.857   1.310   5.297
 6672SOL    HW220916   6.711   1.381   5.316
 6673SOL     OW20917   3.337   6.217   1.583
 6673SOL    HW120918   3.298   6.220   1.675
 6673SOL    HW220919   3.434   6.194   1.588
 6674SOL     OW20920   1.207   5.947   4.804
 6674SOL    HW120921   1.137   5.880   4.827
 6674SOL    HW220922   1.166   6.038   4.800
 6675SOL     OW20923   6.485   6.652   6.200
 6675SOL    HW120924   6.556   6.665   6.270
 6675SOL    HW220925   6.431   6.736   6.193
 6676SOL     OW20926   0.380   1.411   0.746
 6676SOL    HW120927   0.402   1.361   0.830
 6676SOL    HW220928   0.461   1.415   0.687
 6677SOL     OW20929   1.031   4.432   0.658
 6677SOL    HW120930   1.085   4.480   0.588
 6677SOL    HW220931   1.032   4.486   0.743
 6678SOL     OW20932   0.632   4.010   4.390
 6678SOL    HW120933   0.573   3.935   4.362
 6678SOL    HW220934   0.703   4.024   4.321
 6679SOL     OW20935   2.413   1.985   4.244
 6679SOL    HW120936   2.397   2.078   4.210
 6679SOL    HW220937   2.339   1.926   4.214
 6680SOL     OW20938   2.771   1.111   6.982
 6680SOL    HW120939   2.749   1.142   0.052
 6680SOL    HW220940   2.864   1.138   6.958
 6681SOL     OW20941   6.085   4.854   6.661
 6681SOL    HW120942   6.184   4.852   6.650
 6681SOL    HW220943   6.051   4.761   6.672
 6682SOL     OW20944   6.358   4.553   2.464
 6682SOL    HW120945   6.385   4.602   2.381
 6682SOL    HW220946   6.284   4.603   2.510
 6683SOL     OW20947   5.829   3.178   3.987
 6683SOL    HW120948   5.795   3.242   4.055
 6683SOL    HW220949   5.834   3.223   3.898
 6684SOL     OW20950   1.968   0.961   1.714
 6684SOL    HW120951   1.916   0.941   1.797
 6684SOL    HW220952   1.930   1.042   1.670
 6685SOL     OW20953   6.313   2.418   6.981
 6685SOL    HW120954   6.347   2.509   7.004
 6685SOL    HW220955   6.231   2.398   0.011
 6686SOL     OW20956   5.020   4.407   3.833
 6686SOL    HW120957   4.921   4.400   3.833
 6686SOL    HW220958   5.049   4.477   3.768
 6687SOL     OW20959   0.078   6.811   0.076
 6687SOL    HW120960   7.011   6.833   0.114
 6687SOL    HW220961   0.113   6.890   0.025
 6688SOL     OW20962   0.476   4.735   3.138
 6688SOL    HW120963   0.570   4.706   3.154
 6688SOL    HW220964   0.452   4.722   3.042
 6689SOL     OW20965   5.681   3.326   0.455
 6689SOL    HW120966   5.716   3.380   0.379
 6689SOL    HW220967   5.640   3.242   0.421
 6690SOL     OW20968   0.476   1.158   0.537
 6690SOL    HW120969   0.417   1.212   0.477
 6690SOL    HW220970   0.531   1.219   0.594
 6691SOL     OW20971   0.759   5.371   1.568
 6691SOL    HW120972   0.829   5.387   1.499
 6691SOL    HW220973   0.802   5.336   1.652
 6692SOL     OW20974   5.139   3.290   6.774
 6692SOL    HW120975   5.211   3.357   6.792
 6692SOL    HW220976   5.110   3.248   6.860
 6693SOL     OW20977   3.884   3.251   5.692
 6693SOL    HW120978   3.814   3.201   5.742
 6693SOL    HW220979   3.917   3.327   5.748
 6694SOL     OW20980   2.377   5.657   0.241
 6694SOL    HW120981   2.422   5.663   0.330
 6694SOL    HW220982   2.417   5.583   0.188
 6695SOL     OW20983   1.534   1.714   0.166
 6695SOL    HW120984   1.620   1.761   0.182
 6695SOL    HW220985   1.501   1.674   0.252
 6696SOL     OW20986   1.500   2.158   1.172
 6696SOL    HW120987   1.407   2.135   1.141
 6696SOL    HW220988   1.534   2.236   1.120
 6697SOL     OW20989   5.424   3.493   4.680
 6697SOL    HW120990   5.485   3.532   4.611
 6697SOL    HW220991   5.432   3.393   4.679
 6698SOL     OW20992   2.404   4.549   5.491
 6698SOL    HW120993   2.328   4.586   5.545
 6698SOL    HW220994   2.491   4.577   5.533
 6699SOL     OW20995   1.294   3.260   6.304
 6699SOL    HW120996   1.259   3.284   6.395
 6699SOL    HW220997   1.357   3.183   6.312
 6700SOL     OW20998   0.294   6.442   6.629
 6700SOL    HW120999   0.237   6.364   6.655
 6700SOL    HW221000   0.364   6.457   6.699
 6701SOL     OW21001   1.753   2.276   6.441
 6701SOL    HW121002   1.801   2.191   6.420
 6701SOL    HW221003   1.723   2.276   6.536
 6702SOL     OW21004   3.510   3.286   0.485
 6702SOL    HW121005   3.456   3.207   0.457
 6702SOL    HW221006   3.516   3.288   0.584
 6703SOL     OW21007   0.487   1.917   0.200
 6703SOL    HW121008   0.462   2.013   0.215
 6703SOL    HW221009   0.418   1.858   0.244
 6704SOL     OW21010   5.496   3.370   2.656
 6704SOL    HW121011   5.412   3.323   2.630
 6704SOL    HW221012   5.484   3.468   2.643
 6705SOL     OW21013   4.819   2.499   0.998
 6705SOL    HW121014   4.902   2.555   0.991
 6705SOL    HW221015   4.781   2.485   0.907
 6706SOL     OW21016   1.432   6.794   6.460
 6706SOL    HW121017   1.449   6.695   6.462
 6706SOL    HW221018   1.347   6.812   6.411
 6707SOL     OW21019   1.304   5.248   3.465
 6707SOL    HW121020   1.286   5.224   3.369
 6707SOL    HW221021   1.309   5.347   3.474
 6708SOL     OW21022   2.312   5.763   1.048
 6708SOL    HW121023   2.304   5.749   1.147
 6708SOL    HW221024   2.385   5.830   1.030
 6709SOL     OW21025   4.736   1.787   3.949
 6709SOL    HW121026   4.830   1.754   3.962
 6709SOL    HW221027   4.715   1.791   3.851
 6710SOL     OW21028   2.916   2.005   0.721
 6710SOL    HW121029   2.911   2.082   0.657
 6710SOL    HW221030   2.922   1.919   0.669
 6711SOL     OW21031   5.440   3.710   6.207
 6711SOL    HW121032   5.360   3.652   6.191
 6711SOL    HW221033   5.472   3.698   6.300
 6712SOL     OW21034   3.509   6.119   0.096
 6712SOL    HW121035   3.452   6.044   0.063
 6712SOL    HW221036   3.450   6.195   0.124
 6713SOL     OW21037   0.513   2.476   3.160
 6713SOL    HW121038   0.538   2.569   3.135
 6713SOL    HW221039   0.491   2.472   3.258
 6714SOL     OW21040   6.475   1.366   5.602
 6714SOL    HW121041   6.534   1.440   5.570
 6714SOL    HW221042   6.383   1.401   5.619
 6715SOL     OW21043   4.718   3.068   1.493
 6715SOL    HW121044   4.673   3.156   1.504
 6715SOL    HW221045   4.708   3.014   1.576
 6716SOL     OW21046   3.321   5.767   1.343
 6716SOL    HW121047   3.321   5.855   1.297
 6716SOL    HW221048   3.415   5.740   1.364
 6717SOL     OW21049   3.675   0.964   6.839
 6717SOL    HW121050   3.741   0.891   6.820
 6717SOL    HW221051   3.585   0.923   6.855
 6718SOL     OW21052   4.537   0.412   6.427
 6718SOL    HW121053   4.592   0.476   6.480
 6718SOL    HW221054   4.441   0.417   6.457
 6719SOL     OW21055   1.132   2.548   5.045
 6719SOL    HW121056   1.142   2.563   4.946
 6719SOL    HW221057   1.047   2.500   5.063
 6720SOL     OW21058   2.018   4.498   0.524
 6720SOL    HW121059   2.080   4.459   0.456
 6720SOL    HW221060   2.071   4.555   0.588
 6721SOL     OW21061   6.015   6.614   2.935
 6721SOL    HW121062   6.046   6.640   3.026
 6721SOL    HW221063   6.068   6.535   2.903
 6722SOL     OW21064   3.651   4.702   6.182
 6722SOL    HW121065   3.552   4.707   6.172
 6722SOL    HW221066   3.679   4.756   6.261
 6723SOL     OW21067   3.446   1.848   2.743
 6723SOL    HW121068   3.371   1.781   2.741
 6723SOL    HW221069   3.464   1.879   2.650
 6724SOL     OW21070   3.883   5.150   6.089
 6724SOL    HW121071   3.863   5.247   6.075
 6724SOL    HW221072   3.854   5.123   6.180
 6725SOL     OW21073   0.453   6.291   1.548
 6725SOL    HW121074   0.456   6.246   1.459
 6725SOL    HW221075   0.488   6.229   1.618
 6726SOL     OW21076   2.206   2.484   1.741
 6726SOL    HW121077   2.207   2.500   1.840
 6726SOL    HW221078   2.299   2.465   1.709
 6727SOL     OW21079   2.679   3.491   1.341
 6727SOL    HW121080   2.586   3.529   1.347
 6727SOL    HW221081   2.727   3.535   1.266
 6728SOL     OW21082   4.288   1.650   3.809
 6728SOL    HW121083   4.356   1.608   3.868
 6728SOL    HW221084   4.280   1.748   3.831
 6729SOL     OW21085   4.029   5.412   3.288
 6729SOL    HW121086   3.947   5.372   3.330
 6729SOL    HW221087   4.102   5.416   3.356
 6730SOL     OW21088   1.446   7.019   2.671
 6730SOL    HW121089   1.390   6.983   2.597
 6730SOL    HW221090   1.433   0.095   2.677
 6731SOL     OW21091   2.102   4.159   1.316
 6731SOL    HW121092   2.090   4.111   1.403
 6731SOL    HW221093   2.129   4.254   1.334
 6732SOL     OW21094   3.379   5.683   0.091
 6732SOL    HW121095   3.299   5.705   0.146
 6732SOL    HW221096   3.453   5.650   0.150
 6733SOL     OW21097   6.323   5.627   4.305
 6733SOL    HW121098   6.399   5.651   4.366
 6733SOL    HW221099   6.358   5.585   4.222
 6734SOL     OW21100   3.004   3.817   6.918
 6734SOL    HW121101   3.103   3.801   6.914
 6734SOL    HW221102   2.974   3.856   6.830
 6735SOL     OW21103   0.320   6.584   6.109
 6735SOL    HW121104   0.281   6.546   6.025
 6735SOL    HW221105   0.273   6.669   6.131
 6736SOL     OW21106   2.165   4.348   2.098
 6736SOL    HW121107   2.193   4.290   2.174
 6736SOL    HW221108   2.245   4.395   2.061
 6737SOL     OW21109   1.760   0.356   1.439
 6737SOL    HW121110   1.836   0.316   1.388
 6737SOL    HW221111   1.770   0.456   1.441
 6738SOL     OW21112   5.616   1.902   0.629
 6738SOL    HW121113   5.568   1.824   0.588
 6738SOL    HW221114   5.706   1.872   0.662
 6739SOL     OW21115   4.181   5.547   6.235
 6739SOL    HW121116   4.121   5.611   6.189
 6739SOL    HW221117   4.192   5.465   6.179
 6740SOL     OW21118   5.521   2.618   4.741
 6740SOL    HW121119   5.503   2.595   4.836
 6740SOL    HW221120   5.435   2.615   4.689
 6741SOL     OW21121   0.034   0.760   5.367
 6741SOL    HW121122   0.115   0.710   5.337
 6741SOL    HW221123   6.977   0.728   5.317
 6742SOL     OW21124   5.934   6.332   5.251
 6742SOL    HW121125   5.991   6.265   5.298
 6742SOL    HW221126   5.909   6.405   5.314
 6743SOL     OW21127   6.080   2.096   1.004
 6743SOL    HW121128   5.997   2.101   1.060
 6743SOL    HW221129   6.064   2.141   0.916
 6744SOL     OW21130   4.352   0.886   3.740
 6744SOL    HW121131   4.276   0.897   3.675
 6744SOL    HW221132   4.329   0.814   3.805
 6745SOL     OW21133   0.842   3.683   3.402
 6745SOL    HW121134   0.756   3.636   3.423
 6745SOL    HW221135   0.879   3.724   3.485
 6746SOL     OW21136   6.421   0.193   0.168
 6746SOL    HW121137   6.323   0.176   0.160
 6746SOL    HW221138   6.440   0.290   0.148
 6747SOL     OW21139   5.170   5.155   5.901
 6747SOL    HW121140   5.102   5.097   5.947
 6747SOL    HW221141   5.244   5.176   5.965
 6748SOL     OW21142   6.177   6.777   2.239
 6748SOL    HW121143   6.179   6.877   2.230
 6748SOL    HW221144   6.099   6.751   2.296
 6749SOL     OW21145   3.289   5.002   0.874
 6749SOL    HW121146   3.262   4.912   0.839
 6749SOL    HW221147   3.370   5.034   0.824
 6750SOL     OW21148   2.195   3.223   5.055
 6750SOL    HW121149   2.248   3.142   5.031
 6750SOL    HW221150   2.227   3.301   5.002
 6751SOL     OW21151   4.899   3.040   5.592
 6751SOL    HW121152   4.799   3.047   5.600
 6751SOL    HW221153   4.922   2.977   5.518
 6752SOL     OW21154   5.859   1.143   0.436
 6752SOL    HW121155   5.772   1.105   0.467
 6752SOL    HW221156   5.924   1.142   0.511
 6753SOL     OW21157   5.897   0.403   6.232
 6753SOL    HW121158   5.913   0.445   6.143
 6753SOL    HW221159   5.950   0.450   6.302
 6754SOL     OW21160   4.168   0.975   6.548
 6754SOL    HW121161   4.167   0.880   6.581
 6754SOL    HW221162   4.131   1.035   6.618
 6755SOL     OW21163   4.998   1.583   3.041
 6755SOL    HW121164   4.991   1.486   3.019
 6755SOL    HW221165   5.094   1.609   3.048
 6756SOL     OW21166   4.042   5.138   2.906
 6756SOL    HW121167   3.955   5.149   2.858
 6756SOL    HW221168   4.040   5.055   2.961
 6757SOL     OW21169   6.291   3.722   1.848
 6757SOL    HW121170   6.334   3.697   1.761
 6757SOL    HW221171   6.354   3.781   1.900
 6758SOL     OW21172   0.197   2.312   2.163
 6758SOL    HW121173   0.229   2.229   2.120
 6758SOL    HW221174   0.109   2.295   2.208
 6759SOL     OW21175   6.791   5.678   4.151
 6759SOL    HW121176   6.760   5.595   4.105
 6759SOL    HW221177   6.856   5.727   4.093
 6760SOL     OW21178   0.967   3.764   5.046
 6760SOL    HW121179   1.037   3.694   5.034
 6760SOL    HW221180   0.993   3.826   5.120
 6761SOL     OW21181   6.624   3.000   6.694
 6761SOL    HW121182   6.637   3.064   6.618
 6761SOL    HW221183   6.709   2.992   6.745
 6762SOL     OW21184   6.870   1.808   4.576
 6762SOL    HW121185   6.831   1.825   4.667
 6762SOL    HW221186   6.886   1.895   4.529
 6763SOL     OW21187   4.996   6.532   5.269
 6763SOL    HW121188   5.072   6.597   5.262
 6763SOL    HW221189   5.019   6.462   5.336
 6764SOL     OW21190   1.981   3.482   0.109
 6764SOL    HW121191   1.954   3.574   0.137
 6764SOL    HW221192   2.007   3.429   0.189
 6765SOL     OW21193   4.874   5.551   1.861
 6765SOL    HW121194   4.866   5.475   1.926
 6765SOL    HW221195   4.791   5.606   1.863
 6766SOL     OW21196   2.503   2.192   5.030
 6766SOL    HW121197   2.552   2.275   5.059
 6766SOL    HW221198   2.405   2.206   5.041
 6767SOL     OW21199   0.895   2.583   5.934
 6767SOL    HW121200   0.850   2.659   5.981
 6767SOL    HW221201   0.957   2.536   5.998
 6768SOL     OW21202   6.594   0.312   5.459
 6768SOL    HW121203   6.633   0.299   5.550
 6768SOL    HW221204   6.566   0.224   5.421
 6769SOL     OW21205   1.236   2.892   6.211
 6769SOL    HW121206   1.299   2.839   6.268
 6769SOL    HW221207   1.284   2.970   6.173
 6770SOL     OW21208   0.068   2.216   4.002
 6770SOL    HW121209   0.095   2.288   4.066
 6770SOL    HW221210   7.009   2.245   3.952
 6771SOL     OW21211   6.008   2.222   1.751
 6771SOL    HW121212   6.005   2.303   1.810
 6771SOL    HW221213   5.964   2.243   1.664
 6772SOL     OW21214   1.816   6.446   1.717
 6772SOL    HW121215   1.813   6.538   1.755
 6772SOL    HW221216   1.727   6.402   1.730
 6773SOL     OW21217   1.835   1.388   3.121
 6773SOL    HW121218   1.865   1.336   3.042
 6773SOL    HW221219   1.739   1.412   3.111
 6774SOL     OW21220   3.755   1.087   5.255
 6774SOL    HW121221   3.667   1.113   5.294
 6774SOL    HW221222   3.824   1.155   5.279
 6775SOL     OW21223   1.682   3.332   5.236
 6775SOL    HW121224   1.633   3.253   5.274
 6775SOL    HW221225   1.778   3.309   5.225
 6776SOL     OW21226   3.128   3.013   4.037
 6776SOL    HW121227   3.192   3.009   4.114
 6776SOL    HW221228   3.059   3.083   4.055
 6777SOL     OW21229   6.970   0.339   5.062
 6777SOL    HW121230   6.918   0.422   5.040
 6777SOL    HW221231   7.017   0.351   5.149
 6778SOL     OW21232   6.240   5.892   1.459
 6778SOL    HW121233   6.318   5.948   1.432
 6778SOL    HW221234   6.205   5.924   1.546
 6779SOL     OW21235   5.464   3.169   5.461
 6779SOL    HW121236   5.383   3.227   5.450
 6779SOL    HW221237   5.498   3.176   5.555
 6780SOL     OW21238   4.972   0.974   2.082
 6780SOL    HW121239   4.900   0.942   2.020
 6780SOL    HW221240   4.970   0.919   2.166
 6781SOL     OW21241   5.187   3.717   3.295
 6781SOL    HW121242   5.124   3.778   3.342
 6781SOL    HW221243   5.150   3.692   3.205
 6782SOL     OW21244   6.268   1.786   2.925
 6782SOL    HW121245   6.359   1.778   2.884
 6782SOL    HW221246   6.198   1.775   2.854
 6783SOL     OW21247   0.382   6.789   6.766
 6783SOL    HW121248   0.371   6.829   6.675
 6783SOL    HW221249   0.297   6.744   6.792
 6784SOL     OW21250   1.388   4.490   6.483
 6784SOL    HW121251   1.440   4.528   6.407
 6784SOL    HW221252   1.336   4.562   6.528
 6785SOL     OW21253   5.625   4.250   1.174
 6785SOL    HW121254   5.590   4.241   1.081
 6785SOL    HW221255   5.613   4.163   1.223
 6786SOL     OW21256   6.444   1.490   6.271
 6786SOL    HW121257   6.352   1.454   6.290
 6786SOL    HW221258   6.493   1.503   6.358
 6787SOL     OW21259   3.983   2.421   1.680
 6787SOL    HW121260   4.022   2.329   1.686
 6787SOL    HW221261   4.053   2.489   1.702
 6788SOL     OW21262   1.265   4.777   1.348
 6788SOL    HW121263   1.223   4.859   1.307
 6788SOL    HW221264   1.246   4.698   1.290
 6789SOL     OW21265   6.142   2.337   2.583
 6789SOL    HW121266   6.104   2.270   2.646
 6789SOL    HW221267   6.141   2.427   2.625
 6790SOL     OW21268   1.070   5.736   6.891
 6790SOL    HW121269   0.984   5.716   6.937
 6790SOL    HW221270   1.146   5.718   6.954
 6791SOL     OW21271   1.925   6.371   3.923
 6791SOL    HW121272   1.921   6.275   3.953
 6791SOL    HW221273   2.016   6.391   3.889
 6792SOL     OW21274   3.185   6.161   6.834
 6792SOL    HW121275   3.121   6.221   6.883
 6792SOL    HW221276   3.149   6.068   6.832
 6793SOL     OW21277   1.966   3.249   5.913
 6793SOL    HW121278   2.044   3.305   5.943
 6793SOL    HW221279   1.920   3.295   5.836
 6794SOL     OW21280   4.318   2.415   3.922
 6794SOL    HW121281   4.267   2.500   3.909
 6794SOL    HW221282   4.401   2.417   3.867
 6795SOL     OW21283   1.082   0.150   2.437
 6795SOL    HW121284   1.039   0.068   2.475
 6795SOL    HW221285   1.033   0.177   2.354
 6796SOL     OW21286   5.715   2.534   2.375
 6796SOL    HW121287   5.711   2.459   2.309
 6796SOL    HW221288   5.791   2.594   2.351
 6797SOL     OW21289   2.405   4.132   0.437
 6797SOL    HW121290   2.356   4.077   0.504
 6797SOL    HW221291   2.498   4.095   0.425
 6798SOL     OW21292   5.320   2.301   1.514
 6798SOL    HW121293   5.383   2.265   1.583
 6798SOL    HW221294   5.340   2.397   1.497
 6799SOL     OW21295   3.920   6.753   2.835
 6799SOL    HW121296   3.998   6.779   2.778
 6799SOL    HW221297   3.948   6.682   2.900
 6800SOL     OW21298   0.281   2.343   3.094
 6800SOL    HW121299   0.366   2.392   3.112
 6800SOL    HW221300   0.251   2.361   3.001
 6801SOL     OW21301   1.928   5.069   5.032
 6801SOL    HW121302   1.913   5.157   4.987
 6801SOL    HW221303   2.012   5.073   5.087
 6802SOL     OW21304   2.655   4.666   2.648
 6802SOL    HW121305   2.590   4.623   2.584
 6802SOL    HW221306   2.735   4.697   2.597
 6803SOL     OW21307   5.866   4.992   5.970
 6803SOL    HW121308   5.951   5.045   5.972
 6803SOL    HW221309   5.806   5.028   5.899
 6804SOL     OW21310   2.924   6.041   1.461
 6804SOL    HW121311   2.947   5.944   1.453
 6804SOL    HW221312   2.922   6.083   1.370
 6805SOL     OW21313   0.455   4.178   4.244
 6805SOL    HW121314   0.422   4.179   4.339
 6805SOL    HW221315   0.534   4.239   4.236
 6806SOL     OW21316   5.549   3.482   2.381
 6806SOL    HW121317   5.579   3.454   2.472
 6806SOL    HW221318   5.611   3.443   2.312
 6807SOL     OW21319   4.083   3.514   2.560
 6807SOL    HW121320   4.084   3.597   2.616
 6807SOL    HW221321   4.107   3.435   2.616
 6808SOL     OW21322   2.679   6.272   4.439
 6808SOL    HW121323   2.614   6.267   4.363
 6808SOL    HW221324   2.736   6.353   4.429
 6809SOL     OW21325   6.081   2.038   0.472
 6809SOL    HW121326   6.111   2.093   0.394
 6809SOL    HW221327   6.149   1.968   0.491
 6810SOL     OW21328   3.552   0.414   4.777
 6810SOL    HW121329   3.528   0.464   4.860
 6810SOL    HW221330   3.515   0.463   4.698
 6811SOL     OW21331   6.710   2.045   1.332
 6811SOL    HW121332   6.633   2.062   1.393
 6811SOL    HW221333   6.795   2.057   1.382
 6812SOL     OW21334   3.767   4.803   5.959
 6812SOL    HW121335   3.768   4.747   5.876
 6812SOL    HW221336   3.722   4.753   6.033
 6813SOL     OW21337   0.723   3.341   1.436
 6813SOL    HW121338   0.741   3.297   1.524
 6813SOL    HW221339   0.650   3.409   1.446
 6814SOL     OW21340   5.049   2.596   1.562
 6814SOL    HW121341   5.148   2.612   1.562
 6814SOL    HW221342   5.005   2.661   1.624
 6815SOL     OW21343   1.542   6.013   1.222
 6815SOL    HW121344   1.475   6.086   1.216
 6815SOL    HW221345   1.592   6.020   1.308
 6816SOL     OW21346   5.257   0.486   3.200
 6816SOL    HW121347   5.317   0.522   3.271
 6816SOL    HW221348   5.238   0.390   3.218
 6817SOL     OW21349   6.036   0.855   0.731
 6817SOL    HW121350   5.987   0.937   0.704
 6817SOL    HW221351   6.120   0.847   0.677
 6818SOL     OW21352   0.131   6.219   5.632
 6818SOL    HW121353   0.088   6.309   5.629
 6818SOL    HW221354   0.060   6.148   5.634
 6819SOL     OW21355   6.193   4.031   0.699
 6819SOL    HW121356   6.102   3.998   0.724
 6819SOL    HW221357   6.244   3.958   0.654
 6820SOL     OW21358   2.834   4.571   1.316
 6820SOL    HW121359   2.794   4.484   1.344
 6820SOL    HW221360   2.762   4.640   1.308
 6821SOL     OW21361   2.585   3.709   6.029
 6821SOL    HW121362   2.504   3.653   6.051
 6821SOL    HW221363   2.644   3.657   5.967
 6822SOL     OW21364   1.054   4.454   4.908
 6822SOL    HW121365   1.148   4.430   4.884
 6822SOL    HW221366   1.051   4.546   4.945
 6823SOL     OW21367   6.816   3.471   5.586
 6823SOL    HW121368   6.915   3.460   5.581
 6823SOL    HW221369   6.771   3.389   5.553
 6824SOL     OW21370   1.495   0.805   3.720
 6824SOL    HW121371   1.535   0.896   3.723
 6824SOL    HW221372   1.528   0.757   3.639
 6825SOL     OW21373   4.955   5.335   1.714
 6825SOL    HW121374   5.053   5.317   1.715
 6825SOL    HW221375   4.937   5.426   1.754
 6826SOL     OW21376   5.303   0.678   4.349
 6826SOL    HW121377   5.304   0.703   4.253
 6826SOL    HW221378   5.209   0.684   4.384
 6827SOL     OW21379   5.939   5.347   5.121
 6827SOL    HW121380   5.978   5.398   5.197
 6827SOL    HW221381   5.891   5.409   5.060
 6828SOL     OW21382   2.359   1.443   2.721
 6828SOL    HW121383   2.322   1.446   2.629
 6828SOL    HW221384   2.289   1.472   2.786
 6829SOL     OW21385   5.831   6.647   5.177
 6829SOL    HW121386   5.745   6.671   5.133
 6829SOL    HW221387   5.908   6.676   5.119
 6830SOL     OW21388   3.687   6.394   3.585
 6830SOL    HW121389   3.633   6.321   3.543
 6830SOL    HW221390   3.783   6.385   3.557
 6831SOL     OW21391   2.244   0.262   0.221
 6831SOL    HW121392   2.228   0.249   0.123
 6831SOL    HW221393   2.264   0.174   0.264
 6832SOL     OW21394   4.138   3.914   0.510
 6832SOL    HW121395   4.164   3.968   0.590
 6832SOL    HW221396   4.191   3.830   0.508
 6833SOL     OW21397   3.736   5.443   0.503
 6833SOL    HW121398   3.800   5.513   0.472
 6833SOL    HW221399   3.692   5.474   0.587
 6834SOL     OW21400   6.480   6.096   5.031
 6834SOL    HW121401   6.554   6.072   5.093
 6834SOL    HW221402   6.394   6.056   5.065
 6835SOL     OW21403   3.291   0.070   3.221
 6835SOL    HW121404   3.265   0.036   3.131
 6835SOL    HW221405   3.251   0.161   3.235
 6836SOL     OW21406   1.183   4.362   6.690
 6836SOL    HW121407   1.273   4.339   6.652
 6836SOL    HW221408   1.136   4.278   6.717
 6837SOL     OW21409   6.123   2.650   1.679
 6837SOL    HW121410   6.042   2.593   1.666
 6837SOL    HW221411   6.203   2.592   1.693
 6838SOL     OW21412   2.466   4.465   6.940
 6838SOL    HW121413   2.415   4.494   7.021
 6838SOL    HW221414   2.412   4.481   6.858
 6839SOL     OW21415   0.154   2.945   5.098
 6839SOL    HW121416   0.167   2.858   5.145
 6839SOL    HW221417   0.080   2.995   5.143
 6840SOL     OW21418   3.442   0.100   4.177
 6840SOL    HW121419   3.353   0.069   4.144
 6840SOL    HW221420   3.492   0.023   4.215
 6841SOL     OW21421   5.154   5.743   1.073
 6841SOL    HW121422   5.112   5.704   0.991
 6841SOL    HW221423   5.093   5.732   1.151
 6842SOL     OW21424   6.682   3.533   2.965
 6842SOL    HW121425   6.662   3.584   2.881
 6842SOL    HW221426   6.614   3.555   3.035
 6843SOL     OW21427   4.351   3.166   1.715
 6843SOL    HW121428   4.426   3.199   1.773
 6843SOL    HW221429   4.389   3.119   1.635
 6844SOL     OW21430   3.006   6.571   3.835
 6844SOL    HW121431   2.921   6.555   3.784
 6844SOL    HW221432   3.042   6.661   3.812
 6845SOL     OW21433   3.986   4.173   0.106
 6845SOL    HW121434   3.914   4.234   0.139
 6845SOL    HW221435   3.946   4.084   0.083
 6846SOL     OW21436   3.063   3.112   3.777
 6846SOL    HW121437   2.983   3.134   3.722
 6846SOL    HW221438   3.037   3.107   3.873
 6847SOL     OW21439   5.076   3.580   0.520
 6847SOL    HW121440   5.049   3.522   0.597
 6847SOL    HW221441   5.119   3.524   0.449
 6848SOL     OW21442   1.119   6.218   4.766
 6848SOL    HW121443   1.141   6.259   4.677
 6848SOL    HW221444   1.025   6.239   4.791
 6849SOL     OW21445   2.405   0.875   4.583
 6849SOL    HW121446   2.315   0.837   4.563
 6849SOL    HW221447   2.472   0.835   4.520
 6850SOL     OW21448   0.438   1.814   1.768
 6850SOL    HW121449   0.515   1.832   1.706
 6850SOL    HW221450   0.363   1.876   1.745
 6851SOL     OW21451   1.966   5.211   1.015
 6851SOL    HW121452   1.969   5.111   1.014
 6851SOL    HW221453   1.960   5.243   1.109
 6852SOL     OW21454   4.756   4.680   2.959
 6852SOL    HW121455   4.711   4.675   2.870
 6852SOL    HW221456   4.850   4.712   2.948
 6853SOL     OW21457   6.095   4.030   4.669
 6853SOL    HW121458   6.042   4.033   4.753
 6853SOL    HW221459   6.150   4.113   4.661
 6854SOL     OW21460   6.089   0.746   6.418
 6854SOL    HW121461   6.187   0.765   6.415
 6854SOL    HW221462   6.074   0.649   6.434
 6855SOL     OW21463   2.491   6.915   3.368
 6855SOL    HW121464   2.506   6.979   3.443
 6855SOL    HW221465   2.439   6.960   3.296
 6856SOL     OW21466   0.928   4.896   5.535
 6856SOL    HW121467   0.966   4.856   5.619
 6856SOL    HW221468   0.954   4.992   5.529
 6857SOL     OW21469   5.117   1.146   6.416
 6857SOL    HW121470   5.019   1.161   6.421
 6857SOL    HW221471   5.165   1.225   6.455
 6858SOL     OW21472   3.456   3.379   6.328
 6858SOL    HW121473   3.370   3.371   6.379
 6858SOL    HW221474   3.453   3.319   6.248
 6859SOL     OW21475   4.078   6.705   1.717
 6859SOL    HW121476   4.112   6.612   1.701
 6859SOL    HW221477   4.147   6.771   1.688
 6860SOL     OW21478   4.486   3.353   0.513
 6860SOL    HW121479   4.454   3.259   0.509
 6860SOL    HW221480   4.452   3.404   0.434
 6861SOL     OW21481   6.338   3.097   0.107
 6861SOL    HW121482   6.256   3.135   0.150
 6861SOL    HW221483   6.330   3.105   0.007
 6862SOL     OW21484   2.557   4.880   4.454
 6862SOL    HW121485   2.561   4.780   4.464
 6862SOL    HW221486   2.582   4.923   4.541
 6863SOL     OW21487   0.919   3.545   3.694
 6863SOL    HW121488   0.893   3.561   3.789
 6863SOL    HW221489   0.968   3.625   3.659
 6864SOL     OW21490   3.191   5.963   5.702
 6864SOL    HW121491   3.201   5.894   5.631
 6864SOL    HW221492   3.095   5.972   5.727
 6865SOL     OW21493   0.677   2.656   5.442
 6865SOL    HW121494   0.633   2.568   5.424
 6865SOL    HW221495   0.752   2.644   5.507
 6866SOL     OW21496   0.792   4.436   2.746
 6866SOL    HW121497   0.718   4.442   2.679
 6866SOL    HW221498   0.775   4.360   2.809
 6867SOL     OW21499   3.024   5.693   3.775
 6867SOL    HW121500   3.111   5.656   3.807
 6867SOL    HW221501   2.949   5.639   3.813
 6868SOL     OW21502   2.334   5.980   5.702
 6868SOL    HW121503   2.267   5.958   5.772
 6868SOL    HW221504   2.340   5.905   5.636
 6869SOL     OW21505   0.166   2.533   3.745
 6869SOL    HW121506   0.100   2.460   3.727
 6869SOL    HW221507   0.119   2.621   3.740
 6870SOL     OW21508   4.765   3.925   2.953
 6870SOL    HW121509   4.750   4.009   3.007
 6870SOL    HW221510   4.755   3.946   2.856
 6871SOL     OW21511   4.119   5.882   2.420
 6871SOL    HW121512   4.189   5.921   2.360
 6871SOL    HW221513   4.086   5.796   2.381
 6872SOL     OW21514   3.441   4.333   1.186
 6872SOL    HW121515   3.471   4.385   1.106
 6872SOL    HW221516   3.405   4.396   1.255
 6873SOL     OW21517   4.722   5.011   5.796
 6873SOL    HW121518   4.671   4.925   5.802
 6873SOL    HW221519   4.702   5.067   5.876
 6874SOL     OW21520   1.232   1.780   6.372
 6874SOL    HW121521   1.282   1.717   6.432
 6874SOL    HW221522   1.296   1.832   6.317
 6875SOL     OW21523   3.521   6.460   4.780
 6875SOL    HW121524   3.534   6.441   4.877
 6875SOL    HW221525   3.576   6.397   4.726
 6876SOL     OW21526   2.999   0.055   4.939
 6876SOL    HW121527   3.084   0.074   4.890
 6876SOL    HW221528   2.933   0.128   4.920
 6877SOL     OW21529   1.609   4.299   0.736
 6877SOL    HW121530   1.538   4.295   0.806
 6877SOL    HW221531   1.699   4.292   0.779
 6878SOL     OW21532   2.461   1.921   5.305
 6878SOL    HW121533   2.529   1.932   5.233
 6878SOL    HW221534   2.449   2.008   5.353
 6879SOL     OW21535   6.536   1.205   6.163
 6879SOL    HW121536   6.519   1.108   6.146
 6879SOL    HW221537   6.475   1.238   6.236
 6880SOL     OW21538   1.167   5.266   4.359
 6880SOL    HW121539   1.175   5.366   4.365
 6880SOL    HW221540   1.258   5.226   4.355
 6881SOL     OW21541   4.982   6.950   1.123
 6881SOL    HW121542   4.993   7.015   1.198
 6881SOL    HW221543   4.993   6.857   1.158
 6882SOL     OW21544   2.729   5.802   5.632
 6882SOL    HW121545   2.785   5.873   5.675
 6882SOL    HW221546   2.650   5.782   5.690
 6883SOL     OW21547   2.327   6.985   1.817
 6883SOL    HW121548   2.320   0.012   1.903
 6883SOL    HW221549   2.333   0.027   1.741
 6884SOL     OW21550   1.674   5.429   3.218
 6884SOL    HW121551   1.628   5.464   3.138
 6884SOL    HW221552   1.715   5.339   3.197
 6885SOL     OW21553   4.461   4.592   4.764
 6885SOL    HW121554   4.516   4.508   4.767
 6885SOL    HW221555   4.420   4.609   4.854
 6886SOL     OW21556   5.690   6.582   0.781
 6886SOL    HW121557   5.789   6.583   0.770
 6886SOL    HW221558   5.655   6.491   0.758
 6887SOL     OW21559   6.854   0.587   4.985
 6887SOL    HW121560   6.840   0.676   5.028
 6887SOL    HW221561   6.846   0.596   4.886
 6888SOL     OW21562   6.756   6.609   3.800
 6888SOL    HW121563   6.836   6.552   3.820
 6888SOL    HW221564   6.730   6.658   3.883
 6889SOL     OW21565   2.235   3.974   6.262
 6889SOL    HW121566   2.142   4.008   6.258
 6889SOL    HW221567   2.295   4.043   6.302
 6890SOL     OW21568   1.421   0.352   0.767
 6890SOL    HW121569   1.386   0.419   0.701
 6890SOL    HW221570   1.505   0.312   0.730
 6891SOL     OW21571   5.263   5.786   5.549
 6891SOL    HW121572   5.288   5.730   5.628
 6891SOL    HW221573   5.202   5.734   5.489
 6892SOL     OW21574   2.960   1.996   4.237
 6892SOL    HW121575   2.868   1.964   4.215
 6892SOL    HW221576   3.027   1.926   4.210
 6893SOL     OW21577   5.048   0.321   0.589
 6893SOL    HW121578   4.985   0.298   0.515
 6893SOL    HW221579   5.055   0.243   0.652
 6894SOL     OW21580   5.905   4.512   4.920
 6894SOL    HW121581   5.992   4.524   4.968
 6894SOL    HW221582   5.831   4.504   4.988
 6895SOL     OW21583   5.161   4.366   4.068
 6895SOL    HW121584   5.140   4.283   4.120
 6895SOL    HW221585   5.094   4.376   3.994
 6896SOL     OW21586   5.392   2.162   2.280
 6896SOL    HW121587   5.323   2.231   2.261
 6896SOL    HW221588   5.460   2.199   2.344
 6897SOL     OW21589   4.331   1.703   1.480
 6897SOL    HW121590   4.231   1.697   1.482
 6897SOL    HW221591   4.369   1.619   1.443
 6898SOL     OW21592   4.407   1.020   1.453
 6898SOL    HW121593   4.417   1.106   1.403
 6898SOL    HW221594   4.449   0.946   1.400
 6899SOL     OW21595   5.341   4.536   5.429
 6899SOL    HW121596   5.411   4.541   5.500
 6899SOL    HW221597   5.365   4.599   5.355
 6900SOL     OW21598   4.438   0.547   5.649
 6900SOL    HW121599   4.531   0.583   5.662
 6900SOL    HW221600   4.421   0.474   5.715
 6901SOL     OW21601   1.689   0.713   7.019
 6901SOL    HW121602   1.680   0.801   6.972
 6901SOL    HW221603   1.679   0.639   6.952
 6902SOL     OW21604   6.410   5.260   2.423
 6902SOL    HW121605   6.467   5.294   2.348
 6902SOL    HW221606   6.373   5.337   2.474
 6903SOL     OW21607   6.170   4.422   6.799
 6903SOL    HW121608   6.212   4.337   6.769
 6903SOL    HW221609   6.241   4.488   6.822
 6904SOL     OW21610   0.289   1.247   2.407
 6904SOL    HW121611   0.270   1.311   2.481
 6904SOL    HW221612   0.362   1.184   2.435
 6905SOL     OW21613   3.584   4.859   0.692
 6905SOL    HW121614   3.552   4.951   0.716
 6905SOL    HW221615   3.524   4.820   0.622
 6906SOL     OW21616   5.606   6.332   2.247
 6906SOL    HW121617   5.603   6.328   2.147
 6906SOL    HW221618   5.666   6.407   2.275
 6907SOL     OW21619   3.616   1.303   1.973
 6907SOL    HW121620   3.538   1.266   2.025
 6907SOL    HW221621   3.699   1.255   2.000
 6908SOL     OW21622   5.456   6.616   7.013
 6908SOL    HW121623   5.507   6.689   0.034
 6908SOL    HW221624   5.428   6.549   0.059
 6909SOL     OW21625   2.610   2.189   6.908
 6909SOL    HW121626   2.598   2.184   7.007
 6909SOL    HW221627   2.675   2.262   6.886
 6910SOL     OW21628   3.920   1.230   0.689
 6910SOL    HW121629   4.001   1.212   0.745
 6910SOL    HW221630   3.896   1.147   0.638
 6911SOL     OW21631   3.652   6.209   5.289
 6911SOL    HW121632   3.675   6.299   5.327
 6911SOL    HW221633   3.683   6.204   5.194
 6912SOL     OW21634   3.597   5.393   1.920
 6912SOL    HW121635   3.610   5.338   1.837
 6912SOL    HW221636   3.508   5.372   1.960
 6913SOL     OW21637   4.048   6.128   5.821
 6913SOL    HW121638   3.990   6.074   5.759
 6913SOL    HW221639   4.144   6.115   5.796
 6914SOL     OW21640   0.341   4.888   0.152
 6914SOL    HW121641   0.438   4.905   0.136
 6914SOL    HW221642   0.320   4.793   0.130
 6915SOL     OW21643   0.591   0.400   6.881
 6915SOL    HW121644   0.674   0.439   6.920
 6915SOL    HW221645   0.593   0.300   6.891
 6916SOL     OW21646   6.198   0.259   6.565
 6916SOL    HW121647   6.164   0.211   6.484
 6916SOL    HW221648   6.131   0.252   6.638
 6917SOL     OW21649   3.968   6.345   6.315
 6917SOL    HW121650   3.949   6.264   6.260
 6917SOL    HW221651   3.963   6.321   6.412
 6918SOL     OW21652   1.449   2.637   3.758
 6918SOL    HW121653   1.381   2.707   3.778
 6918SOL    HW221654   1.452   2.570   3.833
 6919SOL     OW21655   1.588   6.113   3.633
 6919SOL    HW121656   1.520   6.040   3.633
 6919SOL    HW221657   1.662   6.089   3.697
 6920SOL     OW21658   6.157   6.115   3.979
 6920SOL    HW121659   6.086   6.175   4.014
 6920SOL    HW221660   6.170   6.038   4.043
 6921SOL     OW21661   1.715   4.870   2.231
 6921SOL    HW121662   1.770   4.944   2.269
 6921SOL    HW221663   1.668   4.903   2.149
 6922SOL     OW21664   1.565   6.313   1.760
 6922SOL    HW121665   1.554   6.264   1.846
 6922SOL    HW221666   1.479   6.357   1.735
 6923SOL     OW21667   5.167   5.815   4.953
 6923SOL    HW121668   5.218   5.891   4.912
 6923SOL    HW221669   5.105   5.850   5.023
 6924SOL     OW21670   5.288   5.839   2.506
 6924SOL    HW121671   5.309   5.911   2.440
 6924SOL    HW221672   5.198   5.800   2.485
 6925SOL     OW21673   4.151   5.847   1.685
 6925SOL    HW121674   4.068   5.833   1.740
 6925SOL    HW221675   4.231   5.846   1.745
 6926SOL     OW21676   2.839   4.277   5.300
 6926SOL    HW121677   2.859   4.362   5.251
 6926SOL    HW221678   2.759   4.233   5.259
 6927SOL     OW21679   4.403   3.755   0.747
 6927SOL    HW121680   4.485   3.769   0.693
 6927SOL    HW221681   4.427   3.711   0.834
 6928SOL     OW21682   6.596   0.024   6.682
 6928SOL    HW121683   6.526   0.075   6.633
 6928SOL    HW221684   6.581   6.949   6.670
 6929SOL     OW21685   4.235   6.070   1.266
 6929SOL    HW121686   4.229   6.160   1.222
 6929SOL    HW221687   4.195   6.076   1.357
 6930SOL     OW21688   0.303   1.147   3.477
 6930SOL    HW121689   0.212   1.109   3.492
 6930SOL    HW221690   0.332   1.128   3.383
 6931SOL     OW21691   2.388   6.988   0.906
 6931SOL    HW121692   2.480   6.948   0.907
 6931SOL    HW221693   2.320   6.917   0.924
 6932SOL     OW21694   3.196   2.670   0.654
 6932SOL    HW121695   3.124   2.611   0.618
 6932SOL    HW221696   3.243   2.716   0.578
 6933SOL     OW21697   2.973   6.195   5.231
 6933SOL    HW121698   2.918   6.113   5.242
 6933SOL    HW221699   3.013   6.220   5.319
 6934SOL     OW21700   5.437   4.911   0.043
 6934SOL    HW121701   5.457   4.951   6.976
 6934SOL    HW221702   5.382   4.829   0.031
 6935SOL     OW21703   4.390   5.515   3.584
 6935SOL    HW121704   4.468   5.579   3.579
 6935SOL    HW221705   4.317   5.547   3.524
 6936SOL     OW21706   1.241   4.575   0.090
 6936SOL    HW121707   1.234   4.477   0.113
 6936SOL    HW221708   1.322   4.590   0.033
 6937SOL     OW21709   4.659   6.161   6.662
 6937SOL    HW121710   4.568   6.188   6.631
 6937SOL    HW221711   4.650   6.091   6.732
 6938SOL     OW21712   6.655   2.369   5.436
 6938SOL    HW121713   6.702   2.325   5.512
 6938SOL    HW221714   6.647   2.467   5.453
 6939SOL     OW21715   6.304   4.311   2.244
 6939SOL    HW121716   6.365   4.336   2.169
 6939SOL    HW221717   6.296   4.387   2.308
 6940SOL     OW21718   4.177   0.771   3.899
 6940SOL    HW121719   4.121   0.828   3.959
 6940SOL    HW221720   4.249   0.727   3.954
 6941SOL     OW21721   3.699   2.943   5.278
 6941SOL    HW121722   3.656   2.978   5.195
 6941SOL    HW221723   3.789   2.904   5.255
 6942SOL     OW21724   6.425   1.250   6.692
 6942SOL    HW121725   6.379   1.186   6.754
 6942SOL    HW221726   6.474   1.319   6.745
 6943SOL     OW21727   5.901   4.212   0.369
 6943SOL    HW121728   5.861   4.190   0.458
 6943SOL    HW221729   5.940   4.304   0.372
 6944SOL     OW21730   2.522   0.302   0.137
 6944SOL    HW121731   2.568   0.389   0.158
 6944SOL    HW221732   2.429   0.320   0.105
 6945SOL     OW21733   2.979   1.274   6.378
 6945SOL    HW121734   2.986   1.181   6.342
 6945SOL    HW221735   3.048   1.289   6.448
 6946SOL     OW21736   5.797   4.178   2.894
 6946SOL    HW121737   5.742   4.255   2.926
 6946SOL    HW221738   5.845   4.137   2.971
 6947SOL     OW21739   3.995   6.850   0.708
 6947SOL    HW121740   3.914   6.875   0.761
 6947SOL    HW221741   3.969   6.839   0.612
 6948SOL     OW21742   3.238   1.327   6.203
 6948SOL    HW121743   3.185   1.412   6.203
 6948SOL    HW221744   3.327   1.343   6.246
 6949SOL     OW21745   5.194   6.952   2.695
 6949SOL    HW121746   5.114   6.986   2.644
 6949SOL    HW221747   5.174   6.861   2.730
 6950SOL     OW21748   3.128   2.153   3.651
 6950SOL    HW121749   3.228   2.154   3.658
 6950SOL    HW221750   3.095   2.059   3.658
 6951SOL     OW21751   3.977   4.054   5.560
 6951SOL    HW121752   3.990   4.062   5.461
 6951SOL    HW221753   3.914   4.125   5.591
 6952SOL     OW21754   0.823   3.718   6.681
 6952SOL    HW121755   0.763   3.657   6.630
 6952SOL    HW221756   0.791   3.813   6.671
 6953SOL     OW21757   5.746   2.507   4.560
 6953SOL    HW121758   5.663   2.518   4.615
 6953SOL    HW221759   5.758   2.411   4.536
 6954SOL     OW21760   0.189   4.674   1.979
 6954SOL    HW121761   0.212   4.578   1.963
 6954SOL    HW221762   0.242   4.732   1.916
 6955SOL     OW21763   6.742   1.371   3.714
 6955SOL    HW121764   6.693   1.445   3.667
 6955SOL    HW221765   6.694   1.348   3.798
 6956SOL     OW21766   3.563   4.061   1.435
 6956SOL    HW121767   3.476   4.031   1.396
 6956SOL    HW221768   3.638   4.027   1.378
 6957SOL     OW21769   1.536   4.378   0.316
 6957SOL    HW121770   1.609   4.397   0.383
 6957SOL    HW221771   1.574   4.326   0.240
 6958SOL     OW21772   2.249   3.385   5.891
 6958SOL    HW121773   2.290   3.371   5.801
 6958SOL    HW221774   2.319   3.418   5.955
 6959SOL     OW21775   4.164   1.328   5.532
 6959SOL    HW121776   4.164   1.277   5.446
 6959SOL    HW221777   4.168   1.426   5.512
 6960SOL     OW21778   1.056   6.073   6.919
 6960SOL    HW121779   1.013   6.015   6.850
 6960SOL    HW221780   1.155   6.055   6.920
 6961SOL     OW21781   5.791   0.832   3.747
 6961SOL    HW121782   5.796   0.732   3.751
 6961SOL    HW221783   5.710   0.858   3.694
 6962SOL     OW21784   3.210   2.952   0.711
 6962SOL    HW121785   3.143   3.002   0.656
 6962SOL    HW221786   3.178   2.859   0.725
 6963SOL     OW21787   6.842   5.792   1.670
 6963SOL    HW121788   6.775   5.866   1.672
 6963SOL    HW221789   6.933   5.829   1.653
 6964SOL     OW21790   4.228   5.250   5.503
 6964SOL    HW121791   4.142   5.217   5.464
 6964SOL    HW221792   4.243   5.345   5.475
 6965SOL     OW21793   5.679   0.610   5.916
 6965SOL    HW121794   5.588   0.575   5.890
 6965SOL    HW221795   5.679   0.630   6.014
 6966SOL     OW21796   4.115   2.172   3.830
 6966SOL    HW121797   4.163   2.260   3.842
 6966SOL    HW221798   4.018   2.185   3.847
 6967SOL     OW21799   2.635   2.879   6.904
 6967SOL    HW121800   2.568   2.952   6.919
 6967SOL    HW221801   2.709   2.889   6.971
 6968SOL     OW21802   3.189   0.694   3.483
 6968SOL    HW121803   3.186   0.632   3.562
 6968SOL    HW221804   3.118   0.668   3.418
 6969SOL     OW21805   3.907   3.172   1.799
 6969SOL    HW121806   3.847   3.097   1.828
 6969SOL    HW221807   3.903   3.182   1.699
 6970SOL     OW21808   5.005   3.729   0.110
 6970SOL    HW121809   4.932   3.786   0.147
 6970SOL    HW221810   5.010   3.742   0.011
 6971SOL     OW21811   5.998   1.953   2.306
 6971SOL    HW121812   6.098   1.948   2.307
 6971SOL    HW221813   5.969   2.043   2.338
 6972SOL     OW21814   4.958   6.037   4.178
 6972SOL    HW121815   5.007   6.122   4.198
 6972SOL    HW221816   4.859   6.054   4.182
 6973SOL     OW21817   1.895   4.529   2.635
 6973SOL    HW121818   1.907   4.452   2.573
 6973SOL    HW221819   1.954   4.516   2.715
 6974SOL     OW21820   2.774   3.414   5.259
 6974SOL    HW121821   2.715   3.394   5.337
 6974SOL    HW221822   2.792   3.513   5.256
 6975SOL     OW21823   1.719   6.809   6.015
 6975SOL    HW121824   1.736   6.734   6.079
 6975SOL    HW221825   1.639   6.788   5.959
 6976SOL     OW21826   1.100   6.010   1.583
 6976SOL    HW121827   1.055   5.945   1.521
 6976SOL    HW221828   1.191   5.976   1.606
 6977SOL     OW21829   5.825   2.167   1.128
 6977SOL    HW121830   5.832   2.266   1.127
 6977SOL    HW221831   5.746   2.138   1.074
 6978SOL     OW21832   5.462   3.027   4.136
 6978SOL    HW121833   5.531   3.009   4.066
 6978SOL    HW221834   5.380   3.065   4.093
 6979SOL     OW21835   0.229   3.656   4.192
 6979SOL    HW121836   0.177   3.601   4.258
 6979SOL    HW221837   0.285   3.595   4.135
 6980SOL     OW21838   5.050   2.209   5.230
 6980SOL    HW121839   5.138   2.238   5.269
 6980SOL    HW221840   4.978   2.220   5.298
 6981SOL     OW21841   3.157   3.364   6.408
 6981SOL    HW121842   3.163   3.455   6.449
 6981SOL    HW221843   3.135   3.372   6.311
 6982SOL     OW21844   1.366   7.008   4.418
 6982SOL    HW121845   1.457   6.969   4.435
 6982SOL    HW221846   1.359   0.074   4.464
 6983SOL     OW21847   5.928   0.810   3.027
 6983SOL    HW121848   5.859   0.770   3.088
 6983SOL    HW221849   5.911   0.780   2.933
 6984SOL     OW21850   2.163   1.274   6.519
 6984SOL    HW121851   2.070   1.261   6.553
 6984SOL    HW221852   2.217   1.191   6.535
 6985SOL     OW21853   4.327   6.810   4.132
 6985SOL    HW121854   4.246   6.848   4.176
 6985SOL    HW221855   4.363   6.735   4.189
 6986SOL     OW21856   2.739   6.303   5.709
 6986SOL    HW121857   2.717   6.383   5.766
 6986SOL    HW221858   2.674   6.230   5.727
 6987SOL     OW21859   6.579   3.715   6.337
 6987SOL    HW121860   6.582   3.795   6.277
 6987SOL    HW221861   6.648   3.649   6.308
 6988SOL     OW21862   5.297   2.211   6.577
 6988SOL    HW121863   5.353   2.169   6.506
 6988SOL    HW221864   5.355   2.241   6.653
 6989SOL     OW21865   2.201   3.884   4.279
 6989SOL    HW121866   2.252   3.918   4.358
 6989SOL    HW221867   2.194   3.957   4.210
 6990SOL     OW21868   4.228   3.732   1.813
 6990SOL    HW121869   4.198   3.643   1.847
 6990SOL    HW221870   4.265   3.722   1.721
 6991SOL     OW21871   4.599   4.762   5.729
 6991SOL    HW121872   4.540   4.681   5.726
 6991SOL    HW221873   4.695   4.734   5.727
 6992SOL     OW21874   6.595   6.340   4.961
 6992SOL    HW121875   6.602   6.393   5.046
 6992SOL    HW221876   6.565   6.247   4.981
 6993SOL     OW21877   0.384   0.941   2.715
 6993SOL    HW121878   0.355   1.004   2.787
 6993SOL    HW221879   0.391   0.849   2.753
 6994SOL     OW21880   1.985   2.711   0.334
 6994SOL    HW121881   2.021   2.667   0.416
 6994SOL    HW221882   2.049   2.783   0.305
 6995SOL     OW21883   0.862   5.499   3.659
 6995SOL    HW121884   0.794   5.431   3.631
 6995SOL    HW221885   0.898   5.473   3.749
 6996SOL     OW21886   1.492   6.780   5.278
 6996SOL    HW121887   1.556   6.743   5.346
 6996SOL    HW221888   1.541   6.841   5.216
 6997SOL     OW21889   4.873   4.743   4.698
 6997SOL    HW121890   4.899   4.776   4.607
 6997SOL    HW221891   4.782   4.778   4.721
 6998SOL     OW21892   2.551   2.165   1.696
 6998SOL    HW121893   2.547   2.250   1.644
 6998SOL    HW221894   2.546   2.087   1.633
 6999SOL     OW21895   5.659   2.470   6.627
 6999SOL    HW121896   5.687   2.458   6.531
 6999SOL    HW221897   5.712   2.543   6.669
 7000SOL     OW21898   6.838   0.059   1.998
 7000SOL    HW121899   6.764   0.113   2.038
 7000SOL    HW221900   6.898   0.119   1.944
 7001SOL     OW21901   2.912   1.469   6.728
 7001SOL    HW121902   2.849   1.533   6.772
 7001SOL    HW221903   2.947   1.510   6.643
 7002SOL     OW21904   3.052   5.866   1.103
 7002SOL    HW121905   3.113   5.794   1.134
 7002SOL    HW221906   2.962   5.855   1.146
 7003SOL     OW21907   1.143   6.346   6.079
 7003SOL    HW121908   1.122   6.427   6.133
 7003SOL    HW221909   1.176   6.373   5.988
 7004SOL     OW21910   2.460   3.652   6.506
 7004SOL    HW121911   2.538   3.711   6.522
 7004SOL    HW221912   2.375   3.705   6.514
 7005SOL     OW21913   6.426   0.267   5.820
 7005SOL    HW121914   6.377   0.245   5.736
 7005SOL    HW221915   6.519   0.299   5.798
 7006SOL     OW21916   4.918   5.518   4.364
 7006SOL    HW121917   4.956   5.610   4.366
 7006SOL    HW221918   4.841   5.512   4.427
 7007SOL     OW21919   5.299   4.665   1.308
 7007SOL    HW121920   5.338   4.640   1.220
 7007SOL    HW221921   5.345   4.748   1.341
 7008SOL     OW21922   0.609   6.530   4.458
 7008SOL    HW121923   0.620   6.626   4.483
 7008SOL    HW221924   0.572   6.524   4.365
 7009SOL     OW21925   6.729   3.918   1.612
 7009SOL    HW121926   6.674   4.001   1.625
 7009SOL    HW221927   6.781   3.925   1.527
 7010SOL     OW21928   5.081   4.530   5.617
 7010SOL    HW121929   5.027   4.561   5.539
 7010SOL    HW221930   5.178   4.548   5.599
 7011SOL     OW21931   1.688   0.264   6.019
 7011SOL    HW121932   1.621   0.241   5.948
 7011SOL    HW221933   1.658   0.346   6.067
 7012SOL     OW21934   0.092   0.821   1.856
 7012SOL    HW121935   0.038   0.904   1.839
 7012SOL    HW221936   0.080   0.793   1.951
 7013SOL     OW21937   6.347   1.867   1.211
 7013SOL    HW121938   6.307   1.946   1.258
 7013SOL    HW221939   6.446   1.877   1.207
 7014SOL     OW21940   2.394   5.479   1.228
 7014SOL    HW121941   2.443   5.542   1.168
 7014SOL    HW221942   2.410   5.385   1.199
 7015SOL     OW21943   4.719   1.878   2.651
 7015SOL    HW121944   4.635   1.892   2.598
 7015SOL    HW221945   4.778   1.959   2.642
 7016SOL     OW21946   5.382   4.458   0.194
 7016SOL    HW121947   5.375   4.554   0.169
 7016SOL    HW221948   5.438   4.449   0.277
 7017SOL     OW21949   5.258   2.660   5.461
 7017SOL    HW121950   5.284   2.578   5.410
 7017SOL    HW221951   5.167   2.647   5.500
 7018SOL     OW21952   0.444   4.468   3.747
 7018SOL    HW121953   0.366   4.520   3.711
 7018SOL    HW221954   0.492   4.524   3.815
 7019SOL     OW21955   6.327   6.378   2.551
 7019SOL    HW121956   6.284   6.468   2.549
 7019SOL    HW221957   6.258   6.309   2.529
 7020SOL     OW21958   6.810   5.521   0.315
 7020SOL    HW121959   6.863   5.499   0.233
 7020SOL    HW221960   6.723   5.472   0.313
 7021SOL     OW21961   2.780   6.959   5.348
 7021SOL    HW121962   2.775   6.872   5.399
 7021SOL    HW221963   2.765   6.941   5.251
 7022SOL     OW21964   3.709   4.661   5.711
 7022SOL    HW121965   3.697   4.741   5.652
 7022SOL    HW221966   3.806   4.650   5.734
 7023SOL     OW21967   4.923   4.948   2.331
 7023SOL    HW121968   4.861   4.912   2.401
 7023SOL    HW221969   4.892   4.917   2.241
 7024SOL     OW21970   6.341   6.938   1.980
 7024SOL    HW121971   6.289   6.963   2.062
 7024SOL    HW221972   6.282   6.888   1.917
 7025SOL     OW21973   3.062   0.141   1.452
 7025SOL    HW121974   3.116   0.152   1.369
 7025SOL    HW221975   2.965   0.142   1.430
 7026SOL     OW21976   4.157   2.364   0.540
 7026SOL    HW121977   4.218   2.400   0.469
 7026SOL    HW221978   4.176   2.410   0.627
 7027SOL     OW21979   5.603   6.127   5.007
 7027SOL    HW121980   5.675   6.197   5.005
 7027SOL    HW221981   5.628   6.051   4.947
 7028SOL     OW21982   3.300   0.953   4.836
 7028SOL    HW121983   3.201   0.963   4.836
 7028SOL    HW221984   3.330   0.923   4.745
 7029SOL     OW21985   3.648   6.954   4.241
 7029SOL    HW121986   3.643   6.861   4.205
 7029SOL    HW221987   3.712   7.008   4.186
 7030SOL     OW21988   1.063   3.750   3.578
 7030SOL    HW121989   1.087   3.847   3.573
 7030SOL    HW221990   1.138   3.695   3.540
 7031SOL     OW21991   1.992   0.753   4.049
 7031SOL    HW121992   1.957   0.659   4.050
 7031SOL    HW221993   2.041   0.769   3.964
 7032SOL     OW21994   6.260   2.395   3.489
 7032SOL    HW121995   6.310   2.345   3.419
 7032SOL    HW221996   6.290   2.490   3.491
 7033SOL     OW21997   6.852   0.832   5.074
 7033SOL    HW121998   6.815   0.924   5.089
 7033SOL    HW221999   6.840   0.777   5.157
 7034SOL     OW22000   6.839   4.893   4.084
 7034SOL    HW122001   6.914   4.829   4.067
 7034SOL    HW222002   6.806   4.881   4.178
 7035SOL     OW22003   0.179   4.475   0.977
 7035SOL    HW122004   0.141   4.567   0.965
 7035SOL    HW222005   0.160   4.443   1.070
 7036SOL     OW22006   6.103   5.478   0.955
 7036SOL    HW122007   6.166   5.547   0.989
 7036SOL    HW222008   6.141   5.387   0.971
 7037SOL     OW22009   1.398   0.030   6.867
 7037SOL    HW122010   1.429   6.967   6.909
 7037SOL    HW222011   1.337   0.078   6.931
 7038SOL     OW22012   2.382   2.588   3.387
 7038SOL    HW122013   2.470   2.544   3.374
 7038SOL    HW222014   2.375   2.622   3.481
 7039SOL     OW22015   4.125   1.465   6.344
 7039SOL    HW122016   4.066   1.501   6.417
 7039SOL    HW222017   4.069   1.418   6.276
 7040SOL     OW22018   6.592   2.115   6.625
 7040SOL    HW122019   6.532   2.076   6.555
 7040SOL    HW222020   6.537   2.149   6.701
 7041SOL     OW22021   2.054   1.287   3.461
 7041SOL    HW122022   2.074   1.262   3.366
 7041SOL    HW222023   2.045   1.204   3.516
 7042SOL     OW22024   2.133   1.100   0.312
 7042SOL    HW122025   2.146   1.016   0.364
 7042SOL    HW222026   2.039   1.104   0.278
 7043SOL     OW22027   1.924   2.627   1.089
 7043SOL    HW122028   1.866   2.649   1.010
 7043SOL    HW222029   2.015   2.600   1.057
 7044SOL     OW22030   6.988   5.748   0.739
 7044SOL    HW122031   6.984   5.675   0.670
 7044SOL    HW222032   6.897   5.758   0.781
 7045SOL     OW22033   0.621   4.258   6.955
 7045SOL    HW122034   0.537   4.307   6.975
 7045SOL    HW222035   0.616   4.166   6.994
 7046SOL     OW22036   2.338   1.973   3.370
 7046SOL    HW122037   2.349   1.875   3.352
 7046SOL    HW222038   2.298   1.986   3.461
 7047SOL     OW22039   1.323   6.942   3.346
 7047SOL    HW122040   1.378   6.859   3.354
 7047SOL    HW222041   1.269   6.939   3.262
 7048SOL     OW22042   0.598   5.429   6.705
 7048SOL    HW122043   0.539   5.458   6.629
 7048SOL    HW222044   0.616   5.507   6.764
 7049SOL     OW22045   2.657   1.279   6.433
 7049SOL    HW122046   2.678   1.201   6.375
 7049SOL    HW222047   2.701   1.268   6.522
 7050SOL     OW22048   3.350   3.509   5.950
 7050SOL    HW122049   3.373   3.446   6.024
 7050SOL    HW222050   3.379   3.601   5.973
 7051SOL     OW22051   5.518   6.265   1.750
 7051SOL    HW122052   5.574   6.344   1.724
 7051SOL    HW222053   5.421   6.290   1.747
 7052SOL     OW22054   6.196   0.996   4.705
 7052SOL    HW122055   6.157   1.060   4.772
 7052SOL    HW222056   6.122   0.957   4.650
 7053SOL     OW22057   6.275   3.504   6.608
 7053SOL    HW122058   6.269   3.603   6.600
 7053SOL    HW222059   6.193   3.463   6.568
 7054SOL     OW22060   5.968   2.682   2.317
 7054SOL    HW122061   5.981   2.740   2.237
 7054SOL    HW222062   6.057   2.652   2.351
 7055SOL     OW22063   3.944   1.659   3.293
 7055SOL    HW122064   3.854   1.689   3.325
 7055SOL    HW222065   3.967   1.572   3.336
 7056SOL     OW22066   4.685   6.156   4.252
 7056SOL    HW122067   4.629   6.097   4.310
 7056SOL    HW222068   4.629   6.191   4.176
 7057SOL     OW22069   5.317   6.081   2.921
 7057SOL    HW122070   5.222   6.064   2.947
 7057SOL    HW222071   5.347   6.168   2.958
 7058SOL     OW22072   0.600   4.271   4.803
 7058SOL    HW122073   0.532   4.308   4.866
 7058SOL    HW222074   0.556   4.239   4.720
 7059SOL     OW22075   1.643   0.354   2.058
 7059SOL    HW122076   1.596   0.417   1.996
 7059SOL    HW222077   1.585   0.274   2.074
 7060SOL     OW22078   4.168   0.107   1.482
 7060SOL    HW122079   4.173   0.207   1.485
 7060SOL    HW222080   4.177   0.076   1.387
 7061SOL     OW22081   0.731   1.169   2.993
 7061SOL    HW122082   0.672   1.104   3.042
 7061SOL    HW222083   0.753   1.246   3.054
 7062SOL     OW22084   6.436   0.926   5.699
 7062SOL    HW122085   6.341   0.954   5.706
 7062SOL    HW222086   6.496   1.005   5.715
 7063SOL     OW22087   1.666   6.860   1.992
 7063SOL    HW122088   1.665   6.944   1.937
 7063SOL    HW222089   1.601   6.870   2.068
 7064SOL     OW22090   3.208   3.272   0.880
 7064SOL    HW122091   3.173   3.211   0.951
 7064SOL    HW222092   3.167   3.362   0.890
 7065SOL     OW22093   3.144   3.499   2.690
 7065SOL    HW122094   3.065   3.493   2.751
 7065SOL    HW222095   3.120   3.553   2.610
 7066SOL     OW22096   2.421   4.731   1.707
 7066SOL    HW122097   2.397   4.821   1.669
 7066SOL    HW222098   2.501   4.740   1.765
 7067SOL     OW22099   1.427   4.065   4.572
 7067SOL    HW122100   1.441   4.026   4.663
 7067SOL    HW222101   1.481   4.014   4.506
 7068SOL     OW22102   0.707   1.000   3.304
 7068SOL    HW122103   0.735   1.084   3.349
 7068SOL    HW222104   0.630   1.019   3.243
 7069SOL     OW22105   1.491   3.742   5.630
 7069SOL    HW122106   1.489   3.731   5.729
 7069SOL    HW222107   1.561   3.683   5.591
 7070SOL     OW22108   5.642   5.830   2.908
 7070SOL    HW122109   5.608   5.739   2.883
 7070SOL    HW222110   5.597   5.861   2.992
 7071SOL     OW22111   1.703   6.687   5.435
 7071SOL    HW122112   1.714   6.606   5.493
 7071SOL    HW222113   1.750   6.764   5.477
 7072SOL     OW22114   0.082   6.940   6.428
 7072SOL    HW122115   0.142   6.964   6.505
 7072SOL    HW222116   0.045   0.000   6.387
 7073SOL     OW22117   1.857   2.489   0.263
 7073SOL    HW122118   1.904   2.454   0.182
 7073SOL    HW222119   1.884   2.584   0.279
 7074SOL     OW22120   3.868   1.619   6.189
 7074SOL    HW122121   3.776   1.621   6.227
 7074SOL    HW222122   3.888   1.529   6.152
 7075SOL     OW22123   0.308   6.331   3.494
 7075SOL    HW122124   0.292   6.245   3.543
 7075SOL    HW222125   0.335   6.311   3.400
 7076SOL     OW22126   2.948   1.396   5.903
 7076SOL    HW122127   2.954   1.404   6.003
 7076SOL    HW222128   3.005   1.320   5.872
 7077SOL     OW22129   0.929   5.710   6.541
 7077SOL    HW122130   1.017   5.714   6.493
 7077SOL    HW222131   0.862   5.664   6.483
 7078SOL     OW22132   0.314   0.553   1.423
 7078SOL    HW122133   0.323   0.482   1.353
 7078SOL    HW222134   0.348   0.639   1.387
 7079SOL     OW22135   5.094   6.619   4.037
 7079SOL    HW122136   5.120   6.694   4.098
 7079SOL    HW222137   5.062   6.656   3.950
 7080SOL     OW22138   6.310   0.585   3.463
 7080SOL    HW122139   6.243   0.659   3.457
 7080SOL    HW222140   6.335   0.555   3.371
 7081SOL     OW22141   4.406   0.840   4.595
 7081SOL    HW122142   4.490   0.856   4.646
 7081SOL    HW222143   4.374   0.925   4.555
 7082SOL     OW22144   5.797   1.461   0.361
 7082SOL    HW122145   5.787   1.372   0.406
 7082SOL    HW222146   5.881   1.505   0.392
 7083SOL     OW22147   4.463   0.388   4.923
 7083SOL    HW122148   4.366   0.404   4.939
 7083SOL    HW222149   4.514   0.472   4.938
 7084SOL     OW22150   6.354   5.507   0.262
 7084SOL    HW122151   6.277   5.451   0.294
 7084SOL    HW222152   6.322   5.600   0.244
 7085SOL     OW22153   5.179   1.688   1.151
 7085SOL    HW122154   5.179   1.689   1.051
 7085SOL    HW222155   5.189   1.594   1.184
 7086SOL     OW22156   1.302   0.796   6.000
 7086SOL    HW122157   1.383   0.749   6.037
 7086SOL    HW222158   1.305   0.892   6.026
 7087SOL     OW22159   2.509   2.607   4.425
 7087SOL    HW122160   2.601   2.646   4.417
 7087SOL    HW222161   2.449   2.672   4.472
 7088SOL     OW22162   0.158   1.197   4.750
 7088SOL    HW122163   0.151   1.283   4.800
 7088SOL    HW222164   0.074   1.181   4.698
 7089SOL     OW22165   2.727   2.129   2.126
 7089SOL    HW122166   2.681   2.164   2.208
 7089SOL    HW222167   2.793   2.196   2.093
 7090SOL     OW22168   3.521   0.820   4.983
 7090SOL    HW122169   3.441   0.842   4.926
 7090SOL    HW222170   3.502   0.847   5.078
 7091SOL     OW22171   6.559   4.978   6.866
 7091SOL    HW122172   6.483   4.919   6.842
 7091SOL    HW222173   6.564   4.988   6.965
 7092SOL     OW22174   3.691   2.453   0.991
 7092SOL    HW122175   3.734   2.438   0.902
 7092SOL    HW222176   3.762   2.458   1.061
 7093SOL     OW22177   4.056   3.980   5.822
 7093SOL    HW122178   4.155   3.994   5.819
 7093SOL    HW222179   4.012   4.040   5.756
 7094SOL     OW22180   6.198   1.352   6.357
 7094SOL    HW122181   6.196   1.369   6.456
 7094SOL    HW222182   6.223   1.256   6.341
 7095SOL     OW22183   1.249   4.371   1.607
 7095SOL    HW122184   1.158   4.407   1.627
 7095SOL    HW222185   1.260   4.363   1.508
 7096SOL     OW22186   3.528   0.192   3.398
 7096SOL    HW122187   3.455   0.194   3.330
 7096SOL    HW222188   3.487   0.190   3.490
 7097SOL     OW22189   2.108   1.666   1.647
 7097SOL    HW122190   2.178   1.700   1.710
 7097SOL    HW222191   2.021   1.658   1.696
 7098SOL     OW22192   1.115   0.563   6.859
 7098SOL    HW122193   1.168   0.552   6.944
 7098SOL    HW222194   1.142   0.647   6.813
 7099SOL     OW22195   0.185   1.479   4.325
 7099SOL    HW122196   0.215   1.504   4.417
 7099SOL    HW222197   0.085   1.476   4.323
 7100SOL     OW22198   5.535   2.488   0.771
 7100SOL    HW122199   5.618   2.535   0.740
 7100SOL    HW222200   5.560   2.408   0.824
 7101SOL     OW22201   1.633   0.665   5.034
 7101SOL    HW122202   1.670   0.751   4.999
 7101SOL    HW222203   1.619   0.602   4.957
 7102SOL     OW22204   4.547   2.734   6.994
 7102SOL    HW122205   4.569   2.812   6.935
 7102SOL    HW222206   4.450   2.737   7.019
 7103SOL     OW22207   2.163   6.757   6.436
 7103SOL    HW122208   2.188   6.843   6.481
 7103SOL    HW222209   2.243   6.698   6.431
 7104SOL     OW22210   0.107   3.520   1.386
 7104SOL    HW122211   0.054   3.464   1.449
 7104SOL    HW222212   0.181   3.566   1.436
 7105SOL     OW22213   1.974   2.565   4.363
 7105SOL    HW122214   2.051   2.628   4.361
 7105SOL    HW222215   2.008   2.472   4.379
 7106SOL     OW22216   3.018   2.961   5.227
 7106SOL    HW122217   2.921   2.981   5.214
 7106SOL    HW222218   3.028   2.869   5.264
 7107SOL     OW22219   1.869   2.053   0.247
 7107SOL    HW122220   1.835   2.144   0.222
 7107SOL    HW222221   1.948   2.063   0.308
 7108SOL     OW22222   3.789   6.553   2.312
 7108SOL    HW122223   3.822   6.641   2.344
 7108SOL    HW222224   3.807   6.483   2.381
 7109SOL     OW22225   4.835   5.602   6.902
 7109SOL    HW122226   4.801   5.654   6.980
 7109SOL    HW222227   4.862   5.664   6.829
 7110SOL     OW22228   3.886   5.209   4.340
 7110SOL    HW122229   3.972   5.158   4.339
 7110SOL    HW222230   3.811   5.149   4.368
 7111SOL     OW22231   1.508   3.045   2.887
 7111SOL    HW122232   1.528   3.129   2.938
 7111SOL    HW222233   1.518   2.966   2.948
 7112SOL     OW22234   1.986   6.057   2.830
 7112SOL    HW122235   1.980   6.151   2.866
 7112SOL    HW222236   2.016   6.060   2.735
 7113SOL     OW22237   3.650   3.990   6.170
 7113SOL    HW122238   3.580   3.928   6.133
 7113SOL    HW222239   3.677   4.055   6.099
 7114SOL     OW22240   3.743   6.535   0.491
 7114SOL    HW122241   3.718   6.628   0.465
 7114SOL    HW222242   3.830   6.537   0.540
 7115SOL     OW22243   3.869   2.347   1.430
 7115SOL    HW122244   3.940   2.366   1.498
 7115SOL    HW222245   3.896   2.386   1.342
 7116SOL     OW22246   6.375   4.306   3.913
 7116SOL    HW122247   6.428   4.318   3.829
 7116SOL    HW222248   6.278   4.326   3.895
 7117SOL     OW22249   5.452   0.250   2.490
 7117SOL    HW122250   5.513   0.179   2.526
 7117SOL    HW222251   5.389   0.279   2.562
 7118SOL     OW22252   6.799   3.604   3.736
 7118SOL    HW122253   6.855   3.685   3.752
 7118SOL    HW222254   6.825   3.532   3.801
 7119SOL     OW22255   0.611   2.131   2.320
 7119SOL    HW122256   0.627   2.062   2.250
 7119SOL    HW222257   0.513   2.149   2.328
 7120SOL     OW22258   4.651   6.586   4.391
 7120SOL    HW122259   4.658   6.611   4.294
 7120SOL    HW222260   4.625   6.667   4.444
 7121SOL     OW22261   1.735   6.386   0.769
 7121SOL    HW122262   1.778   6.321   0.707
 7121SOL    HW222263   1.790   6.469   0.775
 7122SOL     OW22264   0.080   6.217   0.166
 7122SOL    HW122265   0.003   6.246   0.223
 7122SOL    HW222266   0.100   6.121   0.184
 7123SOL     OW22267   3.236   4.787   0.746
 7123SOL    HW122268   3.281   4.725   0.811
 7123SOL    HW222269   3.247   4.751   0.653
 7124SOL     OW22270   0.722   4.974   6.839
 7124SOL    HW122271   0.788   4.911   6.881
 7124SOL    HW222272   0.721   5.060   6.890
 7125SOL     OW22273   1.393   5.559   3.551
 7125SOL    HW122274   1.479   5.557   3.501
 7125SOL    HW222275   1.377   5.651   3.586
 7126SOL     OW22276   1.737   4.565   1.107
 7126SOL    HW122277   1.809   4.499   1.129
 7126SOL    HW222278   1.717   4.621   1.187
 7127SOL     OW22279   2.264   0.487   5.020
 7127SOL    HW122280   2.291   0.391   5.016
 7127SOL    HW222281   2.340   0.545   4.989
 7128SOL     OW22282   2.982   3.923   2.480
 7128SOL    HW122283   2.943   3.953   2.393
 7128SOL    HW222284   3.056   3.984   2.507
 7129SOL     OW22285   3.525   1.968   0.383
 7129SOL    HW122286   3.444   2.013   0.421
 7129SOL    HW222287   3.601   1.976   0.448
 7130SOL     OW22288   1.473   0.721   2.886
 7130SOL    HW122289   1.541   0.738   2.958
 7130SOL    HW222290   1.390   0.684   2.927
 7131SOL     OW22291   2.897   1.175   2.963
 7131SOL    HW122292   2.871   1.271   2.955
 7131SOL    HW222293   2.951   1.162   3.047
 7132SOL     OW22294   3.038   3.987   2.218
 7132SOL    HW122295   3.035   4.018   2.123
 7132SOL    HW222296   3.133   3.976   2.246
 7133SOL     OW22297   6.083   4.160   2.104
 7133SOL    HW122298   6.132   4.220   2.167
 7133SOL    HW222299   6.072   4.205   2.015
 7134SOL     OW22300   4.643   4.642   2.720
 7134SOL    HW122301   4.697   4.710   2.671
 7134SOL    HW222302   4.587   4.591   2.655
 7135SOL     OW22303   6.781   1.855   5.847
 7135SOL    HW122304   6.845   1.849   5.923
 7135SOL    HW222305   6.691   1.884   5.880
 7136SOL     OW22306   2.398   2.068   6.620
 7136SOL    HW122307   2.347   2.062   6.535
 7136SOL    HW222308   2.430   2.162   6.634
 7137SOL     OW22309   5.429   2.064   5.212
 7137SOL    HW122310   5.389   1.985   5.259
 7137SOL    HW222311   5.440   2.042   5.115
 7138SOL     OW22312   2.169   2.176   6.367
 7138SOL    HW122313   2.120   2.261   6.384
 7138SOL    HW222314   2.120   2.122   6.298
 7139SOL     OW22315   1.914   1.463   0.051
 7139SOL    HW122316   1.988   1.421   0.103
 7139SOL    HW222317   1.828   1.418   0.073
 7140SOL     OW22318   6.420   4.579   4.509
 7140SOL    HW122319   6.401   4.507   4.442
 7140SOL    HW222320   6.387   4.666   4.475
 7141SOL     OW22321   0.900   0.947   1.857
 7141SOL    HW122322   0.894   0.849   1.839
 7141SOL    HW222323   0.809   0.987   1.855
 7142SOL     OW22324   3.341   6.657   4.132
 7142SOL    HW122325   3.348   6.651   4.232
 7142SOL    HW222326   3.285   6.737   4.108
 7143SOL     OW22327   1.937   3.143   4.069
 7143SOL    HW122328   1.920   3.057   4.118
 7143SOL    HW222329   2.012   3.129   4.003
 7144SOL     OW22330   1.831   3.407   3.321
 7144SOL    HW122331   1.852   3.504   3.305
 7144SOL    HW222332   1.907   3.351   3.288
 7145SOL     OW22333   3.191   5.731   6.830
 7145SOL    HW122334   3.230   5.639   6.838
 7145SOL    HW222335   3.245   5.794   6.885
 7146SOL     OW22336   3.918   5.053   1.486
 7146SOL    HW122337   3.971   5.130   1.524
 7146SOL    HW222338   3.958   4.967   1.516
 7147SOL     OW22339   0.803   1.058   3.794
 7147SOL    HW122340   0.884   1.044   3.851
 7147SOL    HW222341   0.802   0.990   3.721
 7148SOL     OW22342   6.636   1.958   0.898
 7148SOL    HW122343   6.668   2.052   0.891
 7148SOL    HW222344   6.636   1.915   0.808
 7149SOL     OW22345   1.200   0.759   4.685
 7149SOL    HW122346   1.236   0.797   4.599
 7149SOL    HW222347   1.241   0.807   4.762
 7150SOL     OW22348   6.918   3.237   5.913
 7150SOL    HW122349   6.979   3.217   5.990
 7150SOL    HW222350   6.860   3.315   5.937
 7151SOL     OW22351   1.204   0.133   0.435
 7151SOL    HW122352   1.152   0.050   0.411
 7151SOL    HW222353   1.302   0.114   0.427
 7152SOL     OW22354   0.671   2.346   4.377
 7152SOL    HW122355   0.679   2.355   4.476
 7152SOL    HW222356   0.732   2.411   4.333
 7153SOL     OW22357   4.608   1.867   3.398
 7153SOL    HW122358   4.607   1.801   3.323
 7153SOL    HW222359   4.517   1.872   3.439
 7154SOL     OW22360   3.577   0.280   4.458
 7154SOL    HW122361   3.527   0.333   4.526
 7154SOL    HW222362   3.618   0.342   4.391
 7155SOL     OW22363   2.134   1.629   4.026
 7155SOL    HW122364   2.220   1.601   3.983
 7155SOL    HW222365   2.153   1.696   4.097
 7156SOL     OW22366   2.186   5.460   5.463
 7156SOL    HW122367   2.118   5.518   5.508
 7156SOL    HW222368   2.275   5.506   5.465
 7157SOL     OW22369   5.685   4.077   0.585
 7157SOL    HW122370   5.629   4.015   0.640
 7157SOL    HW222371   5.664   4.064   0.488
 7158SOL     OW22372   3.720   0.384   3.110
 7158SOL    HW122373   3.758   0.388   3.202
 7158SOL    HW222374   3.664   0.466   3.095
 7159SOL     OW22375   1.327   6.076   6.873
 7159SOL    HW122376   1.351   5.981   6.853
 7159SOL    HW222377   1.374   6.107   6.955
 7160SOL     OW22378   0.738   0.167   2.382
 7160SOL    HW122379   0.652   0.122   2.359
 7160SOL    HW222380   0.753   0.244   2.320
 7161SOL     OW22381   3.019   3.933   4.965
 7161SOL    HW122382   3.068   4.019   4.974
 7161SOL    HW222383   3.043   3.872   5.040
 7162SOL     OW22384   3.519   4.926   4.029
 7162SOL    HW122385   3.426   4.941   3.995
 7162SOL    HW222386   3.519   4.927   4.129
 7163SOL     OW22387   1.243   6.481   3.931
 7163SOL    HW122388   1.203   6.391   3.914
 7163SOL    HW222389   1.337   6.483   3.898
 7164SOL     OW22390   3.642   1.350   4.237
 7164SOL    HW122391   3.570   1.372   4.303
 7164SOL    HW222392   3.707   1.286   4.279
 7165SOL     OW22393   4.263   5.216   2.225
 7165SOL    HW122394   4.250   5.178   2.133
 7165SOL    HW222395   4.334   5.164   2.273
 7166SOL     OW22396   3.113   6.818   2.618
 7166SOL    HW122397   3.128   6.819   2.519
 7166SOL    HW222398   3.182   6.760   2.661
 7167SOL     OW22399   5.663   2.515   0.461
 7167SOL    HW122400   5.721   2.573   0.518
 7167SOL    HW222401   5.709   2.497   0.374
 7168SOL     OW22402   6.423   1.634   4.099
 7168SOL    HW122403   6.505   1.635   4.041
 7168SOL    HW222404   6.450   1.647   4.194
 7169SOL     OW22405   2.280   2.740   0.117
 7169SOL    HW122406   2.253   2.774   0.027
 7169SOL    HW222407   2.242   2.800   0.187
 7170SOL     OW22408   5.059   3.836   4.715
 7170SOL    HW122409   5.082   3.789   4.801
 7170SOL    HW222410   4.993   3.780   4.664
 7171SOL     OW22411   3.456   3.518   5.332
 7171SOL    HW122412   3.518   3.567   5.272
 7171SOL    HW222413   3.399   3.583   5.382
 7172SOL     OW22414   5.412   5.526   1.550
 7172SOL    HW122415   5.476   5.561   1.619
 7172SOL    HW222416   5.379   5.436   1.578
 7173SOL     OW22417   6.431   6.594   4.482
 7173SOL    HW122418   6.448   6.688   4.450
 7173SOL    HW222419   6.476   6.530   4.420
 7174SOL     OW22420   1.024   6.280   5.683
 7174SOL    HW122421   1.045   6.270   5.586
 7174SOL    HW222422   0.974   6.366   5.697
 7175SOL     OW22423   5.905   3.560   5.782
 7175SOL    HW122424   5.958   3.631   5.737
 7175SOL    HW222425   5.870   3.495   5.714
 7176SOL     OW22426   1.344   3.440   1.226
 7176SOL    HW122427   1.406   3.383   1.278
 7176SOL    HW222428   1.294   3.384   1.160
 7177SOL     OW22429   0.094   4.820   1.271
 7177SOL    HW122430   0.162   4.863   1.330
 7177SOL    HW222431   0.005   4.821   1.316
 7178SOL     OW22432   6.656   0.213   6.933
 7178SOL    HW122433   6.598   0.144   6.975
 7178SOL    HW222434   6.734   0.170   6.888
 7179SOL     OW22435   0.909   3.798   5.828
 7179SOL    HW122436   0.929   3.841   5.916
 7179SOL    HW222437   0.896   3.700   5.842
 7180SOL     OW22438   0.289   0.432   2.057
 7180SOL    HW122439   0.256   0.370   1.986
 7180SOL    HW222440   0.341   0.506   2.015
 7181SOL     OW22441   5.117   6.485   2.326
 7181SOL    HW122442   5.025   6.487   2.365
 7181SOL    HW222443   5.183   6.513   2.396
 7182SOL     OW22444   3.512   3.710   6.038
 7182SOL    HW122445   3.435   3.768   6.011
 7182SOL    HW222446   3.583   3.714   5.967
 7183SOL     OW22447   2.359   2.764   2.598
 7183SOL    HW122448   2.314   2.680   2.569
 7183SOL    HW222449   2.335   2.838   2.535
 7184SOL     OW22450   2.600   5.431   3.052
 7184SOL    HW122451   2.646   5.412   2.965
 7184SOL    HW222452   2.637   5.371   3.123
 7185SOL     OW22453   5.432   2.410   6.247
 7185SOL    HW122454   5.511   2.359   6.282
 7185SOL    HW222455   5.444   2.507   6.268
 7186SOL     OW22456   1.342   6.729   4.782
 7186SOL    HW122457   1.426   6.723   4.837
 7186SOL    HW222458   1.324   6.640   4.739
 7187SOL     OW22459   1.606   4.752   1.277
 7187SOL    HW122460   1.622   4.834   1.333
 7187SOL    HW222461   1.508   4.730   1.278
 7188SOL     OW22462   4.024   0.212   2.052
 7188SOL    HW122463   3.953   0.236   1.986
 7188SOL    HW222464   4.086   0.290   2.064
 7189SOL     OW22465   6.225   0.953   6.099
 7189SOL    HW122466   6.176   1.022   6.046
 7189SOL    HW222467   6.160   0.890   6.141
 7190SOL     OW22468   4.901   4.864   2.040
 7190SOL    HW122469   4.964   4.882   1.964
 7190SOL    HW222470   4.824   4.927   2.034
 7191SOL     OW22471   0.691   3.660   1.599
 7191SOL    HW122472   0.619   3.615   1.546
 7191SOL    HW222473   0.764   3.689   1.537
 7192SOL     OW22474   3.382   4.398   6.027
 7192SOL    HW122475   3.397   4.321   5.964
 7192SOL    HW222476   3.284   4.414   6.037
 7193SOL     OW22477   5.810   2.287   4.805
 7193SOL    HW122478   5.875   2.361   4.821
 7193SOL    HW222479   5.830   2.211   4.867
 7194SOL     OW22480   3.535   0.907   1.717
 7194SOL    HW122481   3.632   0.884   1.723
 7194SOL    HW222482   3.522   1.004   1.739
 7195SOL     OW22483   0.735   0.167   3.602
 7195SOL    HW122484   0.796   0.179   3.524
 7195SOL    HW222485   0.678   0.086   3.588
 7196SOL     OW22486   3.928   3.997   1.503
 7196SOL    HW122487   3.864   3.993   1.427
 7196SOL    HW222488   3.901   3.931   1.573
 7197SOL     OW22489   2.148   0.825   3.836
 7197SOL    HW122490   2.088   0.829   3.755
 7197SOL    HW222491   2.220   0.894   3.827
 7198SOL     OW22492   0.051   6.506   5.641
 7198SOL    HW122493   0.121   6.530   5.575
 7198SOL    HW222494   7.005   6.578   5.646
 7199SOL     OW22495   6.232   6.013   1.706
 7199SOL    HW122496   6.260   5.984   1.797
 7199SOL    HW222497   6.237   6.113   1.700
 7200SOL     OW22498   1.004   1.913   2.412
 7200SOL    HW122499   1.085   1.854   2.412
 7200SOL    HW222500   0.948   1.893   2.492
 7201SOL     OW22501   1.571   4.832   3.057
 7201SOL    HW122502   1.648   4.896   3.051
 7201SOL    HW222503   1.535   4.815   2.966
 7202SOL     OW22504   2.163   6.841   5.385
 7202SOL    HW122505   2.124   6.932   5.401
 7202SOL    HW222506   2.126   6.803   5.300
 7203SOL     OW22507   5.587   0.687   6.521
 7203SOL    HW122508   5.567   0.605   6.468
 7203SOL    HW222509   5.671   0.673   6.574
 7204SOL     OW22510   0.746   3.496   2.518
 7204SOL    HW122511   0.833   3.521   2.561
 7204SOL    HW222512   0.745   3.532   2.424
 7205SOL     OW22513   1.509   4.093   1.401
 7205SOL    HW122514   1.514   4.019   1.334
 7205SOL    HW222515   1.415   4.101   1.434
 7206SOL     OW22516   6.748   0.376   1.834
 7206SOL    HW122517   6.720   0.332   1.919
 7206SOL    HW222518   6.698   0.337   1.757
 7207SOL     OW22519   3.736   6.885   1.415
 7207SOL    HW122520   3.708   6.835   1.497
 7207SOL    HW222521   3.724   6.983   1.431
 7208SOL     OW22522   2.689   7.010   5.017
 7208SOL    HW122523   2.708   0.086   5.017
 7208SOL    HW222524   2.609   6.992   4.959
 7209SOL     OW22525   2.425   3.626   5.462
 7209SOL    HW122526   2.408   3.663   5.553
 7209SOL    HW222527   2.478   3.692   5.408
 7210SOL     OW22528   4.344   0.941   4.294
 7210SOL    HW122529   4.281   0.875   4.334
 7210SOL    HW222530   4.295   0.999   4.229
 7211SOL     OW22531   0.431   5.544   3.040
 7211SOL    HW122532   0.519   5.546   2.992
 7211SOL    HW222533   0.364   5.496   2.984
 7212SOL     OW22534   5.287   6.345   2.602
 7212SOL    HW122535   5.366   6.330   2.543
 7212SOL    HW222536   5.213   6.283   2.575
 7213SOL     OW22537   5.592   6.405   5.346
 7213SOL    HW122538   5.685   6.437   5.368
 7213SOL    HW222539   5.580   6.404   5.247
 7214SOL     OW22540   1.585   5.047   6.059
 7214SOL    HW122541   1.601   5.139   6.094
 7214SOL    HW222542   1.506   5.048   5.998
 7215SOL     OW22543   1.461   2.792   1.526
 7215SOL    HW122544   1.532   2.723   1.539
 7215SOL    HW222545   1.372   2.747   1.515
 7216SOL     OW22546   2.271   1.729   2.677
 7216SOL    HW122547   2.172   1.743   2.684
 7216SOL    HW222548   2.292   1.688   2.588
 7217SOL     OW22549   1.266   3.806   1.891
 7217SOL    HW122550   1.299   3.836   1.981
 7217SOL    HW222551   1.167   3.804   1.891
 7218SOL     OW22552   6.731   3.079   3.659
 7218SOL    HW122553   6.724   3.006   3.592
 7218SOL    HW222554   6.682   3.160   3.627
 7219SOL     OW22555   2.175   1.340   1.596
 7219SOL    HW122556   2.122   1.424   1.606
 7219SOL    HW222557   2.273   1.361   1.599
 7220SOL     OW22558   6.732   1.975   3.591
 7220SOL    HW122559   6.800   1.955   3.521
 7220SOL    HW222560   6.641   1.951   3.556
 7221SOL     OW22561   6.752   3.876   4.888
 7221SOL    HW122562   6.791   3.948   4.831
 7221SOL    HW222563   6.655   3.895   4.905
 7222SOL     OW22564   6.371   0.401   2.593
 7222SOL    HW122565   6.393   0.481   2.649
 7222SOL    HW222566   6.386   0.317   2.646
 7223SOL     OW22567   5.044   0.743   4.409
 7223SOL    HW122568   5.042   0.842   4.424
 7223SOL    HW222569   4.987   0.698   4.477
 7224SOL     OW22570   4.969   0.805   3.530
 7224SOL    HW122571   5.050   0.843   3.575
 7224SOL    HW222572   4.996   0.723   3.479
 7225SOL     OW22573   2.808   0.165   1.400
 7225SOL    HW122574   2.773   0.115   1.320
 7225SOL    HW222575   2.782   0.261   1.393
 7226SOL     OW22576   5.570   6.893   5.159
 7226SOL    HW122577   5.518   6.977   5.174
 7226SOL    HW222578   5.561   6.833   5.238
 7227SOL     OW22579   0.423   2.761   5.453
 7227SOL    HW122580   0.515   2.733   5.425
 7227SOL    HW222581   0.404   2.727   5.544
 7228SOL     OW22582   1.871   7.017   3.066
 7228SOL    HW122583   1.915   0.020   2.981
 7228SOL    HW222584   1.933   6.960   3.120
 7229SOL     OW22585   6.234   0.336   3.603
 7229SOL    HW122586   6.201   0.406   3.666
 7229SOL    HW222587   6.274   0.379   3.522
 7230SOL     OW22588   6.076   5.073   1.531
 7230SOL    HW122589   6.142   5.021   1.585
 7230SOL    HW222590   5.986   5.029   1.538
 7231SOL     OW22591   5.711   1.196   6.885
 7231SOL    HW122592   5.737   1.288   6.854
 7231SOL    HW222593   5.719   1.191   6.985
 7232SOL     OW22594   3.279   3.529   0.615
 7232SOL    HW122595   3.269   3.598   0.543
 7232SOL    HW222596   3.193   3.521   0.666
 7233SOL     OW22597   1.144   1.973   6.639
 7233SOL    HW122598   1.109   1.923   6.560
 7233SOL    HW222599   1.240   1.999   6.623
 7234SOL     OW22600   5.458   2.713   3.702
 7234SOL    HW122601   5.389   2.786   3.703
 7234SOL    HW222602   5.487   2.694   3.796
 7235SOL     OW22603   5.661   2.826   4.623
 7235SOL    HW122604   5.623   2.734   4.636
 7235SOL    HW222605   5.681   2.840   4.527
 7236SOL     OW22606   0.866   1.753   3.557
 7236SOL    HW122607   0.842   1.772   3.462
 7236SOL    HW222608   0.804   1.800   3.619
 7237SOL     OW22609   6.239   4.970   5.569
 7237SOL    HW122610   6.225   4.890   5.511
 7237SOL    HW222611   6.159   4.981   5.629
 7238SOL     OW22612   1.606   0.302   2.568
 7238SOL    HW122613   1.557   0.375   2.615
 7238SOL    HW222614   1.543   0.249   2.513
 7239SOL     OW22615   4.748   1.548   2.036
 7239SOL    HW122616   4.668   1.579   2.088
 7239SOL    HW222617   4.806   1.626   2.014
 7240SOL     OW22618   2.948   3.453   3.289
 7240SOL    HW122619   2.913   3.420   3.201
 7240SOL    HW222620   2.975   3.374   3.345
 7241SOL     OW22621   4.909   0.081   5.055
 7241SOL    HW122622   4.831   0.101   5.115
 7241SOL    HW222623   4.985   0.143   5.078
 7242SOL     OW22624   5.956   5.625   0.748
 7242SOL    HW122625   5.988   5.591   0.659
 7242SOL    HW222626   6.016   5.591   0.820
 7243SOL     OW22627   0.387   5.867   1.403
 7243SOL    HW122628   0.362   5.950   1.354
 7243SOL    HW222629   0.394   5.791   1.338
 7244SOL     OW22630   4.714   1.918   1.916
 7244SOL    HW122631   4.771   1.992   1.953
 7244SOL    HW222632   4.621   1.925   1.953
 7245SOL     OW22633   5.596   2.091   3.379
 7245SOL    HW122634   5.549   2.178   3.384
 7245SOL    HW222635   5.560   2.038   3.302
 7246SOL     OW22636   0.946   5.978   5.480
 7246SOL    HW122637   1.032   5.948   5.439
 7246SOL    HW222638   0.952   5.970   5.579
 7247SOL     OW22639   4.153   5.285   3.642
 7247SOL    HW122640   4.114   5.308   3.731
 7247SOL    HW222641   4.091   5.317   3.570
 7248SOL     OW22642   3.190   0.938   5.239
 7248SOL    HW122643   3.285   0.929   5.209
 7248SOL    HW222644   3.160   1.033   5.226
 7249SOL     OW22645   5.301   2.927   6.230
 7249SOL    HW122646   5.204   2.923   6.254
 7249SOL    HW222647   5.350   2.853   6.277
 7250SOL     OW22648   3.388   3.173   0.175
 7250SOL    HW122649   3.443   3.113   0.232
 7250SOL    HW222650   3.345   3.119   0.102
 7251SOL     OW22651   6.140   1.165   5.958
 7251SOL    HW122652   6.166   1.218   5.877
 7251SOL    HW222653   6.095   1.224   6.024
 7252SOL     OW22654   4.524   3.607   5.333
 7252SOL    HW122655   4.610   3.596   5.283
 7252SOL    HW222656   4.464   3.530   5.313
 7253SOL     OW22657   4.972   5.000   0.345
 7253SOL    HW122658   4.885   4.956   0.365
 7253SOL    HW222659   5.039   4.930   0.316
 7254SOL     OW22660   5.196   6.042   5.623
 7254SOL    HW122661   5.288   6.079   5.636
 7254SOL    HW222662   5.200   5.943   5.613
 7255SOL     OW22663   3.487   3.672   3.801
 7255SOL    HW122664   3.504   3.688   3.898
 7255SOL    HW222665   3.392   3.692   3.780
 7256SOL     OW22666   3.722   5.769   4.068
 7256SOL    HW122667   3.653   5.727   4.127
 7256SOL    HW222668   3.809   5.723   4.079
 7257SOL     OW22669   6.198   5.127   2.331
 7257SOL    HW122670   6.270   5.190   2.359
 7257SOL    HW222671   6.109   5.168   2.350
 7258SOL     OW22672   2.696   0.795   6.052
 7258SOL    HW122673   2.710   0.714   6.110
 7258SOL    HW222674   2.598   0.810   6.039
 7259SOL     OW22675   3.475   4.096   5.860
 7259SOL    HW122676   3.419   4.119   5.780
 7259SOL    HW222677   3.539   4.023   5.837
 7260SOL     OW22678   4.457   2.209   2.937
 7260SOL    HW122679   4.470   2.209   2.838
 7260SOL    HW222680   4.520   2.275   2.979
 7261SOL     OW22681   2.596   4.715   1.290
 7261SOL    HW122682   2.590   4.748   1.195
 7261SOL    HW222683   2.582   4.791   1.353
 7262SOL     OW22684   5.875   0.432   4.527
 7262SOL    HW122685   5.785   0.391   4.520
 7262SOL    HW222686   5.882   0.483   4.613
 7263SOL     OW22687   4.824   4.468   1.309
 7263SOL    HW122688   4.851   4.564   1.302
 7263SOL    HW222689   4.851   4.432   1.399
 7264SOL     OW22690   6.507   6.852   4.815
 7264SOL    HW122691   6.531   6.813   4.904
 7264SOL    HW222692   6.586   6.846   4.754
 7265SOL     OW22693   4.747   2.677   6.406
 7265SOL    HW122694   4.826   2.672   6.346
 7265SOL    HW222695   4.719   2.584   6.432
 7266SOL     OW22696   4.172   1.136   2.690
 7266SOL    HW122697   4.113   1.180   2.757
 7266SOL    HW222698   4.139   1.154   2.598
 7267SOL     OW22699   4.730   2.325   3.968
 7267SOL    HW122700   4.823   2.325   3.932
 7267SOL    HW222701   4.705   2.232   3.996
 7268SOL     OW22702   3.884   6.467   6.656
 7268SOL    HW122703   3.899   6.388   6.597
 7268SOL    HW222704   3.959   6.533   6.644
 7269SOL     OW22705   1.401   0.023   3.845
 7269SOL    HW122706   1.451   6.964   3.816
 7269SOL    HW222707   1.303   0.001   3.852
 7270SOL     OW22708   3.627   2.755   1.496
 7270SOL    HW122709   3.594   2.840   1.537
 7270SOL    HW222710   3.628   2.683   1.566
 7271SOL     OW22711   4.512   6.003   3.640
 7271SOL    HW122712   4.511   5.962   3.732
 7271SOL    HW222713   4.453   5.949   3.579
 7272SOL     OW22714   5.397   1.396   1.831
 7272SOL    HW122715   5.319   1.402   1.893
 7272SOL    HW222716   5.378   1.326   1.762
 7273SOL     OW22717   5.872   4.690   4.220
 7273SOL    HW122718   5.848   4.594   4.205
 7273SOL    HW222719   5.936   4.697   4.296
 7274SOL     OW22720   5.595   4.828   3.886
 7274SOL    HW122721   5.569   4.893   3.815
 7274SOL    HW222722   5.573   4.735   3.856
 7275SOL     OW22723   5.877   0.145   2.138
 7275SOL    HW122724   5.785   0.132   2.102
 7275SOL    HW222725   5.875   0.214   2.211
 7276SOL     OW22726   4.069   1.533   3.035
 7276SOL    HW122727   4.027   1.565   3.120
 7276SOL    HW222728   4.036   1.441   3.014
 7277SOL     OW22729   6.681   2.508   3.856
 7277SOL    HW122730   6.640   2.586   3.903
 7277SOL    HW222731   6.609   2.446   3.826
 7278SOL     OW22732   3.887   1.361   2.718
 7278SOL    HW122733   3.888   1.458   2.695
 7278SOL    HW222734   3.845   1.310   2.642
 7279SOL     OW22735   3.489   3.546   1.990
 7279SOL    HW122736   3.429   3.509   1.920
 7279SOL    HW222737   3.450   3.528   2.081
 7280SOL     OW22738   6.412   1.446   5.998
 7280SOL    HW122739   6.432   1.418   6.092
 7280SOL    HW222740   6.357   1.376   5.954
 7281SOL     OW22741   3.696   0.122   3.781
 7281SOL    HW122742   3.730   0.031   3.760
 7281SOL    HW222743   3.611   0.139   3.731
 7282SOL     OW22744   1.060   3.733   1.128
 7282SOL    HW122745   1.054   3.833   1.134
 7282SOL    HW222746   1.074   3.694   1.219
 7283SOL     OW22747   2.777   5.872   2.556
 7283SOL    HW122748   2.850   5.805   2.570
 7283SOL    HW222749   2.714   5.869   2.634
 7284SOL     OW22750   0.445   0.952   4.200
 7284SOL    HW122751   0.499   1.003   4.133
 7284SOL    HW222752   0.359   1.000   4.218
 7285SOL     OW22753   4.558   2.193   2.670
 7285SOL    HW122754   4.517   2.134   2.600
 7285SOL    HW222755   4.638   2.147   2.709
 7286SOL     OW22756   6.465   1.300   5.110
 7286SOL    HW122757   6.434   1.283   5.016
 7286SOL    HW222758   6.563   1.320   5.109
 7287SOL     OW22759   3.425   1.411   4.675
 7287SOL    HW122760   3.440   1.507   4.698
 7287SOL    HW222761   3.398   1.361   4.757
 7288SOL     OW22762   3.200   2.065   0.980
 7288SOL    HW122763   3.217   2.058   1.078
 7288SOL    HW222764   3.222   2.158   0.949
 7289SOL     OW22765   0.059   2.483   0.905
 7289SOL    HW122766   0.125   2.466   0.832
 7289SOL    HW222767   0.096   2.450   0.992
 7290SOL     OW22768   3.343   2.068   4.912
 7290SOL    HW122769   3.396   2.016   4.980
 7290SOL    HW222770   3.301   2.147   4.957
 7291SOL     OW22771   0.792   1.168   0.147
 7291SOL    HW122772   0.843   1.134   0.226
 7291SOL    HW222773   0.728   1.099   0.116
 7292SOL     OW22774   3.304   1.062   2.371
 7292SOL    HW122775   3.232   0.997   2.396
 7292SOL    HW222776   3.303   1.138   2.436
 7293SOL     OW22777   5.898   1.216   4.034
 7293SOL    HW122778   5.853   1.146   3.978
 7293SOL    HW222779   5.829   1.271   4.081
 7294SOL     OW22780   2.147   1.210   2.641
 7294SOL    HW122781   2.094   1.154   2.703
 7294SOL    HW222782   2.126   1.185   2.546
 7295SOL     OW22783   5.263   4.338   1.482
 7295SOL    HW122784   5.203   4.395   1.538
 7295SOL    HW222785   5.343   4.392   1.453
 7296SOL     OW22786   3.132   7.014   3.020
 7296SOL    HW122787   3.131   0.043   2.935
 7296SOL    HW222788   3.077   6.932   3.010
 7297SOL     OW22789   4.996   0.361   6.671
 7297SOL    HW122790   4.943   0.324   6.594
 7297SOL    HW222791   5.051   0.288   6.712
 7298SOL     OW22792   4.076   4.381   0.401
 7298SOL    HW122793   4.012   4.399   0.476
 7298SOL    HW222794   4.082   4.282   0.386
 7299SOL     OW22795   0.174   2.834   0.105
 7299SOL    HW122796   0.270   2.809   0.095
 7299SOL    HW222797   0.164   2.900   0.179
 7300SOL     OW22798   0.548   4.040   2.551
 7300SOL    HW122799   0.486   3.968   2.520
 7300SOL    HW222800   0.518   4.128   2.513
 7301SOL     OW22801   4.119   1.692   0.626
 7301SOL    HW122802   4.096   1.768   0.565
 7301SOL    HW222803   4.055   1.617   0.611
 7302SOL     OW22804   5.768   1.687   6.619
 7302SOL    HW122805   5.751   1.675   6.717
 7302SOL    HW222806   5.845   1.629   6.591
 7303SOL     OW22807   4.012   2.345   0.912
 7303SOL    HW122808   3.977   2.252   0.899
 7303SOL    HW222809   4.073   2.346   0.992
 7304SOL     OW22810   3.023   0.054   0.503
 7304SOL    HW122811   3.074   0.050   0.418
 7304SOL    HW222812   2.925   0.044   0.484
 7305SOL     OW22813   6.816   6.866   6.191
 7305SOL    HW122814   6.894   6.924   6.168
 7305SOL    HW222815   6.772   6.835   6.107
 7306SOL     OW22816   1.969   3.667   0.823
 7306SOL    HW122817   1.903   3.728   0.779
 7306SOL    HW222818   1.920   3.594   0.871
 7307SOL     OW22819   4.452   6.712   0.715
 7307SOL    HW122820   4.515   6.650   0.669
 7307SOL    HW222821   4.417   6.668   0.798
 7308SOL     OW22822   3.613   1.922   2.927
 7308SOL    HW122823   3.551   1.880   2.861
 7308SOL    HW222824   3.672   1.851   2.967
 7309SOL     OW22825   2.360   5.405   3.155
 7309SOL    HW122826   2.286   5.472   3.164
 7309SOL    HW222827   2.444   5.452   3.127
 7310SOL     OW22828   5.117   3.174   0.570
 7310SOL    HW122829   5.099   3.235   0.492
 7310SOL    HW222830   5.166   3.223   0.641
 7311SOL     OW22831   1.431   6.625   5.585
 7311SOL    HW122832   1.524   6.599   5.558
 7311SOL    HW222833   1.376   6.543   5.599
 7312SOL     OW22834   5.339   1.666   4.765
 7312SOL    HW122835   5.366   1.654   4.670
 7312SOL    HW222836   5.349   1.762   4.791
 7313SOL     OW22837   3.403   1.011   2.868
 7313SOL    HW122838   3.392   0.993   2.966
 7313SOL    HW222839   3.431   0.927   2.821
 7314SOL     OW22840   2.859   5.710   4.981
 7314SOL    HW122841   2.792   5.785   4.986
 7314SOL    HW222842   2.812   5.623   4.997
 7315SOL     OW22843   2.660   4.958   2.303
 7315SOL    HW122844   2.576   4.919   2.342
 7315SOL    HW222845   2.736   4.942   2.366
 7316SOL     OW22846   2.901   0.996   2.521
 7316SOL    HW122847   2.808   1.005   2.484
 7316SOL    HW222848   2.959   0.951   2.453
 7317SOL     OW22849   5.356   1.307   1.100
 7317SOL    HW122850   5.291   1.354   1.160
 7317SOL    HW222851   5.317   1.297   1.009
 7318SOL     OW22852   4.790   0.100   1.591
 7318SOL    HW122853   4.795   0.188   1.543
 7318SOL    HW222854   4.880   0.079   1.631
 7319SOL     OW22855   4.645   5.157   6.025
 7319SOL    HW122856   4.585   5.139   6.102
 7319SOL    HW222857   4.602   5.223   5.963
 7320SOL     OW22858   1.796   3.066   0.733
 7320SOL    HW122859   1.720   3.023   0.684
 7320SOL    HW222860   1.795   3.036   0.828
 7321SOL     OW22861   2.320   2.525   5.236
 7321SOL    HW122862   2.267   2.464   5.177
 7321SOL    HW222863   2.352   2.603   5.183
 7322SOL     OW22864   2.752   2.123   4.050
 7322SOL    HW122865   2.683   2.153   3.984
 7322SOL    HW222866   2.843   2.148   4.017
 7323SOL     OW22867   2.311   2.036   6.938
 7323SOL    HW122868   2.249   2.114   6.952
 7323SOL    HW222869   2.368   2.053   6.858
 7324SOL     OW22870   5.958   3.751   5.607
 7324SOL    HW122871   5.958   3.663   5.560
 7324SOL    HW222872   6.049   3.792   5.601
 7325SOL     OW22873   3.447   0.869   6.954
 7325SOL    HW122874   3.500   0.853   0.014
 7325SOL    HW222875   3.376   0.798   6.945
 7326SOL     OW22876   3.902   6.873   0.460
 7326SOL    HW122877   3.808   6.841   0.442
 7326SOL    HW222878   3.918   6.958   0.409
 7327SOL     OW22879   2.142   5.068   3.394
 7327SOL    HW122880   2.225   5.122   3.384
 7327SOL    HW222881   2.138   5.029   3.486
 7328SOL     OW22882   4.133   5.996   0.162
 7328SOL    HW122883   4.232   6.010   0.163
 7328SOL    HW222884   4.112   5.898   0.160
 7329SOL     OW22885   2.633   3.852   6.605
 7329SOL    HW122886   2.698   3.926   6.586
 7329SOL    HW222887   2.559   3.887   6.662
 7330SOL     OW22888   2.727   3.399   1.652
 7330SOL    HW122889   2.631   3.375   1.664
 7330SOL    HW222890   2.736   3.472   1.584
 7331SOL     OW22891   5.425   1.838   2.794
 7331SOL    HW122892   5.525   1.836   2.799
 7331SOL    HW222893   5.396   1.919   2.742
 7332SOL     OW22894   1.475   0.145   4.955
 7332SOL    HW122895   1.506   0.235   4.986
 7332SOL    HW222896   1.375   0.143   4.951
 7333SOL     OW22897   6.411   1.495   1.361
 7333SOL    HW122898   6.429   1.397   1.363
 7333SOL    HW222899   6.312   1.511   1.369
 7334SOL     OW22900   0.673   5.003   5.012
 7334SOL    HW122901   0.716   5.093   5.017
 7334SOL    HW222902   0.579   5.013   4.978
 7335SOL     OW22903   6.865   2.484   1.078
 7335SOL    HW122904   6.938   2.522   1.021
 7335SOL    HW222905   6.776   2.513   1.042
 7336SOL     OW22906   2.178   0.001   1.136
 7336SOL    HW122907   2.206   0.044   1.050
 7336SOL    HW222908   2.258   6.994   1.186
 7337SOL     OW22909   2.875   1.603   1.730
 7337SOL    HW122910   2.883   1.646   1.820
 7337SOL    HW222911   2.963   1.564   1.704
 7338SOL     OW22912   5.221   2.205   6.995
 7338SOL    HW122913   5.265   2.281   6.948
 7338SOL    HW222914   5.123   2.223   7.006
 7339SOL     OW22915   6.857   6.506   3.405
 7339SOL    HW122916   6.951   6.506   3.371
 7339SOL    HW222917   6.849   6.443   3.482
 7340SOL     OW22918   2.851   0.189   0.139
 7340SOL    HW122919   2.917   0.184   0.214
 7340SOL    HW222920   2.765   0.147   0.167
 7341SOL     OW22921   5.490   5.358   3.096
 7341SOL    HW122922   5.422   5.419   3.055
 7341SOL    HW222923   5.572   5.357   3.039
 7342SOL     OW22924   6.923   4.746   6.809
 7342SOL    HW122925   6.960   4.660   6.775
 7342SOL    HW222926   6.995   4.815   6.815
 7343SOL     OW22927   0.224   1.952   3.430
 7343SOL    HW122928   0.231   1.854   3.450
 7343SOL    HW222929   0.283   2.002   3.493
 7344SOL     OW22930   1.552   1.496   5.506
 7344SOL    HW122931   1.479   1.539   5.560
 7344SOL    HW222932   1.520   1.480   5.413
 7345SOL     OW22933   1.782   6.654   6.653
 7345SOL    HW122934   1.803   6.642   6.556
 7345SOL    HW222935   1.683   6.648   6.667
 7346SOL     OW22936   3.164   5.631   3.237
 7346SOL    HW122937   3.251   5.583   3.248
 7346SOL    HW222938   3.143   5.682   3.321
 7347SOL     OW22939   6.075   2.776   3.552
 7347SOL    HW122940   6.102   2.770   3.648
 7347SOL    HW222941   6.079   2.872   3.522
 7348SOL     OW22942   5.329   6.996   6.439
 7348SOL    HW122943   5.278   0.036   6.498
 7348SOL    HW222944   5.309   7.017   6.343
 7349SOL     OW22945   3.790   1.785   1.063
 7349SOL    HW122946   3.866   1.754   1.120
 7349SOL    HW222947   3.789   1.885   1.060
 7350SOL     OW22948   1.338   1.523   2.260
 7350SOL    HW122949   1.270   1.464   2.304
 7350SOL    HW222950   1.409   1.467   2.218
 7351SOL     OW22951   6.162   5.032   0.270
 7351SOL    HW122952   6.181   5.130   0.267
 7351SOL    HW222953   6.214   4.986   0.197
 7352SOL     OW22954   6.470   1.761   2.781
 7352SOL    HW122955   6.527   1.685   2.752
 7352SOL    HW222956   6.478   1.836   2.715
 7353SOL     OW22957   5.367   1.806   4.023
 7353SOL    HW122958   5.379   1.800   3.924
 7353SOL    HW222959   5.405   1.893   4.055
 7354SOL     OW22960   5.853   4.452   5.445
 7354SOL    HW122961   5.877   4.545   5.416
 7354SOL    HW222962   5.908   4.427   5.525
 7355SOL     OW22963   7.009   5.569   0.511
 7355SOL    HW122964   0.030   5.479   0.518
 7355SOL    HW222965   6.921   5.560   0.464
 7356SOL     OW22966   6.939   2.300   6.456
 7356SOL    HW122967   6.857   2.277   6.402
 7356SOL    HW222968   6.950   2.232   6.529
 7357SOL     OW22969   1.222   0.848   1.530
 7357SOL    HW122970   1.168   0.768   1.506
 7357SOL    HW222971   1.162   0.927   1.541
 7358SOL     OW22972   3.759   1.392   3.715
 7358SOL    HW122973   3.751   1.352   3.806
 7358SOL    HW222974   3.761   1.319   3.646
 7359SOL     OW22975   3.295   3.965   4.171
 7359SOL    HW122976   3.279   3.938   4.076
 7359SOL    HW222977   3.342   4.053   4.173
 7360SOL     OW22978   1.899   5.031   5.838
 7360SOL    HW122979   1.901   5.017   5.937
 7360SOL    HW222980   1.960   4.966   5.793
 7361SOL     OW22981   4.529   0.083   1.399
 7361SOL    HW122982   4.521   7.009   1.380
 7361SOL    HW222983   4.596   0.097   1.472
 7362SOL     OW22984   1.603   4.674   0.664
 7362SOL    HW122985   1.672   4.613   0.703
 7362SOL    HW222986   1.581   4.746   0.730
 7363SOL     OW22987   5.236   2.553   6.098
 7363SOL    HW122988   5.272   2.478   6.153
 7363SOL    HW222989   5.187   2.617   6.157
 7364SOL     OW22990   4.659   6.182   0.022
 7364SOL    HW122991   4.695   6.125   6.971
 7364SOL    HW222992   4.699   6.153   0.109
 7365SOL     OW22993   5.549   0.088   1.904
 7365SOL    HW122994   5.620   0.140   1.858
 7365SOL    HW222995   5.476   0.066   1.839
 7366SOL     OW22996   3.413   6.984   0.166
 7366SOL    HW122997   3.500   6.948   0.134
 7366SOL    HW222998   3.385   6.935   0.249
 7367SOL     OW22999   4.955   3.434   6.126
 7367SOL    HW123000   4.969   3.335   6.137
 7367SOL    HW223001   5.004   3.483   6.198
 7368SOL     OW23002   3.431   2.872   5.319
 7368SOL    HW123003   3.529   2.872   5.302
 7368SOL    HW223004   3.391   2.788   5.284
 7369SOL     OW23005   0.332   6.398   6.324
 7369SOL    HW123006   0.331   6.451   6.409
 7369SOL    HW223007   0.335   6.461   6.246
 7370SOL     OW23008   6.836   5.502   1.100
 7370SOL    HW123009   6.775   5.515   1.178
 7370SOL    HW223010   6.811   5.418   1.051
 7371SOL     OW23011   2.366   5.228   3.357
 7371SOL    HW123012   2.352   5.307   3.297
 7371SOL    HW223013   2.463   5.220   3.380
 7372SOL     OW23014   1.892   6.945   5.247
 7372SOL    HW123015   1.886   0.012   5.204
 7372SOL    HW223016   1.819   6.936   5.315
 7373SOL     OW23017   4.244   1.388   0.676
 7373SOL    HW123018   4.182   1.463   0.700
 7373SOL    HW223019   4.336   1.424   0.661
 7374SOL     OW23020   2.503   3.948   0.899
 7374SOL    HW123021   2.571   3.969   0.969
 7374SOL    HW223022   2.418   3.918   0.943
 7375SOL     OW23023   2.265   5.510   2.094
 7375SOL    HW123024   2.233   5.510   1.999
 7375SOL    HW223025   2.349   5.455   2.101
 7376SOL     OW23026   3.086   4.906   0.443
 7376SOL    HW123027   3.060   5.003   0.451
 7376SOL    HW223028   3.074   4.862   0.532
 7377SOL     OW23029   4.647   6.313   1.386
 7377SOL    HW123030   4.648   6.379   1.311
 7377SOL    HW223031   4.618   6.224   1.352
 7378SOL     OW23032   1.097   1.460   6.360
 7378SOL    HW123033   1.069   1.365   6.342
 7378SOL    HW223034   1.029   1.503   6.420
 7379SOL     OW23035   4.804   0.956   6.951
 7379SOL    HW123036   4.722   0.911   6.985
 7379SOL    HW223037   4.799   1.054   6.970
 7380SOL     OW23038   0.421   3.392   6.380
 7380SOL    HW123039   0.497   3.328   6.371
 7380SOL    HW223040   0.396   3.400   6.476
 7381SOL     OW23041   5.738   2.845   0.526
 7381SOL    HW123042   5.727   2.944   0.535
 7381SOL    HW223043   5.739   2.820   0.429
 7382SOL     OW23044   0.920   5.797   3.905
 7382SOL    HW123045   0.970   5.746   3.975
 7382SOL    HW223046   0.941   5.758   3.815
 7383SOL     OW23047   1.455   5.004   1.827
 7383SOL    HW123048   1.512   4.922   1.828
 7383SOL    HW223049   1.423   5.020   1.734
 7384SOL     OW23050   5.847   0.605   1.686
 7384SOL    HW123051   5.920   0.616   1.619
 7384SOL    HW223052   5.796   0.691   1.694
 7385SOL     OW23053   5.287   6.923   2.080
 7385SOL    HW123054   5.277   7.013   2.037
 7385SOL    HW223055   5.208   6.867   2.056
 7386SOL     OW23056   5.816   1.629   5.107
 7386SOL    HW123057   5.804   1.542   5.155
 7386SOL    HW223058   5.748   1.695   5.139
 7387SOL     OW23059   5.388   5.636   4.550
 7387SOL    HW123060   5.443   5.553   4.563
 7387SOL    HW223061   5.399   5.670   4.457
 7388SOL     OW23062   4.995   4.027   4.148
 7388SOL    HW123063   5.025   3.932   4.162
 7388SOL    HW223064   4.981   4.043   4.050
 7389SOL     OW23065   2.290   3.764   5.992
 7389SOL    HW123066   2.358   3.837   5.996
 7389SOL    HW223067   2.272   3.741   5.896
 7390SOL     OW23068   4.287   5.784   0.805
 7390SOL    HW123069   4.261   5.802   0.900
 7390SOL    HW223070   4.242   5.700   0.774
 7391SOL     OW23071   0.018   4.622   0.733
 7391SOL    HW123072   7.000   4.672   0.810
 7391SOL    HW223073   0.117   4.638   0.732
 7392SOL     OW23074   1.344   4.735   1.594
 7392SOL    HW123075   1.305   4.756   1.504
 7392SOL    HW223076   1.399   4.652   1.588
 7393SOL     OW23077   1.854   3.653   0.552
 7393SOL    HW123078   1.780   3.675   0.615
 7393SOL    HW223079   1.909   3.577   0.588
 7394SOL     OW23080   2.917   4.240   7.006
 7394SOL    HW123081   2.823   4.250   0.014
 7394SOL    HW223082   2.924   4.268   6.910
 7395SOL     OW23083   2.688   7.012   0.775
 7395SOL    HW123084   2.672   0.041   0.691
 7395SOL    HW223085   2.752   6.938   0.756
 7396SOL     OW23086   6.465   6.882   2.504
 7396SOL    HW123087   6.463   6.887   2.405
 7396SOL    HW223088   6.559   6.872   2.536
 7397SOL     OW23089   5.912   3.942   3.877
 7397SOL    HW123090   5.868   3.863   3.921
 7397SOL    HW223091   5.868   4.026   3.909
 7398SOL     OW23092   4.296   5.310   3.136
 7398SOL    HW123093   4.331   5.236   3.078
 7398SOL    HW223094   4.349   5.314   3.220
 7399SOL     OW23095   4.728   6.418   3.944
 7399SOL    HW123096   4.796   6.455   3.882
 7399SOL    HW223097   4.744   6.320   3.956
 7400SOL     OW23098   2.325   4.921   6.693
 7400SOL    HW123099   2.391   4.919   6.618
 7400SOL    HW223100   2.232   4.911   6.657
 7401SOL     OW23101   6.754   3.166   3.915
 7401SOL    HW123102   6.814   3.246   3.920
 7401SOL    HW223103   6.757   3.128   3.822
 7402SOL     OW23104   1.791   6.073   5.142
 7402SOL    HW123105   1.817   5.981   5.171
 7402SOL    HW223106   1.873   6.130   5.135
 7403SOL     OW23107   2.018   3.075   1.678
 7403SOL    HW123108   2.011   3.175   1.685
 7403SOL    HW223109   2.015   3.048   1.582
 7404SOL     OW23110   1.501   2.688   2.845
 7404SOL    HW123111   1.514   2.744   2.927
 7404SOL    HW223112   1.530   2.739   2.764
 7405SOL     OW23113   3.591   5.785   5.797
 7405SOL    HW123114   3.507   5.817   5.840
 7405SOL    HW223115   3.571   5.755   5.704
 7406SOL     OW23116   5.796   5.600   2.812
 7406SOL    HW123117   5.762   5.662   2.882
 7406SOL    HW223118   5.739   5.518   2.809
 7407SOL     OW23119   4.341   1.630   5.791
 7407SOL    HW123120   4.427   1.611   5.838
 7407SOL    HW223121   4.333   1.729   5.775
 7408SOL     OW23122   0.623   3.495   5.178
 7408SOL    HW123123   0.649   3.471   5.084
 7408SOL    HW223124   0.643   3.592   5.194
 7409SOL     OW23125   2.144   0.073   4.337
 7409SOL    HW123126   2.061   0.118   4.302
 7409SOL    HW223127   2.148   7.002   4.303
 7410SOL     OW23128   4.044   5.371   5.680
 7410SOL    HW123129   4.008   5.299   5.739
 7410SOL    HW223130   4.106   5.331   5.613
 7411SOL     OW23131   5.763   3.266   5.370
 7411SOL    HW123132   5.679   3.258   5.315
 7411SOL    HW223133   5.838   3.296   5.312
 7412SOL     OW23134   1.093   0.803   0.535
 7412SOL    HW123135   1.022   0.791   0.603
 7412SOL    HW223136   1.089   0.728   0.469
 7413SOL     OW23137   6.662   3.606   3.333
 7413SOL    HW123138   6.673   3.677   3.403
 7413SOL    HW223139   6.589   3.633   3.270
 7414SOL     OW23140   0.210   5.124   2.444
 7414SOL    HW123141   0.168   5.132   2.353
 7414SOL    HW223142   0.309   5.123   2.434
 7415SOL     OW23143   2.804   1.296   3.297
 7415SOL    HW123144   2.715   1.298   3.343
 7415SOL    HW223145   2.800   1.351   3.214
 7416SOL     OW23146   6.436   0.404   1.843
 7416SOL    HW123147   6.405   0.310   1.844
 7416SOL    HW223148   6.519   0.412   1.787
 7417SOL     OW23149   0.328   5.491   1.512
 7417SOL    HW123150   0.382   5.476   1.595
 7417SOL    HW223151   0.386   5.537   1.444
 7418SOL     OW23152   2.110   3.036   0.902
 7418SOL    HW123153   2.158   2.961   0.949
 7418SOL    HW223154   2.012   3.026   0.917
 7419SOL     OW23155   5.972   2.108   5.543
 7419SOL    HW123156   6.070   2.118   5.527
 7419SOL    HW223157   5.949   2.147   5.632
 7420SOL     OW23158   0.933   6.777   2.074
 7420SOL    HW123159   0.904   6.826   1.992
 7420SOL    HW223160   0.855   6.762   2.134
 7421SOL     OW23161   4.924   2.090   1.490
 7421SOL    HW123162   5.014   2.047   1.488
 7421SOL    HW223163   4.857   2.026   1.526
 7422SOL     OW23164   1.457   2.063   0.290
 7422SOL    HW123165   1.416   2.027   0.206
 7422SOL    HW223166   1.459   1.991   0.359
 7423SOL     OW23167   3.100   3.964   0.633
 7423SOL    HW123168   3.030   3.988   0.701
 7423SOL    HW223169   3.063   3.980   0.541
 7424SOL     OW23170   5.584   6.673   3.629
 7424SOL    HW123171   5.579   6.759   3.681
 7424SOL    HW223172   5.603   6.598   3.692
 7425SOL     OW23173   4.313   6.864   4.935
 7425SOL    HW123174   4.308   6.950   4.884
 7425SOL    HW223175   4.378   6.874   5.010
 7426SOL     OW23176   0.018   0.149   6.310
 7426SOL    HW123177   0.051   0.121   6.220
 7426SOL    HW223178   0.011   0.249   6.314
 7427SOL     OW23179   5.108   4.806   6.369
 7427SOL    HW123180   5.129   4.746   6.292
 7427SOL    HW223181   5.015   4.841   6.359
 7428SOL     OW23182   5.692   1.875   4.941
 7428SOL    HW123183   5.650   1.801   4.994
 7428SOL    HW223184   5.626   1.948   4.927
 7429SOL     OW23185   5.606   6.492   3.065
 7429SOL    HW123186   5.664   6.444   3.000
 7429SOL    HW223187   5.520   6.443   3.076
 7430SOL     OW23188   0.475   4.451   4.422
 7430SOL    HW123189   0.428   4.499   4.348
 7430SOL    HW223190   0.560   4.499   4.445
 7431SOL     OW23191   0.079   3.984   3.171
 7431SOL    HW123192   0.020   3.909   3.139
 7431SOL    HW223193   0.111   3.963   3.264
 7432SOL     OW23194   2.061   6.320   5.954
 7432SOL    HW123195   2.014   6.265   6.023
 7432SOL    HW223196   2.038   6.285   5.863
 7433SOL     OW23197   0.944   6.734   1.074
 7433SOL    HW123198   0.959   6.652   1.129
 7433SOL    HW223199   0.981   6.720   0.983
 7434SOL     OW23200   4.593   0.042   0.385
 7434SOL    HW123201   4.678   0.091   0.367
 7434SOL    HW223202   4.604   6.969   0.358
 7435SOL     OW23203   1.269   4.178   6.981
 7435SOL    HW123204   1.203   4.186   6.907
 7435SOL    HW223205   1.330   4.101   6.964
 7436SOL     OW23206   5.132   3.562   6.409
 7436SOL    HW123207   5.196   3.558   6.485
 7436SOL    HW223208   5.180   3.542   6.323
 7437SOL     OW23209   6.563   6.603   5.442
 7437SOL    HW123210   6.661   6.595   5.420
 7437SOL    HW223211   6.540   6.541   5.517
 7438SOL     OW23212   6.695   3.970   0.963
 7438SOL    HW123213   6.721   3.947   0.870
 7438SOL    HW223214   6.747   3.914   1.027
 7439SOL     OW23215   1.595   6.335   2.677
 7439SOL    HW123216   1.572   6.238   2.668
 7439SOL    HW223217   1.511   6.389   2.679
 7440SOL     OW23218   1.440   0.419   4.707
 7440SOL    HW123219   1.358   0.445   4.759
 7440SOL    HW223220   1.516   0.479   4.732
 7441SOL     OW23221   6.711   1.493   3.387
 7441SOL    HW123222   6.726   1.577   3.335
 7441SOL    HW223223   6.793   1.470   3.438
 7442SOL     OW23224   1.719   0.837   0.230
 7442SOL    HW123225   1.710   0.788   0.144
 7442SOL    HW223226   1.631   0.838   0.278
 7443SOL     OW23227   5.936   1.286   1.274
 7443SOL    HW123228   5.867   1.313   1.341
 7443SOL    HW223229   6.004   1.227   1.319
 7444SOL     OW23230   2.263   2.605   4.795
 7444SOL    HW123231   2.349   2.578   4.838
 7444SOL    HW223232   2.206   2.525   4.781
 7445SOL     OW23233   6.211   2.594   2.440
 7445SOL    HW123234   6.261   2.540   2.507
 7445SOL    HW223235   6.164   2.670   2.486
 7446SOL     OW23236   4.457   4.522   2.548
 7446SOL    HW123237   4.516   4.456   2.502
 7446SOL    HW223238   4.372   4.477   2.577
 7447SOL     OW23239   1.816   3.077   6.135
 7447SOL    HW123240   1.808   3.177   6.137
 7447SOL    HW223241   1.803   3.045   6.041
 7448SOL     OW23242   6.872   1.152   5.655
 7448SOL    HW123243   6.775   1.135   5.671
 7448SOL    HW223244   6.920   1.065   5.643
 7449SOL     OW23245   3.186   1.368   2.979
 7449SOL    HW123246   3.198   1.362   3.078
 7449SOL    HW223247   3.130   1.449   2.957
 7450SOL     OW23248   3.826   2.015   1.791
 7450SOL    HW123249   3.827   2.043   1.695
 7450SOL    HW223250   3.770   2.080   1.843
 7451SOL     OW23251   0.771   0.701   1.790
 7451SOL    HW123252   0.811   0.623   1.838
 7451SOL    HW223253   0.712   0.668   1.717
 7452SOL     OW23254   2.032   5.604   2.855
 7452SOL    HW123255   2.080   5.654   2.927
 7452SOL    HW223256   1.933   5.611   2.871
 7453SOL     OW23257   6.274   4.251   4.705
 7453SOL    HW123258   6.255   4.346   4.729
 7453SOL    HW223259   6.304   4.246   4.610
 7454SOL     OW23260   2.944   1.959   0.205
 7454SOL    HW123261   2.875   1.949   0.276
 7454SOL    HW223262   2.957   2.056   0.184
 7455SOL     OW23263   4.899   6.847   0.333
 7455SOL    HW123264   4.816   6.881   0.290
 7455SOL    HW223265   4.878   6.767   0.388
 7456SOL     OW23266   1.691   2.837   6.495
 7456SOL    HW123267   1.664   2.839   6.592
 7456SOL    HW223268   1.770   2.777   6.484
 7457SOL     OW23269   0.447   6.451   5.125
 7457SOL    HW123270   0.458   6.547   5.097
 7457SOL    HW223271   0.394   6.448   5.210
 7458SOL     OW23272   3.138   0.455   1.729
 7458SOL    HW123273   3.201   0.401   1.673
 7458SOL    HW223274   3.090   0.520   1.671
 7459SOL     OW23275   3.847   4.988   3.689
 7459SOL    HW123276   3.925   4.928   3.677
 7459SOL    HW223277   3.874   5.068   3.742
 7460SOL     OW23278   1.323   4.750   6.076
 7460SOL    HW123279   1.322   4.684   6.151
 7460SOL    HW223280   1.409   4.742   6.025
 7461SOL     OW23281   3.406   1.786   3.978
 7461SOL    HW123282   3.494   1.737   3.978
 7461SOL    HW223283   3.391   1.827   3.888
 7462SOL     OW23284   1.372   2.428   3.962
 7462SOL    HW123285   1.318   2.359   3.914
 7462SOL    HW223286   1.343   2.433   4.057
 7463SOL     OW23287   3.751   3.720   2.508
 7463SOL    HW123288   3.824   3.673   2.457
 7463SOL    HW223289   3.788   3.803   2.550
 7464SOL     OW23290   4.518   5.383   0.764
 7464SOL    HW123291   4.556   5.456   0.707
 7464SOL    HW223292   4.588   5.313   0.779
 7465SOL     OW23293   2.969   1.237   2.617
 7465SOL    HW123294   2.934   1.153   2.576
 7465SOL    HW223295   3.046   1.214   2.678
 7466SOL     OW23296   7.006   6.330   0.780
 7466SOL    HW123297   6.953   6.245   0.783
 7466SOL    HW223298   6.960   6.399   0.835
 7467SOL     OW23299   4.219   2.480   0.806
 7467SOL    HW123300   4.256   2.557   0.858
 7467SOL    HW223301   4.140   2.442   0.854
 7468SOL     OW23302   5.135   5.120   4.613
 7468SOL    HW123303   5.066   5.150   4.679
 7468SOL    HW223304   5.092   5.064   4.543
 7469SOL     OW23305   5.181   2.139   0.795
 7469SOL    HW123306   5.139   2.202   0.729
 7469SOL    HW223307   5.274   2.118   0.767
 7470SOL     OW23308   0.757   3.437   3.043
 7470SOL    HW123309   0.855   3.418   3.043
 7470SOL    HW223310   0.715   3.399   3.125
 7471SOL     OW23311   6.982   4.297   5.831
 7471SOL    HW123312   0.028   4.363   5.861
 7471SOL    HW223313   7.015   4.204   5.851
 7472SOL     OW23314   3.627   5.922   2.980
 7472SOL    HW123315   3.596   6.009   3.021
 7472SOL    HW223316   3.627   5.851   3.050
 7473SOL     OW23317   1.726   1.940   6.070
 7473SOL    HW123318   1.659   1.888   6.019
 7473SOL    HW223319   1.814   1.938   6.022
 7474SOL     OW23320   2.171   1.301   1.984
 7474SOL    HW123321   2.233   1.342   1.917
 7474SOL    HW223322   2.210   1.309   2.076
 7475SOL     OW23323   5.523   1.094   6.216
 7475SOL    HW123324   5.457   1.042   6.271
 7475SOL    HW223325   5.484   1.111   6.126
 7476SOL     OW23326   1.713   6.710   4.672
 7476SOL    HW123327   1.631   6.669   4.631
 7476SOL    HW223328   1.686   6.767   4.750
 7477SOL     OW23329   4.779   4.116   4.966
 7477SOL    HW123330   4.841   4.194   4.959
 7477SOL    HW223331   4.746   4.108   5.060
 7478SOL     OW23332   6.847   3.929   1.379
 7478SOL    HW123333   6.800   4.017   1.385
 7478SOL    HW223334   6.876   3.912   1.285
 7479SOL     OW23335   3.917   0.161   4.571
 7479SOL    HW123336   3.972   0.136   4.491
 7479SOL    HW223337   3.822   0.134   4.555
 7480SOL     OW23338   5.791   4.987   0.124
 7480SOL    HW123339   5.697   5.019   0.139
 7480SOL    HW223340   5.809   4.984   0.026
 7481SOL     OW23341   5.905   6.887   0.145
 7481SOL    HW123342   5.844   6.950   0.194
 7481SOL    HW223343   5.958   6.834   0.212
 7482SOL     OW23344   5.045   0.406   5.294
 7482SOL    HW123345   4.973   0.393   5.226
 7482SOL    HW223346   5.014   0.472   5.363
 7483SOL     OW23347   3.918   6.869   6.400
 7483SOL    HW123348   3.858   6.946   6.378
 7483SOL    HW223349   3.925   6.858   6.499
 7484SOL     OW23350   3.224   6.127   0.522
 7484SOL    HW123351   3.146   6.070   0.497
 7484SOL    HW223352   3.305   6.069   0.533
 7485SOL     OW23353   1.199   0.383   5.277
 7485SOL    HW123354   1.223   0.480   5.272
 7485SOL    HW223355   1.104   0.370   5.251
 7486SOL     OW23356   1.593   2.317   4.787
 7486SOL    HW123357   1.605   2.391   4.721
 7486SOL    HW223358   1.661   2.324   4.860
 7487SOL     OW23359   1.726   6.381   2.296
 7487SOL    HW123360   1.812   6.379   2.245
 7487SOL    HW223361   1.745   6.393   2.394
 7488SOL     OW23362   4.611   2.291   4.752
 7488SOL    HW123363   4.683   2.357   4.773
 7488SOL    HW223364   4.535   2.339   4.707
 7489SOL     OW23365   1.376   3.402   3.332
 7489SOL    HW123366   1.300   3.336   3.337
 7489SOL    HW223367   1.462   3.353   3.323
 7490SOL     OW23368   5.600   0.617   2.434
 7490SOL    HW123369   5.654   0.533   2.444
 7490SOL    HW223370   5.522   0.614   2.497
 7491SOL     OW23371   0.923   7.006   1.278
 7491SOL    HW123372   0.874   6.924   1.251
 7491SOL    HW223373   0.882   0.063   1.234
 7492SOL     OW23374   1.381   2.076   2.720
 7492SOL    HW123375   1.291   2.098   2.682
 7492SOL    HW223376   1.444   2.152   2.702
 7493SOL     OW23377   5.842   4.148   0.054
 7493SOL    HW123378   5.877   4.190   0.138
 7493SOL    HW223379   5.745   4.126   0.066
 7494SOL     OW23380   4.809   2.490   0.647
 7494SOL    HW123381   4.807   2.390   0.642
 7494SOL    HW223382   4.888   2.519   0.700
 7495SOL     OW23383   1.195   1.689   3.455
 7495SOL    HW123384   1.217   1.785   3.468
 7495SOL    HW223385   1.102   1.671   3.489
 7496SOL     OW23386   0.010   4.976   6.058
 7496SOL    HW123387   0.036   4.909   5.988
 7496SOL    HW223388   0.042   5.067   6.031
 7497SOL     OW23389   0.424   4.383   3.048
 7497SOL    HW123390   0.403   4.286   3.044
 7497SOL    HW223391   0.500   4.398   3.113
 7498SOL     OW23392   4.876   1.569   4.229
 7498SOL    HW123393   4.807   1.640   4.242
 7498SOL    HW223394   4.847   1.485   4.273
 7499SOL     OW23395   3.375   4.919   3.609
 7499SOL    HW123396   3.343   5.014   3.606
 7499SOL    HW223397   3.455   4.912   3.667
 7500SOL     OW23398   4.978   3.986   1.463
 7500SOL    HW123399   4.996   3.937   1.548
 7500SOL    HW223400   4.925   4.069   1.482
 7501SOL     OW23401   1.239   4.375   3.582
 7501SOL    HW123402   1.144   4.371   3.551
 7501SOL    HW223403   1.290   4.299   3.542
 7502SOL     OW23404   1.289   1.940   4.892
 7502SOL    HW123405   1.319   1.947   4.796
 7502SOL    HW223406   1.232   2.018   4.915
 7503SOL     OW23407   2.343   2.175   0.889
 7503SOL    HW123408   2.261   2.190   0.945
 7503SOL    HW223409   2.420   2.225   0.928
 7504SOL     OW23410   5.401   5.180   6.046
 7504SOL    HW123411   5.414   5.095   5.996
 7504SOL    HW223412   5.403   5.162   6.144
 7505SOL     OW23413   1.395   1.675   3.097
 7505SOL    HW123414   1.360   1.760   3.057
 7505SOL    HW223415   1.322   1.607   3.100
 7506SOL     OW23416   3.671   0.720   3.225
 7506SOL    HW123417   3.635   0.674   3.307
 7506SOL    HW223418   3.766   0.747   3.241
 7507SOL     OW23419   1.989   6.258   5.157
 7507SOL    HW123420   2.011   6.335   5.097
 7507SOL    HW223421   1.942   6.292   5.239
 7508SOL     OW23422   4.823   5.914   3.341
 7508SOL    HW123423   4.788   6.008   3.351
 7508SOL    HW223424   4.778   5.870   3.263
 7509SOL     OW23425   2.488   4.412   6.500
 7509SOL    HW123426   2.475   4.321   6.539
 7509SOL    HW223427   2.577   4.448   6.528
 7510SOL     OW23428   3.498   2.971   4.058
 7510SOL    HW123429   3.489   3.070   4.049
 7510SOL    HW223430   3.449   2.927   3.983
 7511SOL     OW23431   1.387   1.174   1.956
 7511SOL    HW123432   1.423   1.125   1.877
 7511SOL    HW223433   1.295   1.208   1.935
 7512SOL     OW23434   1.515   3.110   2.548
 7512SOL    HW123435   1.452   3.034   2.559
 7512SOL    HW223436   1.490   3.163   2.466
 7513SOL     OW23437   2.238   3.264   0.067
 7513SOL    HW123438   2.170   3.223   0.127
 7513SOL    HW223439   2.308   3.309   0.122
 7514SOL     OW23440   3.185   5.188   3.112
 7514SOL    HW123441   3.174   5.094   3.144
 7514SOL    HW223442   3.216   5.187   3.017
 7515SOL     OW23443   6.691   5.261   3.579
 7515SOL    HW123444   6.714   5.317   3.659
 7515SOL    HW223445   6.613   5.301   3.532
 7516SOL     OW23446   1.589   3.304   1.014
 7516SOL    HW123447   1.602   3.312   0.916
 7516SOL    HW223448   1.546   3.216   1.035
 7517SOL     OW23449   1.397   5.644   2.477
 7517SOL    HW123450   1.411   5.606   2.386
 7517SOL    HW223451   1.485   5.655   2.523
 7518SOL     OW23452   4.946   3.704   2.040
 7518SOL    HW123453   4.868   3.641   2.048
 7518SOL    HW223454   4.918   3.795   2.070
 7519SOL     OW23455   1.940   0.543   4.614
 7519SOL    HW123456   2.012   0.495   4.563
 7519SOL    HW223457   1.981   0.593   4.690
 7520SOL     OW23458   1.685   0.145   4.497
 7520SOL    HW123459   1.650   0.052   4.482
 7520SOL    HW223460   1.612   0.211   4.478
 7521SOL     OW23461   3.872   2.434   5.706
 7521SOL    HW123462   3.891   2.415   5.802
 7521SOL    HW223463   3.959   2.443   5.656
 7522SOL     OW23464   1.870   6.778   2.147
 7522SOL    HW123465   1.841   6.699   2.201
 7522SOL    HW223466   1.796   6.806   2.086
 7523SOL     OW23467   6.865   5.744   6.357
 7523SOL    HW123468   6.856   5.786   6.447
 7523SOL    HW223469   6.907   5.654   6.365
 7524SOL     OW23470   6.067   2.410   6.070
 7524SOL    HW123471   6.010   2.470   6.013
 7524SOL    HW223472   6.103   2.335   6.015
 7525SOL     OW23473   0.469   0.183   0.444
 7525SOL    HW123474   0.426   0.226   0.365
 7525SOL    HW223475   0.472   0.248   0.520
 7526SOL     OW23476   3.880   3.294   5.418
 7526SOL    HW123477   3.806   3.249   5.368
 7526SOL    HW223478   3.875   3.270   5.515
 7527SOL     OW23479   2.341   6.409   1.402
 7527SOL    HW123480   2.418   6.391   1.464
 7527SOL    HW223481   2.279   6.331   1.402
 7528SOL     OW23482   5.842   2.045   0.378
 7528SOL    HW123483   5.933   2.028   0.417
 7528SOL    HW223484   5.786   2.092   0.447
 7529SOL     OW23485   0.927   0.261   4.164
 7529SOL    HW123486   0.839   0.216   4.178
 7529SOL    HW223487   0.988   0.200   4.115
 7530SOL     OW23488   0.326   3.337   2.779
 7530SOL    HW123489   0.416   3.365   2.812
 7530SOL    HW223490   0.305   3.385   2.693
 7531SOL     OW23491   1.575   2.528   4.211
 7531SOL    HW123492   1.589   2.438   4.254
 7531SOL    HW223493   1.478   2.550   4.213
 7532SOL     OW23494   4.592   4.434   2.296
 7532SOL    HW123495   4.687   4.460   2.276
 7532SOL    HW223496   4.559   4.374   2.223
 7533SOL     OW23497   3.780   0.023   4.967
 7533SOL    HW123498   3.780   6.956   5.011
 7533SOL    HW223499   3.873   0.049   4.944
 7534SOL     OW23500   4.413   6.563   4.192
 7534SOL    HW123501   4.409   6.527   4.285
 7534SOL    HW223502   4.507   6.555   4.158
 7535SOL     OW23503   2.929   4.294   6.732
 7535SOL    HW123504   2.867   4.350   6.678
 7535SOL    HW223505   3.023   4.310   6.702
 7536SOL     OW23506   4.773   5.138   6.946
 7536SOL    HW123507   4.839   5.076   6.988
 7536SOL    HW223508   4.815   5.182   6.867
 7537SOL     OW23509   2.047   4.656   5.017
 7537SOL    HW123510   1.953   4.683   5.036
 7537SOL    HW223511   2.048   4.574   4.960
 7538SOL     OW23512   3.554   3.869   5.347
 7538SOL    HW123513   3.622   3.796   5.359
 7538SOL    HW223514   3.593   3.942   5.290
 7539SOL     OW23515   1.505   3.021   4.092
 7539SOL    HW123516   1.434   2.960   4.060
 7539SOL    HW223517   1.593   2.995   4.051
 7540SOL     OW23518   3.053   1.079   0.324
 7540SOL    HW123519   3.128   1.016   0.343
 7540SOL    HW223520   3.030   1.128   0.408
 7541SOL     OW23521   0.563   1.835   6.084
 7541SOL    HW123522   0.492   1.875   6.143
 7541SOL    HW223523   0.519   1.785   6.009
 7542SOL     OW23524   1.807   0.475   4.351
 7542SOL    HW123525   1.833   0.507   4.441
 7542SOL    HW223526   1.707   0.472   4.344
 7543SOL     OW23527   2.301   2.489   2.015
 7543SOL    HW123528   2.277   2.427   2.091
 7543SOL    HW223529   2.401   2.492   2.005
 7544SOL     OW23530   0.986   2.370   2.508
 7544SOL    HW123531   1.044   2.440   2.467
 7544SOL    HW223532   0.967   2.299   2.440
 7545SOL     OW23533   3.912   0.333   4.093
 7545SOL    HW123534   3.888   0.414   4.041
 7545SOL    HW223535   3.956   0.359   4.179
 7546SOL     OW23536   4.772   6.764   4.663
 7546SOL    HW123537   4.835   6.794   4.734
 7546SOL    HW223538   4.685   6.737   4.705
 7547SOL     OW23539   1.772   6.620   1.037
 7547SOL    HW123540   1.824   6.704   1.054
 7547SOL    HW223541   1.777   6.561   1.118
 7548SOL     OW23542   2.810   3.990   0.937
 7548SOL    HW123543   2.794   3.918   0.868
 7548SOL    HW223544   2.766   3.963   1.023
 7549SOL     OW23545   5.904   6.844   2.470
 7549SOL    HW123546   5.847   6.926   2.470
 7549SOL    HW223547   5.916   6.811   2.563
 7550SOL     OW23548   0.782   5.718   0.516
 7550SOL    HW123549   0.700   5.734   0.462
 7550SOL    HW223550   0.811   5.622   0.505
 7551SOL     OW23551   4.718   3.967   5.820
 7551SOL    HW123552   4.801   3.917   5.800
 7551SOL    HW223553   4.653   3.907   5.867
 7552SOL     OW23554   3.571   5.643   4.584
 7552SOL    HW123555   3.517   5.560   4.595
 7552SOL    HW223556   3.520   5.721   4.621
 7553SOL     OW23557   4.261   4.431   5.575
 7553SOL    HW123558   4.268   4.386   5.486
 7553SOL    HW223559   4.166   4.458   5.592
 7554SOL     OW23560   6.589   0.879   0.836
 7554SOL    HW123561   6.602   0.969   0.795
 7554SOL    HW223562   6.605   0.885   0.935
 7555SOL     OW23563   2.673   6.762   6.723
 7555SOL    HW123564   2.714   6.828   6.786
 7555SOL    HW223565   2.618   6.696   6.775
 7556SOL     OW23566   0.416   4.084   2.812
 7556SOL    HW123567   0.337   4.081   2.751
 7556SOL    HW223568   0.493   4.039   2.769
 7557SOL     OW23569   4.707   4.432   0.755
 7557SOL    HW123570   4.701   4.357   0.689
 7557SOL    HW223571   4.660   4.406   0.839
 7558SOL     OW23572   1.625   3.667   3.513
 7558SOL    HW123573   1.703   3.683   3.573
 7558SOL    HW223574   1.575   3.586   3.543
 7559SOL     OW23575   0.886   5.168   0.267
 7559SOL    HW123576   0.789   5.185   0.248
 7559SOL    HW223577   0.929   5.124   0.188
 7560SOL     OW23578   4.414   0.340   5.839
 7560SOL    HW123579   4.406   0.420   5.899
 7560SOL    HW223580   4.366   0.263   5.880
 7561SOL     OW23581   1.624   2.921   0.581
 7561SOL    HW123582   1.641   2.927   0.482
 7561SOL    HW223583   1.531   2.890   0.597
 7562SOL     OW23584   4.536   6.153   5.350
 7562SOL    HW123585   4.483   6.223   5.397
 7562SOL    HW223586   4.631   6.183   5.341
 7563SOL     OW23587   2.484   1.522   3.385
 7563SOL    HW123588   2.387   1.530   3.406
 7563SOL    HW223589   2.515   1.430   3.409
 7564SOL     OW23590   6.503   5.667   3.852
 7564SOL    HW123591   6.548   5.752   3.878
 7564SOL    HW223592   6.556   5.621   3.780
 7565SOL     OW23593   4.728   4.933   6.656
 7565SOL    HW123594   4.691   4.920   6.748
 7565SOL    HW223595   4.689   4.863   6.595
 7566SOL     OW23596   1.644   5.718   3.829
 7566SOL    HW123597   1.697   5.648   3.877
 7566SOL    HW223598   1.672   5.808   3.862
 7567SOL     OW23599   3.041   3.977   0.379
 7567SOL    HW123600   2.964   4.039   0.396
 7567SOL    HW223601   3.057   3.970   0.281
 7568SOL     OW23602   4.135   4.795   4.517
 7568SOL    HW123603   4.155   4.869   4.582
 7568SOL    HW223604   4.046   4.811   4.475
 7569SOL     OW23605   3.415   0.065   2.618
 7569SOL    HW123606   3.506   0.041   2.586
 7569SOL    HW223607   3.357   0.087   2.539
 7570SOL     OW23608   6.247   5.288   5.117
 7570SOL    HW123609   6.193   5.234   5.053
 7570SOL    HW223610   6.240   5.248   5.208
 7571SOL     OW23611   6.768   4.385   0.483
 7571SOL    HW123612   6.838   4.379   0.555
 7571SOL    HW223613   6.705   4.308   0.493
 7572SOL     OW23614   5.776   1.120   3.727
 7572SOL    HW123615   5.874   1.141   3.730
 7572SOL    HW223616   5.753   1.061   3.805
 7573SOL     OW23617   2.995   4.920   3.839
 7573SOL    HW123618   2.987   4.824   3.864
 7573SOL    HW223619   2.965   4.977   3.915
 7574SOL     OW23620   4.110   6.073   1.520
 7574SOL    HW123621   4.115   5.977   1.548
 7574SOL    HW223622   4.016   6.106   1.533
 7575SOL     OW23623   4.858   3.515   3.751
 7575SOL    HW123624   4.887   3.442   3.813
 7575SOL    HW223625   4.773   3.489   3.706
 7576SOL     OW23626   0.202   4.408   1.804
 7576SOL    HW123627   0.296   4.374   1.803
 7576SOL    HW223628   0.161   4.395   1.713
 7577SOL     OW23629   3.700   1.280   3.962
 7577SOL    HW123630   3.634   1.213   3.927
 7577SOL    HW223631   3.695   1.282   4.061
 7578SOL     OW23632   2.110   5.251   5.808
 7578SOL    HW123633   2.058   5.189   5.867
 7578SOL    HW223634   2.132   5.205   5.722
 7579SOL     OW23635   4.257   2.251   4.644
 7579SOL    HW123636   4.257   2.247   4.544
 7579SOL    HW223637   4.162   2.246   4.676
 7580SOL     OW23638   1.714   3.224   2.697
 7580SOL    HW123639   1.649   3.180   2.635
 7580SOL    HW223640   1.730   3.164   2.775
 7581SOL     OW23641   5.623   0.876   1.194
 7581SOL    HW123642   5.533   0.921   1.190
 7581SOL    HW223643   5.676   0.915   1.270
 7582SOL     OW23644   3.883   3.177   1.523
 7582SOL    HW123645   3.807   3.123   1.558
 7582SOL    HW223646   3.867   3.198   1.426
 7583SOL     OW23647   6.045   4.273   3.647
 7583SOL    HW123648   6.044   4.289   3.746
 7583SOL    HW223649   6.061   4.360   3.600
 7584SOL     OW23650   1.604   2.759   2.103
 7584SOL    HW123651   1.596   2.760   2.003
 7584SOL    HW223652   1.541   2.825   2.142
 7585SOL     OW23653   3.276   3.788   0.486
 7585SOL    HW123654   3.213   3.836   0.548
 7585SOL    HW223655   3.230   3.769   0.400
 7586SOL     OW23656   1.805   2.753   3.049
 7586SOL    HW123657   1.738   2.685   3.078
 7586SOL    HW223658   1.853   2.721   2.968
 7587SOL     OW23659   3.017   0.602   5.419
 7587SOL    HW123660   2.994   0.646   5.332
 7587SOL    HW223661   3.035   0.505   5.404
 7588SOL     OW23662   0.089   4.381   1.542
 7588SOL    HW123663   0.143   4.322   1.483
 7588SOL    HW223664   0.107   4.476   1.521
 7589SOL     OW23665   4.563   5.623   6.255
 7589SOL    HW123666   4.491   5.643   6.189
 7589SOL    HW223667   4.536   5.657   6.345
 7590SOL     OW23668   2.363   0.725   5.227
 7590SOL    HW123669   2.303   0.666   5.174
 7590SOL    HW223670   2.333   0.727   5.322
 7591SOL     OW23671   0.164   5.706   6.178
 7591SOL    HW123672   0.235   5.770   6.205
 7591SOL    HW223673   0.157   5.702   6.079
 7592SOL     OW23674   4.646   4.722   6.467
 7592SOL    HW123675   4.670   4.628   6.491
 7592SOL    HW223676   4.556   4.724   6.423
 7593SOL     OW23677   6.859   4.710   0.055
 7593SOL    HW123678   6.878   4.708   6.980
 7593SOL    HW223679   6.849   4.805   0.085
 7594SOL     OW23680   1.229   0.527   4.858
 7594SOL    HW123681   1.220   0.607   4.798
 7594SOL    HW223682   1.156   0.527   4.926
 7595SOL     OW23683   0.157   3.904   6.680
 7595SOL    HW123684   0.185   3.832   6.616
 7595SOL    HW223685   0.116   3.862   6.761
 7596SOL     OW23686   5.651   5.462   2.231
 7596SOL    HW123687   5.599   5.446   2.147
 7596SOL    HW223688   5.624   5.394   2.300
 7597SOL     OW23689   2.463   4.466   2.755
 7597SOL    HW123690   2.504   4.445   2.844
 7597SOL    HW223691   2.461   4.565   2.741
 7598SOL     OW23692   6.309   1.454   2.665
 7598SOL    HW123693   6.393   1.496   2.698
 7598SOL    HW223694   6.247   1.438   2.742
 7599SOL     OW23695   5.570   3.993   1.573
 7599SOL    HW123696   5.635   4.004   1.648
 7599SOL    HW223697   5.546   3.896   1.564
 7600SOL     OW23698   2.065   2.973   2.142
 7600SOL    HW123699   2.030   2.931   2.226
 7600SOL    HW223700   2.022   2.929   2.063
 7601SOL     OW23701   1.973   0.815   5.400
 7601SOL    HW123702   1.918   0.849   5.324
 7601SOL    HW223703   1.952   0.868   5.482
 7602SOL     OW23704   1.942   2.601   5.096
 7602SOL    HW123705   1.847   2.610   5.127
 7602SOL    HW223706   1.952   2.639   5.004
 7603SOL     OW23707   5.937   1.203   2.082
 7603SOL    HW123708   6.016   1.209   2.142
 7603SOL    HW223709   5.965   1.166   1.993
 7604SOL     OW23710   5.883   5.521   6.541
 7604SOL    HW123711   5.843   5.429   6.542
 7604SOL    HW223712   5.885   5.557   6.634
 7605SOL     OW23713   4.842   3.115   5.314
 7605SOL    HW123714   4.938   3.139   5.297
 7605SOL    HW223715   4.792   3.196   5.343
 7606SOL     OW23716   5.505   0.961   4.127
 7606SOL    HW123717   5.422   0.998   4.169
 7606SOL    HW223718   5.505   0.861   4.133
 7607SOL     OW23719   4.944   6.075   6.227
 7607SOL    HW123720   5.009   6.144   6.258
 7607SOL    HW223721   4.985   5.984   6.233
 7608SOL     OW23722   3.744   3.166   4.792
 7608SOL    HW123723   3.653   3.199   4.768
 7608SOL    HW223724   3.741   3.067   4.806
 7609SOL     OW23725   0.980   2.728   3.082
 7609SOL    HW123726   0.969   2.644   3.136
 7609SOL    HW223727   0.987   2.704   2.985
 7610SOL     OW23728   5.750   0.339   2.300
 7610SOL    HW123729   5.688   0.291   2.238
 7610SOL    HW223730   5.713   0.338   2.393
 7611SOL     OW23731   1.640   1.745   1.671
 7611SOL    HW123732   1.548   1.783   1.665
 7611SOL    HW223733   1.705   1.806   1.626
 7612SOL     OW23734   3.563   0.835   2.739
 7612SOL    HW123735   3.544   0.871   2.647
 7612SOL    HW223736   3.593   0.740   2.733
 7613SOL     OW23737   6.771   0.639   1.996
 7613SOL    HW123738   6.781   0.559   1.936
 7613SOL    HW223739   6.705   0.703   1.956
 7614SOL     OW23740   4.422   1.114   6.986
 7614SOL    HW123741   4.374   1.179   0.022
 7614SOL    HW223742   4.452   1.161   6.903
 7615SOL     OW23743   4.453   4.838   6.259
 7615SOL    HW123744   4.460   4.918   6.318
 7615SOL    HW223745   4.380   4.778   6.292
 7616SOL     OW23746   6.955   6.072   3.568
 7616SOL    HW123747   6.995   5.983   3.589
 7616SOL    HW223748   0.004   6.142   3.562
 7617SOL     OW23749   4.018   5.119   3.251
 7617SOL    HW123750   3.942   5.056   3.268
 7617SOL    HW223751   3.983   5.199   3.202
 7618SOL     OW23752   3.510   1.463   0.254
 7618SOL    HW123753   3.423   1.501   0.286
 7618SOL    HW223754   3.521   1.483   0.157
 7619SOL     OW23755   5.543   3.490   5.674
 7619SOL    HW123756   5.609   3.416   5.683
 7619SOL    HW223757   5.557   3.556   5.748
 7620SOL     OW23758   2.721   5.584   2.112
 7620SOL    HW123759   2.661   5.663   2.096
 7620SOL    HW223760   2.814   5.607   2.084
 7621SOL     OW23761   2.537   2.873   1.398
 7621SOL    HW123762   2.607   2.931   1.355
 7621SOL    HW223763   2.579   2.787   1.426
 7622SOL     OW23764   4.698   1.987   0.562
 7622SOL    HW123765   4.654   1.900   0.537
 7622SOL    HW223766   4.684   2.053   0.489
 7623SOL     OW23767   6.850   6.899   5.135
 7623SOL    HW123768   6.937   6.890   5.184
 7623SOL    HW223769   6.789   6.959   5.187
 7624SOL     OW23770   6.795   1.263   4.813
 7624SOL    HW123771   6.861   1.298   4.746
 7624SOL    HW223772   6.760   1.175   4.782
 7625SOL     OW23773   2.321   4.532   0.720
 7625SOL    HW123774   2.374   4.458   0.679
 7625SOL    HW223775   2.333   4.532   0.819
 7626SOL     OW23776   2.577   3.835   5.341
 7626SOL    HW123777   2.601   3.859   5.436
 7626SOL    HW223778   2.536   3.914   5.296
 7627SOL     OW23779   0.167   6.978   6.882
 7627SOL    HW123780   0.075   6.944   6.860
 7627SOL    HW223781   0.162   0.053   6.902
 7628SOL     OW23782   3.946   1.486   0.587
 7628SOL    HW123783   3.871   1.471   0.523
 7628SOL    HW223784   3.958   1.405   0.645
 7629SOL     OW23785   6.166   5.643   2.195
 7629SOL    HW123786   6.180   5.588   2.113
 7629SOL    HW223787   6.077   5.622   2.235
 7630SOL     OW23788   5.656   2.251   2.151
 7630SOL    HW123789   5.625   2.168   2.197
 7630SOL    HW223790   5.756   2.252   2.149
 7631SOL     OW23791   0.767   0.204   3.871
 7631SOL    HW123792   0.762   0.174   3.776
 7631SOL    HW223793   0.729   0.133   3.930
 7632SOL     OW23794   5.094   1.184   5.021
 7632SOL    HW123795   5.129   1.269   4.981
 7632SOL    HW223796   5.167   1.116   5.023
 7633SOL     OW23797   5.571   3.217   6.207
 7633SOL    HW123798   5.510   3.140   6.188
 7633SOL    HW223799   5.581   3.273   6.125
 7634SOL     OW23800   0.834   1.976   1.873
 7634SOL    HW123801   0.931   1.983   1.849
 7634SOL    HW223802   0.791   2.066   1.863
 7635SOL     OW23803   2.126   4.482   5.864
 7635SOL    HW123804   2.154   4.564   5.914
 7635SOL    HW223805   2.169   4.402   5.905
 7636SOL     OW23806   0.985   1.517   3.618
 7636SOL    HW123807   0.927   1.594   3.593
 7636SOL    HW223808   0.934   1.456   3.680
 7637SOL     OW23809   3.281   6.335   3.837
 7637SOL    HW123810   3.346   6.399   3.877
 7637SOL    HW223811   3.198   6.332   3.893
 7638SOL     OW23812   4.590   5.200   1.882
 7638SOL    HW123813   4.654   5.221   1.809
 7638SOL    HW223814   4.498   5.229   1.856
 7639SOL     OW23815   0.660   2.053   4.392
 7639SOL    HW123816   0.582   2.031   4.333
 7639SOL    HW223817   0.684   2.150   4.381
 7640SOL     OW23818   2.270   2.984   6.694
 7640SOL    HW123819   2.312   3.068   6.660
 7640SOL    HW223820   2.237   2.929   6.616
 7641SOL     OW23821   5.958   3.054   1.033
 7641SOL    HW123822   6.014   3.022   0.957
 7641SOL    HW223823   5.864   3.021   1.022
 7642SOL     OW23824   1.235   3.151   3.303
 7642SOL    HW123825   1.152   3.145   3.247
 7642SOL    HW223826   1.230   3.084   3.376
 7643SOL     OW23827   5.599   3.618   3.498
 7643SOL    HW123828   5.578   3.711   3.526
 7643SOL    HW223829   5.636   3.567   3.576
 7644SOL     OW23830   6.549   2.760   3.939
 7644SOL    HW123831   6.631   2.784   3.992
 7644SOL    HW223832   6.562   2.786   3.844
 7645SOL     OW23833   3.512   2.608   0.705
 7645SOL    HW123834   3.585   2.542   0.692
 7645SOL    HW223835   3.510   2.637   0.801
 7646SOL     OW23836   0.674   0.396   2.150
 7646SOL    HW123837   0.622   0.321   2.111
 7646SOL    HW223838   0.612   0.459   2.197
 7647SOL     OW23839   2.621   4.270   0.049
 7647SOL    HW123840   2.567   4.345   0.010
 7647SOL    HW223841   2.628   4.196   7.005
 7648SOL     OW23842   2.330   0.582   3.821
 7648SOL    HW123843   2.303   0.666   3.774
 7648SOL    HW223844   2.249   0.538   3.859
 7649SOL     OW23845   4.087   1.876   1.435
 7649SOL    HW123846   4.059   1.957   1.486
 7649SOL    HW223847   4.179   1.890   1.398
 7650SOL     OW23848   0.528   4.499   0.935
 7650SOL    HW123849   0.601   4.455   0.883
 7650SOL    HW223850   0.439   4.468   0.902
 7651SOL     OW23851   5.773   2.217   5.963
 7651SOL    HW123852   5.745   2.197   6.057
 7651SOL    HW223853   5.698   2.194   5.901
 7652SOL     OW23854   0.720   2.687   2.142
 7652SOL    HW123855   0.681   2.604   2.181
 7652SOL    HW223856   0.769   2.665   2.057
 7653SOL     OW23857   4.969   2.764   1.764
 7653SOL    HW123858   4.978   2.685   1.825
 7653SOL    HW223859   4.961   2.848   1.817
 7654SOL     OW23860   5.948   3.679   4.882
 7654SOL    HW123861   5.878   3.660   4.951
 7654SOL    HW223862   5.904   3.712   4.798
 7655SOL     OW23863   5.000   4.110   6.431
 7655SOL    HW123864   4.982   4.012   6.433
 7655SOL    HW223865   5.088   4.127   6.388
 7656SOL     OW23866   6.904   0.422   5.464
 7656SOL    HW123867   6.888   0.485   5.540
 7656SOL    HW223868   6.817   0.382   5.435
 7657SOL     OW23869   3.527   2.137   3.450
 7657SOL    HW123870   3.437   2.131   3.407
 7657SOL    HW223871   3.598   2.124   3.380
 7658SOL     OW23872   4.385   1.185   5.633
 7658SOL    HW123873   4.428   1.160   5.546
 7658SOL    HW223874   4.302   1.237   5.616
 7659SOL     OW23875   5.053   5.823   6.283
 7659SOL    HW123876   5.086   5.790   6.371
 7659SOL    HW223877   5.036   5.746   6.222
 7660SOL     OW23878   5.390   5.480   3.599
 7660SOL    HW123879   5.377   5.444   3.507
 7660SOL    HW223880   5.481   5.455   3.632
 7661SOL     OW23881   5.856   3.267   3.701
 7661SOL    HW123882   5.776   3.328   3.699
 7661SOL    HW223883   5.939   3.322   3.705
 7662SOL     OW23884   6.421   5.433   3.435
 7662SOL    HW123885   6.371   5.357   3.478
 7662SOL    HW223886   6.460   5.492   3.506
 7663SOL     OW23887   1.065   6.644   7.007
 7663SOL    HW123888   1.101   6.648   6.914
 7663SOL    HW223889   1.131   6.598   0.043
 7664SOL     OW23890   5.023   4.865   4.871
 7664SOL    HW123891   4.975   4.818   4.796
 7664SOL    HW223892   5.108   4.904   4.837
 7665SOL     OW23893   1.773   5.546   4.007
 7665SOL    HW123894   1.821   5.598   4.077
 7665SOL    HW223895   1.836   5.481   3.966
 7666SOL     OW23896   1.995   6.977   2.569
 7666SOL    HW123897   1.911   6.935   2.534
 7666SOL    HW223898   2.014   0.037   2.517
 7667SOL     OW23899   5.697   0.304   5.575
 7667SOL    HW123900   5.601   0.322   5.557
 7667SOL    HW223901   5.739   0.262   5.494
 7668SOL     OW23902   3.313   3.991   3.009
 7668SOL    HW123903   3.236   3.940   3.046
 7668SOL    HW223904   3.287   4.033   2.923
 7669SOL     OW23905   4.300   6.170   4.670
 7669SOL    HW123906   4.357   6.089   4.681
 7669SOL    HW223907   4.353   6.243   4.626
 7670SOL     OW23908   1.344   5.640   1.083
 7670SOL    HW123909   1.399   5.573   1.133
 7670SOL    HW223910   1.404   5.709   1.043
 7671SOL     OW23911   4.992   2.719   5.149
 7671SOL    HW123912   5.084   2.719   5.110
 7671SOL    HW223913   4.972   2.629   5.188
 7672SOL     OW23914   5.008   0.141   1.754
 7672SOL    HW123915   4.946   0.180   1.822
 7672SOL    HW223916   5.065   0.214   1.715
 7673SOL     OW23917   1.929   3.859   0.004
 7673SOL    HW123918   1.920   3.866   0.103
 7673SOL    HW223919   2.012   3.907   6.997
 7674SOL     OW23920   6.327   1.732   6.536
 7674SOL    HW123921   6.326   1.662   6.608
 7674SOL    HW223922   6.251   1.715   6.473
 7675SOL     OW23923   5.560   0.058   3.431
 7675SOL    HW123924   5.470   0.056   3.475
 7675SOL    HW223925   5.549   0.070   3.332
 7676SOL     OW23926   2.460   0.218   0.570
 7676SOL    HW123927   2.414   0.213   0.659
 7676SOL    HW223928   2.430   0.300   0.522
 7677SOL     OW23929   1.532   2.231   2.530
 7677SOL    HW123930   1.622   2.197   2.559
 7677SOL    HW223931   1.523   2.219   2.431
 7678SOL     OW23932   4.536   6.693   5.664
 7678SOL    HW123933   4.449   6.675   5.710
 7678SOL    HW223934   4.533   6.783   5.621
 7679SOL     OW23935   1.679   5.109   4.475
 7679SOL    HW123936   1.722   5.167   4.544
 7679SOL    HW223937   1.666   5.017   4.512
 7680SOL     OW23938   4.587   0.267   0.898
 7680SOL    HW123939   4.524   0.344   0.916
 7680SOL    HW223940   4.538   0.181   0.907
 7681SOL     OW23941   4.513   2.456   5.373
 7681SOL    HW123942   4.512   2.524   5.446
 7681SOL    HW223943   4.554   2.371   5.406
 7682SOL     OW23944   3.677   1.255   6.908
 7682SOL    HW123945   3.761   1.296   6.945
 7682SOL    HW223946   3.697   1.162   6.876
 7683SOL     OW23947   6.463   3.578   3.126
 7683SOL    HW123948   6.413   3.566   3.040
 7683SOL    HW223949   6.398   3.582   3.202
 7684SOL     OW23950   3.970   2.275   6.228
 7684SOL    HW123951   3.996   2.245   6.320
 7684SOL    HW223952   3.871   2.283   6.222
 7685SOL     OW23953   4.625   4.408   1.722
 7685SOL    HW123954   4.579   4.395   1.635
 7685SOL    HW223955   4.593   4.341   1.788
 7686SOL     OW23956   2.105   0.647   2.135
 7686SOL    HW123957   2.111   0.598   2.221
 7686SOL    HW223958   2.179   0.714   2.130
 7687SOL     OW23959   4.841   4.497   5.396
 7687SOL    HW123960   4.928   4.453   5.374
 7687SOL    HW223961   4.791   4.441   5.461
 7688SOL     OW23962   6.833   0.708   3.510
 7688SOL    HW123963   6.884   0.706   3.595
 7688SOL    HW223964   6.883   0.658   3.439
 7689SOL     OW23965   3.363   0.127   5.089
 7689SOL    HW123966   3.285   0.070   5.116
 7689SOL    HW223967   3.405   0.090   5.006
 7690SOL     OW23968   0.983   5.447   3.213
 7690SOL    HW123969   1.049   5.438   3.138
 7690SOL    HW223970   0.929   5.530   3.200
 7691SOL     OW23971   6.916   4.077   5.606
 7691SOL    HW123972   6.885   3.983   5.602
 7691SOL    HW223973   7.006   4.081   5.650
 7692SOL     OW23974   0.956   5.920   1.322
 7692SOL    HW123975   0.989   5.853   1.255
 7692SOL    HW223976   0.858   5.935   1.308
 7693SOL     OW23977   4.153   1.359   6.657
 7693SOL    HW123978   4.250   1.378   6.638
 7693SOL    HW223979   4.099   1.381   6.576
 7694SOL     OW23980   5.863   5.502   3.701
 7694SOL    HW123981   5.917   5.584   3.719
 7694SOL    HW223982   5.916   5.438   3.645
 7695SOL     OW23983   5.254   6.441   6.595
 7695SOL    HW123984   5.269   6.488   6.508
 7695SOL    HW223985   5.160   6.456   6.625
 7696SOL     OW23986   1.572   4.153   5.643
 7696SOL    HW123987   1.480   4.190   5.631
 7696SOL    HW223988   1.580   4.067   5.593
 7697SOL     OW23989   4.314   0.308   2.452
 7697SOL    HW123990   4.247   0.345   2.516
 7697SOL    HW223991   4.311   0.208   2.454
 7698SOL     OW23992   0.513   2.128   6.234
 7698SOL    HW123993   0.593   2.126   6.174
 7698SOL    HW223994   0.460   2.211   6.215
 7699SOL     OW23995   3.450   3.474   1.308
 7699SOL    HW123996   3.493   3.516   1.387
 7699SOL    HW223997   3.417   3.383   1.331
 7700SOL     OW23998   5.637   1.067   5.552
 7700SOL    HW123999   5.707   1.121   5.599
 7700SOL    HW224000   5.675   0.980   5.522
 7701SOL     OW24001   6.847   2.312   5.033
 7701SOL    HW124002   6.780   2.297   4.961
 7701SOL    HW224003   6.921   2.370   4.999
 7702SOL     OW24004   0.866   6.141   0.086
 7702SOL    HW124005   0.935   6.132   0.015
 7702SOL    HW224006   0.816   6.227   0.074
 7703SOL     OW24007   1.328   2.896   0.246
 7703SOL    HW124008   1.231   2.912   0.260
 7703SOL    HW224009   1.343   2.799   0.224
 7704SOL     OW24010   3.968   3.695   1.424
 7704SOL    HW124011   3.995   3.737   1.338
 7704SOL    HW224012   3.912   3.760   1.477
 7705SOL     OW24013   3.980   3.269   4.675
 7705SOL    HW124014   3.997   3.358   4.717
 7705SOL    HW224015   3.892   3.233   4.707
 7706SOL     OW24016   5.985   1.106   5.536
 7706SOL    HW124017   5.997   1.039   5.462
 7706SOL    HW224018   5.918   1.174   5.509
 7707SOL     OW24019   0.232   4.886   6.217
 7707SOL    HW124020   0.294   4.825   6.167
 7707SOL    HW224021   0.151   4.904   6.161
 7708SOL     OW24022   5.295   1.646   5.533
 7708SOL    HW124023   5.236   1.593   5.594
 7708SOL    HW224024   5.360   1.585   5.488
 7709SOL     OW24025   4.164   2.618   1.728
 7709SOL    HW124026   4.226   2.603   1.804
 7709SOL    HW224027   4.216   2.630   1.644
 7710SOL     OW24028   3.316   1.180   5.982
 7710SOL    HW124029   3.279   1.228   6.062
 7710SOL    HW224030   3.294   1.083   5.988
 7711SOL     OW24031   4.982   6.620   4.540
 7711SOL    HW124032   4.895   6.650   4.580
 7711SOL    HW224033   4.964   6.581   4.449
 7712SOL     OW24034   5.883   4.367   6.169
 7712SOL    HW124035   5.975   4.393   6.139
 7712SOL    HW224036   5.882   4.270   6.193
 7713SOL     OW24037   0.979   4.728   6.555
 7713SOL    HW124038   0.977   4.691   6.463
 7713SOL    HW224039   0.936   4.818   6.557
 7714SOL     OW24040   6.335   4.868   5.128
 7714SOL    HW124041   6.359   4.797   5.062
 7714SOL    HW224042   6.254   4.917   5.096
 7715SOL     OW24043   3.594   1.699   1.466
 7715SOL    HW124044   3.562   1.756   1.542
 7715SOL    HW224045   3.688   1.725   1.443
 7716SOL     OW24046   3.729   2.116   4.569
 7716SOL    HW124047   3.632   2.095   4.580
 7716SOL    HW224048   3.747   2.143   4.474
 7717SOL     OW24049   2.976   6.336   0.379
 7717SOL    HW124050   2.990   6.245   0.418
 7717SOL    HW224051   2.951   6.327   0.283
 7718SOL     OW24052   1.217   6.284   3.115
 7718SOL    HW124053   1.241   6.233   3.197
 7718SOL    HW224054   1.118   6.280   3.101
 7719SOL     OW24055   5.441   2.644   5.694
 7719SOL    HW124056   5.376   2.660   5.768
 7719SOL    HW224057   5.403   2.678   5.608
 7720SOL     OW24058   4.719   6.714   1.295
 7720SOL    HW124059   4.817   6.706   1.281
 7720SOL    HW224060   4.701   6.768   1.377
 7721SOL     OW24061   0.451   4.805   3.734
 7721SOL    HW124062   0.468   4.901   3.713
 7721SOL    HW224063   0.528   4.767   3.784
 7722SOL     OW24064   0.489   6.144   3.368
 7722SOL    HW124065   0.558   6.078   3.399
 7722SOL    HW224066   0.411   6.095   3.329
 7723SOL     OW24067   0.068   2.335   6.036
 7723SOL    HW124068   0.069   2.379   6.126
 7723SOL    HW224069   0.111   2.245   6.043
 7724SOL     OW24070   2.731   6.013   6.986
 7724SOL    HW124071   2.702   6.086   0.025
 7724SOL    HW224072   2.671   6.011   6.906
 7725SOL     OW24073   5.106   4.537   3.596
 7725SOL    HW124074   5.174   4.597   3.554
 7725SOL    HW224075   5.014   4.569   3.573
 7726SOL     OW24076   5.105   5.998   3.606
 7726SOL    HW124077   5.062   6.088   3.613
 7726SOL    HW224078   5.048   5.930   3.651
 7727SOL     OW24079   5.981   3.430   2.508
 7727SOL    HW124080   6.017   3.485   2.433
 7727SOL    HW224081   5.903   3.377   2.476
 7728SOL     OW24082   2.056   3.511   2.737
 7728SOL    HW124083   1.959   3.520   2.712
 7728SOL    HW224084   2.111   3.510   2.653
 7729SOL     OW24085   5.566   1.320   5.985
 7729SOL    HW124086   5.580   1.402   5.930
 7729SOL    HW224087   5.655   1.285   6.014
 7730SOL     OW24088   4.257   6.328   3.177
 7730SOL    HW124089   4.346   6.319   3.132
 7730SOL    HW224090   4.241   6.248   3.235
 7731SOL     OW24091   6.036   1.695   3.985
 7731SOL    HW124092   6.088   1.780   3.973
 7731SOL    HW224093   5.998   1.692   4.077
 7732SOL     OW24094   4.139   4.635   0.769
 7732SOL    HW124095   4.215   4.665   0.711
 7732SOL    HW224096   4.081   4.713   0.792
 7733SOL     OW24097   3.637   5.240   1.700
 7733SOL    HW124098   3.631   5.142   1.720
 7733SOL    HW224099   3.579   5.262   1.622
 7734SOL     OW24100   1.179   3.119   2.316
 7734SOL    HW124101   1.203   3.072   2.231
 7734SOL    HW224102   1.129   3.056   2.376
 7735SOL     OW24103   5.570   3.837   0.760
 7735SOL    HW124104   5.601   3.742   0.753
 7735SOL    HW224105   5.471   3.841   0.750
 7736SOL     OW24106   5.701   4.091   6.639
 7736SOL    HW124107   5.711   4.191   6.645
 7736SOL    HW224108   5.605   4.067   6.649
 7737SOL     OW24109   5.323   3.139   0.362
 7737SOL    HW124110   5.324   3.238   0.346
 7737SOL    HW224111   5.259   3.118   0.436
 7738SOL     OW24112   1.817   4.672   6.509
 7738SOL    HW124113   1.826   4.641   6.603
 7738SOL    HW224114   1.743   4.739   6.502
 7739SOL     OW24115   6.055   4.607   2.230
 7739SOL    HW124116   6.096   4.553   2.157
 7739SOL    HW224117   6.043   4.549   2.311
 7740SOL     OW24118   6.677   6.070   3.143
 7740SOL    HW124119   6.654   5.981   3.104
 7740SOL    HW224120   6.776   6.085   3.138
 7741SOL     OW24121   2.580   5.122   3.777
 7741SOL    HW124122   2.618   5.032   3.754
 7741SOL    HW224123   2.635   5.164   3.849
 7742SOL     OW24124   6.943   0.772   4.487
 7742SOL    HW124125   6.861   0.827   4.473
 7742SOL    HW224126   6.945   0.697   4.422
 7743SOL     OW24127   4.893   3.260   1.978
 7743SOL    HW124128   4.824   3.188   1.968
 7743SOL    HW224129   4.883   3.326   1.903
 7744SOL     OW24130   0.324   6.543   3.684
 7744SOL    HW124131   0.260   6.615   3.657
 7744SOL    HW224132   0.324   6.470   3.615
 7745SOL     OW24133   6.394   2.864   5.240
 7745SOL    HW124134   6.330   2.939   5.256
 7745SOL    HW224135   6.420   2.823   5.328
 7746SOL     OW24136   1.852   0.537   6.339
 7746SOL    HW124137   1.786   0.533   6.414
 7746SOL    HW224138   1.876   0.444   6.311
 7747SOL     OW24139   4.971   4.869   0.957
 7747SOL    HW124140   5.024   4.827   0.882
 7747SOL    HW224141   4.998   4.828   1.044
 7748SOL     OW24142   1.435   3.966   6.696
 7748SOL    HW124143   1.456   4.063   6.681
 7748SOL    HW224144   1.484   3.911   6.628
 7749SOL     OW24145   6.006   3.233   6.037
 7749SOL    HW124146   6.076   3.255   5.970
 7749SOL    HW224147   5.954   3.316   6.060
 7750SOL     OW24148   3.709   5.601   3.007
 7750SOL    HW124149   3.804   5.583   3.033
 7750SOL    HW224150   3.660   5.641   3.085
 7751SOL     OW24151   1.180   2.378   1.401
 7751SOL    HW124152   1.223   2.406   1.487
 7751SOL    HW224153   1.141   2.287   1.411
 7752SOL     OW24154   2.626   1.066   2.385
 7752SOL    HW124155   2.540   1.104   2.421
 7752SOL    HW224156   2.690   1.140   2.367
 7753SOL     OW24157   4.789   0.359   5.190
 7753SOL    HW124158   4.693   0.341   5.169
 7753SOL    HW224159   4.817   0.445   5.148
 7754SOL     OW24160   4.597   6.528   1.157
 7754SOL    HW124161   4.625   6.612   1.204
 7754SOL    HW224162   4.652   6.517   1.074
 7755SOL     OW24163   1.567   3.044   5.880
 7755SOL    HW124164   1.552   2.956   5.925
 7755SOL    HW224165   1.496   3.109   5.908
 7756SOL     OW24166   1.482   4.544   2.091
 7756SOL    HW124167   1.551   4.488   2.137
 7756SOL    HW224168   1.411   4.570   2.156
 7757SOL     OW24169   0.634   4.442   0.217
 7757SOL    HW124170   0.641   4.347   0.248
 7757SOL    HW224171   0.709   4.463   0.154
 7758SOL     OW24172   6.755   1.123   5.056
 7758SOL    HW124173   6.777   1.183   4.979
 7758SOL    HW224174   6.751   1.177   5.140
 7759SOL     OW24175   3.192   1.183   2.775
 7759SOL    HW124176   3.161   1.238   2.853
 7759SOL    HW224177   3.263   1.119   2.805
 7760SOL     OW24178   5.341   2.793   0.570
 7760SOL    HW124179   5.272   2.787   0.643
 7760SOL    HW224180   5.413   2.856   0.597
 7761SOL     OW24181   4.881   5.407   2.899
 7761SOL    HW124182   4.926   5.327   2.861
 7761SOL    HW224183   4.787   5.384   2.922
 7762SOL     OW24184   4.754   1.193   0.085
 7762SOL    HW124185   4.723   1.119   0.145
 7762SOL    HW224186   4.687   1.267   0.086
 7763SOL     OW24187   1.615   0.757   3.117
 7763SOL    HW124188   1.612   0.814   3.199
 7763SOL    HW224189   1.692   0.693   3.124
 7764SOL     OW24190   3.906   4.474   5.318
 7764SOL    HW124191   3.991   4.527   5.325
 7764SOL    HW224192   3.833   4.534   5.286
 7765SOL     OW24193   6.720   4.202   4.212
 7765SOL    HW124194   6.743   4.123   4.268
 7765SOL    HW224195   6.622   4.202   4.192
 7766SOL     OW24196   0.310   2.717   5.696
 7766SOL    HW124197   0.271   2.652   5.762
 7766SOL    HW224198   0.311   2.809   5.736
 7767SOL     OW24199   4.075   0.512   2.898
 7767SOL    HW124200   4.047   0.419   2.920
 7767SOL    HW224201   4.164   0.531   2.938
 7768SOL     OW24202   3.119   5.997   4.014
 7768SOL    HW124203   3.202   5.946   3.991
 7768SOL    HW224204   3.059   6.002   3.935
 7769SOL     OW24205   3.900   1.872   6.283
 7769SOL    HW124206   3.874   1.777   6.263
 7769SOL    HW224207   3.837   1.934   6.237
 7770SOL     OW24208   1.510   3.004   3.347
 7770SOL    HW124209   1.478   3.099   3.338
 7770SOL    HW224210   1.580   2.986   3.277
 7771SOL     OW24211   1.313   3.269   5.250
 7771SOL    HW124212   1.229   3.276   5.196
 7771SOL    HW224213   1.305   3.326   5.332
 7772SOL     OW24214   4.994   6.268   2.161
 7772SOL    HW124215   4.971   6.203   2.233
 7772SOL    HW224216   5.075   6.236   2.112
 7773SOL     OW24217   2.818   6.855   5.778
 7773SOL    HW124218   2.761   6.933   5.802
 7773SOL    HW224219   2.913   6.874   5.806
 7774SOL     OW24220   5.208   0.930   2.599
 7774SOL    HW124221   5.207   0.879   2.685
 7774SOL    HW224222   5.114   0.947   2.569
 7775SOL     OW24223   4.457   2.049   1.468
 7775SOL    HW124224   4.460   1.993   1.551
 7775SOL    HW224225   4.531   2.117   1.470
 7776SOL     OW24226   2.515   1.808   3.702
 7776SOL    HW124227   2.420   1.837   3.710
 7776SOL    HW224228   2.573   1.869   3.757
 7777SOL     OW24229   5.051   4.783   2.942
 7777SOL    HW124230   5.110   4.851   2.986
 7777SOL    HW224231   5.103   4.701   2.922
 7778SOL     OW24232   0.785   3.026   1.884
 7778SOL    HW124233   0.722   2.962   1.839
 7778SOL    HW224234   0.772   3.021   1.983
 7779SOL     OW24235   2.439   1.287   3.933
 7779SOL    HW124236   2.415   1.378   3.898
 7779SOL    HW224237   2.361   1.226   3.923
 7780SOL     OW24238   6.374   6.012   3.752
 7780SOL    HW124239   6.276   6.031   3.747
 7780SOL    HW224240   6.410   6.045   3.840
 7781SOL     OW24241   3.424   3.201   1.437
 7781SOL    HW124242   3.337   3.220   1.482
 7781SOL    HW224243   3.498   3.246   1.487
 7782SOL     OW24244   5.043   5.421   3.568
 7782SOL    HW124245   4.999   5.390   3.483
 7782SOL    HW224246   4.993   5.499   3.604
 7783SOL     OW24247   0.352   6.942   4.003
 7783SOL    HW124248   0.344   6.994   3.919
 7783SOL    HW224249   0.445   6.951   4.040
 7784SOL     OW24250   0.575   3.276   2.471
 7784SOL    HW124251   0.639   3.346   2.503
 7784SOL    HW224252   0.606   3.186   2.502
 7785SOL     OW24253   6.189   0.173   2.405
 7785SOL    HW124254   6.237   0.125   2.479
 7785SOL    HW224255   6.231   0.263   2.391
 7786SOL     OW24256   5.302   0.671   6.296
 7786SOL    HW124257   5.298   0.612   6.376
 7786SOL    HW224258   5.306   0.767   6.326
 7787SOL     OW24259   0.861   1.981   0.887
 7787SOL    HW124260   0.839   1.954   0.793
 7787SOL    HW224261   0.953   2.021   0.890
 7788SOL     OW24262   0.929   4.502   2.471
 7788SOL    HW124263   0.962   4.409   2.455
 7788SOL    HW224264   0.899   4.511   2.566
 7789SOL     OW24265   3.946   6.851   6.658
 7789SOL    HW124266   4.020   6.907   6.695
 7789SOL    HW224267   3.980   6.759   6.637
 7790SOL     OW24268   3.983   4.904   5.136
 7790SOL    HW124269   4.000   4.858   5.223
 7790SOL    HW224270   3.999   5.002   5.147
 7791SOL     OW24271   1.395   6.640   1.208
 7791SOL    HW124272   1.418   6.550   1.246
 7791SOL    HW224273   1.468   6.669   1.146
 7792SOL     OW24274   1.313   1.544   1.605
 7792SOL    HW124275   1.234   1.605   1.601
 7792SOL    HW224276   1.367   1.553   1.521
 7793SOL     OW24277   4.952   1.405   0.618
 7793SOL    HW124278   4.995   1.350   0.547
 7793SOL    HW224279   4.893   1.475   0.575
 7794SOL     OW24280   0.806   1.430   3.126
 7794SOL    HW124281   0.861   1.493   3.071
 7794SOL    HW224282   0.848   1.418   3.216
 7795SOL     OW24283   4.714   3.495   1.050
 7795SOL    HW124284   4.813   3.488   1.062
 7795SOL    HW224285   4.670   3.514   1.137
 7796SOL     OW24286   4.010   1.240   0.278
 7796SOL    HW124287   4.096   1.237   0.228
 7796SOL    HW224288   3.935   1.258   0.215
 7797SOL     OW24289   1.526   6.060   2.714
 7797SOL    HW124290   1.615   6.016   2.705
 7797SOL    HW224291   1.456   6.004   2.669
 7798SOL     OW24292   2.488   3.085   0.922
 7798SOL    HW124293   2.467   3.174   0.963
 7798SOL    HW224294   2.438   3.013   0.970
 7799SOL     OW24295   2.346   6.004   4.363
 7799SOL    HW124296   2.364   5.917   4.318
 7799SOL    HW224297   2.418   6.023   4.430
 7800SOL     OW24298   0.464   1.014   1.384
 7800SOL    HW124299   0.388   0.972   1.434
 7800SOL    HW224300   0.532   1.047   1.449
 7801SOL     OW24301   2.944   2.317   0.992
 7801SOL    HW124302   2.919   2.226   1.026
 7801SOL    HW224303   3.043   2.330   0.999
 7802SOL     OW24304   6.954   4.780   4.351
 7802SOL    HW124305   7.003   4.812   4.271
 7802SOL    HW224306   6.934   4.682   4.341
 7803SOL     OW24307   3.079   2.421   6.176
 7803SOL    HW124308   3.055   2.517   6.189
 7803SOL    HW224309   3.139   2.412   6.096
 7804SOL     OW24310   3.007   1.660   5.467
 7804SOL    HW124311   2.915   1.666   5.506
 7804SOL    HW224312   3.003   1.682   5.369
 7805SOL     OW24313   0.180   2.250   6.727
 7805SOL    HW124314   0.161   2.179   6.794
 7805SOL    HW224315   0.233   2.212   6.651
 7806SOL     OW24316   6.525   2.771   4.829
 7806SOL    HW124317   6.457   2.833   4.868
 7806SOL    HW224318   6.479   2.688   4.796
 7807SOL     OW24319   2.572   6.226   5.494
 7807SOL    HW124320   2.556   6.301   5.428
 7807SOL    HW224321   2.653   6.246   5.548
 7808SOL     OW24322   0.280   2.773   4.496
 7808SOL    HW124323   0.314   2.864   4.521
 7808SOL    HW224324   0.357   2.713   4.474
 7809SOL     OW24325   3.036   0.696   3.258
 7809SOL    HW124326   2.991   0.686   3.169
 7809SOL    HW224327   2.974   0.742   3.321
 7810SOL     OW24328   2.442   6.846   5.747
 7810SOL    HW124329   2.491   6.866   5.663
 7810SOL    HW224330   2.463   6.753   5.777
 7811SOL     OW24331   1.232   5.623   3.180
 7811SOL    HW124332   1.307   5.671   3.226
 7811SOL    HW224333   1.145   5.648   3.223
 7812SOL     OW24334   2.705   0.157   5.497
 7812SOL    HW124335   2.792   0.180   5.541
 7812SOL    HW224336   2.720   0.087   5.428
 7813SOL     OW24337   5.342   0.874   0.598
 7813SOL    HW124338   5.389   0.912   0.518
 7813SOL    HW224339   5.316   0.780   0.578
 7814SOL     OW24340   6.528   1.652   1.620
 7814SOL    HW124341   6.475   1.619   1.541
 7814SOL    HW224342   6.466   1.667   1.697
 7815SOL     OW24343   4.575   5.717   3.631
 7815SOL    HW124344   4.516   5.705   3.711
 7815SOL    HW224345   4.657   5.767   3.658
 7816SOL     OW24346   1.383   1.154   5.177
 7816SOL    HW124347   1.418   1.080   5.235
 7816SOL    HW224348   1.310   1.202   5.225
 7817SOL     OW24349   4.895   0.941   5.142
 7817SOL    HW124350   4.806   0.918   5.182
 7817SOL    HW224351   4.885   1.021   5.082
 7818SOL     OW24352   3.957   0.292   3.000
 7818SOL    HW124353   3.870   0.334   3.025
 7818SOL    HW224354   3.941   0.223   2.930
 7819SOL     OW24355   2.510   2.433   4.231
 7819SOL    HW124356   2.602   2.402   4.253
 7819SOL    HW224357   2.466   2.469   4.313
 7820SOL     OW24358   2.222   0.682   6.581
 7820SOL    HW124359   2.152   0.611   6.575
 7820SOL    HW224360   2.213   0.731   6.668
 7821SOL     OW24361   2.750   6.273   6.076
 7821SOL    HW124362   2.701   6.360   6.081
 7821SOL    HW224363   2.746   6.227   6.165
 7822SOL     OW24364   0.903   1.456   4.709
 7822SOL    HW124365   0.876   1.398   4.786
 7822SOL    HW224366   0.872   1.414   4.623
 7823SOL     OW24367   1.785   2.364   4.989
 7823SOL    HW124368   1.735   2.446   5.019
 7823SOL    HW224369   1.847   2.335   5.062
 7824SOL     OW24370   6.327   4.162   3.123
 7824SOL    HW124371   6.234   4.196   3.107
 7824SOL    HW224372   6.333   4.067   3.093
 7825SOL     OW24373   2.981   3.907   3.752
 7825SOL    HW124374   2.968   3.831   3.687
 7825SOL    HW224375   2.900   3.915   3.810
 7826SOL     OW24376   6.180   6.469   1.133
 7826SOL    HW124377   6.101   6.451   1.075
 7826SOL    HW224378   6.216   6.382   1.167
 7827SOL     OW24379   5.422   3.486   0.532
 7827SOL    HW124380   5.496   3.427   0.501
 7827SOL    HW224381   5.408   3.561   0.467
 7828SOL     OW24382   0.882   5.718   0.159
 7828SOL    HW124383   0.826   5.792   0.195
 7828SOL    HW224384   0.928   5.671   0.234
 7829SOL     OW24385   2.988   3.844   2.774
 7829SOL    HW124386   3.031   3.934   2.788
 7829SOL    HW224387   2.929   3.848   2.693
 7830SOL     OW24388   0.003   4.509   6.745
 7830SOL    HW124389   7.010   4.435   6.680
 7830SOL    HW224390   0.010   4.471   6.837
 7831SOL     OW24391   3.395   3.847   0.169
 7831SOL    HW124392   3.413   3.945   0.175
 7831SOL    HW224393   3.467   3.797   0.217
 7832SOL     OW24394   4.107   2.769   5.975
 7832SOL    HW124395   4.206   2.774   5.988
 7832SOL    HW224396   4.062   2.766   6.065
 7833SOL     OW24397   6.563   6.754   1.982
 7833SOL    HW124398   6.485   6.809   1.953
 7833SOL    HW224399   6.647   6.791   1.940
 7834SOL     OW24400   5.096   1.387   1.563
 7834SOL    HW124401   5.041   1.451   1.617
 7834SOL    HW224402   5.082   1.294   1.599
 7835SOL     OW24403   1.851   2.118   3.920
 7835SOL    HW124404   1.759   2.119   3.959
 7835SOL    HW224405   1.847   2.084   3.826
 7836SOL     OW24406   2.186   6.981   6.581
 7836SOL    HW124407   2.154   0.053   6.577
 7836SOL    HW224408   2.285   6.981   6.595
 7837SOL     OW24409   4.844   6.489   2.150
 7837SOL    HW124410   4.832   6.531   2.060
 7837SOL    HW224411   4.908   6.413   2.143
 7838SOL     OW24412   3.263   5.132   4.512
 7838SOL    HW124413   3.215   5.101   4.594
 7838SOL    HW224414   3.201   5.184   4.454
 7839SOL     OW24415   0.080   5.511   3.096
 7839SOL    HW124416   0.035   5.427   3.128
 7839SOL    HW224417   0.011   5.578   3.069
 7840SOL     OW24418   3.923   3.147   6.066
 7840SOL    HW124419   3.884   3.067   6.020
 7840SOL    HW224420   3.849   3.210   6.091
 7841SOL     OW24421   1.352   1.584   5.654
 7841SOL    HW124422   1.310   1.621   5.736
 7841SOL    HW224423   1.336   1.647   5.577
 7842SOL     OW24424   1.109   0.895   2.869
 7842SOL    HW124425   1.203   0.929   2.873
 7842SOL    HW224426   1.103   0.820   2.803
 7843SOL     OW24427   6.783   2.018   2.100
 7843SOL    HW124428   6.874   1.980   2.114
 7843SOL    HW224429   6.776   2.057   2.009
 7844SOL     OW24430   3.478   2.116   3.045
 7844SOL    HW124431   3.538   2.165   3.108
 7844SOL    HW224432   3.533   2.064   2.980
 7845SOL     OW24433   0.660   0.967   4.678
 7845SOL    HW124434   0.706   0.938   4.762
 7845SOL    HW224435   0.724   1.017   4.619
 7846SOL     OW24436   5.168   6.752   2.888
 7846SOL    HW124437   5.226   6.745   2.969
 7846SOL    HW224438   5.157   6.662   2.846
 7847SOL     OW24439   0.473   6.497   5.569
 7847SOL    HW124440   0.520   6.563   5.510
 7847SOL    HW224441   0.540   6.431   5.604
 7848SOL     OW24442   4.502   3.252   1.171
 7848SOL    HW124443   4.468   3.165   1.207
 7848SOL    HW224444   4.449   3.278   1.091
 7849SOL     OW24445   6.755   4.407   5.724
 7849SOL    HW124446   6.821   4.361   5.783
 7849SOL    HW224447   6.670   4.424   5.774
 7850SOL     OW24448   1.277   2.955   4.635
 7850SOL    HW124449   1.199   2.981   4.692
 7850SOL    HW224450   1.261   2.988   4.541
 7851SOL     OW24451   2.827   6.690   0.311
 7851SOL    HW124452   2.909   6.742   0.336
 7851SOL    HW224453   2.802   6.629   0.386
 7852SOL     OW24454   2.601   6.399   0.435
 7852SOL    HW124455   2.668   6.449   0.490
 7852SOL    HW224456   2.588   6.446   0.348
 7853SOL     OW24457   2.694   1.860   6.369
 7853SOL    HW124458   2.618   1.845   6.306
 7853SOL    HW224459   2.704   1.780   6.429
 7854SOL     OW24460   4.059   3.881   4.461
 7854SOL    HW124461   4.034   3.792   4.422
 7854SOL    HW224462   4.089   3.942   4.387
 7855SOL     OW24463   3.226   0.136   4.767
 7855SOL    HW124464   3.312   0.099   4.732
 7855SOL    HW224465   3.230   0.236   4.767
 7856SOL     OW24466   3.092   2.686   5.777
 7856SOL    HW124467   3.172   2.747   5.775
 7856SOL    HW224468   3.115   2.599   5.732
 7857SOL     OW24469   0.357   3.484   5.002
 7857SOL    HW124470   0.441   3.468   4.951
 7857SOL    HW224471   0.356   3.425   5.083
 7858SOL     OW24472   5.241   2.802   3.183
 7858SOL    HW124473   5.191   2.888   3.173
 7858SOL    HW224474   5.305   2.810   3.259
 7859SOL     OW24475   6.701   6.837   6.921
 7859SOL    HW124476   6.640   6.905   6.960
 7859SOL    HW224477   6.646   6.763   6.880
 7860SOL     OW24478   4.516   6.529   0.236
 7860SOL    HW124479   4.519   6.469   0.156
 7860SOL    HW224480   4.428   6.520   0.282
 7861SOL     OW24481   6.465   3.710   0.126
 7861SOL    HW124482   6.392   3.663   0.175
 7861SOL    HW224483   6.443   3.808   0.121
 7862SOL     OW24484   2.943   4.635   1.623
 7862SOL    HW124485   2.939   4.588   1.711
 7862SOL    HW224486   2.917   4.572   1.550
 7863SOL     OW24487   4.387   6.093   2.708
 7863SOL    HW124488   4.470   6.055   2.667
 7863SOL    HW224489   4.412   6.146   2.789
 7864SOL     OW24490   2.105   5.762   5.573
 7864SOL    HW124491   2.035   5.796   5.636
 7864SOL    HW224492   2.096   5.807   5.485
 7865SOL     OW24493   4.374   0.243   3.118
 7865SOL    HW124494   4.282   0.281   3.128
 7865SOL    HW224495   4.375   0.148   3.150
 7866SOL     OW24496   2.556   0.404   5.434
 7866SOL    HW124497   2.609   0.486   5.455
 7866SOL    HW224498   2.611   0.323   5.453
 7867SOL     OW24499   0.094   2.698   0.635
 7867SOL    HW124500   0.153   2.722   0.558
 7867SOL    HW224501   0.108   2.603   0.660
 7868SOL     OW24502   5.361   0.211   1.489
 7868SOL    HW124503   5.428   0.271   1.533
 7868SOL    HW224504   5.390   0.192   1.395
 7869SOL     OW24505   5.820   1.748   4.465
 7869SOL    HW124506   5.776   1.718   4.549
 7869SOL    HW224507   5.790   1.840   4.441
 7870SOL     OW24508   6.059   0.211   3.049
 7870SOL    HW124509   6.130   0.143   3.066
 7870SOL    HW224510   6.100   0.297   3.023
 7871SOL     OW24511   5.443   2.462   3.224
 7871SOL    HW124512   5.513   2.520   3.183
 7871SOL    HW224513   5.353   2.490   3.189
 7872SOL     OW24514   5.403   3.967   3.750
 7872SOL    HW124515   5.384   4.063   3.767
 7872SOL    HW224516   5.457   3.959   3.665
 7873SOL     OW24517   0.059   6.179   5.081
 7873SOL    HW124518   7.005   6.141   5.029
 7873SOL    HW224519   0.127   6.215   5.017
 7874SOL     OW24520   6.134   6.668   0.246
 7874SOL    HW124521   6.119   6.579   0.289
 7874SOL    HW224522   6.141   6.738   0.317
 7875SOL     OW24523   5.498   2.228   0.118
 7875SOL    HW124524   5.568   2.298   0.101
 7875SOL    HW224525   5.413   2.272   0.147
 7876SOL     OW24526   6.956   2.588   5.152
 7876SOL    HW124527   6.932   2.592   5.055
 7876SOL    HW224528   6.964   2.682   5.188
 7877SOL     OW24529   6.141   3.266   1.495
 7877SOL    HW124530   6.115   3.203   1.423
 7877SOL    HW224531   6.237   3.252   1.520
 7878SOL     OW24532   3.919   3.567   2.332
 7878SOL    HW124533   3.990   3.555   2.401
 7878SOL    HW224534   3.950   3.632   2.263
 7879SOL     OW24535   6.640   1.528   5.446
 7879SOL    HW124536   6.737   1.553   5.443
 7879SOL    HW224537   6.589   1.598   5.495
 7880SOL     OW24538   1.814   6.097   6.342
 7880SOL    HW124539   1.857   6.160   6.406
 7880SOL    HW224540   1.749   6.039   6.390
 7881SOL     OW24541   7.022   4.907   5.613
 7881SOL    HW124542   6.964   4.828   5.634
 7881SOL    HW224543   6.983   4.990   5.653
 7882SOL     OW24544   1.335   4.574   0.668
 7882SOL    HW124545   1.296   4.537   0.584
 7882SOL    HW224546   1.431   4.599   0.652
 7883SOL     OW24547   2.641   2.212   2.770
 7883SOL    HW124548   2.666   2.268   2.691
 7883SOL    HW224549   2.551   2.171   2.754
 7884SOL     OW24550   6.629   2.161   5.777
 7884SOL    HW124551   6.675   2.233   5.829
 7884SOL    HW224552   6.616   2.081   5.835
 7885SOL     OW24553   5.317   4.929   2.291
 7885SOL    HW124554   5.378   4.867   2.340
 7885SOL    HW224555   5.297   5.008   2.349
 7886SOL     OW24556   3.535   5.386   3.611
 7886SOL    HW124557   3.532   5.303   3.555
 7886SOL    HW224558   3.552   5.361   3.706
 7887SOL     OW24559   0.601   3.145   0.577
 7887SOL    HW124560   0.550   3.076   0.629
 7887SOL    HW224561   0.643   3.102   0.498
 7888SOL     OW24562   0.570   1.311   5.151
 7888SOL    HW124563   0.529   1.250   5.084
 7888SOL    HW224564   0.522   1.300   5.239
 7889SOL     OW24565   6.118   4.388   0.447
 7889SOL    HW124566   6.173   4.385   0.364
 7889SOL    HW224567   6.171   4.430   0.521
 7890SOL     OW24568   1.305   2.466   1.637
 7890SOL    HW124569   1.274   2.489   1.730
 7890SOL    HW224570   1.404   2.448   1.638
 7891SOL     OW24571   6.216   1.080   5.003
 7891SOL    HW124572   6.157   1.004   5.032
 7891SOL    HW224573   6.162   1.145   4.950
 7892SOL     OW24574   0.712   1.651   4.934
 7892SOL    HW124575   0.777   1.601   4.877
 7892SOL    HW224576   0.730   1.631   5.030
 7893SOL     OW24577   5.659   6.063   0.813
 7893SOL    HW124578   5.709   5.994   0.867
 7893SOL    HW224579   5.565   6.032   0.799
 7894SOL     OW24580   2.634   0.105   6.112
 7894SOL    HW124581   2.722   0.110   6.067
 7894SOL    HW224582   2.561   0.115   6.045
 7895SOL     OW24583   5.077   6.813   2.434
 7895SOL    HW124584   4.994   6.771   2.470
 7895SOL    HW224585   5.150   6.745   2.428
 7896SOL     OW24586   3.809   2.008   1.284
 7896SOL    HW124587   3.718   1.999   1.325
 7896SOL    HW224588   3.875   1.954   1.338
 7897SOL     OW24589   5.179   0.987   1.621
 7897SOL    HW124590   5.122   0.919   1.573
 7897SOL    HW224591   5.233   0.941   1.691
 7898SOL     OW24592   3.641   6.501   3.287
 7898SOL    HW124593   3.679   6.578   3.337
 7898SOL    HW224594   3.541   6.500   3.298
 7899SOL     OW24595   5.898   4.721   2.770
 7899SOL    HW124596   5.963   4.666   2.716
 7899SOL    HW224597   5.924   4.719   2.866
 7900SOL     OW24598   0.674   4.104   0.570
 7900SOL    HW124599   0.749   4.052   0.528
 7900SOL    HW224600   0.653   4.066   0.660
 7901SOL     OW24601   6.947   2.951   6.364
 7901SOL    HW124602   6.876   2.991   6.422
 7901SOL    HW224603   6.907   2.880   6.305
 7902SOL     OW24604   1.518   0.253   1.522
 7902SOL    HW124605   1.552   0.193   1.594
 7902SOL    HW224606   1.594   0.303   1.482
 7903SOL     OW24607   3.379   2.265   5.595
 7903SOL    HW124608   3.453   2.309   5.647
 7903SOL    HW224609   3.402   2.266   5.498
 7904SOL     OW24610   5.480   3.086   3.302
 7904SOL    HW124611   5.542   3.111   3.227
 7904SOL    HW224612   5.527   3.099   3.389
 7905SOL     OW24613   6.287   1.933   0.935
 7905SOL    HW124614   6.357   1.920   1.005
 7905SOL    HW224615   6.216   1.995   0.969
 7906SOL     OW24616   6.718   5.865   5.768
 7906SOL    HW124617   6.697   5.955   5.731
 7906SOL    HW224618   6.810   5.837   5.739
 7907SOL     OW24619   5.332   5.552   2.983
 7907SOL    HW124620   5.298   5.629   3.038
 7907SOL    HW224621   5.349   5.583   2.890
 7908SOL     OW24622   1.571   6.967   6.277
 7908SOL    HW124623   1.520   6.961   6.191
 7908SOL    HW224624   1.515   6.930   6.352
 7909SOL     OW24625   6.812   4.146   2.954
 7909SOL    HW124626   6.875   4.209   2.907
 7909SOL    HW224627   6.786   4.072   2.893
 7910SOL     OW24628   1.482   4.335   4.598
 7910SOL    HW124629   1.530   4.377   4.522
 7910SOL    HW224630   1.465   4.239   4.578
 7911SOL     OW24631   5.983   3.916   6.405
 7911SOL    HW124632   5.906   3.969   6.369
 7911SOL    HW224633   5.970   3.819   6.385
 7912SOL     OW24634   5.724   5.332   1.822
 7912SOL    HW124635   5.652   5.336   1.891
 7912SOL    HW224636   5.792   5.403   1.840
 7913SOL     OW24637   1.191   3.869   6.634
 7913SOL    HW124638   1.165   3.778   6.668
 7913SOL    HW224639   1.275   3.899   6.679
 7914SOL     OW24640   1.212   0.192   4.897
 7914SOL    HW124641   1.142   0.151   4.838
 7914SOL    HW224642   1.215   0.291   4.881
 7915SOL     OW24643   2.520   6.441   1.584
 7915SOL    HW124644   2.612   6.478   1.599
 7915SOL    HW224645   2.456   6.484   1.647
 7916SOL     OW24646   1.935   0.385   3.053
 7916SOL    HW124647   2.035   0.386   3.058
 7916SOL    HW224648   1.906   0.314   2.989
 7917SOL     OW24649   4.707   1.306   3.048
 7917SOL    HW124650   4.675   1.346   3.134
 7917SOL    HW224651   4.669   1.214   3.039
 7918SOL     OW24652   1.795   2.845   2.485
 7918SOL    HW124653   1.826   2.938   2.467
 7918SOL    HW224654   1.729   2.846   2.560
 7919SOL     OW24655   0.814   0.308   4.728
 7919SOL    HW124656   0.785   0.249   4.804
 7919SOL    HW224657   0.807   0.404   4.756
 7920SOL     OW24658   5.022   0.160   1.276
 7920SOL    HW124659   5.068   0.248   1.268
 7920SOL    HW224660   4.970   0.157   1.361
 7921SOL     OW24661   6.710   3.633   0.911
 7921SOL    HW124662   6.708   3.649   1.010
 7921SOL    HW224663   6.790   3.678   0.871
 7922SOL     OW24664   1.792   6.621   3.544
 7922SOL    HW124665   1.808   6.605   3.642
 7922SOL    HW224666   1.879   6.631   3.498
 7923SOL     OW24667   5.347   0.270   6.877
 7923SOL    HW124668   5.393   0.261   6.965
 7923SOL    HW224669   5.280   0.197   6.866
 7924SOL     OW24670   5.297   5.858   7.021
 7924SOL    HW124671   5.371   5.903   0.049
 7924SOL    HW224672   5.301   5.759   0.016
 7925SOL     OW24673   2.213   4.363   6.337
 7925SOL    HW124674   2.224   4.340   6.240
 7925SOL    HW224675   2.287   4.323   6.390
 7926SOL     OW24676   4.624   5.673   0.674
 7926SOL    HW124677   4.557   5.725   0.622
 7926SOL    HW224678   4.705   5.657   0.618
 7927SOL     OW24679   4.583   6.650   3.742
 7927SOL    HW124680   4.600   6.719   3.812
 7927SOL    HW224681   4.660   6.585   3.740
 7928SOL     OW24682   6.082   2.770   3.853
 7928SOL    HW124683   6.026   2.761   3.936
 7928SOL    HW224684   6.068   2.860   3.813
 7929SOL     OW24685   4.548   4.100   5.501
 7929SOL    HW124686   4.478   4.116   5.570
 7929SOL    HW224687   4.533   4.011   5.458
 7930SOL     OW24688   3.463   5.409   1.074
 7930SOL    HW124689   3.422   5.487   1.121
 7930SOL    HW224690   3.510   5.351   1.141
 7931SOL     OW24691   5.446   0.691   0.274
 7931SOL    HW124692   5.492   0.640   0.202
 7931SOL    HW224693   5.359   0.647   0.296
 7932SOL     OW24694   1.465   3.909   0.679
 7932SOL    HW124695   1.440   3.952   0.591
 7932SOL    HW224696   1.394   3.844   0.705
 7933SOL     OW24697   2.132   1.338   0.147
 7933SOL    HW124698   2.165   1.286   0.068
 7933SOL    HW224699   2.152   1.289   0.231
 7934SOL     OW24700   6.495   5.231   0.918
 7934SOL    HW124701   6.496   5.287   0.836
 7934SOL    HW224702   6.590   5.208   0.944
 7935SOL     OW24703   6.578   4.322   3.721
 7935SOL    HW124704   6.533   4.255   3.663
 7935SOL    HW224705   6.591   4.407   3.670
 7936SOL     OW24706   2.572   5.442   3.856
 7936SOL    HW124707   2.547   5.414   3.949
 7936SOL    HW224708   2.555   5.366   3.793
 7937SOL     OW24709   4.134   1.137   1.544
 7937SOL    HW124710   4.048   1.085   1.540
 7937SOL    HW224711   4.209   1.079   1.512
 7938SOL     OW24712   1.890   0.153   3.308
 7938SOL    HW124713   1.803   0.134   3.353
 7938SOL    HW224714   1.875   0.167   3.211
 7939SOL     OW24715   1.763   0.331   3.741
 7939SOL    HW124716   1.785   0.334   3.643
 7939SOL    HW224717   1.669   0.299   3.752
 7940SOL     OW24718   6.612   1.148   5.720
 7940SOL    HW124719   6.570   1.234   5.693
 7940SOL    HW224720   6.651   1.157   5.812
 7941SOL     OW24721   2.768   0.297   0.767
 7941SOL    HW124722   2.714   0.293   0.851
 7941SOL    HW224723   2.818   0.211   0.755
 7942SOL     OW24724   1.722   3.716   1.126
 7942SOL    HW124725   1.697   3.757   1.214
 7942SOL    HW224726   1.795   3.770   1.084
 7943SOL     OW24727   1.680   5.541   6.789
 7943SOL    HW124728   1.686   5.448   6.751
 7943SOL    HW224729   1.770   5.569   6.822
 7944SOL     OW24730   1.461   1.800   0.450
 7944SOL    HW124731   1.449   1.787   0.548
 7944SOL    HW224732   1.557   1.822   0.431
 7945SOL     OW24733   6.347   4.350   3.495
 7945SOL    HW124734   6.401   4.341   3.411
 7945SOL    HW224735   6.373   4.277   3.559
 7946SOL     OW24736   5.382   1.345   5.763
 7946SOL    HW124737   5.427   1.289   5.832
 7946SOL    HW224738   5.375   1.439   5.795
 7947SOL     OW24739   0.793   4.151   6.737
 7947SOL    HW124740   0.741   4.223   6.784
 7947SOL    HW224741   0.729   4.084   6.699
 7948SOL     OW24742   1.099   5.723   1.141
 7948SOL    HW124743   1.192   5.695   1.120
 7948SOL    HW224744   1.040   5.642   1.149
 7949SOL     OW24745   3.718   5.249   4.926
 7949SOL    HW124746   3.700   5.341   4.961
 7949SOL    HW224747   3.786   5.254   4.852
 7950SOL     OW24748   6.547   2.374   6.456
 7950SOL    HW124749   6.551   2.306   6.528
 7950SOL    HW224750   6.568   2.332   6.368
 7951SOL     OW24751   3.239   0.667   2.845
 7951SOL    HW124752   3.240   0.568   2.857
 7951SOL    HW224753   3.332   0.701   2.832
 7952SOL     OW24754   0.305   3.252   5.493
 7952SOL    HW124755   0.365   3.174   5.507
 7952SOL    HW224756   0.354   3.325   5.445
 7953SOL     OW24757   0.483   0.884   0.120
 7953SOL    HW124758   0.420   0.925   0.054
 7953SOL    HW224759   0.540   0.816   0.072
 7954SOL     OW24760   4.113   2.375   1.162
 7954SOL    HW124761   4.056   2.450   1.194
 7954SOL    HW224762   4.208   2.391   1.187
 7955SOL     OW24763   6.361   7.008   6.478
 7955SOL    HW124764   6.290   6.957   6.429
 7955SOL    HW224765   6.447   7.003   6.428
 7956SOL     OW24766   0.159   6.927   1.646
 7956SOL    HW124767   0.147   6.828   1.647
 7956SOL    HW224768   0.251   6.950   1.677
 7957SOL     OW24769   6.010   2.145   6.183
 7957SOL    HW124770   5.989   2.242   6.172
 7957SOL    HW224771   6.107   2.129   6.165
 7958SOL     OW24772   4.924   2.482   6.095
 7958SOL    HW124773   4.953   2.553   6.159
 7958SOL    HW224774   4.880   2.524   6.015
 7959SOL     OW24775   5.719   2.679   6.932
 7959SOL    HW124776   5.807   2.704   6.973
 7959SOL    HW224777   5.650   2.675   7.004
 7960SOL     OW24778   0.846   2.915   5.080
 7960SOL    HW124779   0.844   3.012   5.106
 7960SOL    HW224780   0.923   2.870   5.127
 7961SOL     OW24781   6.306   0.129   6.030
 7961SOL    HW124782   6.208   0.144   6.016
 7961SOL    HW224783   6.358   0.185   5.966
 7962SOL     OW24784   5.884   0.534   4.773
 7962SOL    HW124785   5.814   0.596   4.808
 7962SOL    HW224786   5.974   0.571   4.794
 7963SOL     OW24787   5.861   6.177   2.379
 7963SOL    HW124788   5.860   6.276   2.391
 7963SOL    HW224789   5.792   6.136   2.440
 7964SOL     OW24790   1.024   4.522   1.630
 7964SOL    HW124791   1.000   4.586   1.703
 7964SOL    HW224792   0.968   4.541   1.549
 7965SOL     OW24793   4.844   1.838   6.532
 7965SOL    HW124794   4.942   1.845   6.549
 7965SOL    HW224795   4.802   1.927   6.546
 7966SOL     OW24796   5.752   3.880   5.336
 7966SOL    HW124797   5.804   3.818   5.395
 7966SOL    HW224798   5.658   3.885   5.367
 7967SOL     OW24799   2.065   4.274   1.718
 7967SOL    HW124800   2.030   4.218   1.643
 7967SOL    HW224801   2.155   4.241   1.745
 7968SOL     OW24802   2.104   2.248   3.500
 7968SOL    HW124803   2.066   2.170   3.450
 7968SOL    HW224804   2.128   2.320   3.436
 7969SOL     OW24805   2.496   4.377   6.196
 7969SOL    HW124806   2.479   4.383   6.294
 7969SOL    HW224807   2.553   4.297   6.177
 7970SOL     OW24808   6.758   2.379   2.796
 7970SOL    HW124809   6.790   2.342   2.708
 7970SOL    HW224810   6.686   2.320   2.832
 7971SOL     OW24811   2.464   0.148   6.855
 7971SOL    HW124812   2.551   0.181   6.818
 7971SOL    HW224813   2.426   0.216   6.917
 7972SOL     OW24814   3.311   2.858   3.884
 7972SOL    HW124815   3.261   2.771   3.881
 7972SOL    HW224816   3.248   2.933   3.903
 7973SOL     OW24817   0.996   5.573   2.216
 7973SOL    HW124818   1.033   5.608   2.302
 7973SOL    HW224819   0.979   5.649   2.153
 7974SOL     OW24820   0.135   3.073   3.944
 7974SOL    HW124821   0.079   3.134   3.888
 7974SOL    HW224822   0.167   2.996   3.890
 7975SOL     OW24823   3.849   0.593   6.436
 7975SOL    HW124824   3.786   0.648   6.382
 7975SOL    HW224825   3.939   0.592   6.392
 7976SOL     OW24826   0.115   0.476   1.099
 7976SOL    HW124827   0.115   0.451   1.003
 7976SOL    HW224828   0.021   0.476   1.133
 7977SOL     OW24829   5.561   4.950   2.817
 7977SOL    HW124830   5.574   4.851   2.813
 7977SOL    HW224831   5.513   4.974   2.902
 7978SOL     OW24832   0.398   4.009   1.444
 7978SOL    HW124833   0.415   3.957   1.360
 7978SOL    HW224834   0.443   3.963   1.521
 7979SOL     OW24835   3.829   2.874   5.754
 7979SOL    HW124836   3.893   2.799   5.772
 7979SOL    HW224837   3.765   2.847   5.682
 7980SOL     OW24838   4.030   5.855   2.806
 7980SOL    HW124839   4.108   5.851   2.743
 7980SOL    HW224840   3.954   5.803   2.766
 7981SOL     OW24841   1.205   2.908   3.440
 7981SOL    HW124842   1.207   2.809   3.449
 7981SOL    HW224843   1.134   2.946   3.499
 7982SOL     OW24844   6.601   6.853   0.633
 7982SOL    HW124845   6.608   6.946   0.598
 7982SOL    HW224846   6.678   6.834   0.694
 7983SOL     OW24847   3.549   1.678   1.071
 7983SOL    HW124848   3.639   1.722   1.063
 7983SOL    HW224849   3.480   1.737   1.029
 7984SOL     OW24850   6.005   1.459   1.838
 7984SOL    HW124851   6.058   1.460   1.923
 7984SOL    HW224852   5.907   1.460   1.859
 7985SOL     OW24853   3.119   3.839   6.170
 7985SOL    HW124854   3.037   3.871   6.219
 7985SOL    HW224855   3.199   3.889   6.203
 7986SOL     OW24856   2.026   1.048   3.605
 7986SOL    HW124857   1.982   1.001   3.529
 7986SOL    HW224858   1.975   1.030   3.689
 7987SOL     OW24859   1.072   2.963   0.295
 7987SOL    HW124860   0.976   2.952   0.267
 7987SOL    HW224861   1.076   2.999   0.388
 7988SOL     OW24862   6.145   6.835   1.786
 7988SOL    HW124863   6.047   6.843   1.768
 7988SOL    HW224864   6.163   6.754   1.841
 7989SOL     OW24865   0.659   4.974   1.696
 7989SOL    HW124866   0.603   5.052   1.668
 7989SOL    HW224867   0.631   4.944   1.787
 7990SOL     OW24868   4.350   5.157   5.756
 7990SOL    HW124869   4.340   5.140   5.658
 7990SOL    HW224870   4.353   5.255   5.773
 7991SOL     OW24871   5.274   1.056   4.245
 7991SOL    HW124872   5.183   1.049   4.204
 7991SOL    HW224873   5.275   1.009   4.333
 7992SOL     OW24874   3.261   0.549   0.478
 7992SOL    HW124875   3.233   0.466   0.432
 7992SOL    HW224876   3.181   0.609   0.491
 7993SOL     OW24877   6.443   4.626   1.218
 7993SOL    HW124878   6.411   4.654   1.127
 7993SOL    HW224879   6.369   4.635   1.284
 7994SOL     OW24880   0.943   1.158   5.272
 7994SOL    HW124881   1.031   1.204   5.261
 7994SOL    HW224882   0.924   1.145   5.369
 7995SOL     OW24883   0.354   5.791   0.540
 7995SOL    HW124884   0.387   5.878   0.578
 7995SOL    HW224885   0.422   5.754   0.477
 7996SOL     OW24886   1.514   6.138   4.110
 7996SOL    HW124887   1.534   6.195   4.190
 7996SOL    HW224888   1.424   6.162   4.073
 7997SOL     OW24889   2.406   0.751   5.938
 7997SOL    HW124890   2.456   0.668   5.963
 7997SOL    HW224891   2.346   0.778   6.013
 7998SOL     OW24892   2.032   1.974   1.685
 7998SOL    HW124893   1.999   2.000   1.776
 7998SOL    HW224894   2.079   2.051   1.643
 7999SOL     OW24895   0.009   0.602   2.360
 7999SOL    HW124896   0.109   0.594   2.360
 7999SOL    HW224897   6.992   0.511   2.348
 8000SOL     OW24898   4.437   5.843   0.568
 8000SOL    HW124899   4.388   5.822   0.653
 8000SOL    HW224900   4.469   5.938   0.571
 8001SOL     OW24901   5.228   4.958   2.035
 8001SOL    HW124902   5.253   4.950   2.131
 8001SOL    HW224903   5.208   5.054   2.014
 8002SOL     OW24904   1.362   0.617   5.145
 8002SOL    HW124905   1.408   0.529   5.146
 8002SOL    HW224906   1.427   0.689   5.119
 8003SOL     OW24907   2.368   5.360   2.680
 8003SOL    HW124908   2.388   5.283   2.620
 8003SOL    HW224909   2.353   5.326   2.773
 8004SOL     OW24910   2.065   3.866   3.799
 8004SOL    HW124911   2.081   3.925   3.720
 8004SOL    HW224912   2.040   3.922   3.878
 8005SOL     OW24913   2.887   0.292   4.772
 8005SOL    HW124914   2.964   0.352   4.750
 8005SOL    HW224915   2.812   0.345   4.809
 8006SOL     OW24916   4.787   5.202   6.659
 8006SOL    HW124917   4.779   5.240   6.567
 8006SOL    HW224918   4.764   5.105   6.658
 8007SOL     OW24919   0.505   0.420   1.121
 8007SOL    HW124920   0.489   0.407   1.023
 8007SOL    HW224921   0.420   0.401   1.171
 8008SOL     OW24922   5.135   5.467   1.416
 8008SOL    HW124923   5.229   5.486   1.388
 8008SOL    HW224924   5.132   5.451   1.514
 8009SOL     OW24925   5.651   6.909   1.435
 8009SOL    HW124926   5.643   6.876   1.529
 8009SOL    HW224927   5.694   7.000   1.435
 8010SOL     OW24928   3.165   0.114   0.271
 8010SOL    HW124929   3.118   0.202   0.275
 8010SOL    HW224930   3.233   0.117   0.197
 8011SOL     OW24931   3.720   1.763   1.856
 8011SOL    HW124932   3.792   1.705   1.818
 8011SOL    HW224933   3.724   1.853   1.813
 8012SOL     OW24934   5.977   0.793   5.603
 8012SOL    HW124935   6.044   0.761   5.669
 8012SOL    HW224936   6.024   0.837   5.526
 8013SOL     OW24937   3.491   0.856   3.596
 8013SOL    HW124938   3.557   0.899   3.534
 8013SOL    HW224939   3.400   0.863   3.556
 8014SOL     OW24940   2.124   2.534   3.653
 8014SOL    HW124941   2.115   2.436   3.631
 8014SOL    HW224942   2.075   2.587   3.584
 8015SOL     OW24943   3.615   5.759   5.090
 8015SOL    HW124944   3.587   5.666   5.064
 8015SOL    HW224945   3.567   5.826   5.034
 8016SOL     OW24946   2.812   3.753   5.716
 8016SOL    HW124947   2.880   3.702   5.663
 8016SOL    HW224948   2.858   3.800   5.792
 8017SOL     OW24949   5.296   6.553   1.935
 8017SOL    HW124950   5.323   6.613   1.859
 8017SOL    HW224951   5.290   6.459   1.902
 8018SOL     OW24952   3.508   2.653   1.009
 8018SOL    HW124953   3.478   2.676   1.101
 8018SOL    HW224954   3.562   2.569   1.010
 8019SOL     OW24955   3.043   3.510   0.821
 8019SOL    HW124956   2.985   3.521   0.902
 8019SOL    HW224957   2.996   3.451   0.754
 8020SOL     OW24958   0.977   6.984   0.092
 8020SOL    HW124959   0.905   7.019   0.031
 8020SOL    HW224960   0.942   6.978   0.185
 8021SOL     OW24961   1.587   2.189   0.589
 8021SOL    HW124962   1.555   2.244   0.512
 8021SOL    HW224963   1.682   2.213   0.610
 8022SOL     OW24964   3.647   0.008   2.495
 8022SOL    HW124965   3.713   6.959   2.519
 8022SOL    HW224966   3.690   0.097   2.507
 8023SOL     OW24967   3.577   4.896   2.577
 8023SOL    HW124968   3.650   4.841   2.618
 8023SOL    HW224969   3.614   4.984   2.549
 8024SOL     OW24970   2.855   0.698   6.770
 8024SOL    HW124971   2.841   0.691   6.869
 8024SOL    HW224972   2.826   0.788   6.739
 8025SOL     OW24973   1.329   6.829   1.731
 8025SOL    HW124974   1.378   6.787   1.654
 8025SOL    HW224975   1.301   6.757   1.795
 8026SOL     OW24976   0.769   6.538   5.005
 8026SOL    HW124977   0.863   6.564   5.029
 8026SOL    HW224978   0.742   6.458   5.058
 8027SOL     OW24979   4.319   0.122   6.303
 8027SOL    HW124980   4.300   0.219   6.287
 8027SOL    HW224981   4.415   0.111   6.330
 8028SOL     OW24982   3.470   5.632   6.597
 8028SOL    HW124983   3.474   5.731   6.605
 8028SOL    HW224984   3.431   5.607   6.509
 8029SOL     OW24985   1.556   6.678   1.586
 8029SOL    HW124986   1.547   6.638   1.677
 8029SOL    HW224987   1.564   6.604   1.519
 8030SOL     OW24988   0.712   3.264   0.782
 8030SOL    HW124989   0.696   3.223   0.692
 8030SOL    HW224990   0.701   3.363   0.776
 8031SOL     OW24991   0.551   0.726   4.077
 8031SOL    HW124992   0.636   0.702   4.125
 8031SOL    HW224993   0.517   0.814   4.112
 8032SOL     OW24994   0.777   3.291   1.699
 8032SOL    HW124995   0.736   3.302   1.789
 8032SOL    HW224996   0.813   3.198   1.689
 8033SOL     OW24997   3.855   5.062   0.754
 8033SOL    HW124998   3.836   5.151   0.796
 8033SOL    HW224999   3.814   5.059   0.663
 8034SOL     OW25000   1.040   1.513   4.951
 8034SOL    HW125001   1.105   1.585   4.975
 8034SOL    HW225002   1.017   1.521   4.854
 8035SOL     OW25003   5.294   0.384   3.720
 8035SOL    HW125004   5.303   0.349   3.814
 8035SOL    HW225005   5.210   0.437   3.712
 8036SOL     OW25006   5.566   5.195   5.094
 8036SOL    HW125007   5.480   5.240   5.118
 8036SOL    HW225008   5.557   5.151   5.005
 8037SOL     OW25009   3.745   0.798   6.309
 8037SOL    HW125010   3.838   0.828   6.329
 8037SOL    HW225011   3.694   0.873   6.268
 8038SOL     OW25012   5.527   5.971   1.906
 8038SOL    HW125013   5.616   5.987   1.950
 8038SOL    HW225014   5.492   6.056   1.869
 8039SOL     OW25015   1.725   2.731   4.812
 8039SOL    HW125016   1.631   2.765   4.815
 8039SOL    HW225017   1.734   2.666   4.737
 8040SOL     OW25018   0.521   0.121   4.952
 8040SOL    HW125019   0.513   0.025   4.926
 8040SOL    HW225020   0.479   0.134   5.042
 8041SOL     OW25021   2.841   2.043   2.874
 8041SOL    HW125022   2.767   2.098   2.834
 8041SOL    HW225023   2.886   2.095   2.946
 8042SOL     OW25024   5.211   4.142   6.263
 8042SOL    HW125025   5.148   4.220   6.259
 8042SOL    HW225026   5.213   4.096   6.175
 8043SOL     OW25027   5.941   5.232   0.075
 8043SOL    HW125028   5.971   5.239   7.003
 8043SOL    HW225029   5.886   5.149   0.087
 8044SOL     OW25030   1.066   2.824   1.287
 8044SOL    HW125031   1.087   2.737   1.244
 8044SOL    HW225032   1.090   2.820   1.384
 8045SOL     OW25033   5.811   3.085   5.058
 8045SOL    HW125034   5.717   3.061   5.084
 8045SOL    HW225035   5.842   3.026   4.985
 8046SOL     OW25036   6.853   4.257   1.598
 8046SOL    HW125037   6.852   4.209   1.686
 8046SOL    HW225038   6.947   4.286   1.577
 8047SOL     OW25039   2.716   6.467   0.002
 8047SOL    HW125040   2.719   6.386   0.060
 8047SOL    HW225041   2.806   6.482   6.984
 8048SOL     OW25042   4.878   2.059   6.765
 8048SOL    HW125043   4.806   2.125   6.741
 8048SOL    HW225044   4.965   2.088   6.725
 8049SOL     OW25045   2.730   1.936   0.345
 8049SOL    HW125046   2.661   1.905   0.280
 8049SOL    HW225047   2.691   2.008   0.403
 8050SOL     OW25048   6.736   4.773   6.004
 8050SOL    HW125049   6.785   4.809   6.083
 8050SOL    HW225050   6.687   4.690   6.030
 8051SOL     OW25051   4.086   6.433   3.416
 8051SOL    HW125052   4.050   6.434   3.323
 8051SOL    HW225053   4.042   6.360   3.468
 8052SOL     OW25054   1.828   1.693   2.863
 8052SOL    HW125055   1.766   1.720   2.937
 8052SOL    HW225056   1.907   1.645   2.902
 8053SOL     OW25057   1.710   1.145   6.257
 8053SOL    HW125058   1.765   1.222   6.291
 8053SOL    HW225059   1.731   1.063   6.309
 8054SOL     OW25060   4.938   3.882   4.977
 8054SOL    HW125061   4.890   3.797   4.954
 8054SOL    HW225062   4.878   3.960   4.959
 8055SOL     OW25063   6.945   1.332   6.288
 8055SOL    HW125064   6.978   1.303   6.198
 8055SOL    HW225065   6.860   1.283   6.310
 8056SOL     OW25066   1.766   2.557   2.201
 8056SOL    HW125067   1.748   2.572   2.298
 8056SOL    HW225068   1.700   2.608   2.147
 8057SOL     OW25069   2.934   1.755   1.979
 8057SOL    HW125070   2.995   1.833   1.991
 8057SOL    HW225071   2.839   1.787   1.980
 8058SOL     OW25072   3.004   6.247   2.052
 8058SOL    HW125073   3.045   6.171   2.102
 8058SOL    HW225074   2.925   6.282   2.103
 8059SOL     OW25075   4.634   4.371   5.087
 8059SOL    HW125076   4.727   4.373   5.049
 8059SOL    HW225077   4.606   4.276   5.100
 8060SOL     OW25078   0.522   1.263   4.815
 8060SOL    HW125079   0.529   1.164   4.823
 8060SOL    HW225080   0.614   1.303   4.820
 8061SOL     OW25081   6.841   0.523   0.523
 8061SOL    HW125082   6.813   0.586   0.452
 8061SOL    HW225083   6.781   0.534   0.603
 8062SOL     OW25084   4.771   4.095   6.858
 8062SOL    HW125085   4.683   4.101   6.812
 8062SOL    HW225086   4.837   4.154   6.812
 8063SOL     OW25087   2.639   4.643   2.149
 8063SOL    HW125088   2.702   4.623   2.073
 8063SOL    HW225089   2.666   4.729   2.192
 8064SOL     OW25090   6.853   2.065   0.266
 8064SOL    HW125091   6.887   2.024   0.350
 8064SOL    HW225092   6.896   2.154   0.252
 8065SOL     OW25093   5.095   0.130   6.786
 8065SOL    HW125094   5.062   0.036   6.784
 8065SOL    HW225095   5.086   0.167   6.879
 8066SOL     OW25096   6.692   0.982   5.376
 8066SOL    HW125097   6.615   1.041   5.401
 8066SOL    HW225098   6.774   1.011   5.427
 8067SOL     OW25099   5.355   0.917   4.489
 8067SOL    HW125100   5.361   0.819   4.472
 8067SOL    HW225101   5.446   0.956   4.495
 8068SOL     OW25102   0.110   4.055   1.112
 8068SOL    HW125103   0.140   4.148   1.131
 8068SOL    HW225104   0.141   4.027   1.021
 8069SOL     OW25105   0.985   2.324   1.946
 8069SOL    HW125106   1.035   2.264   2.009
 8069SOL    HW225107   0.905   2.275   1.910
 8070SOL     OW25108   5.606   4.022   1.308
 8070SOL    HW125109   5.591   3.935   1.260
 8070SOL    HW225110   5.569   4.016   1.400
 8071SOL     OW25111   1.880   6.966   6.336
 8071SOL    HW125112   1.930   0.020   6.375
 8071SOL    HW225113   1.781   6.984   6.342
 8072SOL     OW25114   2.735   1.720   5.572
 8072SOL    HW125115   2.656   1.726   5.510
 8072SOL    HW225116   2.736   1.630   5.616
 8073SOL     OW25117   5.592   5.665   0.160
 8073SOL    HW125118   5.570   5.589   0.221
 8073SOL    HW225119   5.525   5.668   0.085
 8074SOL     OW25120   6.575   0.663   0.424
 8074SOL    HW125121   6.575   0.754   0.466
 8074SOL    HW225122   6.633   0.664   0.343
 8075SOL     OW25123   0.112   6.879   1.372
 8075SOL    HW125124   0.105   6.904   1.468
 8075SOL    HW225125   0.021   6.858   1.336
 8076SOL     OW25126   6.673   6.007   0.563
 8076SOL    HW125127   6.759   6.013   0.613
 8076SOL    HW225128   6.660   5.914   0.529
 8077SOL     OW25129   6.136   4.279   1.491
 8077SOL    HW125130   6.047   4.234   1.483
 8077SOL    HW225131   6.201   4.215   1.531
 8078SOL     OW25132   5.254   1.822   1.584
 8078SOL    HW125133   5.248   1.816   1.684
 8078SOL    HW225134   5.222   1.912   1.554
 8079SOL     OW25135   6.853   0.677   6.115
 8079SOL    HW125136   6.774   0.632   6.156
 8079SOL    HW225137   6.840   0.683   6.016
 8080SOL     OW25138   6.724   4.023   3.574
 8080SOL    HW125139   6.770   3.989   3.656
 8080SOL    HW225140   6.648   3.963   3.551
 8081SOL     OW25141   5.781   0.826   5.236
 8081SOL    HW125142   5.724   0.893   5.188
 8081SOL    HW225143   5.749   0.818   5.331
 8082SOL     OW25144   5.177   2.443   5.029
 8082SOL    HW125145   5.142   2.509   4.963
 8082SOL    HW225146   5.131   2.355   5.016
 8083SOL     OW25147   0.065   2.920   3.590
 8083SOL    HW125148   7.019   2.863   3.546
 8083SOL    HW225149   0.063   3.012   3.551
 8084SOL     OW25150   5.734   1.658   6.890
 8084SOL    HW125151   5.794   1.738   6.898
 8084SOL    HW225152   5.771   1.583   6.945
 8085SOL     OW25153   1.508   5.862   4.209
 8085SOL    HW125154   1.430   5.871   4.271
 8085SOL    HW225155   1.522   5.948   4.160
 8086SOL     OW25156   0.214   1.960   1.698
 8086SOL    HW125157   0.188   1.988   1.606
 8086SOL    HW225158   0.136   1.917   1.744
 8087SOL     OW25159   6.119   1.050   6.599
 8087SOL    HW125160   6.200   1.065   6.655
 8087SOL    HW225161   6.118   0.956   6.565
 8088SOL     OW25162   6.263   0.218   5.587
 8088SOL    HW125163   6.258   0.298   5.526
 8088SOL    HW225164   6.172   0.179   5.597
 8089SOL     OW25165   6.625   0.852   0.157
 8089SOL    HW125166   6.657   0.759   0.175
 8089SOL    HW225167   6.526   0.856   0.172
 8090SOL     OW25168   3.983   2.131   4.713
 8090SOL    HW125169   4.035   2.045   4.710
 8090SOL    HW225170   3.892   2.116   4.672
 8091SOL     OW25171   1.059   3.371   5.566
 8091SOL    HW125172   1.043   3.272   5.570
 8091SOL    HW225173   1.153   3.388   5.536
 8092SOL     OW25174   4.795   6.226   5.262
 8092SOL    HW125175   4.880   6.267   5.296
 8092SOL    HW225176   4.817   6.159   5.191
 8093SOL     OW25177   3.980   0.128   3.814
 8093SOL    HW125178   3.883   0.148   3.803
 8093SOL    HW225179   4.001   0.038   3.775
 8094SOL     OW25180   2.601   5.095   3.010
 8094SOL    HW125181   2.701   5.090   3.013
 8094SOL    HW225182   2.563   5.041   3.086
 8095SOL     OW25183   0.653   5.280   5.256
 8095SOL    HW125184   0.601   5.278   5.341
 8095SOL    HW225185   0.720   5.205   5.256
 8096SOL     OW25186   1.134   5.168   0.376
 8096SOL    HW125187   1.051   5.175   0.321
 8096SOL    HW225188   1.117   5.205   0.467
 8097SOL     OW25189   5.019   0.752   6.898
 8097SOL    HW125190   5.102   0.729   6.948
 8097SOL    HW225191   4.961   0.810   6.955
 8098SOL     OW25192   2.886   6.465   5.527
 8098SOL    HW125193   2.954   6.405   5.483
 8098SOL    HW225194   2.861   6.428   5.616
 8099SOL     OW25195   2.252   4.652   3.349
 8099SOL    HW125196   2.290   4.733   3.392
 8099SOL    HW225197   2.163   4.674   3.307
 8100SOL     OW25198   6.899   6.346   0.366
 8100SOL    HW125199   6.829   6.400   0.413
 8100SOL    HW225200   6.976   6.332   0.428
 8101SOL     OW25201   2.923   4.849   6.449
 8101SOL    HW125202   2.997   4.869   6.513
 8101SOL    HW225203   2.878   4.934   6.422
 8102SOL     OW25204   1.073   4.640   3.718
 8102SOL    HW125205   1.139   4.570   3.747
 8102SOL    HW225206   1.046   4.623   3.623
 8103SOL     OW25207   5.238   0.678   1.597
 8103SOL    HW125208   5.158   0.707   1.650
 8103SOL    HW225209   5.291   0.613   1.649
 8104SOL     OW25210   1.694   6.838   0.136
 8104SOL    HW125211   1.735   6.781   0.207
 8104SOL    HW225212   1.755   6.842   0.057
 8105SOL     OW25213   6.929   6.873   2.673
 8105SOL    HW125214   6.879   6.875   2.759
 8105SOL    HW225215   6.970   6.782   2.660
 8106SOL     OW25216   3.784   6.646   0.010
 8106SOL    HW125217   3.871   6.600   0.026
 8106SOL    HW225218   3.744   6.615   6.947
 8107SOL     OW25219   0.513   6.257   0.280
 8107SOL    HW125220   0.441   6.300   0.225
 8107SOL    HW225221   0.490   6.161   0.296
 8108SOL     OW25222   1.896   1.346   1.272
 8108SOL    HW125223   1.943   1.285   1.336
 8108SOL    HW225224   1.959   1.376   1.202
 8109SOL     OW25225   0.386   4.050   2.213
 8109SOL    HW125226   0.406   4.106   2.294
 8109SOL    HW225227   0.287   4.045   2.201
 8110SOL     OW25228   5.170   3.896   6.682
 8110SOL    HW125229   5.266   3.910   6.660
 8110SOL    HW225230   5.117   3.892   6.597
 8111SOL     OW25231   5.317   2.095   2.704
 8111SOL    HW125232   5.389   2.151   2.746
 8111SOL    HW225233   5.273   2.146   2.630
 8112SOL     OW25234   2.084   4.502   6.517
 8112SOL    HW125235   1.987   4.527   6.511
 8112SOL    HW225236   2.112   4.455   6.434
 8113SOL     OW25237   5.852   4.961   6.887
 8113SOL    HW125238   5.810   5.041   6.844
 8113SOL    HW225239   5.935   4.936   6.836
 8114SOL     OW25240   2.069   2.689   2.648
 8114SOL    HW125241   2.107   2.776   2.616
 8114SOL    HW225242   2.139   2.618   2.643
 8115SOL     OW25243   2.908   1.973   6.084
 8115SOL    HW125244   2.908   1.893   6.024
 8115SOL    HW225245   2.814   2.006   6.095
 8116SOL     OW25246   4.147   3.104   1.904
 8116SOL    HW125247   4.229   3.119   1.848
 8116SOL    HW225248   4.066   3.135   1.855
 8117SOL     OW25249   1.387   0.950   3.026
 8117SOL    HW125250   1.479   0.949   3.066
 8117SOL    HW225251   1.381   1.024   2.958
 8118SOL     OW25252   5.934   1.846   6.922
 8118SOL    HW125253   5.926   1.912   6.997
 8118SOL    HW225254   5.974   1.892   6.842
 8119SOL     OW25255   5.614   4.780   6.609
 8119SOL    HW125256   5.617   4.844   6.532
 8119SOL    HW225257   5.602   4.687   6.575
 8120SOL     OW25258   1.889   6.735   2.441
 8120SOL    HW125259   1.847   6.655   2.484
 8120SOL    HW225260   1.986   6.716   2.425
 8121SOL     OW25261   1.478   2.081   3.037
 8121SOL    HW125262   1.521   2.141   2.970
 8121SOL    HW225263   1.380   2.077   3.021
 8122SOL     OW25264   0.223   5.278   1.125
 8122SOL    HW125265   0.277   5.267   1.041
 8122SOL    HW225266   0.188   5.372   1.129
 8123SOL     OW25267   6.532   0.488   6.042
 8123SOL    HW125268   6.450   0.537   6.012
 8123SOL    HW225269   6.509   0.429   6.120
 8124SOL     OW25270   6.300   5.708   5.869
 8124SOL    HW125271   6.221   5.656   5.901
 8124SOL    HW225272   6.341   5.756   5.946
 8125SOL     OW25273   0.770   6.044   1.590
 8125SOL    HW125274   0.821   6.128   1.604
 8125SOL    HW225275   0.747   6.035   1.493
 8126SOL     OW25276   3.266   5.662   4.919
 8126SOL    HW125277   3.259   5.684   5.017
 8126SOL    HW225278   3.239   5.567   4.905
 8127SOL     OW25279   4.547   2.015   5.773
 8127SOL    HW125280   4.469   1.952   5.769
 8127SOL    HW225281   4.529   2.085   5.842
 8128SOL     OW25282   4.062   2.758   0.829
 8128SOL    HW125283   4.065   2.696   0.907
 8128SOL    HW225284   4.001   2.720   0.759
 8129SOL     OW25285   6.366   3.163   3.487
 8129SOL    HW125286   6.399   3.254   3.509
 8129SOL    HW225287   6.376   3.103   3.567
 8130SOL     OW25288   6.960   6.337   6.971
 8130SOL    HW125289   6.951   6.430   7.007
 8130SOL    HW225290   7.014   6.282   0.012
 8131SOL     OW25291   3.021   2.238   0.202
 8131SOL    HW125292   3.025   2.325   0.151
 8131SOL    HW225293   3.108   2.189   0.190
 8132SOL     OW25294   6.153   1.796   4.734
 8132SOL    HW125295   6.058   1.803   4.702
 8132SOL    HW225296   6.161   1.721   4.799
 8133SOL     OW25297   4.474   5.412   1.492
 8133SOL    HW125298   4.533   5.453   1.422
 8133SOL    HW225299   4.397   5.473   1.510
 8134SOL     OW25300   6.401   1.704   7.015
 8134SOL    HW125301   6.307   1.670   7.022
 8134SOL    HW225302   6.416   1.744   6.925
 8135SOL     OW25303   2.710   6.022   1.761
 8135SOL    HW125304   2.695   6.024   1.860
 8135SOL    HW225305   2.776   6.093   1.736
 8136SOL     OW25306   4.440   4.880   2.209
 8136SOL    HW125307   4.359   4.859   2.155
 8136SOL    HW225308   4.507   4.807   2.198
 8137SOL     OW25309   3.585   1.079   6.008
 8137SOL    HW125310   3.652   1.114   5.943
 8137SOL    HW225311   3.503   1.136   6.005
 8138SOL     OW25312   6.618   0.892   2.469
 8138SOL    HW125313   6.524   0.892   2.502
 8138SOL    HW225314   6.622   0.932   2.378
 8139SOL     OW25315   1.239   1.709   5.016
 8139SOL    HW125316   1.258   1.793   4.965
 8139SOL    HW225317   1.244   1.727   5.114
 8140SOL     OW25318   4.634   2.622   3.304
 8140SOL    HW125319   4.612   2.704   3.358
 8140SOL    HW225320   4.630   2.644   3.207
 8141SOL     OW25321   6.444   4.176   4.185
 8141SOL    HW125322   6.437   4.171   4.085
 8141SOL    HW225323   6.412   4.090   4.224
 8142SOL     OW25324   0.185   6.076   0.475
 8142SOL    HW125325   0.177   6.170   0.442
 8142SOL    HW225326   0.124   6.062   0.553
 8143SOL     OW25327   6.814   2.755   6.554
 8143SOL    HW125328   6.813   2.845   6.598
 8143SOL    HW225329   6.803   2.766   6.456
 8144SOL     OW25330   4.532   6.107   0.588
 8144SOL    HW125331   4.512   6.172   0.662
 8144SOL    HW225332   4.512   6.150   0.500
 8145SOL     OW25333   4.586   0.000   4.604
 8145SOL    HW125334   4.614   0.025   4.697
 8145SOL    HW225335   4.647   6.952   4.569
 8146SOL     OW25336   3.040   1.625   2.973
 8146SOL    HW125337   3.042   1.672   2.885
 8146SOL    HW225338   2.953   1.644   3.019
 8147SOL     OW25339   4.730   1.796   3.685
 8147SOL    HW125340   4.687   1.860   3.621
 8147SOL    HW225341   4.809   1.753   3.641
 8148SOL     OW25342   0.913   3.146   3.505
 8148SOL    HW125343   0.833   3.163   3.448
 8148SOL    HW225344   0.931   3.226   3.563
 8149SOL     OW25345   4.030   5.483   4.332
 8149SOL    HW125346   4.010   5.518   4.240
 8149SOL    HW225347   3.984   5.395   4.345
 8150SOL     OW25348   1.711   5.655   0.285
 8150SOL    HW125349   1.666   5.740   0.259
 8150SOL    HW225350   1.778   5.673   0.357
 8151SOL     OW25351   0.933   1.918   4.954
 8151SOL    HW125352   0.880   1.877   4.880
 8151SOL    HW225353   0.973   2.004   4.923
 8152SOL     OW25354   0.497   1.304   3.559
 8152SOL    HW125355   0.461   1.393   3.532
 8152SOL    HW225356   0.430   1.233   3.538
 8153SOL     OW25357   1.573   6.416   6.837
 8153SOL    HW125358   1.546   6.369   6.921
 8153SOL    HW225359   1.570   6.515   6.852
 8154SOL     OW25360   1.878   6.802   3.885
 8154SOL    HW125361   1.968   6.763   3.868
 8154SOL    HW225362   1.814   6.730   3.912
 8155SOL     OW25363   4.076   3.669   5.055
 8155SOL    HW125364   4.060   3.607   5.131
 8155SOL    HW225365   4.113   3.617   4.977
 8156SOL     OW25366   0.929   6.377   5.262
 8156SOL    HW125367   0.871   6.340   5.189
 8156SOL    HW225368   1.018   6.403   5.224
 8157SOL     OW25369   5.822   2.678   6.686
 8157SOL    HW125370   5.795   2.696   6.780
 8157SOL    HW225371   5.921   2.664   6.681
 8158SOL     OW25372   1.114   5.625   2.490
 8158SOL    HW125373   1.100   5.536   2.535
 8158SOL    HW225374   1.211   5.649   2.493
 8159SOL     OW25375   0.093   6.325   0.525
 8159SOL    HW125376   0.052   6.337   0.615
 8159SOL    HW225377   0.173   6.384   0.517
 8160SOL     OW25378   5.987   2.043   1.315
 8160SOL    HW125379   5.985   1.950   1.278
 8160SOL    HW225380   5.928   2.102   1.261
 8161SOL     OW25381   3.436   3.834   1.791
 8161SOL    HW125382   3.441   3.929   1.761
 8161SOL    HW225383   3.478   3.825   1.881
 8162SOL     OW25384   5.720   0.857   0.922
 8162SOL    HW125385   5.725   0.949   0.885
 8162SOL    HW225386   5.679   0.860   1.014
 8163SOL     OW25387   2.459   2.886   5.424
 8163SOL    HW125388   2.383   2.821   5.423
 8163SOL    HW225389   2.457   2.940   5.339
 8164SOL     OW25390   5.372   3.982   2.026
 8164SOL    HW125391   5.281   3.948   2.047
 8164SOL    HW225392   5.375   4.081   2.042
 8165SOL     OW25393   1.556   3.357   1.901
 8165SOL    HW125394   1.587   3.418   1.828
 8165SOL    HW225395   1.525   3.271   1.863
 8166SOL     OW25396   2.629   0.065   3.075
 8166SOL    HW125397   2.674   7.009   3.117
 8166SOL    HW225398   2.697   0.118   3.024
 8167SOL     OW25399   5.194   3.222   4.498
 8167SOL    HW125400   5.190   3.137   4.445
 8167SOL    HW225401   5.274   3.220   4.558
 8168SOL     OW25402   2.812   1.588   2.296
 8168SOL    HW125403   2.842   1.642   2.217
 8168SOL    HW225404   2.755   1.644   2.355
 8169SOL     OW25405   5.358   3.875   5.719
 8169SOL    HW125406   5.375   3.886   5.817
 8169SOL    HW225407   5.264   3.900   5.698
 8170SOL     OW25408   0.744   5.283   4.406
 8170SOL    HW125409   0.669   5.321   4.460
 8170SOL    HW225410   0.720   5.191   4.376
 8171SOL     OW25411   2.003   0.737   7.000
 8171SOL    HW125412   2.059   0.768   6.923
 8171SOL    HW225413   1.919   0.790   7.004
 8172SOL     OW25414   6.942   5.359   2.622
 8172SOL    HW125415   6.849   5.376   2.588
 8172SOL    HW225416   6.938   5.295   2.699
 8173SOL     OW25417   7.000   3.383   6.850
 8173SOL    HW125418   6.905   3.369   6.823
 8173SOL    HW225419   0.011   3.302   6.897
 8174SOL     OW25420   4.930   6.607   2.569
 8174SOL    HW125421   4.916   6.695   2.613
 8174SOL    HW225422   4.857   6.544   2.596
 8175SOL     OW25423   1.179   2.410   3.445
 8175SOL    HW125424   1.262   2.356   3.428
 8175SOL    HW225425   1.154   2.460   3.362
 8176SOL     OW25426   4.714   4.884   3.168
 8176SOL    HW125427   4.705   4.851   3.074
 8176SOL    HW225428   4.628   4.870   3.217
 8177SOL     OW25429   2.215   0.057   6.066
 8177SOL    HW125430   2.170   6.990   6.071
 8177SOL    HW225431   2.283   0.064   6.139
 8178SOL     OW25432   2.010   6.089   7.020
 8178SOL    HW125433   2.031   6.090   0.095
 8178SOL    HW225434   2.066   6.019   6.975
 8179SOL     OW25435   4.265   6.879   5.439
 8179SOL    HW125436   4.233   6.909   5.349
 8179SOL    HW225437   4.232   6.943   5.509
 8180SOL     OW25438   4.836   4.007   4.708
 8180SOL    HW125439   4.817   4.066   4.786
 8180SOL    HW225440   4.921   3.957   4.723
 8181SOL     OW25441   2.012   1.790   2.676
 8181SOL    HW125442   1.990   1.810   2.580
 8181SOL    HW225443   1.927   1.786   2.729
 8182SOL     OW25444   5.539   3.026   5.215
 8182SOL    HW125445   5.529   3.095   5.144
 8182SOL    HW225446   5.500   3.061   5.301
 8183SOL     OW25447   2.147   4.390   3.812
 8183SOL    HW125448   2.179   4.444   3.735
 8183SOL    HW225449   2.047   4.385   3.809
 8184SOL     OW25450   6.163   6.168   4.922
 8184SOL    HW125451   6.140   6.252   4.971
 8184SOL    HW225452   6.222   6.111   4.980
 8185SOL     OW25453   0.783   2.312   3.459
 8185SOL    HW125454   0.767   2.410   3.453
 8185SOL    HW225455   0.757   2.269   3.373
 8186SOL     OW25456   4.296   2.895   6.332
 8186SOL    HW125457   4.389   2.866   6.355
 8186SOL    HW225458   4.264   2.845   6.251
 8187SOL     OW25459   2.641   1.585   6.150
 8187SOL    HW125460   2.710   1.512   6.146
 8187SOL    HW225461   2.550   1.546   6.135
 8188SOL     OW25462   4.899   3.691   3.007
 8188SOL    HW125463   4.850   3.775   2.983
 8188SOL    HW225464   4.922   3.642   2.923
 8189SOL     OW25465   0.151   5.816   3.126
 8189SOL    HW125466   0.223   5.805   3.058
 8189SOL    HW225467   0.112   5.727   3.148
 8190SOL     OW25468   5.218   3.382   3.105
 8190SOL    HW125469   5.226   3.284   3.121
 8190SOL    HW225470   5.123   3.410   3.117
 8191SOL     OW25471   6.146   4.363   1.229
 8191SOL    HW125472   6.144   4.361   1.329
 8191SOL    HW225473   6.053   4.368   1.193
 8192SOL     OW25474   2.193   1.508   0.606
 8192SOL    HW125475   2.287   1.503   0.638
 8192SOL    HW225476   2.182   1.587   0.546
 8193SOL     OW25477   4.009   6.363   5.949
 8193SOL    HW125478   4.022   6.274   5.905
 8193SOL    HW225479   3.933   6.411   5.906
 8194SOL     OW25480   0.804   1.083   2.436
 8194SOL    HW125481   0.851   1.013   2.491
 8194SOL    HW225482   0.866   1.160   2.421
 8195SOL     OW25483   6.153   0.920   0.999
 8195SOL    HW125484   6.092   0.977   1.054
 8195SOL    HW225485   6.116   0.911   0.907
 8196SOL     OW25486   2.469   0.555   0.995
 8196SOL    HW125487   2.462   0.497   0.915
 8196SOL    HW225488   2.391   0.538   1.056
 8197SOL     OW25489   0.547   6.716   0.768
 8197SOL    HW125490   0.501   6.788   0.716
 8197SOL    HW225491   0.526   6.726   0.865
 8198SOL     OW25492   2.442   0.829   2.620
 8198SOL    HW125493   2.447   0.853   2.523
 8198SOL    HW225494   2.380   0.892   2.667
 8199SOL     OW25495   6.110   4.632   1.090
 8199SOL    HW125496   6.127   4.567   1.164
 8199SOL    HW225497   6.016   4.623   1.058
 8200SOL     OW25498   4.050   4.695   1.312
 8200SOL    HW125499   4.093   4.681   1.223
 8200SOL    HW225500   3.959   4.652   1.312
 8201SOL     OW25501   0.842   1.078   4.505
 8201SOL    HW125502   0.869   1.012   4.435
 8201SOL    HW225503   0.921   1.100   4.563
 8202SOL     OW25504   1.336   3.804   4.284
 8202SOL    HW125505   1.347   3.803   4.184
 8202SOL    HW225506   1.279   3.882   4.311
 8203SOL     OW25507   6.495   4.355   6.573
 8203SOL    HW125508   6.581   4.385   6.532
 8203SOL    HW225509   6.511   4.328   6.668
 8204SOL     OW25510   2.830   6.678   1.893
 8204SOL    HW125511   2.904   6.710   1.953
 8204SOL    HW225512   2.743   6.714   1.926
 8205SOL     OW25513   3.448   6.910   2.853
 8205SOL    HW125514   3.446   6.918   2.952
 8205SOL    HW225515   3.410   6.993   2.812
 8206SOL     OW25516   3.742   2.132   4.304
 8206SOL    HW125517   3.829   2.151   4.260
 8206SOL    HW225518   3.678   2.095   4.237
 8207SOL     OW25519   2.233   6.437   0.196
 8207SOL    HW125520   2.174   6.491   0.256
 8207SOL    HW225521   2.180   6.401   0.120
 8208SOL     OW25522   0.766   5.742   0.801
 8208SOL    HW125523   0.793   5.698   0.715
 8208SOL    HW225524   0.847   5.756   0.858
 8209SOL     OW25525   0.908   6.019   4.313
 8209SOL    HW125526   1.002   6.014   4.347
 8209SOL    HW225527   0.880   5.930   4.278
 8210SOL     OW25528   2.452   0.235   1.170
 8210SOL    HW125529   2.519   0.218   1.097
 8210SOL    HW225530   2.427   0.149   1.213
 8211SOL     OW25531   3.598   3.972   4.488
 8211SOL    HW125532   3.526   3.918   4.443
 8211SOL    HW225533   3.682   3.965   4.435
 8212SOL     OW25534   3.591   5.414   6.739
 8212SOL    HW125535   3.531   5.487   6.708
 8212SOL    HW225536   3.681   5.451   6.761
 8213SOL     OW25537   4.869   3.977   2.122
 8213SOL    HW125538   4.896   4.011   2.032
 8213SOL    HW225539   4.843   4.055   2.180
 8214SOL     OW25540   3.843   4.971   3.411
 8214SOL    HW125541   3.832   4.988   3.508
 8214SOL    HW225542   3.921   4.910   3.396
 8215SOL     OW25543   2.885   6.473   5.230
 8215SOL    HW125544   2.925   6.381   5.224
 8215SOL    HW225545   2.894   6.507   5.324
 8216SOL     OW25546   6.402   4.532   6.860
 8216SOL    HW125547   6.429   4.486   6.944
 8216SOL    HW225548   6.482   4.549   6.803
 8217SOL     OW25549   3.683   6.535   3.805
 8217SOL    HW125550   3.615   6.498   3.868
 8217SOL    HW225551   3.690   6.476   3.725
 8218SOL     OW25552   2.379   5.986   3.724
 8218SOL    HW125553   2.438   6.058   3.761
 8218SOL    HW225554   2.392   5.902   3.775
 8219SOL     OW25555   4.108   3.712   4.660
 8219SOL    HW125556   4.071   3.762   4.582
 8219SOL    HW225557   4.166   3.774   4.714
 8220SOL     OW25558   4.531   3.868   6.169
 8220SOL    HW125559   4.545   3.780   6.124
 8220SOL    HW225560   4.434   3.881   6.189
 8221SOL     OW25561   6.564   3.790   4.137
 8221SOL    HW125562   6.490   3.826   4.080
 8221SOL    HW225563   6.568   3.691   4.127
 8222SOL     OW25564   5.389   1.882   5.723
 8222SOL    HW125565   5.373   1.966   5.672
 8222SOL    HW225566   5.384   1.804   5.661
 8223SOL     OW25567   1.313   6.376   5.517
 8223SOL    HW125568   1.380   6.400   5.447
 8223SOL    HW225569   1.238   6.324   5.475
 8224SOL     OW25570   4.831   1.616   4.900
 8224SOL    HW125571   4.801   1.678   4.827
 8224SOL    HW225572   4.917   1.572   4.873
 8225SOL     OW25573   6.138   1.638   7.002
 8225SOL    HW125574   6.111   1.565   0.042
 8225SOL    HW225575   6.056   1.682   6.966
 8226SOL     OW25576   3.989   0.508   6.715
 8226SOL    HW125577   4.064   0.569   6.690
 8226SOL    HW225578   3.959   0.457   6.635
 8227SOL     OW25579   5.780   3.528   2.736
 8227SOL    HW125580   5.777   3.474   2.821
 8227SOL    HW225581   5.837   3.481   2.669
 8228SOL     OW25582   2.596   1.474   4.634
 8228SOL    HW125583   2.611   1.544   4.704
 8228SOL    HW225584   2.540   1.400   4.672
 8229SOL     OW25585   4.464   3.610   0.959
 8229SOL    HW125586   4.404   3.530   0.962
 8229SOL    HW225587   4.560   3.580   0.964
 8230SOL     OW25588   5.997   1.584   6.555
 8230SOL    HW125589   6.077   1.534   6.588
 8230SOL    HW225590   6.019   1.630   6.469
 8231SOL     OW25591   3.278   1.091   1.489
 8231SOL    HW125592   3.210   1.059   1.423
 8231SOL    HW225593   3.330   1.167   1.450
 8232SOL     OW25594   3.932   5.991   4.431
 8232SOL    HW125595   4.013   5.933   4.429
 8232SOL    HW225596   3.926   6.042   4.344
 8233SOL     OW25597   3.070   0.492   6.845
 8233SOL    HW125598   3.024   0.405   6.862
 8233SOL    HW225599   3.002   0.561   6.819
 8234SOL     OW25600   0.230   2.623   6.486
 8234SOL    HW125601   0.269   2.588   6.571
 8234SOL    HW225602   0.180   2.707   6.504
 8235SOL     OW25603   1.314   6.278   6.640
 8235SOL    HW125604   1.374   6.358   6.642
 8235SOL    HW225605   1.342   6.214   6.711
 8236SOL     OW25606   0.751   0.577   0.610
 8236SOL    HW125607   0.802   0.562   0.695
 8236SOL    HW225608   0.785   0.515   0.540
 8237SOL     OW25609   4.682   4.230   5.902
 8237SOL    HW125610   4.775   4.246   5.934
 8237SOL    HW225611   4.679   4.143   5.852
 8238SOL     OW25612   6.859   5.352   6.988
 8238SOL    HW125613   6.800   5.303   0.029
 8238SOL    HW225614   6.946   5.303   6.979
 8239SOL     OW25615   5.031   2.848   4.042
 8239SOL    HW125616   5.104   2.916   4.040
 8239SOL    HW225617   4.984   2.846   3.954
 8240SOL     OW25618   3.590   3.418   4.986
 8240SOL    HW125619   3.583   3.440   4.889
 8240SOL    HW225620   3.498   3.413   5.026
 8241SOL     OW25621   0.175   2.737   5.293
 8241SOL    HW125622   0.130   2.673   5.356
 8241SOL    HW225623   0.268   2.756   5.325
 8242SOL     OW25624   0.551   3.969   3.413
 8242SOL    HW125625   0.603   3.987   3.496
 8242SOL    HW225626   0.610   3.923   3.346
 8243SOL     OW25627   2.258   5.612   3.889
 8243SOL    HW125628   2.221   5.689   3.941
 8243SOL    HW225629   2.215   5.527   3.919
 8244SOL     OW25630   5.530   6.918   4.890
 8244SOL    HW125631   5.434   6.898   4.873
 8244SOL    HW225632   5.549   6.914   4.988
 8245SOL     OW25633   5.568   3.788   2.107
 8245SOL    HW125634   5.501   3.859   2.087
 8245SOL    HW225635   5.535   3.731   2.182
 8246SOL     OW25636   2.169   4.305   0.380
 8246SOL    HW125637   2.218   4.272   0.461
 8246SOL    HW225638   2.108   4.233   0.347
 8247SOL     OW25639   2.219   4.873   3.603
 8247SOL    HW125640   2.261   4.787   3.631
 8247SOL    HW225641   2.285   4.948   3.614
 8248SOL     OW25642   6.432   0.668   2.710
 8248SOL    HW125643   6.420   0.732   2.634
 8248SOL    HW225644   6.379   0.701   2.789
 8249SOL     OW25645   3.359   6.707   5.307
 8249SOL    HW125646   3.344   6.634   5.240
 8249SOL    HW225647   3.436   6.764   5.277
 8250SOL     OW25648   2.021   1.037   6.984
 8250SOL    HW125649   2.111   1.079   6.996
 8250SOL    HW225650   1.963   1.063   0.039
 8251SOL     OW25651   1.859   1.544   6.572
 8251SOL    HW125652   1.811   1.484   6.636
 8251SOL    HW225653   1.957   1.535   6.586
 8252SOL     OW25654   0.744   0.912   6.557
 8252SOL    HW125655   0.727   0.973   6.634
 8252SOL    HW225656   0.815   0.846   6.582
 8253SOL     OW25657   6.987   3.689   4.494
 8253SOL    HW125658   6.888   3.678   4.492
 8253SOL    HW225659   7.021   3.670   4.587
 8254SOL     OW25660   4.822   3.820   0.282
 8254SOL    HW125661   4.896   3.792   0.343
 8254SOL    HW225662   4.759   3.880   0.332
 8255SOL     OW25663   1.681   6.025   5.868
 8255SOL    HW125664   1.626   5.961   5.813
 8255SOL    HW225665   1.701   5.983   5.957
 8256SOL     OW25666   1.740   5.899   2.790
 8256SOL    HW125667   1.807   5.963   2.829
 8256SOL    HW225668   1.684   5.862   2.864
 8257SOL     OW25669   4.873   4.698   3.688
 8257SOL    HW125670   4.809   4.753   3.635
 8257SOL    HW225671   4.868   4.725   3.784
 8258SOL     OW25672   0.407   2.937   4.195
 8258SOL    HW125673   0.476   3.001   4.162
 8258SOL    HW225674   0.384   2.872   4.123
 8259SOL     OW25675   5.232   3.799   3.917
 8259SOL    HW125676   5.274   3.709   3.926
 8259SOL    HW225677   5.275   3.849   3.842
 8260SOL     OW25678   4.783   2.136   6.339
 8260SOL    HW125679   4.873   2.121   6.380
 8260SOL    HW225680   4.712   2.129   6.409
 8261SOL     OW25681   5.092   2.341   3.113
 8261SOL    HW125682   5.101   2.386   3.202
 8261SOL    HW225683   5.140   2.395   3.043
 8262SOL     OW25684   5.262   4.085   2.300
 8262SOL    HW125685   5.230   3.995   2.269
 8262SOL    HW225686   5.256   4.150   2.225
 8263SOL     OW25687   6.731   1.444   0.045
 8263SOL    HW125688   6.820   1.399   0.044
 8263SOL    HW225689   6.696   1.451   6.974
 8264SOL     OW25690   3.293   1.635   1.974
 8264SOL    HW125691   3.388   1.606   1.959
 8264SOL    HW225692   3.288   1.689   2.058
 8265SOL     OW25693   6.180   5.296   0.392
 8265SOL    HW125694   6.080   5.303   0.390
 8265SOL    HW225695   6.213   5.318   0.484
 8266SOL     OW25696   4.242   2.260   3.262
 8266SOL    HW125697   4.321   2.317   3.286
 8266SOL    HW225698   4.206   2.289   3.174
 8267SOL     OW25699   1.880   3.871   2.703
 8267SOL    HW125700   1.834   3.800   2.757
 8267SOL    HW225701   1.976   3.848   2.692
 8268SOL     OW25702   2.172   5.416   1.395
 8268SOL    HW125703   2.224   5.418   1.481
 8268SOL    HW225704   2.233   5.437   1.319
 8269SOL     OW25705   6.327   1.990   3.177
 8269SOL    HW125706   6.373   1.919   3.229
 8269SOL    HW225707   6.281   1.949   3.098
 8270SOL     OW25708   4.675   5.605   0.305
 8270SOL    HW125709   4.753   5.611   0.367
 8270SOL    HW225710   4.595   5.573   0.354
 8271SOL     OW25711   2.554   0.537   6.027
 8271SOL    HW125712   2.577   0.457   5.972
 8271SOL    HW225713   2.556   0.512   6.124
 8272SOL     OW25714   0.308   1.071   1.991
 8272SOL    HW125715   0.267   1.151   2.034
 8272SOL    HW225716   0.321   1.088   1.894
 8273SOL     OW25717   5.509   0.260   6.203
 8273SOL    HW125718   5.445   0.296   6.135
 8273SOL    HW225719   5.598   0.243   6.159
 8274SOL     OW25720   4.956   6.767   3.842
 8274SOL    HW125721   4.927   6.846   3.895
 8274SOL    HW225722   4.992   6.796   3.754
 8275SOL     OW25723   4.716   0.800   4.531
 8275SOL    HW125724   4.700   0.812   4.433
 8275SOL    HW225725   4.760   0.712   4.547
 8276SOL     OW25726   5.041   2.563   0.204
 8276SOL    HW125727   4.958   2.572   0.148
 8276SOL    HW225728   5.018   2.519   0.291
 8277SOL     OW25729   1.284   0.290   1.357
 8277SOL    HW125730   1.378   0.288   1.389
 8277SOL    HW225731   1.262   0.204   1.311
 8278SOL     OW25732   1.744   1.452   1.633
 8278SOL    HW125733   1.811   1.496   1.692
 8278SOL    HW225734   1.704   1.519   1.571
 8279SOL     OW25735   5.591   4.595   6.081
 8279SOL    HW125736   5.566   4.501   6.104
 8279SOL    HW225737   5.652   4.595   6.002
 8280SOL     OW25738   0.010   4.811   0.502
 8280SOL    HW125739   0.003   4.740   0.572
 8280SOL    HW225740   0.095   4.861   0.514
 8281SOL     OW25741   2.374   4.485   0.189
 8281SOL    HW125742   2.362   4.569   0.241
 8281SOL    HW225743   2.353   4.406   0.247
 8282SOL     OW25744   4.513   2.488   0.576
 8282SOL    HW125745   4.611   2.490   0.593
 8282SOL    HW225746   4.471   2.571   0.614
 8283SOL     OW25747   0.676   2.117   2.950
 8283SOL    HW125748   0.696   2.022   2.973
 8283SOL    HW225749   0.589   2.122   2.901
 8284SOL     OW25750   4.488   2.369   1.047
 8284SOL    HW125751   4.470   2.332   0.956
 8284SOL    HW225752   4.548   2.449   1.038
 8285SOL     OW25753   0.583   4.829   0.521
 8285SOL    HW125754   0.607   4.766   0.595
 8285SOL    HW225755   0.646   4.815   0.444
 8286SOL     OW25756   6.763   1.894   0.079
 8286SOL    HW125757   6.688   1.829   0.093
 8286SOL    HW225758   6.790   1.933   0.167
 8287SOL     OW25759   1.252   1.844   2.948
 8287SOL    HW125760   1.210   1.805   2.866
 8287SOL    HW225761   1.271   1.941   2.933
 8288SOL     OW25762   1.875   6.561   2.857
 8288SOL    HW125763   1.946   6.599   2.916
 8288SOL    HW225764   1.817   6.634   2.821
 8289SOL     OW25765   5.799   6.483   0.187
 8289SOL    HW125766   5.856   6.412   0.145
 8289SOL    HW225767   5.847   6.522   0.265
 8290SOL     OW25768   4.673   2.861   1.690
 8290SOL    HW125769   4.760   2.818   1.667
 8290SOL    HW225770   4.677   2.899   1.782
 8291SOL     OW25771   5.885   5.832   5.026
 8291SOL    HW125772   5.801   5.833   4.973
 8291SOL    HW225773   5.864   5.817   5.123
 8292SOL     OW25774   0.521   4.005   5.920
 8292SOL    HW125775   0.554   4.027   5.828
 8292SOL    HW225776   0.589   4.033   5.988
 8293SOL     OW25777   2.967   5.305   4.145
 8293SOL    HW125778   3.017   5.384   4.107
 8293SOL    HW225779   2.989   5.296   4.242
 8294SOL     OW25780   6.213   3.268   5.862
 8294SOL    HW125781   6.232   3.227   5.772
 8294SOL    HW225782   6.298   3.279   5.912
 8295SOL     OW25783   4.055   4.835   1.547
 8295SOL    HW125784   4.054   4.784   1.634
 8295SOL    HW225785   4.058   4.771   1.471
 8296SOL     OW25786   3.225   0.154   1.966
 8296SOL    HW125787   3.178   0.243   1.967
 8296SOL    HW225788   3.269   0.142   1.877
 8297SOL     OW25789   5.559   4.910   2.027
 8297SOL    HW125790   5.639   4.867   1.987
 8297SOL    HW225791   5.498   4.840   2.065
 8298SOL     OW25792   0.055   6.013   0.742
 8298SOL    HW125793   0.044   5.914   0.734
 8298SOL    HW225794   6.996   6.052   0.784
 8299SOL     OW25795   1.147   1.420   7.022
 8299SOL    HW125796   1.050   1.441   7.009
 8299SOL    HW225797   1.198   1.445   6.940
 8300SOL     OW25798   4.473   6.027   5.101
 8300SOL    HW125799   4.496   6.062   5.192
 8300SOL    HW225800   4.419   6.096   5.052
 8301SOL     OW25801   5.934   4.309   6.867
 8301SOL    HW125802   6.028   4.338   6.848
 8301SOL    HW225803   5.930   4.265   6.956
 8302SOL     OW25804   3.659   6.363   6.210
 8302SOL    HW125805   3.748   6.317   6.209
 8302SOL    HW225806   3.656   6.431   6.283
 8303SOL     OW25807   6.886   4.322   4.633
 8303SOL    HW125808   6.947   4.401   4.642
 8303SOL    HW225809   6.833   4.330   4.548
 8304SOL     OW25810   5.649   2.973   3.905
 8304SOL    HW125811   5.666   2.876   3.919
 8304SOL    HW225812   5.736   3.022   3.894
 8305SOL     OW25813   4.291   6.464   5.861
 8305SOL    HW125814   4.226   6.389   5.874
 8305SOL    HW225815   4.250   6.535   5.804
 8306SOL     OW25816   4.599   0.979   3.357
 8306SOL    HW125817   4.663   1.006   3.285
 8306SOL    HW225818   4.620   0.886   3.387
 8307SOL     OW25819   1.050   5.092   4.529
 8307SOL    HW125820   1.102   5.158   4.475
 8307SOL    HW225821   1.048   5.004   4.481
 8308SOL     OW25822   1.940   4.302   0.801
 8308SOL    HW125823   1.943   4.398   0.775
 8308SOL    HW225824   1.993   4.247   0.736
 8309SOL     OW25825   5.613   5.550   2.530
 8309SOL    HW125826   5.709   5.533   2.506
 8309SOL    HW225827   5.603   5.643   2.566
 8310SOL     OW25828   2.536   5.767   2.716
 8310SOL    HW125829   2.555   5.681   2.668
 8310SOL    HW225830   2.440   5.793   2.701
 8311SOL     OW25831   4.916   6.847   2.688
 8311SOL    HW125832   4.832   6.838   2.743
 8311SOL    HW225833   4.931   6.943   2.664
 8312SOL     OW25834   6.334   6.771   0.809
 8312SOL    HW125835   6.409   6.775   0.743
 8312SOL    HW225836   6.341   6.686   0.862
 8313SOL     OW25837   5.077   2.004   5.465
 8313SOL    HW125838   5.042   1.997   5.559
 8313SOL    HW225839   5.004   2.034   5.404
 8314SOL     OW25840   5.653   6.035   5.533
 8314SOL    HW125841   5.683   6.014   5.440
 8314SOL    HW225842   5.617   5.952   5.576
 8315SOL     OW25843   3.597   1.700   6.617
 8315SOL    HW125844   3.561   1.788   6.585
 8315SOL    HW225845   3.522   1.644   6.652
 8316SOL     OW25846   1.512   1.099   4.941
 8316SOL    HW125847   1.470   1.128   5.027
 8316SOL    HW225848   1.591   1.157   4.922
 8317SOL     OW25849   2.689   1.585   6.447
 8317SOL    HW125850   2.683   1.574   6.348
 8317SOL    HW225851   2.672   1.497   6.492
 8318SOL     OW25852   4.801   5.796   5.181
 8318SOL    HW125853   4.758   5.814   5.269
 8318SOL    HW225854   4.837   5.703   5.180
 8319SOL     OW25855   3.024   6.255   6.404
 8319SOL    HW125856   3.017   6.321   6.330
 8319SOL    HW225857   3.020   6.303   6.492
 8320SOL     OW25858   3.800   4.863   5.492
 8320SOL    HW125859   3.780   4.960   5.501
 8320SOL    HW225860   3.894   4.845   5.522
 8321SOL     OW25861   0.473   0.043   6.905
 8321SOL    HW125862   0.415   0.114   6.945
 8321SOL    HW225863   0.416   6.990   6.872
 8322SOL     OW25864   2.795   0.012   2.269
 8322SOL    HW125865   2.879   0.007   2.215
 8322SOL    HW225866   2.811   6.998   2.360
 8323SOL     OW25867   6.493   5.458   6.685
 8323SOL    HW125868   6.472   5.366   6.717
 8323SOL    HW225869   6.444   5.525   6.740
 8324SOL     OW25870   6.820   6.104   4.956
 8324SOL    HW125871   6.800   6.153   5.041
 8324SOL    HW225872   6.737   6.102   4.899
 8325SOL     OW25873   1.871   5.477   5.121
 8325SOL    HW125874   1.784   5.495   5.076
 8325SOL    HW225875   1.856   5.464   5.220
 8326SOL     OW25876   3.296   1.071   6.857
 8326SOL    HW125877   3.364   1.003   6.884
 8326SOL    HW225878   3.322   1.111   6.770
 8327SOL     OW25879   0.728   6.171   5.540
 8327SOL    HW125880   0.641   6.136   5.574
 8327SOL    HW225881   0.798   6.098   5.546
 8328SOL     OW25882   0.986   0.005   0.759
 8328SOL    HW125883   0.999   0.073   0.831
 8328SOL    HW225884   1.075   6.992   0.731
 8329SOL     OW25885   1.768   1.651   6.258
 8329SOL    HW125886   1.760   1.640   6.159
 8329SOL    HW225887   1.865   1.653   6.284
 8330SOL     OW25888   3.273   6.778   0.015
 8330SOL    HW125889   3.349   6.717   7.015
 8330SOL    HW225890   3.309   6.860   0.059
 8331SOL     OW25891   1.810   2.591   5.973
 8331SOL    HW125892   1.802   2.669   6.036
 8331SOL    HW225893   1.720   2.549   5.961
 8332SOL     OW25894   5.190   4.249   0.833
 8332SOL    HW125895   5.098   4.259   0.795
 8332SOL    HW225896   5.258   4.267   0.761
 8333SOL     OW25897   2.208   4.221   5.606
 8333SOL    HW125898   2.225   4.253   5.700
 8333SOL    HW225899   2.281   4.159   5.578
 8334SOL     OW25900   3.074   2.751   5.394
 8334SOL    HW125901   3.111   2.835   5.433
 8334SOL    HW225902   3.007   2.711   5.456
 8335SOL     OW25903   6.399   2.859   0.267
 8335SOL    HW125904   6.331   2.907   0.322
 8335SOL    HW225905   6.409   2.905   0.179
 8336SOL     OW25906   0.602   4.615   3.926
 8336SOL    HW125907   0.625   4.652   4.016
 8336SOL    HW225908   0.687   4.592   3.878
 8337SOL     OW25909   6.532   6.846   4.453
 8337SOL    HW125910   6.598   6.875   4.522
 8337SOL    HW225911   6.478   6.924   4.422
 8338SOL     OW25912   2.459   4.810   1.014
 8338SOL    HW125913   2.392   4.846   0.949
 8338SOL    HW225914   2.551   4.827   0.979
 8339SOL     OW25915   6.446   0.063   1.646
 8339SOL    HW125916   6.350   0.082   1.667
 8339SOL    HW225917   6.459   6.987   1.637
 8340SOL     OW25918   5.871   2.469   6.270
 8340SOL    HW125919   5.914   2.471   6.179
 8340SOL    HW225920   5.772   2.481   6.260
 8341SOL     OW25921   3.504   6.847   1.000
 8341SOL    HW125922   3.591   6.834   0.951
 8341SOL    HW225923   3.497   6.941   1.031
 8342SOL     OW25924   4.074   0.881   1.363
 8342SOL    HW125925   4.138   0.940   1.314
 8342SOL    HW225926   4.052   0.802   1.306
 8343SOL     OW25927   4.517   6.044   3.077
 8343SOL    HW125928   4.608   6.003   3.068
 8343SOL    HW225929   4.451   5.973   3.101
 8344SOL     OW25930   2.346   4.311   4.798
 8344SOL    HW125931   2.356   4.313   4.699
 8344SOL    HW225932   2.418   4.253   4.838
 8345SOL     OW25933   0.021   0.064   4.316
 8345SOL    HW125934   6.953   0.103   4.325
 8345SOL    HW225935   0.057   0.081   4.224
 8346SOL     OW25936   5.308   4.039   2.787
 8346SOL    HW125937   5.218   4.024   2.829
 8346SOL    HW225938   5.378   3.992   2.840
 8347SOL     OW25939   1.582   1.587   6.920
 8347SOL    HW125940   1.573   1.659   6.989
 8347SOL    HW225941   1.543   1.502   6.956
 8348SOL     OW25942   2.503   6.654   0.676
 8348SOL    HW125943   2.568   6.663   0.601
 8348SOL    HW225944   2.507   6.561   0.712
 8349SOL     OW25945   4.810   6.186   0.996
 8349SOL    HW125946   4.720   6.144   0.984
 8349SOL    HW225947   4.868   6.161   0.918
 8350SOL     OW25948   2.569   0.976   6.509
 8350SOL    HW125949   2.641   0.990   6.578
 8350SOL    HW225950   2.532   0.884   6.517
 8351SOL     OW25951   0.307   4.484   3.267
 8351SOL    HW125952   0.339   4.538   3.345
 8351SOL    HW225953   0.347   4.520   3.183
 8352SOL     OW25954   2.185   6.585   6.672
 8352SOL    HW125955   2.187   6.666   6.731
 8352SOL    HW225956   2.188   6.613   6.577
 8353SOL     OW25957   1.875   6.038   2.261
 8353SOL    HW125958   1.874   5.986   2.347
 8353SOL    HW225959   1.970   6.059   2.237
 8354SOL     OW25960   5.505   3.213   3.868
 8354SOL    HW125961   5.553   3.127   3.879
 8354SOL    HW225962   5.515   3.268   3.951
 8355SOL     OW25963   3.329   3.715   5.702
 8355SOL    HW125964   3.293   3.731   5.794
 8355SOL    HW225965   3.403   3.648   5.706
 8356SOL     OW25966   3.674   2.893   2.508
 8356SOL    HW125967   3.601   2.928   2.449
 8356SOL    HW225968   3.704   2.803   2.474
 8357SOL     OW25969   3.259   6.729   5.049
 8357SOL    HW125970   3.337   6.774   5.006
 8357SOL    HW225971   3.286   6.639   5.081
 8358SOL     OW25972   0.094   0.914   4.627
 8358SOL    HW125973   0.108   0.907   4.726
 8358SOL    HW225974   0.031   0.843   4.597
 8359SOL     OW25975   5.236   2.927   5.372
 8359SOL    HW125976   5.259   2.992   5.444
 8359SOL    HW225977   5.255   2.834   5.403
 8360SOL     OW25978   3.370   0.536   2.386
 8360SOL    HW125979   3.301   0.599   2.419
 8360SOL    HW225980   3.444   0.587   2.342
 8361SOL     OW25981   4.778   1.812   6.869
 8361SOL    HW125982   4.827   1.735   6.828
 8361SOL    HW225983   4.820   1.898   6.839
 8362SOL     OW25984   0.368   4.422   2.070
 8362SOL    HW125985   0.295   4.357   2.092
 8362SOL    HW225986   0.397   4.469   2.154
 8363SOL     OW25987   3.441   2.431   1.454
 8363SOL    HW125988   3.432   2.520   1.409
 8363SOL    HW225989   3.496   2.440   1.536
 8364SOL     OW25990   0.474   1.668   3.445
 8364SOL    HW125991   0.496   1.756   3.402
 8364SOL    HW225992   0.545   1.645   3.512
 8365SOL     OW25993   2.343   2.587   1.151
 8365SOL    HW125994   2.292   2.657   1.200
 8365SOL    HW225995   2.321   2.592   1.053
 8366SOL     OW25996   4.943   5.955   1.590
 8366SOL    HW125997   4.896   5.876   1.549
 8366SOL    HW225998   5.040   5.951   1.566
 8367SOL     OW25999   0.651   5.001   4.346
 8367SOL    HW126000   0.711   4.930   4.385
 8367SOL    HW226001   0.560   4.992   4.386
 8368SOL     OW26002   0.495   3.435   6.100
 8368SOL    HW126003   0.486   3.441   6.199
 8368SOL    HW226004   0.416   3.479   6.056
 8369SOL     OW26005   1.173   1.069   0.532
 8369SOL    HW126006   1.147   0.977   0.561
 8369SOL    HW226007   1.132   1.136   0.594
 8370SOL     OW26008   2.672   2.995   1.737
 8370SOL    HW126009   2.725   3.045   1.805
 8370SOL    HW226010   2.730   2.974   1.658
 8371SOL     OW26011   2.742   4.381   5.558
 8371SOL    HW126012   2.762   4.324   5.478
 8371SOL    HW226013   2.689   4.328   5.624
 8372SOL     OW26014   1.666   0.107   3.462
 8372SOL    HW126015   1.676   0.008   3.463
 8372SOL    HW226016   1.574   0.131   3.494
 8373SOL     OW26017   6.295   0.562   4.654
 8373SOL    HW126018   6.229   0.601   4.719
 8373SOL    HW226019   6.310   0.465   4.675
 8374SOL     OW26020   0.925   2.064   3.571
 8374SOL    HW126021   0.838   2.014   3.580
 8374SOL    HW226022   0.913   2.157   3.605
 8375SOL     OW26023   1.505   2.271   5.486
 8375SOL    HW126024   1.445   2.347   5.461
 8375SOL    HW226025   1.600   2.296   5.464
 8376SOL     OW26026   0.948   0.880   3.565
 8376SOL    HW126027   0.901   0.793   3.583
 8376SOL    HW226028   1.043   0.873   3.594
 8377SOL     OW26029   4.511   5.953   2.050
 8377SOL    HW126030   4.484   5.994   1.963
 8377SOL    HW226031   4.520   6.024   2.119
 8378SOL     OW26032   4.304   6.232   6.142
 8378SOL    HW126033   4.212   6.212   6.107
 8378SOL    HW226034   4.299   6.311   6.203
 8379SOL     OW26035   6.096   2.905   1.791
 8379SOL    HW126036   6.034   2.946   1.725
 8379SOL    HW226037   6.119   2.812   1.762
 8380SOL     OW26038   1.518   5.229   3.034
 8380SOL    HW126039   1.501   5.171   2.955
 8380SOL    HW226040   1.570   5.177   3.102
 8381SOL     OW26041   0.272   2.747   2.630
 8381SOL    HW126042   0.337   2.790   2.568
 8381SOL    HW226043   0.179   2.755   2.594
 8382SOL     OW26044   1.011   0.647   2.050
 8382SOL    HW126045   1.097   0.658   2.000
 8382SOL    HW226046   0.960   0.570   2.013
 8383SOL     OW26047   2.073   6.849   4.820
 8383SOL    HW126048   2.090   6.945   4.842
 8383SOL    HW226049   1.995   6.842   4.758
 8384SOL     OW26050   0.559   4.092   3.948
 8384SOL    HW126051   0.465   4.120   3.933
 8384SOL    HW226052   0.617   4.173   3.961
 8385SOL     OW26053   4.176   2.134   1.707
 8385SOL    HW126054   4.160   2.097   1.798
 8385SOL    HW226055   4.252   2.085   1.664
 8386SOL     OW26056   6.741   5.753   2.210
 8386SOL    HW126057   6.799   5.722   2.285
 8386SOL    HW226058   6.692   5.674   2.171
 8387SOL     OW26059   0.371   2.199   3.794
 8387SOL    HW126060   0.274   2.199   3.820
 8387SOL    HW226061   0.384   2.258   3.715
 8388SOL     OW26062   3.126   6.227   1.054
 8388SOL    HW126063   3.178   6.291   1.110
 8388SOL    HW226064   3.169   6.220   0.963
 8389SOL     OW26065   1.166   2.852   4.335
 8389SOL    HW126066   1.234   2.807   4.393
 8389SOL    HW226067   1.074   2.835   4.371
 8390SOL     OW26068   1.197   6.511   6.490
 8390SOL    HW126069   1.296   6.500   6.478
 8390SOL    HW226070   1.155   6.421   6.503
 8391SOL     OW26071   4.971   6.172   1.214
 8391SOL    HW126072   4.915   6.173   1.131
 8391SOL    HW226073   5.058   6.127   1.195
 8392SOL     OW26074   3.493   5.811   0.435
 8392SOL    HW126075   3.493   5.902   0.475
 8392SOL    HW226076   3.413   5.760   0.467
 8393SOL     OW26077   1.501   6.492   2.194
 8393SOL    HW126078   1.585   6.454   2.232
 8393SOL    HW226079   1.440   6.518   2.268
 8394SOL     OW26080   1.689   1.023   4.077
 8394SOL    HW126081   1.745   1.025   3.994
 8394SOL    HW226082   1.708   0.940   4.128
 8395SOL     OW26083   1.839   6.207   6.827
 8395SOL    HW126084   1.913   6.166   6.881
 8395SOL    HW226085   1.871   6.294   6.789
 8396SOL     OW26086   5.018   1.830   0.205
 8396SOL    HW126087   4.932   1.803   0.161
 8396SOL    HW226088   5.004   1.836   0.303
 8397SOL     OW26089   0.545   4.278   3.546
 8397SOL    HW126090   0.498   4.341   3.608
 8397SOL    HW226091   0.480   4.244   3.479
 8398SOL     OW26092   5.690   1.901   6.427
 8398SOL    HW126093   5.609   1.879   6.371
 8398SOL    HW226094   5.698   1.833   6.500
 8399SOL     OW26095   5.428   0.101   5.205
 8399SOL    HW126096   5.355   0.093   5.137
 8399SOL    HW226097   5.397   0.161   5.279
 8400SOL     OW26098   5.934   5.784   3.089
 8400SOL    HW126099   5.931   5.694   3.044
 8400SOL    HW226100   5.860   5.791   3.155
 8401SOL     OW26101   2.072   3.571   5.074
 8401SOL    HW126102   2.058   3.505   5.000
 8401SOL    HW226103   2.141   3.536   5.137
 8402SOL     OW26104   4.740   1.166   4.387
 8402SOL    HW126105   4.646   1.196   4.402
 8402SOL    HW226106   4.744   1.066   4.387
 8403SOL     OW26107   0.981   1.829   6.429
 8403SOL    HW126108   1.074   1.798   6.408
 8403SOL    HW226109   0.922   1.813   6.349
 8404SOL     OW26110   5.048   5.274   5.234
 8404SOL    HW126111   5.052   5.224   5.321
 8404SOL    HW226112   5.017   5.211   5.162
 8405SOL     OW26113   0.509   2.801   6.202
 8405SOL    HW126114   0.595   2.793   6.150
 8405SOL    HW226115   0.432   2.800   6.139
 8406SOL     OW26116   6.001   3.665   1.866
 8406SOL    HW126117   6.097   3.673   1.837
 8406SOL    HW226118   5.994   3.597   1.939
 8407SOL     OW26119   5.267   3.405   2.325
 8407SOL    HW126120   5.363   3.430   2.311
 8407SOL    HW226121   5.240   3.431   2.418
 8408SOL     OW26122   5.482   4.235   4.259
 8408SOL    HW126123   5.389   4.216   4.291
 8408SOL    HW226124   5.511   4.163   4.196
 8409SOL     OW26125   0.967   1.887   3.900
 8409SOL    HW126126   0.987   1.820   3.830
 8409SOL    HW226127   1.051   1.915   3.945
 8410SOL     OW26128   1.930   5.482   2.270
 8410SOL    HW126129   1.865   5.515   2.339
 8410SOL    HW226130   1.926   5.542   2.190
 8411SOL     OW26131   2.083   3.677   2.946
 8411SOL    HW126132   1.994   3.658   2.985
 8411SOL    HW226133   2.106   3.607   2.878
 8412SOL     OW26134   5.465   2.409   2.664
 8412SOL    HW126135   5.460   2.390   2.762
 8412SOL    HW226136   5.480   2.507   2.649
 8413SOL     OW26137   1.389   5.360   1.963
 8413SOL    HW126138   1.298   5.355   2.004
 8413SOL    HW226139   1.415   5.269   1.929
 8414SOL     OW26140   6.465   0.337   4.438
 8414SOL    HW126141   6.502   0.395   4.365
 8414SOL    HW226142   6.377   0.299   4.409
 8415SOL     OW26143   0.378   4.788   0.934
 8415SOL    HW126144   0.370   4.689   0.945
 8415SOL    HW226145   0.474   4.813   0.927
 8416SOL     OW26146   4.167   4.905   2.695
 8416SOL    HW126147   4.224   4.878   2.773
 8416SOL    HW226148   4.212   4.878   2.610
 8417SOL     OW26149   0.952   5.478   6.717
 8417SOL    HW126150   0.919   5.562   6.674
 8417SOL    HW226151   1.049   5.466   6.696
 8418SOL     OW26152   5.660   6.517   2.692
 8418SOL    HW126153   5.684   6.477   2.780
 8418SOL    HW226154   5.622   6.446   2.632
 8419SOL     OW26155   2.158   1.830   3.059
 8419SOL    HW126156   2.252   1.806   3.034
 8419SOL    HW226157   2.101   1.748   3.057
 8420SOL     OW26158   4.942   1.565   5.475
 8420SOL    HW126159   4.989   1.548   5.562
 8420SOL    HW226160   4.906   1.658   5.473
 8421SOL     OW26161   0.052   0.904   0.589
 8421SOL    HW126162   0.136   0.945   0.626
 8421SOL    HW226163   0.039   0.935   0.495
 8422SOL     OW26164   3.097   1.102   1.261
 8422SOL    HW126165   3.009   1.110   1.215
 8422SOL    HW226166   3.170   1.096   1.194
 8423SOL     OW26167   2.047   4.753   1.813
 8423SOL    HW126168   1.951   4.731   1.830
 8423SOL    HW226169   2.055   4.849   1.785
 8424SOL     OW26170   2.581   2.351   2.258
 8424SOL    HW126171   2.497   2.396   2.289
 8424SOL    HW226172   2.588   2.361   2.159
 8425SOL     OW26173   6.939   5.369   5.392
 8425SOL    HW126174   6.973   5.275   5.388
 8425SOL    HW226175   6.900   5.394   5.303
 8426SOL     OW26176   3.580   4.066   2.939
 8426SOL    HW126177   3.596   4.049   2.842
 8426SOL    HW226178   3.495   4.021   2.967
 8427SOL     OW26179   2.369   1.070   6.762
 8427SOL    HW126180   2.428   1.033   6.690
 8427SOL    HW226181   2.399   1.035   6.851
 8428SOL     OW26182   6.832   3.084   1.934
 8428SOL    HW126183   6.743   3.046   1.910
 8428SOL    HW226184   6.905   3.031   1.890
 8429SOL     OW26185   1.390   6.752   3.088
 8429SOL    HW126186   1.430   6.708   3.007
 8429SOL    HW226187   1.328   6.825   3.058
 8430SOL     OW26188   3.208   6.384   3.561
 8430SOL    HW126189   3.123   6.346   3.526
 8430SOL    HW226190   3.228   6.343   3.650
 8431SOL     OW26191   3.177   3.433   3.007
 8431SOL    HW126192   3.169   3.458   3.104
 8431SOL    HW226193   3.218   3.509   2.956
 8432SOL     OW26194   4.245   5.319   0.746
 8432SOL    HW126195   4.208   5.397   0.696
 8432SOL    HW226196   4.338   5.340   0.776
 8433SOL     OW26197   6.311   1.566   3.508
 8433SOL    HW126198   6.222   1.585   3.549
 8433SOL    HW226199   6.305   1.577   3.409
 8434SOL     OW26200   5.344   6.378   0.089
 8434SOL    HW126201   5.264   6.338   0.133
 8434SOL    HW226202   5.340   6.360   7.013
 8435SOL     OW26203   5.545   3.564   0.802
 8435SOL    HW126204   5.527   3.599   0.894
 8435SOL    HW226205   5.461   3.569   0.748
 8436SOL     OW26206   3.434   4.120   1.684
 8436SOL    HW126207   3.480   4.092   1.599
 8436SOL    HW226208   3.373   4.197   1.665
 8437SOL     OW26209   0.387   2.887   0.732
 8437SOL    HW126210   0.311   2.947   0.704
 8437SOL    HW226211   0.359   2.831   0.809
 8438SOL     OW26212   2.574   5.773   1.821
 8438SOL    HW126213   2.644   5.841   1.799
 8438SOL    HW226214   2.548   5.783   1.917
 8439SOL     OW26215   5.335   0.298   2.247
 8439SOL    HW126216   5.414   0.275   2.190
 8439SOL    HW226217   5.354   0.274   2.342
 8440SOL     OW26218   1.502   3.900   3.517
 8440SOL    HW126219   1.558   3.821   3.542
 8440SOL    HW226220   1.478   3.895   3.420
 8441SOL     OW26221   4.435   5.778   1.462
 8441SOL    HW126222   4.394   5.711   1.524
 8441SOL    HW226223   4.401   5.764   1.369
 8442SOL     OW26224   3.054   3.117   0.556
 8442SOL    HW126225   2.994   3.119   0.476
 8442SOL    HW226226   3.040   3.200   0.610
 8443SOL     OW26227   6.885   2.686   0.887
 8443SOL    HW126228   6.965   2.627   0.874
 8443SOL    HW226229   6.876   2.747   0.808
 8444SOL     OW26230   4.978   2.650   3.077
 8444SOL    HW126231   5.036   2.723   3.114
 8444SOL    HW226232   4.939   2.680   2.990
 8445SOL     OW26233   3.413   5.514   3.286
 8445SOL    HW126234   3.513   5.513   3.282
 8445SOL    HW226235   3.380   5.422   3.307
 8446SOL     OW26236   6.142   4.028   3.518
 8446SOL    HW126237   6.049   3.991   3.519
 8446SOL    HW226238   6.138   4.127   3.531
 8447SOL     OW26239   5.347   4.947   1.162
 8447SOL    HW126240   5.425   4.920   1.219
 8447SOL    HW226241   5.377   4.960   1.068
 8448SOL     OW26242   1.600   4.431   5.391
 8448SOL    HW126243   1.574   4.400   5.299
 8448SOL    HW226244   1.544   4.510   5.416
 8449SOL     OW26245   2.046   0.944   5.863
 8449SOL    HW126246   1.995   1.000   5.797
 8449SOL    HW226247   2.073   1.001   5.941
 8450SOL     OW26248   1.473   5.862   0.995
 8450SOL    HW126249   1.570   5.846   0.972
 8450SOL    HW226250   1.467   5.897   1.088
 8451SOL     OW26251   2.713   4.161   1.566
 8451SOL    HW126252   2.808   4.132   1.576
 8451SOL    HW226253   2.696   4.240   1.625
 8452SOL     OW26254   6.743   5.971   2.473
 8452SOL    HW126255   6.744   5.999   2.377
 8452SOL    HW226256   6.707   5.878   2.480
 8453SOL     OW26257   0.814   4.313   5.526
 8453SOL    HW126258   0.890   4.371   5.497
 8453SOL    HW226259   0.814   4.304   5.625
 8454SOL     OW26260   1.964   6.869   5.813
 8454SOL    HW126261   1.942   6.850   5.908
 8454SOL    HW226262   2.046   6.926   5.808
 8455SOL     OW26263   6.206   2.144   0.244
 8455SOL    HW126264   6.176   2.222   0.189
 8455SOL    HW226265   6.294   2.164   0.286
 8456SOL     OW26266   5.836   4.754   3.721
 8456SOL    HW126267   5.778   4.680   3.687
 8456SOL    HW226268   5.793   4.794   3.803
 8457SOL     OW26269   5.576   6.141   5.905
 8457SOL    HW126270   5.612   6.051   5.884
 8457SOL    HW226271   5.554   6.146   6.003
 8458SOL     OW26272   1.018   1.379   1.431
 8458SOL    HW126273   1.088   1.402   1.362
 8458SOL    HW226274   0.943   1.330   1.386
 8459SOL     OW26275   2.175   4.908   2.659
 8459SOL    HW126276   2.269   4.940   2.667
 8459SOL    HW226277   2.113   4.981   2.688
 8460SOL     OW26278   3.730   0.986   1.131
 8460SOL    HW126279   3.824   1.019   1.123
 8460SOL    HW226280   3.673   1.030   1.061
 8461SOL     OW26281   5.499   4.711   3.156
 8461SOL    HW126282   5.399   4.717   3.163
 8461SOL    HW226283   5.534   4.791   3.107
 8462SOL     OW26284   1.948   3.397   0.620
 8462SOL    HW126285   1.865   3.386   0.565
 8462SOL    HW226286   1.924   3.402   0.717
 8463SOL     OW26287   0.619   6.555   1.946
 8463SOL    HW126288   0.708   6.515   1.969
 8463SOL    HW226289   0.589   6.614   2.021
 8464SOL     OW26290   6.599   3.251   0.173
 8464SOL    HW126291   6.500   3.241   0.189
 8464SOL    HW226292   6.616   3.257   0.075
 8465SOL     OW26293   5.864   3.889   0.491
 8465SOL    HW126294   5.811   3.951   0.549
 8465SOL    HW226295   5.931   3.840   0.547
 8466SOL     OW26296   0.287   1.419   4.878
 8466SOL    HW126297   0.339   1.495   4.839
 8466SOL    HW226298   0.328   1.332   4.848
 8467SOL     OW26299   3.138   0.996   0.678
 8467SOL    HW126300   3.123   0.953   0.767
 8467SOL    HW226301   3.232   1.028   0.671
 8468SOL     OW26302   6.747   3.472   1.989
 8468SOL    HW126303   6.705   3.508   1.906
 8468SOL    HW226304   6.759   3.545   2.055
 8469SOL     OW26305   3.243   2.972   5.459
 8469SOL    HW126306   3.269   3.013   5.546
 8469SOL    HW226307   3.325   2.940   5.411
 8470SOL     OW26308   1.547   5.474   0.516
 8470SOL    HW126309   1.578   5.538   0.445
 8470SOL    HW226310   1.449   5.487   0.530
 8471SOL     OW26311   3.742   1.846   3.637
 8471SOL    HW126312   3.761   1.944   3.626
 8471SOL    HW226313   3.828   1.796   3.645
 8472SOL     OW26314   6.228   1.421   6.614
 8472SOL    HW126315   6.235   1.429   6.713
 8472SOL    HW226316   6.311   1.379   6.578
 8473SOL     OW26317   5.061   5.189   5.489
 8473SOL    HW126318   5.101   5.263   5.544
 8473SOL    HW226319   5.012   5.126   5.549
 8474SOL     OW26320   3.405   4.094   6.601
 8474SOL    HW126321   3.490   4.070   6.554
 8474SOL    HW226322   3.342   4.138   6.537
 8475SOL     OW26323   0.985   1.952   3.080
 8475SOL    HW126324   1.070   1.902   3.095
 8475SOL    HW226325   0.989   1.998   2.991
 8476SOL     OW26326   6.749   0.662   2.281
 8476SOL    HW126327   6.722   0.753   2.314
 8476SOL    HW226328   6.729   0.655   2.183
 8477SOL     OW26329   6.086   6.843   0.887
 8477SOL    HW126330   6.113   6.886   0.973
 8477SOL    HW226331   6.166   6.801   0.844
 8478SOL     OW26332   2.170   6.831   6.798
 8478SOL    HW126333   2.085   6.864   6.839
 8478SOL    HW226334   2.185   6.877   6.711
 8479SOL     OW26335   1.478   2.371   7.008
 8479SOL    HW126336   1.525   2.285   0.005
 8479SOL    HW226337   1.382   2.353   6.990
 8480SOL     OW26338   3.323   4.409   1.642
 8480SOL    HW126339   3.353   4.495   1.683
 8480SOL    HW226340   3.315   4.420   1.543
 8481SOL     OW26341   5.676   3.180   1.695
 8481SOL    HW126342   5.768   3.217   1.676
 8481SOL    HW226343   5.616   3.254   1.723
 8482SOL     OW26344   4.866   6.836   5.594
 8482SOL    HW126345   4.792   6.881   5.545
 8482SOL    HW226346   4.954   6.869   5.561
 8483SOL     OW26347   4.593   5.373   3.999
 8483SOL    HW126348   4.589   5.315   3.918
 8483SOL    HW226349   4.684   5.366   4.040
 8484SOL     OW26350   5.550   6.708   5.419
 8484SOL    HW126351   5.609   6.649   5.474
 8484SOL    HW226352   5.465   6.660   5.396
 8485SOL     OW26353   3.410   0.429   5.625
 8485SOL    HW126354   3.378   0.517   5.657
 8485SOL    HW226355   3.339   0.360   5.640
 8486SOL     OW26356   4.814   2.557   4.791
 8486SOL    HW126357   4.909   2.571   4.818
 8486SOL    HW226358   4.754   2.575   4.869
 8487SOL     OW26359   1.076   1.536   5.637
 8487SOL    HW126360   1.004   1.604   5.624
 8487SOL    HW226361   1.161   1.582   5.661
 8488SOL     OW26362   4.285   5.584   3.099
 8488SOL    HW126363   4.282   5.602   3.000
 8488SOL    HW226364   4.267   5.487   3.115
 8489SOL     OW26365   6.307   2.375   1.582
 8489SOL    HW126366   6.292   2.285   1.541
 8489SOL    HW226367   6.329   2.364   1.679
 8490SOL     OW26368   4.509   0.336   6.777
 8490SOL    HW126369   4.558   0.415   6.740
 8490SOL    HW226370   4.484   0.354   6.872
 8491SOL     OW26371   2.845   6.234   1.646
 8491SOL    HW126372   2.872   6.180   1.567
 8491SOL    HW226373   2.907   6.312   1.656
 8492SOL     OW26374   5.955   6.294   4.113
 8492SOL    HW126375   5.982   6.389   4.132
 8492SOL    HW226376   5.930   6.249   4.198
 8493SOL     OW26377   5.028   0.008   5.515
 8493SOL    HW126378   4.951   0.068   5.491
 8493SOL    HW226379   5.052   0.021   5.611
 8494SOL     OW26380   0.432   3.804   2.361
 8494SOL    HW126381   0.433   3.896   2.322
 8494SOL    HW226382   0.432   3.737   2.286
 8495SOL     OW26383   4.232   5.750   4.662
 8495SOL    HW126384   4.160   5.777   4.725
 8495SOL    HW226385   4.275   5.666   4.695
 8496SOL     OW26386   4.008   2.032   2.483
 8496SOL    HW126387   4.026   1.985   2.570
 8496SOL    HW226388   3.909   2.037   2.467
 8497SOL     OW26389   6.139   1.015   3.341
 8497SOL    HW126390   6.177   1.004   3.433
 8497SOL    HW226391   6.165   1.104   3.304
 8498SOL     OW26392   5.921   6.202   5.574
 8498SOL    HW126393   5.855   6.127   5.585
 8498SOL    HW226394   5.997   6.171   5.516
 8499SOL     OW26395   6.558   0.040   6.111
 8499SOL    HW126396   6.503   6.979   6.115
 8499SOL    HW226397   6.501   0.115   6.077
 8500SOL     OW26398   0.272   0.718   5.564
 8500SOL    HW126399   0.321   0.641   5.523
 8500SOL    HW226400   0.188   0.684   5.607
 8501SOL     OW26401   3.668   6.663   4.892
 8501SOL    HW126402   3.758   6.631   4.924
 8501SOL    HW226403   3.614   6.584   4.862
 8502SOL     OW26404   6.500   2.697   0.619
 8502SOL    HW126405   6.540   2.762   0.684
 8502SOL    HW226406   6.498   2.606   0.659
 8503SOL     OW26407   4.811   2.578   5.860
 8503SOL    HW126408   4.750   2.655   5.875
 8503SOL    HW226409   4.782   2.527   5.779
 8504SOL     OW26410   1.434   1.210   3.175
 8504SOL    HW126411   1.465   1.301   3.204
 8504SOL    HW226412   1.334   1.206   3.180
 8505SOL     OW26413   6.155   1.402   2.452
 8505SOL    HW126414   6.214   1.418   2.531
 8505SOL    HW226415   6.088   1.331   2.473
 8506SOL     OW26416   2.012   0.945   4.267
 8506SOL    HW126417   1.938   0.912   4.325
 8506SOL    HW226418   2.031   0.876   4.196
 8507SOL     OW26419   4.152   5.721   0.150
 8507SOL    HW126420   4.222   5.712   0.222
 8507SOL    HW226421   4.176   5.661   0.073
 8508SOL     OW26422   3.217   0.940   5.906
 8508SOL    HW126423   3.220   0.870   5.977
 8508SOL    HW226424   3.306   0.944   5.861
 8509SOL     OW26425   3.889   2.057   2.155
 8509SOL    HW126426   3.817   2.107   2.105
 8509SOL    HW226427   3.901   2.098   2.245
 8510SOL     OW26428   0.577   2.412   5.410
 8510SOL    HW126429   0.645   2.374   5.472
 8510SOL    HW226430   0.507   2.343   5.390
 8511SOL     OW26431   5.756   1.919   4.072
 8511SOL    HW126432   5.789   1.913   3.978
 8511SOL    HW226433   5.661   1.949   4.073
 8512SOL     OW26434   2.672   6.739   6.214
 8512SOL    HW126435   2.765   6.762   6.187
 8512SOL    HW226436   2.658   6.640   6.205
 8513SOL     OW26437   3.832   5.537   6.731
 8513SOL    HW126438   3.847   5.552   6.829
 8513SOL    HW226439   3.869   5.615   6.680
 8514SOL     OW26440   4.367   5.500   4.714
 8514SOL    HW126441   4.325   5.413   4.690
 8514SOL    HW226442   4.454   5.510   4.666
 8515SOL     OW26443   5.573   2.701   2.000
 8515SOL    HW126444   5.474   2.691   2.005
 8515SOL    HW226445   5.615   2.652   2.077
 8516SOL     OW26446   0.025   2.553   1.290
 8516SOL    HW126447   6.986   2.509   1.225
 8516SOL    HW226448   0.009   2.652   1.290
 8517SOL     OW26449   0.849   3.481   4.778
 8517SOL    HW126450   0.829   3.577   4.799
 8517SOL    HW226451   0.939   3.458   4.814
 8518SOL     OW26452   3.493   5.502   1.497
 8518SOL    HW126453   3.416   5.438   1.491
 8518SOL    HW226454   3.460   5.590   1.530
 8519SOL     OW26455   2.987   5.437   3.279
 8519SOL    HW126456   2.977   5.471   3.373
 8519SOL    HW226457   3.032   5.507   3.223
 8520SOL     OW26458   3.756   5.539   7.011
 8520SOL    HW126459   3.680   5.583   0.036
 8520SOL    HW226460   3.781   5.455   0.036
 8521SOL     OW26461   0.621   1.071   4.029
 8521SOL    HW126462   0.701   1.013   4.013
 8521SOL    HW226463   0.620   1.146   3.963
 8522SOL     OW26464   2.523   6.080   4.524
 8522SOL    HW126465   2.597   6.145   4.505
 8522SOL    HW226466   2.513   6.071   4.623
 8523SOL     OW26467   2.002   5.312   6.902
 8523SOL    HW126468   1.974   5.407   6.914
 8523SOL    HW226469   1.997   5.264   6.990
 8524SOL     OW26470   2.195   0.888   6.106
 8524SOL    HW126471   2.172   0.983   6.125
 8524SOL    HW226472   2.128   0.828   6.149
 8525SOL     OW26473   5.890   4.238   4.774
 8525SOL    HW126474   5.917   4.330   4.801
 8525SOL    HW226475   5.912   4.224   4.677
 8526SOL     OW26476   6.674   3.014   1.700
 8526SOL    HW126477   6.762   3.015   1.652
 8526SOL    HW226478   6.667   2.930   1.754
 8527SOL     OW26479   4.772   1.587   5.168
 8527SOL    HW126480   4.856   1.563   5.216
 8527SOL    HW226481   4.784   1.574   5.070
 8528SOL     OW26482   5.983   6.947   6.906
 8528SOL    HW126483   5.941   6.899   6.983
 8528SOL    HW226484   5.960   6.899   6.821
 8529SOL     OW26485   6.421   1.055   4.463
 8529SOL    HW126486   6.328   1.027   4.486
 8529SOL    HW226487   6.459   1.109   4.538
 8530SOL     OW26488   1.660   5.410   5.980
 8530SOL    HW126489   1.563   5.386   5.984
 8530SOL    HW226490   1.708   5.348   5.918
 8531SOL     OW26491   3.008   5.371   2.979
 8531SOL    HW126492   3.100   5.401   3.003
 8531SOL    HW226493   2.978   5.301   3.043
 8532SOL     OW26494   1.222   3.132   6.591
 8532SOL    HW126495   1.157   3.092   6.527
 8532SOL    HW226496   1.288   3.062   6.620
 8533SOL     OW26497   3.086   0.473   6.321
 8533SOL    HW126498   3.110   0.386   6.362
 8533SOL    HW226499   2.990   0.472   6.294
 8534SOL     OW26500   3.232   2.626   0.920
 8534SOL    HW126501   3.226   2.643   0.821
 8534SOL    HW226502   3.328   2.629   0.948
 8535SOL     OW26503   0.156   2.085   5.678
 8535SOL    HW126504   0.245   2.098   5.721
 8535SOL    HW226505   0.165   2.021   5.601
 8536SOL     OW26506   6.789   0.153   6.185
 8536SOL    HW126507   6.857   0.118   6.249
 8536SOL    HW226508   6.722   0.081   6.166
 8537SOL     OW26509   3.341   6.602   3.430
 8537SOL    HW126510   3.423   6.651   3.458
 8537SOL    HW226511   3.316   6.535   3.500
 8538SOL     OW26512   4.106   2.014   5.164
 8538SOL    HW126513   4.052   1.931   5.153
 8538SOL    HW226514   4.073   2.084   5.102
 8539SOL     OW26515   0.653   3.032   2.851
 8539SOL    HW126516   0.677   2.991   2.939
 8539SOL    HW226517   0.726   3.094   2.822
 8540SOL     OW26518   4.502   6.075   6.022
 8540SOL    HW126519   4.452   6.148   6.069
 8540SOL    HW226520   4.472   6.070   5.927
 8541SOL     OW26521   3.784   5.799   6.153
 8541SOL    HW126522   3.764   5.747   6.236
 8541SOL    HW226523   3.715   5.871   6.142
 8542SOL     OW26524   1.305   4.955   4.575
 8542SOL    HW126525   1.248   4.988   4.650
 8542SOL    HW226526   1.394   4.928   4.611
 8543SOL     OW26527   3.428   1.870   5.666
 8543SOL    HW126528   3.433   1.849   5.763
 8543SOL    HW226529   3.521   1.877   5.629
 8544SOL     OW26530   4.934   3.881   5.262
 8544SOL    HW126531   4.930   3.961   5.322
 8544SOL    HW226532   4.938   3.911   5.166
 8545SOL     OW26533   2.105   0.903   6.428
 8545SOL    HW126534   2.191   0.939   6.391
 8545SOL    HW226535   2.117   0.806   6.451
 8546SOL     OW26536   2.810   1.667   4.055
 8546SOL    HW126537   2.767   1.584   4.089
 8546SOL    HW226538   2.819   1.733   4.129
 8547SOL     OW26539   5.312   4.530   5.838
 8547SOL    HW126540   5.367   4.582   5.772
 8547SOL    HW226541   5.233   4.584   5.865
 8548SOL     OW26542   1.619   4.277   3.692
 8548SOL    HW126543   1.561   4.220   3.751
 8548SOL    HW226544   1.587   4.272   3.598
 8549SOL     OW26545   2.868   0.278   3.583
 8549SOL    HW126546   2.884   0.187   3.544
 8549SOL    HW226547   2.843   0.342   3.510
 8550SOL     OW26548   0.243   3.656   5.215
 8550SOL    HW126549   0.238   3.756   5.225
 8550SOL    HW226550   0.288   3.634   5.129
 8551SOL     OW26551   3.515   2.133   3.934
 8551SOL    HW126552   3.599   2.187   3.937
 8551SOL    HW226553   3.501   2.088   4.022
 8552SOL     OW26554   4.065   1.617   2.193
 8552SOL    HW126555   3.998   1.601   2.120
 8552SOL    HW226556   4.037   1.569   2.276
 8553SOL     OW26557   6.086   2.600   0.714
 8553SOL    HW126558   6.120   2.642   0.630
 8553SOL    HW226559   6.141   2.520   0.736
 8554SOL     OW26560   7.005   0.737   6.365
 8554SOL    HW126561   6.939   0.726   6.439
 8554SOL    HW226562   6.965   0.700   6.280
 8555SOL     OW26563   3.795   1.929   4.085
 8555SOL    HW126564   3.716   1.898   4.137
 8555SOL    HW226565   3.879   1.889   4.122
 8556SOL     OW26566   1.252   3.910   6.007
 8556SOL    HW126567   1.301   3.993   6.034
 8556SOL    HW226568   1.235   3.911   5.909
 8557SOL     OW26569   6.105   7.021   0.656
 8557SOL    HW126570   6.167   0.017   0.731
 8557SOL    HW226571   6.020   0.049   0.669
 8558SOL     OW26572   2.391   6.095   3.447
 8558SOL    HW126573   2.432   6.184   3.428
 8558SOL    HW226574   2.357   6.092   3.541
 8559SOL     OW26575   1.733   2.570   2.468
 8559SOL    HW126576   1.711   2.524   2.554
 8559SOL    HW226577   1.796   2.646   2.486
 8560SOL     OW26578   3.369   4.691   1.673
 8560SOL    HW126579   3.439   4.698   1.745
 8560SOL    HW226580   3.301   4.763   1.687
 8561SOL     OW26581   3.508   0.938   2.494
 8561SOL    HW126582   3.582   0.923   2.429
 8561SOL    HW226583   3.436   0.991   2.451
 8562SOL     OW26584   5.605   3.648   5.886
 8562SOL    HW126585   5.698   3.685   5.880
 8562SOL    HW226586   5.540   3.724   5.892
 8563SOL     OW26587   0.079   3.911   3.639
 8563SOL    HW126588   0.161   3.891   3.585
 8563SOL    HW226589   0.007   3.946   3.578
 8564SOL     OW26590   3.660   6.576   6.804
 8564SOL    HW126591   3.719   6.565   6.723
 8564SOL    HW226592   3.594   6.648   6.787
 8565SOL     OW26593   1.269   5.199   0.942
 8565SOL    HW126594   1.308   5.133   0.879
 8565SOL    HW226595   1.303   5.182   1.035
 8566SOL     OW26596   2.508   0.802   3.905
 8566SOL    HW126597   2.585   0.770   3.851
 8566SOL    HW226598   2.474   0.727   3.963
 8567SOL     OW26599   1.723   3.052   6.919
 8567SOL    HW126600   1.673   3.137   6.903
 8567SOL    HW226601   1.707   3.021   7.013
 8568SOL     OW26602   5.735   0.137   6.108
 8568SOL    HW126603   5.751   0.041   6.087
 8568SOL    HW226604   5.743   0.192   6.024
 8569SOL     OW26605   4.268   1.904   5.739
 8569SOL    HW126606   4.197   1.888   5.808
 8569SOL    HW226607   4.227   1.902   5.648
 8570SOL     OW26608   1.492   2.125   3.871
 8570SOL    HW126609   1.458   2.123   3.777
 8570SOL    HW226610   1.514   2.219   3.896
 8571SOL     OW26611   1.828   0.735   3.799
 8571SOL    HW126612   1.737   0.708   3.831
 8571SOL    HW226613   1.848   0.691   3.712
 8572SOL     OW26614   2.776   3.075   6.541
 8572SOL    HW126615   2.863   3.122   6.526
 8572SOL    HW226616   2.701   3.132   6.509
 8573SOL     OW26617   1.634   6.205   5.487
 8573SOL    HW126618   1.566   6.166   5.549
 8573SOL    HW226619   1.603   6.193   5.393
 8574SOL     OW26620   6.295   2.745   5.622
 8574SOL    HW126621   6.259   2.679   5.556
 8574SOL    HW226622   6.274   2.838   5.591
 8575SOL     OW26623   1.561   6.690   4.226
 8575SOL    HW126624   1.508   6.605   4.219
 8575SOL    HW226625   1.559   6.738   4.138
 8576SOL     OW26626   1.544   4.134   4.095
 8576SOL    HW126627   1.617   4.151   4.161
 8576SOL    HW226628   1.554   4.041   4.057
 8577SOL     OW26629   2.023   1.159   1.446
 8577SOL    HW126630   2.054   1.225   1.515
 8577SOL    HW226631   1.934   1.122   1.473
 8578SOL     OW26632   1.779   0.607   6.080
 8578SOL    HW126633   1.847   0.601   6.007
 8578SOL    HW226634   1.824   0.606   6.169
 8579SOL     OW26635   2.712   6.804   2.869
 8579SOL    HW126636   2.782   6.860   2.914
 8579SOL    HW226637   2.728   6.708   2.892
 8580SOL     OW26638   1.285   6.932   2.419
 8580SOL    HW126639   1.226   6.923   2.339
 8580SOL    HW226640   1.326   0.001   2.419
 8581SOL     OW26641   3.802   3.418   3.800
 8581SOL    HW126642   3.857   3.342   3.835
 8581SOL    HW226643   3.840   3.449   3.713
 8582SOL     OW26644   5.446   5.342   0.011
 8582SOL    HW126645   5.483   5.424   6.991
 8582SOL    HW226646   5.358   5.319   6.991
 8583SOL     OW26647   3.322   6.802   1.929
 8583SOL    HW126648   3.410   6.849   1.924
 8583SOL    HW226649   3.327   6.715   1.879
 8584SOL     OW26650   5.748   2.907   6.162
 8584SOL    HW126651   5.658   2.936   6.131
 8584SOL    HW226652   5.739   2.857   6.248
 8585SOL     OW26653   5.052   2.736   2.783
 8585SOL    HW126654   4.979   2.804   2.778
 8585SOL    HW226655   5.023   2.653   2.733
 8586SOL     OW26656   5.994   6.792   5.877
 8586SOL    HW126657   5.918   6.844   5.915
 8586SOL    HW226658   6.031   6.731   5.947
 8587SOL     OW26659   6.208   6.767   1.140
 8587SOL    HW126660   6.306   6.777   1.159
 8587SOL    HW226661   6.184   6.670   1.143
 8588SOL     OW26662   1.736   2.481   5.430
 8588SOL    HW126663   1.821   2.518   5.468
 8588SOL    HW226664   1.659   2.539   5.459
 8589SOL     OW26665   6.439   3.352   6.460
 8589SOL    HW126666   6.382   3.270   6.452
 8589SOL    HW226667   6.395   3.417   6.521
 8590SOL     OW26668   0.912   1.557   2.916
 8590SOL    HW126669   0.919   1.458   2.900
 8590SOL    HW226670   0.994   1.602   2.881
 8591SOL     OW26671   0.658   4.701   6.473
 8591SOL    HW126672   0.633   4.779   6.531
 8591SOL    HW226673   0.668   4.620   6.531
 8592SOL     OW26674   0.212   1.963   4.778
 8592SOL    HW126675   0.157   2.034   4.734
 8592SOL    HW226676   0.278   2.005   4.840
 8593SOL     OW26677   6.997   0.312   0.599
 8593SOL    HW126678   0.054   0.306   0.539
 8593SOL    HW226679   6.930   0.373   0.558
 8594SOL     OW26680   6.042   2.132   6.759
 8594SOL    HW126681   6.124   2.081   6.784
 8594SOL    HW226682   6.062   2.192   6.682
 8595SOL     OW26683   5.435   6.697   1.478
 8595SOL    HW126684   5.367   6.641   1.430
 8595SOL    HW226685   5.472   6.765   1.416
 8596SOL     OW26686   0.696   2.484   5.778
 8596SOL    HW126687   0.778   2.500   5.833
 8596SOL    HW226688   0.646   2.571   5.767
 8597SOL     OW26689   6.566   2.518   5.724
 8597SOL    HW126690   6.485   2.560   5.682
 8597SOL    HW226691   6.599   2.576   5.798
 8598SOL     OW26692   6.470   0.068   5.449
 8598SOL    HW126693   6.494   6.997   5.475
 8598SOL    HW226694   6.382   0.093   5.490
 8599SOL     OW26695   6.425   4.281   5.773
 8599SOL    HW126696   6.343   4.298   5.717
 8599SOL    HW226697   6.464   4.368   5.801
 8600SOL     OW26698   3.487   3.192   1.896
 8600SOL    HW126699   3.506   3.094   1.904
 8600SOL    HW226700   3.399   3.212   1.940
 8601SOL     OW26701   4.925   4.411   1.550
 8601SOL    HW126702   4.987   4.485   1.525
 8601SOL    HW226703   4.940   4.385   1.646
 8602SOL     OW26704   2.240   6.105   5.146
 8602SOL    HW126705   2.151   6.129   5.107
 8602SOL    HW226706   2.261   6.167   5.222
 8603SOL     OW26707   0.494   1.334   6.617
 8603SOL    HW126708   0.574   1.335   6.557
 8603SOL    HW226709   0.513   1.389   6.698
 8604SOL     OW26710   2.058   5.882   6.165
 8604SOL    HW126711   1.986   5.833   6.214
 8604SOL    HW226712   2.025   5.972   6.138
 8605SOL     OW26713   6.951   5.138   3.964
 8605SOL    HW126714   6.977   5.190   4.046
 8605SOL    HW226715   6.933   5.043   3.988
 8606SOL     OW26716   0.065   0.405   6.375
 8606SOL    HW126717   0.014   0.426   6.458
 8606SOL    HW226718   0.163   0.407   6.394
 8607SOL     OW26719   3.254   2.555   1.588
 8607SOL    HW126720   3.200   2.570   1.505
 8607SOL    HW226721   3.315   2.476   1.574
 8608SOL     OW26722   1.474   5.522   2.248
 8608SOL    HW126723   1.515   5.439   2.286
 8608SOL    HW226724   1.434   5.501   2.159
 8609SOL     OW26725   5.441   2.605   4.453
 8609SOL    HW126726   5.402   2.682   4.402
 8609SOL    HW226727   5.459   2.529   4.391
 8610SOL     OW26728   6.936   5.683   2.405
 8610SOL    HW126729   6.940   5.608   2.471
 8610SOL    HW226730   0.005   5.708   2.377
 8611SOL     OW26731   1.688   1.456   5.919
 8611SOL    HW126732   1.610   1.415   5.966
 8611SOL    HW226733   1.703   1.411   5.831
 8612SOL     OW26734   3.480   3.206   6.088
 8612SOL    HW126735   3.563   3.245   6.046
 8612SOL    HW226736   3.502   3.120   6.132
 8613SOL     OW26737   3.551   3.160   3.521
 8613SOL    HW126738   3.549   3.236   3.585
 8613SOL    HW226739   3.525   3.076   3.568
 8614SOL     OW26740   0.047   3.470   3.591
 8614SOL    HW126741   0.052   3.538   3.518
 8614SOL    HW226742   0.097   3.503   3.671
 8615SOL     OW26743   3.945   0.464   4.992
 8615SOL    HW126744   3.878   0.400   5.029
 8615SOL    HW226745   3.956   0.447   4.894
 8616SOL     OW26746   6.166   3.770   5.349
 8616SOL    HW126747   6.211   3.684   5.323
 8616SOL    HW226748   6.134   3.817   5.266
 8617SOL     OW26749   0.981   6.942   4.548
 8617SOL    HW126750   1.053   6.919   4.483
 8617SOL    HW226751   0.938   6.858   4.581
 8618SOL     OW26752   0.256   4.325   0.550
 8618SOL    HW126753   0.195   4.401   0.527
 8618SOL    HW226754   0.351   4.357   0.547
 8619SOL     OW26755   5.820   4.106   6.289
 8619SOL    HW126756   5.723   4.083   6.283
 8619SOL    HW226757   5.836   4.170   6.364
 8620SOL     OW26758   0.780   6.591   4.081
 8620SOL    HW126759   0.691   6.569   4.121
 8620SOL    HW226760   0.772   6.674   4.026
 8621SOL     OW26761   6.505   3.338   2.020
 8621SOL    HW126762   6.596   3.370   1.992
 8621SOL    HW226763   6.445   3.417   2.032
 8622SOL     OW26764   0.682   6.236   1.866
 8622SOL    HW126765   0.766   6.215   1.815
 8622SOL    HW226766   0.604   6.191   1.822
 8623SOL     OW26767   1.710   2.347   3.636
 8623SOL    HW126768   1.718   2.376   3.731
 8623SOL    HW226769   1.627   2.386   3.596
 8624SOL     OW26770   3.392   3.825   6.393
 8624SOL    HW126771   3.381   3.883   6.313
 8624SOL    HW226772   3.476   3.850   6.442
 8625SOL     OW26773   4.158   3.227   6.166
 8625SOL    HW126774   4.070   3.185   6.142
 8625SOL    HW226775   4.194   3.184   6.249
 8626SOL     OW26776   5.737   1.159   0.126
 8626SOL    HW126777   5.732   1.060   0.142
 8626SOL    HW226778   5.684   1.207   0.196
 8627SOL     OW26779   0.055   0.343   2.684
 8627SOL    HW126780   6.989   0.387   2.695
 8627SOL    HW226781   0.051   0.279   2.608
 8628SOL     OW26782   1.235   6.235   0.409
 8628SOL    HW126783   1.216   6.266   0.503
 8628SOL    HW226784   1.165   6.169   0.381
 8629SOL     OW26785   6.888   1.345   4.570
 8629SOL    HW126786   6.963   1.393   4.525
 8629SOL    HW226787   6.849   1.278   4.508
 8630SOL     OW26788   5.854   3.228   1.950
 8630SOL    HW126789   5.821   3.211   1.857
 8630SOL    HW226790   5.942   3.183   1.963
 8631SOL     OW26791   1.239   5.682   0.100
 8631SOL    HW126792   1.208   5.752   0.164
 8631SOL    HW226793   1.235   5.592   0.144
 8632SOL     OW26794   6.017   6.050   3.077
 8632SOL    HW126795   6.076   6.058   3.157
 8632SOL    HW226796   5.966   5.965   3.081
 8633SOL     OW26797   6.748   3.683   5.917
 8633SOL    HW126798   6.653   3.715   5.910
 8633SOL    HW226799   6.799   3.743   5.979
 8634SOL     OW26800   4.761   4.411   6.948
 8634SOL    HW126801   4.714   4.336   6.901
 8634SOL    HW226802   4.699   4.451   7.016
 8635SOL     OW26803   5.456   1.463   6.783
 8635SOL    HW126804   5.455   1.542   6.844
 8635SOL    HW226805   5.545   1.457   6.738
 8636SOL     OW26806   4.812   6.029   0.539
 8636SOL    HW126807   4.834   5.972   0.459
 8636SOL    HW226808   4.713   6.032   0.551
 8637SOL     OW26809   2.760   2.771   1.212
 8637SOL    HW126810   2.754   2.871   1.209
 8637SOL    HW226811   2.851   2.742   1.183
 8638SOL     OW26812   5.051   2.167   4.961
 8638SOL    HW126813   4.964   2.125   4.935
 8638SOL    HW226814   5.048   2.190   5.058
 8639SOL     OW26815   4.149   4.129   0.328
 8639SOL    HW126816   4.103   4.113   0.241
 8639SOL    HW226817   4.156   4.043   0.379
 8640SOL     OW26818   2.856   2.896   0.034
 8640SOL    HW126819   2.803   2.865   0.113
 8640SOL    HW226820   2.942   2.844   0.030
 8641SOL     OW26821   3.382   4.887   3.143
 8641SOL    HW126822   3.449   4.898   3.217
 8641SOL    HW226823   3.431   4.875   3.056
 8642SOL     OW26824   2.617   6.496   3.092
 8642SOL    HW126825   2.585   6.527   3.182
 8642SOL    HW226826   2.628   6.397   3.094
 8643SOL     OW26827   3.478   6.326   1.045
 8643SOL    HW126828   3.409   6.387   1.083
 8643SOL    HW226829   3.515   6.365   0.961
 8644SOL     OW26830   5.022   2.699   6.831
 8644SOL    HW126831   5.108   2.711   6.880
 8644SOL    HW226832   5.038   2.712   6.733
 8645SOL     OW26833   4.498   5.133   3.068
 8645SOL    HW126834   4.503   5.048   3.015
 8645SOL    HW226835   4.573   5.135   3.135
 8646SOL     OW26836   5.849   1.910   3.822
 8646SOL    HW126837   5.786   1.934   3.749
 8646SOL    HW226838   5.943   1.913   3.788
 8647SOL     OW26839   1.963   4.822   2.092
 8647SOL    HW126840   1.979   4.784   2.001
 8647SOL    HW226841   1.865   4.817   2.113
 8648SOL     OW26842   5.706   5.874   6.297
 8648SOL    HW126843   5.747   5.799   6.245
 8648SOL    HW226844   5.766   5.953   6.296
 8649SOL     OW26845   5.325   3.090   2.366
 8649SOL    HW126846   5.417   3.070   2.332
 8649SOL    HW226847   5.282   3.159   2.307
 8650SOL     OW26848   1.075   1.255   4.938
 8650SOL    HW126849   1.160   1.216   4.973
 8650SOL    HW226850   1.075   1.353   4.954
 8651SOL     OW26851   4.964   1.261   1.306
 8651SOL    HW126852   4.901   1.228   1.376
 8651SOL    HW226853   4.927   1.240   1.216
 8652SOL     OW26854   6.220   3.317   4.936
 8652SOL    HW126855   6.129   3.324   4.976
 8652SOL    HW226856   6.215   3.269   4.849
 8653SOL     OW26857   4.445   1.070   6.556
 8653SOL    HW126858   4.465   1.113   6.468
 8653SOL    HW226859   4.352   1.033   6.554
 8654SOL     OW26860   6.485   4.715   3.480
 8654SOL    HW126861   6.552   4.656   3.527
 8654SOL    HW226862   6.480   4.689   3.384
 8655SOL     OW26863   1.861   6.977   4.622
 8655SOL    HW126864   1.764   6.992   4.641
 8655SOL    HW226865   1.880   6.999   4.526
 8656SOL     OW26866   4.067   6.667   0.147
 8656SOL    HW126867   4.015   6.751   0.134
 8656SOL    HW226868   4.107   6.667   0.239
 8657SOL     OW26869   2.726   1.817   2.472
 8657SOL    HW126870   2.665   1.769   2.536
 8657SOL    HW226871   2.772   1.892   2.520
 8658SOL     OW26872   5.966   3.958   0.800
 8658SOL    HW126873   5.951   3.948   0.898
 8658SOL    HW226874   5.979   3.867   0.759
 8659SOL     OW26875   2.931   6.791   3.307
 8659SOL    HW126876   2.928   6.695   3.334
 8659SOL    HW226877   3.025   6.826   3.317
 8660SOL     OW26878   6.518   4.334   0.819
 8660SOL    HW126879   6.555   4.421   0.788
 8660SOL    HW226880   6.418   4.337   0.819
 8661SOL     OW26881   5.938   2.747   1.072
 8661SOL    HW126882   5.984   2.802   1.003
 8661SOL    HW226883   5.843   2.778   1.081
 8662SOL     OW26884   1.750   3.049   1.992
 8662SOL    HW126885   1.822   2.991   1.954
 8662SOL    HW226886   1.736   3.027   2.088
 8663SOL     OW26887   3.249   5.937   1.836
 8663SOL    HW126888   3.260   5.885   1.920
 8663SOL    HW226889   3.267   5.878   1.757
 8664SOL     OW26890   3.438   5.814   4.763
 8664SOL    HW126891   3.360   5.769   4.806
 8664SOL    HW226892   3.469   5.889   4.821
 8665SOL     OW26893   0.848   3.165   6.113
 8665SOL    HW126894   0.779   3.137   6.047
 8665SOL    HW226895   0.806   3.175   6.203
 8666SOL     OW26896   3.801   6.821   2.077
 8666SOL    HW126897   3.722   6.876   2.051
 8666SOL    HW226898   3.774   6.725   2.087
 8667SOL     OW26899   4.443   1.952   2.022
 8667SOL    HW126900   4.381   2.024   1.993
 8667SOL    HW226901   4.391   1.877   2.064
 8668SOL     OW26902   3.391   2.068   3.682
 8668SOL    HW126903   3.441   2.083   3.768
 8668SOL    HW226904   3.449   2.094   3.605
 8669SOL     OW26905   0.105   6.079   6.561
 8669SOL    HW126906   0.046   5.998   6.563
 8669SOL    HW226907   0.072   6.146   6.627
 8670SOL     OW26908   6.582   4.988   5.129
 8670SOL    HW126909   6.511   4.919   5.145
 8670SOL    HW226910   6.652   4.981   5.200
 8671SOL     OW26911   6.947   3.729   3.127
 8671SOL    HW126912   6.885   3.656   3.156
 8671SOL    HW226913   6.966   3.721   3.029
 8672SOL     OW26914   6.412   0.909   2.056
 8672SOL    HW126915   6.325   0.944   2.091
 8672SOL    HW226916   6.398   0.820   2.013
 8673SOL     OW26917   0.243   0.834   2.141
 8673SOL    HW126918   0.263   0.904   2.073
 8673SOL    HW226919   0.145   0.829   2.157
 8674SOL     OW26920   0.266   2.753   4.021
 8674SOL    HW126921   0.285   2.806   3.938
 8674SOL    HW226922   0.308   2.663   4.013
 8675SOL     OW26923   5.420   2.394   4.206
 8675SOL    HW126924   5.444   2.318   4.266
 8675SOL    HW226925   5.408   2.361   4.113
 8676SOL     OW26926   5.256   2.536   0.803
 8676SOL    HW126927   5.186   2.509   0.738
 8676SOL    HW226928   5.346   2.522   0.764
 8677SOL     OW26929   2.749   1.708   6.779
 8677SOL    HW126930   2.787   1.736   6.868
 8677SOL    HW226931   2.671   1.766   6.756
 8678SOL     OW26932   2.438   2.248   0.158
 8678SOL    HW126933   2.377   2.190   0.212
 8678SOL    HW226934   2.384   2.307   0.098
 8679SOL     OW26935   2.057   2.179   6.712
 8679SOL    HW126936   2.156   2.164   6.714
 8679SOL    HW226937   2.038   2.277   6.712
 8680SOL     OW26938   6.943   0.131   1.249
 8680SOL    HW126939   0.019   0.112   1.249
 8680SOL    HW226940   6.928   0.227   1.270
 8681SOL     OW26941   5.801   5.554   1.401
 8681SOL    HW126942   5.714   5.597   1.376
 8681SOL    HW226943   5.845   5.518   1.319
 8682SOL     OW26944   1.399   2.130   1.442
 8682SOL    HW126945   1.412   2.203   1.510
 8682SOL    HW226946   1.439   2.158   1.355
 8683SOL     OW26947   2.588   5.083   4.290
 8683SOL    HW126948   2.601   5.002   4.346
 8683SOL    HW226949   2.493   5.114   4.297
 8684SOL     OW26950   2.481   4.465   3.872
 8684SOL    HW126951   2.404   4.401   3.861
 8684SOL    HW226952   2.557   4.433   3.816
 8685SOL     OW26953   4.169   3.323   5.522
 8685SOL    HW126954   4.072   3.334   5.500
 8685SOL    HW226955   4.189   3.227   5.539
 8686SOL     OW26956   0.667   4.908   2.474
 8686SOL    HW126957   0.645   4.884   2.568
 8686SOL    HW226958   0.703   4.828   2.426
 8687SOL     OW26959   5.579   3.153   5.704
 8687SOL    HW126960   5.582   3.054   5.715
 8687SOL    HW226961   5.651   3.195   5.759
 8688SOL     OW26962   1.437   3.280   4.178
 8688SOL    HW126963   1.466   3.191   4.143
 8688SOL    HW226964   1.379   3.267   4.258
 8689SOL     OW26965   5.226   3.466   0.969
 8689SOL    HW126966   5.230   3.550   1.024
 8689SOL    HW226967   5.294   3.401   1.004
 8690SOL     OW26968   1.186   2.537   2.400
 8690SOL    HW126969   1.144   2.576   2.319
 8690SOL    HW226970   1.206   2.610   2.466
 8691SOL     OW26971   4.058   1.077   6.803
 8691SOL    HW126972   4.152   1.110   6.816
 8691SOL    HW226973   4.045   0.992   6.853
 8692SOL     OW26974   5.369   2.220   4.628
 8692SOL    HW126975   5.314   2.150   4.674
 8692SOL    HW226976   5.427   2.265   4.696
 8693SOL     OW26977   0.987   0.531   4.996
 8693SOL    HW126978   0.967   0.458   5.063
 8693SOL    HW226979   0.915   0.534   4.928
 8694SOL     OW26980   3.071   3.439   6.146
 8694SOL    HW126981   3.121   3.514   6.102
 8694SOL    HW226982   3.017   3.391   6.077
 8695SOL     OW26983   4.204   4.016   1.313
 8695SOL    HW126984   4.160   3.971   1.390
 8695SOL    HW226985   4.268   3.953   1.269
 8696SOL     OW26986   2.677   4.173   6.432
 8696SOL    HW126987   2.739   4.116   6.487
 8696SOL    HW226988   2.730   4.241   6.382
 8697SOL     OW26989   0.953   3.086   4.542
 8697SOL    HW126990   0.999   3.047   4.621
 8697SOL    HW226991   0.904   3.169   4.569
 8698SOL     OW26992   5.193   4.454   6.764
 8698SOL    HW126993   5.148   4.534   6.802
 8698SOL    HW226994   5.199   4.463   6.664
 8699SOL     OW26995   2.301   1.713   1.855
 8699SOL    HW126996   2.357   1.763   1.789
 8699SOL    HW226997   2.306   1.757   1.944
 8700SOL     OW26998   0.695   2.497   4.865
 8700SOL    HW126999   0.643   2.467   4.945
 8700SOL    HW227000   0.761   2.567   4.892
 8701SOL     OW27001   2.651   3.155   0.319
 8701SOL    HW127002   2.675   3.122   0.411
 8701SOL    HW227003   2.611   3.080   0.266
 8702SOL     OW27004   5.137   4.374   0.529
 8702SOL    HW127005   5.088   4.366   0.442
 8702SOL    HW227006   5.072   4.363   0.605
 8703SOL     OW27007   2.350   5.653   0.791
 8703SOL    HW127008   2.303   5.715   0.854
 8703SOL    HW227009   2.292   5.638   0.710
 8704SOL     OW27010   6.296   1.572   3.860
 8704SOL    HW127011   6.204   1.607   3.840
 8704SOL    HW227012   6.327   1.610   3.948
 8705SOL     OW27013   3.666   2.302   0.735
 8705SOL    HW127014   3.567   2.292   0.726
 8705SOL    HW227015   3.709   2.212   0.727
 8706SOL     OW27016   5.161   3.197   4.991
 8706SOL    HW127017   5.199   3.289   4.989
 8706SOL    HW227018   5.128   3.173   4.900
 8707SOL     OW27019   1.964   0.706   3.287
 8707SOL    HW127020   1.879   0.657   3.267
 8707SOL    HW227021   2.040   0.661   3.240
 8708SOL     OW27022   5.235   1.997   0.305
 8708SOL    HW127023   5.146   1.957   0.280
 8708SOL    HW227024   5.241   2.090   0.268
 8709SOL     OW27025   6.247   5.914   4.141
 8709SOL    HW127026   6.218   5.931   4.235
 8709SOL    HW227027   6.280   5.820   4.132
 8710SOL     OW27028   2.145   2.751   3.371
 8710SOL    HW127029   2.056   2.706   3.378
 8710SOL    HW227030   2.218   2.682   3.374
 8711SOL     OW27031   0.880   2.189   2.327
 8711SOL    HW127032   0.797   2.133   2.331
 8711SOL    HW227033   0.942   2.152   2.257
 8712SOL     OW27034   1.220   4.066   4.284
 8712SOL    HW127035   1.184   4.086   4.193
 8712SOL    HW227036   1.211   4.147   4.343
 8713SOL     OW27037   0.702   4.569   4.502
 8713SOL    HW127038   0.728   4.533   4.592
 8713SOL    HW227039   0.776   4.627   4.467
 8714SOL     OW27040   1.443   3.737   6.227
 8714SOL    HW127041   1.467   3.703   6.135
 8714SOL    HW227042   1.427   3.659   6.287
 8715SOL     OW27043   2.238   4.893   1.401
 8715SOL    HW127044   2.227   4.960   1.474
 8715SOL    HW227045   2.222   4.801   1.437
 8716SOL     OW27046   5.395   7.000   2.890
 8716SOL    HW127047   5.322   6.976   2.826
 8716SOL    HW227048   5.393   6.938   2.968
 8717SOL     OW27049   4.730   1.480   6.339
 8717SOL    HW127050   4.761   1.571   6.311
 8717SOL    HW227051   4.642   1.460   6.296
 8718SOL     OW27052   2.675   5.243   6.021
 8718SOL    HW127053   2.719   5.302   6.089
 8718SOL    HW227054   2.621   5.173   6.067
 8719SOL     OW27055   3.041   1.853   4.495
 8719SOL    HW127056   3.035   1.947   4.461
 8719SOL    HW227057   3.138   1.828   4.505
 8720SOL     OW27058   0.162   6.813   5.158
 8720SOL    HW127059   0.225   6.844   5.229
 8720SOL    HW227060   0.173   6.869   5.076
 8721SOL     OW27061   0.341   0.788   1.765
 8721SOL    HW127062   0.378   0.748   1.849
 8721SOL    HW227063   0.252   0.829   1.784
 8722SOL     OW27064   3.809   1.064   0.487
 8722SOL    HW127065   3.816   1.088   0.391
 8722SOL    HW227066   3.828   0.966   0.498
 8723SOL     OW27067   2.965   6.265   3.415
 8723SOL    HW127068   2.885   6.235   3.467
 8723SOL    HW227069   2.942   6.347   3.363
 8724SOL     OW27070   5.836   0.105   5.082
 8724SOL    HW127071   5.896   0.164   5.026
 8724SOL    HW227072   5.838   0.012   5.045
 8725SOL     OW27073   6.729   1.032   2.764
 8725SOL    HW127074   6.740   1.042   2.863
 8725SOL    HW227075   6.771   0.947   2.734
 8726SOL     OW27076   6.551   0.093   0.952
 8726SOL    HW127077   6.644   0.059   0.941
 8726SOL    HW227078   6.544   0.146   1.036
 8727SOL     OW27079   5.006   5.028   6.092
 8727SOL    HW127080   4.990   5.126   6.084
 8727SOL    HW227081   4.932   4.987   6.146
 8728SOL     OW27082   4.873   6.952   4.069
 8728SOL    HW127083   4.875   6.908   4.159
 8728SOL    HW227084   4.935   0.008   4.070
 8729SOL     OW27085   5.492   5.718   6.089
 8729SOL    HW127086   5.470   5.717   6.187
 8729SOL    HW227087   5.489   5.625   6.053
 8730SOL     OW27088   4.093   4.689   1.773
 8730SOL    HW127089   4.121   4.600   1.739
 8730SOL    HW227090   4.152   4.716   1.848
 8731SOL     OW27091   0.273   2.897   3.791
 8731SOL    HW127092   0.228   2.878   3.704
 8731SOL    HW227093   0.370   2.917   3.775
 8732SOL     OW27094   5.235   6.575   5.680
 8732SOL    HW127095   5.254   6.527   5.594
 8732SOL    HW227096   5.150   6.539   5.719
 8733SOL     OW27097   5.816   3.952   2.239
 8733SOL    HW127098   5.773   3.868   2.208
 8733SOL    HW227099   5.793   4.027   2.177
 8734SOL     OW27100   7.021   6.459   1.277
 8734SOL    HW127101   6.993   6.535   1.336
 8734SOL    HW227102   0.011   6.493   1.184
 8735SOL     OW27103   1.458   2.087   6.787
 8735SOL    HW127104   1.496   1.995   6.790
 8735SOL    HW227105   1.424   2.112   6.877
 8736SOL     OW27106   0.413   6.002   3.755
 8736SOL    HW127107   0.353   6.042   3.824
 8736SOL    HW227108   0.395   5.904   3.748
 8737SOL     OW27109   0.704   5.573   6.425
 8737SOL    HW127110   0.705   5.618   6.336
 8737SOL    HW227111   0.612   5.539   6.444
 8738SOL     OW27112   1.528   2.145   2.260
 8738SOL    HW127113   1.536   2.060   2.312
 8738SOL    HW227114   1.606   2.155   2.199
 8739SOL     OW27115   4.887   5.107   3.566
 8739SOL    HW127116   4.819   5.042   3.599
 8739SOL    HW227117   4.978   5.066   3.573
 8740SOL     OW27118   2.202   0.656   3.135
 8740SOL    HW127119   2.147   0.704   3.066
 8740SOL    HW227120   2.241   0.573   3.096
 8741SOL     OW27121   1.970   2.729   2.303
 8741SOL    HW127122   1.915   2.757   2.382
 8741SOL    HW227123   1.921   2.658   2.252
 8742SOL     OW27124   1.435   3.679   0.446
 8742SOL    HW127125   1.437   3.600   0.384
 8742SOL    HW227126   1.352   3.675   0.502
 8743SOL     OW27127   2.054   3.030   0.596
 8743SOL    HW127128   2.107   3.090   0.656
 8743SOL    HW227129   1.957   3.045   0.611
 8744SOL     OW27130   3.005   4.097   5.723
 8744SOL    HW127131   3.103   4.084   5.739
 8744SOL    HW227132   2.959   4.008   5.729
 8745SOL     OW27133   5.454   0.966   6.927
 8745SOL    HW127134   5.426   1.023   7.004
 8745SOL    HW227135   5.498   1.022   6.858
 8746SOL     OW27136   4.361   4.626   4.514
 8746SOL    HW127137   4.380   4.612   4.612
 8746SOL    HW227138   4.267   4.658   4.503
 8747SOL     OW27139   6.926   6.694   1.447
 8747SOL    HW127140   6.907   6.726   1.354
 8747SOL    HW227141   6.880   6.754   1.512
 8748SOL     OW27142   5.830   2.110   5.010
 8748SOL    HW127143   5.825   2.012   4.994
 8748SOL    HW227144   5.906   2.130   5.073
 8749SOL     OW27145   1.609   1.339   4.032
 8749SOL    HW127146   1.632   1.241   4.037
 8749SOL    HW227147   1.685   1.393   4.068
 8750SOL     OW27148   3.752   4.069   2.408
 8750SOL    HW127149   3.715   4.148   2.358
 8750SOL    HW227150   3.794   4.006   2.342
 8751SOL     OW27151   1.499   6.687   6.783
 8751SOL    HW127152   1.443   6.717   6.861
 8751SOL    HW227153   1.553   6.764   6.749
 8752SOL     OW27154   1.357   2.468   6.601
 8752SOL    HW127155   1.333   2.562   6.628
 8752SOL    HW227156   1.453   2.451   6.622
 8753SOL     OW27157   2.538   1.826   1.211
 8753SOL    HW127158   2.445   1.813   1.246
 8753SOL    HW227159   2.534   1.876   1.125
 8754SOL     OW27160   1.605   6.095   6.966
 8754SOL    HW127161   1.633   6.061   0.033
 8754SOL    HW227162   1.685   6.131   6.918
 8755SOL     OW27163   6.382   1.272   1.791
 8755SOL    HW127164   6.299   1.230   1.755
 8755SOL    HW227165   6.461   1.241   1.738
 8756SOL     OW27166   1.617   1.096   2.450
 8756SOL    HW127167   1.616   1.038   2.369
 8756SOL    HW227168   1.533   1.151   2.453
 8757SOL     OW27169   5.376   5.608   5.717
 8757SOL    HW127170   5.316   5.561   5.781
 8757SOL    HW227171   5.410   5.544   5.648
 8758SOL     OW27172   3.750   5.163   6.316
 8758SOL    HW127173   3.684   5.108   6.266
 8758SOL    HW227174   3.722   5.260   6.313
 8759SOL     OW27175   6.729   0.863   1.450
 8759SOL    HW127176   6.678   0.830   1.371
 8759SOL    HW227177   6.681   0.839   1.534
 8760SOL     OW27178   1.476   2.143   4.165
 8760SOL    HW127179   1.463   2.086   4.084
 8760SOL    HW227180   1.387   2.172   4.200
 8761SOL     OW27181   5.059   2.340   4.290
 8761SOL    HW127182   5.086   2.436   4.298
 8761SOL    HW227183   5.030   2.306   4.379
 8762SOL     OW27184   3.754   6.305   2.463
 8762SOL    HW127185   3.809   6.279   2.384
 8762SOL    HW227186   3.729   6.223   2.515
 8763SOL     OW27187   6.493   1.726   5.583
 8763SOL    HW127188   6.442   1.742   5.667
 8763SOL    HW227189   6.547   1.807   5.561
 8764SOL     OW27190   2.170   5.516   5.944
 8764SOL    HW127191   2.212   5.437   5.898
 8764SOL    HW227192   2.216   5.600   5.913
 8765SOL     OW27193   4.761   0.254   3.210
 8765SOL    HW127194   4.732   0.166   3.249
 8765SOL    HW227195   4.854   0.245   3.173
 8766SOL     OW27196   6.470   0.722   5.152
 8766SOL    HW127197   6.523   0.790   5.101
 8766SOL    HW227198   6.455   0.642   5.094
 8767SOL     OW27199   2.171   1.233   5.023
 8767SOL    HW127200   2.205   1.150   5.067
 8767SOL    HW227201   2.199   1.233   4.927
 8768SOL     OW27202   0.142   2.268   0.424
 8768SOL    HW127203   0.130   2.171   0.440
 8768SOL    HW227204   0.077   2.320   0.479
 8769SOL     OW27205   0.002   0.589   6.902
 8769SOL    HW127206   7.006   0.678   6.945
 8769SOL    HW227207   0.099   0.567   6.913
 8770SOL     OW27208   4.345   1.725   0.781
 8770SOL    HW127209   4.354   1.824   0.795
 8770SOL    HW227210   4.249   1.702   0.766
 8771SOL     OW27211   1.043   2.829   0.000
 8771SOL    HW127212   1.087   2.911   6.987
 8771SOL    HW227213   0.962   2.855   0.053
 8772SOL     OW27214   6.769   0.125   3.664
 8772SOL    HW127215   6.689   0.070   3.644
 8772SOL    HW227216   6.753   0.178   3.748
 8773SOL     OW27217   6.080   1.802   4.412
 8773SOL    HW127218   5.991   1.767   4.439
 8773SOL    HW227219   6.099   1.776   4.317
 8774SOL     OW27220   0.918   2.190   6.568
 8774SOL    HW127221   1.017   2.186   6.561
 8774SOL    HW227222   0.882   2.098   6.583
 8775SOL     OW27223   4.509   1.929   2.449
 8775SOL    HW127224   4.560   1.948   2.365
 8775SOL    HW227225   4.411   1.937   2.430
 8776SOL     OW27226   6.074   3.087   0.741
 8776SOL    HW127227   6.106   3.177   0.771
 8776SOL    HW227228   6.065   3.087   0.641
 8777SOL     OW27229   6.564   2.497   4.135
 8777SOL    HW127230   6.518   2.472   4.220
 8777SOL    HW227231   6.608   2.416   4.096
 8778SOL     OW27232   1.876   4.507   5.499
 8778SOL    HW127233   1.825   4.422   5.488
 8778SOL    HW227234   1.914   4.535   5.411
 8779SOL     OW27235   3.002   6.627   3.506
 8779SOL    HW127236   3.071   6.694   3.534
 8779SOL    HW227237   3.034   6.535   3.528
 8780SOL     OW27238   0.995   3.374   4.173
 8780SOL    HW127239   1.048   3.306   4.222
 8780SOL    HW227240   0.916   3.402   4.228
 8781SOL     OW27241   3.955   0.856   2.415
 8781SOL    HW127242   3.864   0.844   2.375
 8781SOL    HW227243   3.954   0.936   2.475
 8782SOL     OW27244   0.425   2.820   0.246
 8782SOL    HW127245   0.485   2.742   0.229
 8782SOL    HW227246   0.359   2.795   0.318
 8783SOL     OW27247   3.429   4.281   6.804
 8783SOL    HW127248   3.524   4.311   6.813
 8783SOL    HW227249   3.421   4.216   6.729
 8784SOL     OW27250   4.507   2.224   5.927
 8784SOL    HW127251   4.430   2.180   5.973
 8784SOL    HW227252   4.558   2.280   5.993
 8785SOL     OW27253   6.709   6.995   5.795
 8785SOL    HW127254   6.648   0.024   5.855
 8785SOL    HW227255   6.695   0.002   5.701
 8786SOL     OW27256   4.606   2.103   3.236
 8786SOL    HW127257   4.637   2.069   3.148
 8786SOL    HW227258   4.626   2.034   3.307
 8787SOL     OW27259   2.872   5.845   2.211
 8787SOL    HW127260   2.884   5.812   2.118
 8787SOL    HW227261   2.901   5.774   2.276
 8788SOL     OW27262   6.527   0.329   3.436
 8788SOL    HW127263   6.529   0.358   3.532
 8788SOL    HW227264   6.620   0.324   3.401
 8789SOL     OW27265   2.350   4.131   0.164
 8789SOL    HW127266   2.432   4.078   0.141
 8789SOL    HW227267   2.349   4.149   0.263
 8790SOL     OW27268   5.135   3.481   5.113
 8790SOL    HW127269   5.210   3.495   5.178
 8790SOL    HW227270   5.053   3.526   5.148
 8791SOL     OW27271   3.556   6.807   5.162
 8791SOL    HW127272   3.541   6.896   5.119
 8791SOL    HW227273   3.615   6.751   5.103
 8792SOL     OW27274   4.951   4.302   0.712
 8792SOL    HW127275   4.887   4.342   0.778
 8792SOL    HW227276   4.910   4.221   0.671
 8793SOL     OW27277   6.513   0.974   4.997
 8793SOL    HW127278   6.585   1.022   5.049
 8793SOL    HW227279   6.425   1.018   5.014
 8794SOL     OW27280   1.256   3.100   2.780
 8794SOL    HW127281   1.293   3.191   2.762
 8794SOL    HW227282   1.328   3.042   2.818
 8795SOL     OW27283   1.676   0.539   6.822
 8795SOL    HW127284   1.652   0.442   6.820
 8795SOL    HW227285   1.678   0.574   6.728
 8796SOL     OW27286   6.095   5.273   3.795
 8796SOL    HW127287   6.051   5.189   3.763
 8796SOL    HW227288   6.122   5.263   3.891
 8797SOL     OW27289   5.805   5.302   6.115
 8797SOL    HW127290   5.790   5.306   6.016
 8797SOL    HW227291   5.898   5.270   6.134
 8798SOL     OW27292   2.287   4.703   0.314
 8798SOL    HW127293   2.352   4.779   0.311
 8798SOL    HW227294   2.221   4.712   0.239
 8799SOL     OW27295   0.642   5.757   2.385
 8799SOL    HW127296   0.695   5.720   2.461
 8799SOL    HW227297   0.553   5.788   2.419
 8800SOL     OW27298   6.868   6.640   4.696
 8800SOL    HW127299   6.936   6.614   4.628
 8800SOL    HW227300   6.911   6.698   4.765
 8801SOL     OW27301   6.063   2.937   5.845
 8801SOL    HW127302   6.027   3.009   5.905
 8801SOL    HW227303   6.006   2.856   5.852
 8802SOL     OW27304   1.212   6.694   6.704
 8802SOL    HW127305   1.310   6.682   6.718
 8802SOL    HW227306   1.183   6.638   6.626
 8803SOL     OW27307   4.604   4.973   4.957
 8803SOL    HW127308   4.504   4.981   4.949
 8803SOL    HW227309   4.642   5.062   4.982
 8804SOL     OW27310   2.009   5.996   1.250
 8804SOL    HW127311   2.041   5.909   1.288
 8804SOL    HW227312   2.019   5.995   1.151
 8805SOL     OW27313   4.931   5.138   0.941
 8805SOL    HW127314   4.839   5.150   0.903
 8805SOL    HW227315   4.954   5.041   0.943
 8806SOL     OW27316   1.794   1.270   2.183
 8806SOL    HW127317   1.785   1.180   2.140
 8806SOL    HW227318   1.712   1.323   2.167
 8807SOL     OW27319   5.356   1.193   1.628
 8807SOL    HW127320   5.374   1.250   1.548
 8807SOL    HW227321   5.274   1.137   1.613
 8808SOL     OW27322   1.922   1.559   0.897
 8808SOL    HW127323   1.906   1.623   0.822
 8808SOL    HW227324   1.954   1.610   0.977
 8809SOL     OW27325   1.381   3.337   2.710
 8809SOL    HW127326   1.443   3.283   2.655
 8809SOL    HW227327   1.413   3.432   2.714
 8810SOL     OW27328   6.689   2.282   3.529
 8810SOL    HW127329   6.620   2.276   3.601
 8810SOL    HW227330   6.657   2.231   3.449
 8811SOL     OW27331   3.683   6.088   2.610
 8811SOL    HW127332   3.636   6.050   2.690
 8811SOL    HW227333   3.696   6.015   2.542
 8812SOL     OW27334   5.669   0.460   6.864
 8812SOL    HW127335   5.667   0.556   6.838
 8812SOL    HW227336   5.658   0.452   6.963
 8813SOL     OW27337   1.580   2.337   0.985
 8813SOL    HW127338   1.671   2.355   0.947
 8813SOL    HW227339   1.516   2.320   0.910
 8814SOL     OW27340   5.957   0.534   4.312
 8814SOL    HW127341   5.925   0.503   4.402
 8814SOL    HW227342   6.049   0.573   4.320
 8815SOL     OW27343   4.862   0.858   1.289
 8815SOL    HW127344   4.828   0.786   1.227
 8815SOL    HW227345   4.818   0.847   1.379
 8816SOL     OW27346   6.557   1.496   2.746
 8816SOL    HW127347   6.576   1.525   2.840
 8816SOL    HW227348   6.576   1.398   2.737
 8817SOL     OW27349   0.832   2.092   4.142
 8817SOL    HW127350   0.813   2.028   4.068
 8817SOL    HW227351   0.771   2.075   4.219
 8818SOL     OW27352   1.543   5.490   6.436
 8818SOL    HW127353   1.639   5.468   6.457
 8818SOL    HW227354   1.514   5.567   6.493
 8819SOL     OW27355   5.557   6.034   6.836
 8819SOL    HW127356   5.535   6.093   6.758
 8819SOL    HW227357   5.547   6.087   6.921
 8820SOL     OW27358   3.642   6.665   5.512
 8820SOL    HW127359   3.573   6.668   5.584
 8820SOL    HW227360   3.672   6.759   5.492
 8821SOL     OW27361   1.557   5.181   5.555
 8821SOL    HW127362   1.637   5.214   5.606
 8821SOL    HW227363   1.561   5.082   5.546
 8822SOL     OW27364   0.041   1.101   5.081
 8822SOL    HW127365   0.112   1.034   5.059
 8822SOL    HW227366   6.977   1.071   5.042
 8823SOL     OW27367   4.497   2.354   3.340
 8823SOL    HW127368   4.551   2.439   3.333
 8823SOL    HW227369   4.534   2.286   3.277
 8824SOL     OW27370   1.252   0.536   3.012
 8824SOL    HW127371   1.154   0.559   3.013
 8824SOL    HW227372   1.291   0.550   3.103
 8825SOL     OW27373   1.638   6.398   6.563
 8825SOL    HW127374   1.721   6.355   6.527
 8825SOL    HW227375   1.633   6.383   6.661
 8826SOL     OW27376   1.049   2.744   6.763
 8826SOL    HW127377   1.005   2.656   6.742
 8826SOL    HW227378   1.037   2.764   6.860
 8827SOL     OW27379   5.119   6.288   4.217
 8827SOL    HW127380   5.160   6.325   4.134
 8827SOL    HW227381   5.180   6.305   4.294
 8828SOL     OW27382   5.089   2.873   5.715
 8828SOL    HW127383   5.006   2.927   5.727
 8828SOL    HW227384   5.065   2.777   5.702
 8829SOL     OW27385   6.354   0.636   2.997
 8829SOL    HW127386   6.338   0.732   2.979
 8829SOL    HW227387   6.453   0.619   3.003
 8830SOL     OW27388   2.397   2.065   2.784
 8830SOL    HW127389   2.431   2.037   2.874
 8830SOL    HW227390   2.299   2.047   2.778
 8831SOL     OW27391   0.558   2.495   2.470
 8831SOL    HW127392   0.550   2.584   2.426
 8831SOL    HW227393   0.500   2.493   2.552
 8832SOL     OW27394   6.177   0.091   5.046
 8832SOL    HW127395   6.147   0.141   5.128
 8832SOL    HW227396   6.238   0.017   5.073
 8833SOL     OW27397   5.037   2.872   1.160
 8833SOL    HW127398   4.961   2.810   1.178
 8833SOL    HW227399   5.062   2.868   1.064
 8834SOL     OW27400   6.616   4.097   5.706
 8834SOL    HW127401   6.555   4.166   5.746
 8834SOL    HW227402   6.696   4.143   5.666
 8835SOL     OW27403   6.193   1.393   5.473
 8835SOL    HW127404   6.236   1.468   5.424
 8835SOL    HW227405   6.172   1.319   5.410
 8836SOL     OW27406   4.244   1.271   0.110
 8836SOL    HW127407   4.317   1.283   0.177
 8836SOL    HW227408   4.231   1.357   0.060
 8837SOL     OW27409   5.600   5.328   1.152
 8837SOL    HW127410   5.584   5.267   1.074
 8837SOL    HW227411   5.683   5.300   1.200
 8838SOL     OW27412   0.878   2.594   1.915
 8838SOL    HW127413   0.806   2.575   1.848
 8838SOL    HW227414   0.920   2.508   1.944
 8839SOL     OW27415   4.977   4.510   1.928
 8839SOL    HW127416   4.914   4.440   1.961
 8839SOL    HW227417   4.939   4.553   1.846
 8840SOL     OW27418   0.275   6.669   1.233
 8840SOL    HW127419   0.229   6.748   1.275
 8840SOL    HW227420   0.327   6.620   1.303
 8841SOL     OW27421   4.927   1.828   0.509
 8841SOL    HW127422   4.851   1.893   0.504
 8841SOL    HW227423   4.979   1.843   0.593
 8842SOL     OW27424   3.038   3.119   3.200
 8842SOL    HW127425   2.986   3.111   3.286
 8842SOL    HW227426   3.132   3.147   3.220
 8843SOL     OW27427   2.629   6.392   5.090
 8843SOL    HW127428   2.544   6.433   5.122
 8843SOL    HW227429   2.707   6.441   5.131
 8844SOL     OW27430   4.012   2.582   5.320
 8844SOL    HW127431   4.088   2.586   5.255
 8844SOL    HW227432   4.047   2.558   5.410
 8845SOL     OW27433   0.278   3.795   2.581
 8845SOL    HW127434   0.318   3.791   2.490
 8845SOL    HW227435   0.343   3.758   2.648
 8846SOL     OW27436   5.250   5.395   4.097
 8846SOL    HW127437   5.249   5.396   3.997
 8846SOL    HW227438   5.291   5.309   4.129
 8847SOL     OW27439   1.040   3.302   3.716
 8847SOL    HW127440   0.994   3.251   3.790
 8847SOL    HW227441   1.009   3.397   3.717
 8848SOL     OW27442   6.142   2.779   1.444
 8848SOL    HW127443   6.121   2.724   1.525
 8848SOL    HW227444   6.060   2.829   1.414
 8849SOL     OW27445   3.699   5.263   4.634
 8849SOL    HW127446   3.781   5.320   4.633
 8849SOL    HW227447   3.629   5.306   4.692
 8850SOL     OW27448   4.728   1.484   1.141
 8850SOL    HW127449   4.789   1.412   1.107
 8850SOL    HW227450   4.743   1.568   1.090
 8851SOL     OW27451   6.760   4.998   3.530
 8851SOL    HW127452   6.665   4.973   3.548
 8851SOL    HW227453   6.775   5.093   3.554
 8852SOL     OW27454   6.093   4.670   4.519
 8852SOL    HW127455   6.019   4.660   4.586
 8852SOL    HW227456   6.181   4.670   4.566
 8853SOL     OW27457   4.429   1.519   4.478
 8853SOL    HW127458   4.458   1.615   4.477
 8853SOL    HW227459   4.369   1.503   4.557
 8854SOL     OW27460   2.515   0.712   6.797
 8854SOL    HW127461   2.574   0.682   6.721
 8854SOL    HW227462   2.572   0.731   6.877
 8855SOL     OW27463   6.596   4.577   6.128
 8855SOL    HW127464   6.526   4.512   6.157
 8855SOL    HW227465   6.664   4.588   6.201
 8856SOL     OW27466   5.221   1.945   5.941
 8856SOL    HW127467   5.221   1.866   6.002
 8856SOL    HW227468   5.291   1.933   5.870
 8857SOL     OW27469   1.612   3.486   4.228
 8857SOL    HW127470   1.535   3.422   4.223
 8857SOL    HW227471   1.632   3.506   4.324
 8858SOL     OW27472   1.481   3.312   5.671
 8858SOL    HW127473   1.536   3.356   5.742
 8858SOL    HW227474   1.517   3.221   5.653
 8859SOL     OW27475   2.761   5.238   4.891
 8859SOL    HW127476   2.704   5.171   4.940
 8859SOL    HW227477   2.730   5.245   4.797
 8860SOL     OW27478   2.497   0.923   1.678
 8860SOL    HW127479   2.426   0.993   1.676
 8860SOL    HW227480   2.587   0.966   1.666
 8861SOL     OW27481   2.505   0.984   7.018
 8861SOL    HW127482   2.439   1.023   0.059
 8861SOL    HW227483   2.577   1.051   6.998
 8862SOL     OW27484   0.530   3.815   3.838
 8862SOL    HW127485   0.456   3.772   3.787
 8862SOL    HW227486   0.510   3.912   3.850
 8863SOL     OW27487   1.880   5.809   5.208
 8863SOL    HW127488   1.829   5.766   5.282
 8863SOL    HW227489   1.861   5.762   5.122
 8864SOL     OW27490   2.058   3.862   5.100
 8864SOL    HW127491   2.044   3.764   5.087
 8864SOL    HW227492   2.141   3.891   5.051
 8865SOL     OW27493   2.983   2.088   5.790
 8865SOL    HW127494   3.062   2.113   5.733
 8865SOL    HW227495   2.964   2.163   5.854
 8866SOL     OW27496   5.793   0.152   5.346
 8866SOL    HW127497   5.825   0.087   5.415
 8866SOL    HW227498   5.790   0.108   5.257
 8867SOL     OW27499   5.372   1.127   2.982
 8867SOL    HW127500   5.466   1.159   2.990
 8867SOL    HW227501   5.332   1.163   2.897
 8868SOL     OW27502   6.217   2.717   0.500
 8868SOL    HW127503   6.313   2.689   0.496
 8868SOL    HW227504   6.210   2.816   0.488
 8869SOL     OW27505   1.356   1.391   3.988
 8869SOL    HW127506   1.452   1.381   4.016
 8869SOL    HW227507   1.352   1.441   3.901
 8870SOL     OW27508   3.244   6.493   1.599
 8870SOL    HW127509   3.302   6.498   1.681
 8870SOL    HW227510   3.266   6.409   1.549
 8871SOL     OW27511   0.863   2.459   3.879
 8871SOL    HW127512   0.899   2.422   3.793
 8871SOL    HW227513   0.767   2.434   3.888
 8872SOL     OW27514   1.122   1.114   2.602
 8872SOL    HW127515   1.157   1.114   2.508
 8872SOL    HW227516   1.067   1.032   2.617
 8873SOL     OW27517   0.213   6.078   4.676
 8873SOL    HW127518   0.118   6.044   4.675
 8873SOL    HW227519   0.272   6.008   4.716
 8874SOL     OW27520   0.786   1.176   5.932
 8874SOL    HW127521   0.711   1.190   5.997
 8874SOL    HW227522   0.816   1.264   5.896
 8875SOL     OW27523   1.233   0.947   4.190
 8875SOL    HW127524   1.312   0.885   4.195
 8875SOL    HW227525   1.161   0.905   4.135
 8876SOL     OW27526   3.386   1.144   4.322
 8876SOL    HW127527   3.386   1.239   4.354
 8876SOL    HW227528   3.382   1.142   4.222
 8877SOL     OW27529   2.478   6.591   5.822
 8877SOL    HW127530   2.577   6.584   5.830
 8877SOL    HW227531   2.437   6.500   5.826
 8878SOL     OW27532   5.675   4.314   5.295
 8878SOL    HW127533   5.730   4.373   5.353
 8878SOL    HW227534   5.734   4.257   5.238
 8879SOL     OW27535   6.118   5.950   4.374
 8879SOL    HW127536   6.033   5.995   4.347
 8879SOL    HW227537   6.107   5.911   4.466
 8880SOL     OW27538   1.262   0.020   5.142
 8880SOL    HW127539   1.199   6.999   5.206
 8880SOL    HW227540   1.216   0.096   5.097
 8881SOL     OW27541   6.127   1.125   1.747
 8881SOL    HW127542   6.039   1.079   1.737
 8881SOL    HW227543   6.123   1.213   1.700
 8882SOL     OW27544   5.162   1.519   6.902
 8882SOL    HW127545   5.163   1.610   6.944
 8882SOL    HW227546   5.252   1.499   6.864
 8883SOL     OW27547   5.919   1.509   5.856
 8883SOL    HW127548   5.891   1.547   5.944
 8883SOL    HW227549   5.869   1.554   5.782
 8884SOL     OW27550   0.738   1.340   6.476
 8884SOL    HW127551   0.773   1.262   6.424
 8884SOL    HW227552   0.810   1.376   6.534
 8885SOL     OW27553   5.746   3.669   1.789
 8885SOL    HW127554   5.834   3.668   1.837
 8885SOL    HW227555   5.759   3.640   1.695
 8886SOL     OW27556   3.428   6.406   6.016
 8886SOL    HW127557   3.498   6.425   6.084
 8886SOL    HW227558   3.338   6.411   6.060
 8887SOL     OW27559   1.680   1.345   0.144
 8887SOL    HW127560   1.639   1.344   0.235
 8887SOL    HW227561   1.608   1.330   0.075
 8888SOL     OW27562   1.621   1.855   3.111
 8888SOL    HW127563   1.571   1.942   3.107
 8888SOL    HW227564   1.557   1.780   3.094
 8889SOL     OW27565   3.298   0.835   5.531
 8889SOL    HW127566   3.304   0.764   5.460
 8889SOL    HW227567   3.211   0.883   5.522
 8890SOL     OW27568   6.343   5.741   3.048
 8890SOL    HW127569   6.277   5.696   3.109
 8890SOL    HW227570   6.426   5.684   3.042
 8891SOL     OW27571   3.447   2.306   6.219
 8891SOL    HW127572   3.527   2.296   6.278
 8891SOL    HW227573   3.366   2.274   6.268
 8892SOL     OW27574   1.014   0.623   3.757
 8892SOL    HW127575   0.955   0.579   3.825
 8892SOL    HW227576   1.029   0.560   3.680
 8893SOL     OW27577   0.120   0.405   0.837
 8893SOL    HW127578   0.218   0.391   0.830
 8893SOL    HW227579   0.075   0.373   0.754
 8894SOL     OW27580   5.103   3.140   5.251
 8894SOL    HW127581   5.146   3.053   5.275
 8894SOL    HW227582   5.143   3.175   5.166
 8895SOL     OW27583   1.165   1.294   3.670
 8895SOL    HW127584   1.215   1.360   3.615
 8895SOL    HW227585   1.080   1.336   3.702
 8896SOL     OW27586   1.551   3.917   4.397
 8896SOL    HW127587   1.615   3.950   4.328
 8896SOL    HW227588   1.474   3.872   4.353
 8897SOL     OW27589   0.685   1.896   2.104
 8897SOL    HW127590   0.747   1.919   2.029
 8897SOL    HW227591   0.599   1.861   2.066
 8898SOL     OW27592   1.273   2.185   5.201
 8898SOL    HW127593   1.339   2.192   5.126
 8898SOL    HW227594   1.182   2.209   5.167
 8899SOL     OW27595   4.024   0.008   3.124
 8899SOL    HW127596   4.075   0.040   3.204
 8899SOL    HW227597   3.931   0.043   3.127
 8900SOL     OW27598   6.056   1.663   3.624
 8900SOL    HW127599   5.995   1.589   3.653
 8900SOL    HW227600   6.059   1.734   3.694
 8901SOL     OW27601   1.122   6.972   2.180
 8901SOL    HW127602   1.051   6.908   2.151
 8901SOL    HW227603   1.122   0.030   2.120
 8902SOL     OW27604   4.235   6.666   5.700
 8902SOL    HW127605   4.165   6.723   5.740
 8902SOL    HW227606   4.240   6.683   5.601
 8903SOL     OW27607   6.115   1.388   2.863
 8903SOL    HW127608   6.102   1.333   2.945
 8903SOL    HW227609   6.036   1.377   2.802
 8904SOL     OW27610   2.213   4.128   4.158
 8904SOL    HW127611   2.260   4.164   4.078
 8904SOL    HW227612   2.161   4.201   4.203
 8905SOL     OW27613   2.091   4.391   4.917
 8905SOL    HW127614   2.155   4.376   4.842
 8905SOL    HW227615   2.117   4.333   4.995
 8906SOL     OW27616   1.462   4.980   4.132
 8906SOL    HW127617   1.549   5.022   4.107
 8906SOL    HW227618   1.414   4.949   4.050
 8907SOL     OW27619   3.946   2.976   6.775
 8907SOL    HW127620   4.001   3.056   6.750
 8907SOL    HW227621   3.888   2.951   6.697
 8908SOL     OW27622   1.037   3.123   3.080
 8908SOL    HW127623   1.023   3.222   3.074
 8908SOL    HW227624   1.124   3.100   3.036
 8909SOL     OW27625   3.510   6.826   4.535
 8909SOL    HW127626   3.420   6.854   4.569
 8909SOL    HW227627   3.566   6.907   4.520
 8910SOL     OW27628   4.313   3.115   6.934
 8910SOL    HW127629   4.223   3.072   6.937
 8910SOL    HW227630   4.366   3.077   6.858
 8911SOL     OW27631   5.323   3.759   4.552
 8911SOL    HW127632   5.377   3.815   4.489
 8911SOL    HW227633   5.244   3.811   4.583
 8912SOL     OW27634   3.856   0.758   0.167
 8912SOL    HW127635   3.953   0.766   0.192
 8912SOL    HW227636   3.811   0.693   0.228
 8913SOL     OW27637   3.913   3.781   1.703
 8913SOL    HW127638   3.845   3.749   1.768
 8913SOL    HW227639   3.989   3.717   1.700
 8914SOL     OW27640   5.668   4.340   3.163
 8914SOL    HW127641   5.646   4.242   3.156
 8914SOL    HW227642   5.619   4.379   3.241
 8915SOL     OW27643   1.112   5.715   1.656
 8915SOL    HW127644   1.204   5.731   1.692
 8915SOL    HW227645   1.054   5.793   1.677
 8916SOL     OW27646   5.462   2.262   1.175
 8916SOL    HW127647   5.374   2.216   1.157
 8916SOL    HW227648   5.507   2.219   1.253
 8917SOL     OW27649   5.788   3.887   5.961
 8917SOL    HW127650   5.854   3.946   6.008
 8917SOL    HW227651   5.781   3.916   5.865
 8918SOL     OW27652   5.317   4.968   5.463
 8918SOL    HW127653   5.243   4.984   5.397
 8918SOL    HW227654   5.356   5.056   5.491
 8919SOL     OW27655   1.846   3.056   1.001
 8919SOL    HW127656   1.789   2.983   1.038
 8919SOL    HW227657   1.870   3.120   1.073
 8920SOL     OW27658   5.821   5.730   5.573
 8920SOL    HW127659   5.825   5.630   5.573
 8920SOL    HW227660   5.752   5.761   5.638
 8921SOL     OW27661   0.374   5.406   3.252
 8921SOL    HW127662   0.451   5.344   3.268
 8921SOL    HW227663   0.396   5.470   3.179
 8922SOL     OW27664   1.378   2.790   0.573
 8922SOL    HW127665   1.346   2.753   0.486
 8922SOL    HW227666   1.304   2.787   0.640
 8923SOL     OW27667   2.151   5.382   4.026
 8923SOL    HW127668   2.083   5.406   3.956
 8923SOL    HW227669   2.104   5.355   4.110
 8924SOL     OW27670   1.784   6.189   4.428
 8924SOL    HW127671   1.685   6.181   4.417
 8924SOL    HW227672   1.829   6.178   4.339
 8925SOL     OW27673   4.627   5.520   1.300
 8925SOL    HW127674   4.664   5.609   1.274
 8925SOL    HW227675   4.675   5.448   1.248
 8926SOL     OW27676   5.125   6.736   0.214
 8926SOL    HW127677   5.199   6.753   0.280
 8926SOL    HW227678   5.037   6.753   0.258
 8927SOL     OW27679   3.061   1.890   4.972
 8927SOL    HW127680   3.090   1.944   5.051
 8927SOL    HW227681   3.108   1.923   4.890
 8928SOL     OW27682   2.023   0.192   5.843
 8928SOL    HW127683   2.091   0.171   5.913
 8928SOL    HW227684   1.939   0.141   5.861
 8929SOL     OW27685   4.743   4.173   3.080
 8929SOL    HW127686   4.756   4.180   3.179
 8929SOL    HW227687   4.822   4.213   3.033
 8930SOL     OW27688   0.591   5.748   5.344
 8930SOL    HW127689   0.562   5.754   5.439
 8930SOL    HW227690   0.687   5.775   5.336
 8931SOL     OW27691   5.645   0.931   2.164
 8931SOL    HW127692   5.608   0.953   2.074
 8931SOL    HW227693   5.655   0.832   2.174
 8932SOL     OW27694   3.559   0.569   6.280
 8932SOL    HW127695   3.596   0.662   6.278
 8932SOL    HW227696   3.464   0.571   6.249
 8933SOL     OW27697   1.572   0.487   5.610
 8933SOL    HW127698   1.627   0.466   5.691
 8933SOL    HW227699   1.633   0.504   5.532
 8934SOL     OW27700   2.613   6.180   3.246
 8934SOL    HW127701   2.665   6.139   3.321
 8934SOL    HW227702   2.562   6.259   3.280
 8935SOL     OW27703   4.964   2.360   2.200
 8935SOL    HW127704   4.983   2.267   2.231
 8935SOL    HW227705   5.026   2.424   2.246
 8936SOL     OW27706   0.800   3.739   2.728
 8936SOL    HW127707   0.841   3.753   2.818
 8936SOL    HW227708   0.859   3.681   2.673
 8937SOL     OW27709   3.442   5.981   5.174
 8937SOL    HW127710   3.463   5.884   5.179
 8937SOL    HW227711   3.365   6.002   5.234
 8938SOL     OW27712   4.377   6.508   2.435
 8938SOL    HW127713   4.336   6.422   2.464
 8938SOL    HW227714   4.460   6.490   2.384
 8939SOL     OW27715   0.063   3.082   5.696
 8939SOL    HW127716   0.067   3.073   5.596
 8939SOL    HW227717   7.003   3.131   5.722
 8940SOL     OW27718   6.097   3.923   2.708
 8940SOL    HW127719   6.138   3.855   2.648
 8940SOL    HW227720   6.024   3.881   2.762
 8941SOL     OW27721   5.919   2.526   3.759
 8941SOL    HW127722   5.998   2.587   3.767
 8941SOL    HW227723   5.949   2.431   3.765
 8942SOL     OW27724   4.957   6.193   4.613
 8942SOL    HW127725   4.896   6.235   4.546
 8942SOL    HW227726   5.048   6.232   4.603
 8943SOL     OW27727   4.401   3.166   0.785
 8943SOL    HW127728   4.328   3.099   0.796
 8943SOL    HW227729   4.456   3.142   0.705
 8944SOL     OW27730   4.779   5.701   5.603
 8944SOL    HW127731   4.832   5.730   5.523
 8944SOL    HW227732   4.826   5.730   5.687
 8945SOL     OW27733   6.680   4.022   2.115
 8945SOL    HW127734   6.623   4.104   2.124
 8945SOL    HW227735   6.625   3.948   2.075
 8946SOL     OW27736   3.987   1.781   3.758
 8946SOL    HW127737   4.060   1.846   3.777
 8946SOL    HW227738   3.960   1.734   3.842
 8947SOL     OW27739   3.263   5.308   0.514
 8947SOL    HW127740   3.360   5.286   0.507
 8947SOL    HW227741   3.238   5.321   0.610
 8948SOL     OW27742   5.667   6.860   2.925
 8948SOL    HW127743   5.749   6.847   2.869
 8948SOL    HW227744   5.600   6.915   2.876
 8949SOL     OW27745   3.876   6.239   0.860
 8949SOL    HW127746   3.965   6.198   0.840
 8949SOL    HW227747   3.807   6.201   0.798
 8950SOL     OW27748   3.342   3.153   3.796
 8950SOL    HW127749   3.252   3.139   3.835
 8950SOL    HW227750   3.379   3.240   3.828
 8951SOL     OW27751   0.597   0.645   3.827
 8951SOL    HW127752   0.590   0.691   3.916
 8951SOL    HW227753   0.684   0.598   3.821
 8952SOL     OW27754   1.957   4.102   4.639
 8952SOL    HW127755   2.042   4.068   4.682
 8952SOL    HW227756   1.879   4.063   4.687
 8953SOL     OW27757   1.971   5.139   0.534
 8953SOL    HW127758   1.924   5.179   0.454
 8953SOL    HW227759   2.014   5.053   0.507
 8954SOL     OW27760   1.932   3.807   5.478
 8954SOL    HW127761   1.971   3.892   5.513
 8954SOL    HW227762   1.943   3.803   5.379
 8955SOL     OW27763   6.499   2.639   6.525
 8955SOL    HW127764   6.588   2.663   6.563
 8955SOL    HW227765   6.502   2.545   6.488
 8956SOL     OW27766   0.810   6.484   0.868
 8956SOL    HW127767   0.875   6.420   0.909
 8956SOL    HW227768   0.810   6.471   0.768
 8957SOL     OW27769   0.588   7.010   4.105
 8957SOL    HW127770   0.646   6.959   4.168
 8957SOL    HW227771   0.523   0.042   4.158
 8958SOL     OW27772   0.154   2.729   4.253
 8958SOL    HW127773   0.218   2.761   4.322
 8958SOL    HW227774   0.196   2.736   4.162
 8959SOL     OW27775   5.423   0.988   3.381
 8959SOL    HW127776   5.372   0.903   3.369
 8959SOL    HW227777   5.402   1.052   3.307
 8960SOL     OW27778   3.375   6.511   1.844
 8960SOL    HW127779   3.465   6.547   1.821
 8960SOL    HW227780   3.384   6.441   1.915
 8961SOL     OW27781   2.504   2.404   5.424
 8961SOL    HW127782   2.461   2.454   5.348
 8961SOL    HW227783   2.586   2.454   5.453
 8962SOL     OW27784   6.679   5.594   0.677
 8962SOL    HW127785   6.728   5.508   0.666
 8962SOL    HW227786   6.677   5.643   0.589
 8963SOL     OW27787   2.329   5.223   5.465
 8963SOL    HW127788   2.271   5.302   5.443
 8963SOL    HW227789   2.275   5.155   5.514
 8964SOL     OW27790   1.359   3.714   3.999
 8964SOL    HW127791   1.445   3.739   3.955
 8964SOL    HW227792   1.343   3.616   3.988
 8965SOL     OW27793   3.061   6.952   6.196
 8965SOL    HW127794   2.989   7.019   6.209
 8965SOL    HW227795   3.100   6.927   6.285
 8966SOL     OW27796   3.994   6.598   5.292
 8966SOL    HW127797   4.029   6.505   5.302
 8966SOL    HW227798   4.016   6.651   5.374
 8967SOL     OW27799   2.048   6.886   3.222
 8967SOL    HW127800   2.041   6.786   3.229
 8967SOL    HW227801   2.135   6.916   3.260
 8968SOL     OW27802   2.590   5.510   2.607
 8968SOL    HW127803   2.661   5.481   2.671
 8968SOL    HW227804   2.509   5.453   2.619
 8969SOL     OW27805   6.629   0.715   1.238
 8969SOL    HW127806   6.624   0.793   1.174
 8969SOL    HW227807   6.710   0.660   1.215
 8970SOL     OW27808   2.656   2.037   4.693
 8970SOL    HW127809   2.575   2.095   4.688
 8970SOL    HW227810   2.732   2.088   4.731
 8971SOL     OW27811   2.941   6.060   0.920
 8971SOL    HW127812   2.957   5.983   0.981
 8971SOL    HW227813   3.010   6.131   0.935
 8972SOL     OW27814   6.734   4.210   0.074
 8972SOL    HW127815   6.807   4.263   0.119
 8972SOL    HW227816   6.651   4.265   0.072
 8973SOL     OW27817   2.465   2.026   3.048
 8973SOL    HW127818   2.556   2.045   3.084
 8973SOL    HW227819   2.425   1.947   3.096
 8974SOL     OW27820   0.671   4.750   5.429
 8974SOL    HW127821   0.669   4.783   5.335
 8974SOL    HW227822   0.751   4.786   5.476
 8975SOL     OW27823   1.090   3.792   6.329
 8975SOL    HW127824   1.137   3.796   6.417
 8975SOL    HW227825   1.151   3.829   6.258
 8976SOL     OW27826   5.211   6.855   1.416
 8976SOL    HW127827   5.289   6.892   1.365
 8976SOL    HW227828   5.233   6.851   1.513
 8977SOL     OW27829   0.758   5.263   6.202
 8977SOL    HW127830   0.811   5.191   6.248
 8977SOL    HW227831   0.666   5.266   6.241
 8978SOL     OW27832   6.857   5.191   4.634
 8978SOL    HW127833   6.860   5.121   4.705
 8978SOL    HW227834   6.894   5.154   4.549
 8979SOL     OW27835   1.764   5.036   2.987
 8979SOL    HW127836   1.759   5.110   2.919
 8979SOL    HW227837   1.856   4.996   2.986
 8980SOL     OW27838   4.996   1.455   6.519
 8980SOL    HW127839   5.050   1.376   6.550
 8980SOL    HW227840   4.899   1.437   6.533
 8981SOL     OW27841   3.860   2.408   6.722
 8981SOL    HW127842   3.894   2.499   6.745
 8981SOL    HW227843   3.866   2.349   6.802
 8982SOL     OW27844   0.049   1.055   3.548
 8982SOL    HW127845   0.001   0.991   3.488
 8982SOL    HW227846   0.003   1.059   3.637
 8983SOL     OW27847   1.350   6.661   2.377
 8983SOL    HW127848   1.263   6.611   2.370
 8983SOL    HW227849   1.331   6.758   2.392
 8984SOL     OW27850   6.329   0.950   3.530
 8984SOL    HW127851   6.329   0.875   3.464
 8984SOL    HW227852   6.414   1.002   3.521
 8985SOL     OW27853   5.014   0.368   0.212
 8985SOL    HW127854   4.920   0.397   0.228
 8985SOL    HW227855   5.076   0.446   0.221
 8986SOL     OW27856   1.186   0.014   6.207
 8986SOL    HW127857   1.177   6.986   6.293
 8986SOL    HW227858   1.173   0.111   6.224
 8987SOL     OW27859   3.212   6.507   3.221
 8987SOL    HW127860   3.244   6.562   3.144
 8987SOL    HW227861   3.247   6.545   3.307
 8988SOL     OW27862   1.477   6.386   1.319
 8988SOL    HW127863   1.574   6.394   1.300
 8988SOL    HW227864   1.434   6.326   1.251
 8989SOL     OW27865   6.256   1.665   2.502
 8989SOL    HW127866   6.166   1.653   2.544
 8989SOL    HW227867   6.324   1.610   2.551
 8990SOL     OW27868   3.715   2.033   3.256
 8990SOL    HW127869   3.727   1.935   3.237
 8990SOL    HW227870   3.785   2.085   3.206
 8991SOL     OW27871   1.931   2.002   1.062
 8991SOL    HW127872   1.846   1.974   1.106
 8991SOL    HW227873   1.924   1.985   0.963
 8992SOL     OW27874   0.867   5.694   5.232
 8992SOL    HW127875   0.805   5.627   5.192
 8992SOL    HW227876   0.842   5.786   5.200
 8993SOL     OW27877   5.531   4.374   3.620
 8993SOL    HW127878   5.629   4.393   3.608
 8993SOL    HW227879   5.494   4.334   3.537
 8994SOL     OW27880   1.351   5.985   3.074
 8994SOL    HW127881   1.332   6.052   3.146
 8994SOL    HW227882   1.296   6.006   2.993
 8995SOL     OW27883   1.888   3.953   3.262
 8995SOL    HW127884   1.950   3.919   3.192
 8995SOL    HW227885   1.933   4.026   3.313
 8996SOL     OW27886   2.965   4.082   1.614
 8996SOL    HW127887   3.018   4.125   1.541
 8996SOL    HW227888   2.999   4.112   1.703
 8997SOL     OW27889   4.251   1.295   5.054
 8997SOL    HW127890   4.219   1.258   5.141
 8997SOL    HW227891   4.184   1.273   4.982
 8998SOL     OW27892   0.995   1.607   6.016
 8998SOL    HW127893   0.941   1.665   6.077
 8998SOL    HW227894   1.092   1.620   6.035
 8999SOL     OW27895   6.748   2.720   4.971
 8999SOL    HW127896   6.824   2.745   4.911
 8999SOL    HW227897   6.662   2.735   4.923
 9000SOL     OW27898   4.037   5.288   1.624
 9000SOL    HW127899   4.129   5.265   1.592
 9000SOL    HW227900   4.030   5.387   1.634
 9001SOL     OW27901   1.002   3.661   4.036
 9001SOL    HW127902   1.008   3.562   4.054
 9001SOL    HW227903   0.919   3.698   4.077
 9002SOL     OW27904   4.641   2.824   6.612
 9002SOL    HW127905   4.667   2.781   6.526
 9002SOL    HW227906   4.722   2.837   6.668
 9003SOL     OW27907   0.605   3.400   0.468
 9003SOL    HW127908   0.591   3.313   0.515
 9003SOL    HW227909   0.630   3.471   0.535
 9004SOL     OW27910   5.422   5.778   1.119
 9004SOL    HW127911   5.327   5.750   1.105
 9004SOL    HW227912   5.433   5.819   1.209
 9005SOL     OW27913   4.777   4.295   3.943
 9005SOL    HW127914   4.810   4.203   3.924
 9005SOL    HW227915   4.749   4.301   4.039
 9006SOL     OW27916   3.022   6.301   2.610
 9006SOL    HW127917   2.983   6.392   2.617
 9006SOL    HW227918   3.103   6.304   2.550
 9007SOL     OW27919   1.929   0.102   5.558
 9007SOL    HW127920   2.006   0.097   5.494
 9007SOL    HW227921   1.961   0.138   5.646
 9008SOL     OW27922   6.875   4.731   1.662
 9008SOL    HW127923   6.810   4.743   1.737
 9008SOL    HW227924   6.952   4.793   1.674
 9009SOL     OW27925   4.119   6.619   6.711
 9009SOL    HW127926   4.175   6.614   6.794
 9009SOL    HW227927   4.178   6.604   6.631
 9010SOL     OW27928   6.702   6.356   4.633
 9010SOL    HW127929   6.738   6.354   4.540
 9010SOL    HW227930   6.675   6.264   4.660
 9011SOL     OW27931   4.661   2.413   2.543
 9011SOL    HW127932   4.616   2.417   2.454
 9011SOL    HW227933   4.613   2.347   2.602
 9012SOL     OW27934   4.047   4.851   2.123
 9012SOL    HW127935   4.074   4.794   2.201
 9012SOL    HW227936   4.116   4.844   2.051
 9013SOL     OW27937   2.930   6.412   0.770
 9013SOL    HW127938   2.849   6.369   0.810
 9013SOL    HW227939   3.010   6.356   0.788
 9014SOL     OW27940   1.633   1.610   2.397
 9014SOL    HW127941   1.536   1.592   2.384
 9014SOL    HW227942   1.680   1.526   2.422
 9015SOL     OW27943   6.420   2.408   4.705
 9015SOL    HW127944   6.364   2.327   4.722
 9015SOL    HW227945   6.364   2.491   4.717
 9016SOL     OW27946   0.223   4.632   0.034
 9016SOL    HW127947   0.182   4.544   0.011
 9016SOL    HW227948   0.172   4.674   0.110
 9017SOL     OW27949   6.328   2.875   2.234
 9017SOL    HW127950   6.414   2.922   2.219
 9017SOL    HW227951   6.295   2.837   2.148
 9018SOL     OW27952   5.432   2.706   6.322
 9018SOL    HW127953   5.409   2.658   6.406
 9018SOL    HW227954   5.526   2.742   6.328
 9019SOL     OW27955   1.866   5.922   0.276
 9019SOL    HW127956   1.857   5.857   0.352
 9019SOL    HW227957   1.947   5.979   0.290
 9020SOL     OW27958   0.791   5.227   4.842
 9020SOL    HW127959   0.815   5.131   4.829
 9020SOL    HW227960   0.832   5.281   4.769
 9021SOL     OW27961   6.746   5.400   4.736
 9021SOL    HW127962   6.797   5.321   4.703
 9021SOL    HW227963   6.652   5.397   4.702
 9022SOL     OW27964   0.947   6.758   5.867
 9022SOL    HW127965   0.904   6.772   5.956
 9022SOL    HW227966   0.932   6.663   5.838
 9023SOL     OW27967   3.514   3.697   4.053
 9023SOL    HW127968   3.453   3.698   4.132
 9023SOL    HW227969   3.587   3.630   4.069
 9024SOL     OW27970   1.559   0.029   0.495
 9024SOL    HW127971   1.539   0.043   0.398
 9024SOL    HW227972   1.655   0.002   0.506
 9025SOL     OW27973   0.272   2.456   0.736
 9025SOL    HW127974   0.337   2.502   0.676
 9025SOL    HW227975   0.319   2.424   0.818
 9026SOL     OW27976   2.697   4.584   6.204
 9026SOL    HW127977   2.720   4.671   6.162
 9026SOL    HW227978   2.625   4.539   6.151
 9027SOL     OW27979   0.937   3.532   1.672
 9027SOL    HW127980   0.901   3.595   1.603
 9027SOL    HW227981   0.891   3.444   1.663
 9028SOL     OW27982   1.795   3.856   5.209
 9028SOL    HW127983   1.880   3.896   5.174
 9028SOL    HW227984   1.790   3.760   5.180
 9029SOL     OW27985   4.924   5.548   3.141
 9029SOL    HW127986   4.918   5.503   3.052
 9029SOL    HW227987   5.012   5.596   3.148
 9030SOL     OW27988   5.117   2.652   2.341
 9030SOL    HW127989   5.038   2.610   2.387
 9030SOL    HW227990   5.086   2.729   2.286
 9031SOL     OW27991   2.322   0.586   2.563
 9031SOL    HW127992   2.368   0.669   2.594
 9031SOL    HW227993   2.387   0.510   2.564
 9032SOL     OW27994   0.686   4.213   2.878
 9032SOL    HW127995   0.591   4.185   2.884
 9032SOL    HW227996   0.742   4.153   2.935
 9033SOL     OW27997   0.646   2.987   2.510
 9033SOL    HW127998   0.602   2.982   2.600
 9033SOL    HW227999   0.643   2.896   2.467
 9034SOL     OW28000   1.062   6.718   0.808
 9034SOL    HW128001   1.004   6.761   0.738
 9034SOL    HW228002   1.068   6.620   0.791
 9035SOL     OW28003   5.984   1.215   4.587
 9035SOL    HW128004   5.891   1.227   4.553
 9035SOL    HW228005   6.048   1.212   4.511
 9036SOL     OW28006   6.900   1.776   4.166
 9036SOL    HW128007   6.974   1.710   4.157
 9036SOL    HW228008   6.841   1.751   4.242
 9037SOL     OW28009   2.856   4.362   6.317
 9037SOL    HW128010   2.921   4.393   6.387
 9037SOL    HW228011   2.800   4.439   6.288
 9038SOL     OW28012   3.823   6.004   5.717
 9038SOL    HW128013   3.764   6.085   5.712
 9038SOL    HW228014   3.773   5.929   5.760
 9039SOL     OW28015   2.726   4.978   0.230
 9039SOL    HW128016   2.669   4.902   0.262
 9039SOL    HW228017   2.698   5.002   0.137
 9040SOL     OW28018   3.220   1.711   2.688
 9040SOL    HW128019   3.175   1.681   2.604
 9040SOL    HW228020   3.170   1.788   2.728
 9041SOL     OW28021   2.307   2.794   5.151
 9041SOL    HW128022   2.209   2.789   5.132
 9041SOL    HW228023   2.343   2.881   5.116
 9042SOL     OW28024   1.686   5.157   2.736
 9042SOL    HW128025   1.731   5.087   2.680
 9042SOL    HW228026   1.591   5.129   2.753
 9043SOL     OW28027   0.448   1.690   6.523
 9043SOL    HW128028   0.375   1.624   6.538
 9043SOL    HW228029   0.504   1.697   6.606
 9044SOL     OW28030   0.611   4.199   1.381
 9044SOL    HW128031   0.598   4.262   1.305
 9044SOL    HW228032   0.529   4.143   1.393
 9045SOL     OW28033   1.779   4.705   5.098
 9045SOL    HW128034   1.746   4.786   5.148
 9045SOL    HW228035   1.718   4.628   5.117
 9046SOL     OW28036   3.998   4.552   6.028
 9046SOL    HW128037   4.024   4.526   6.121
 9046SOL    HW228038   3.936   4.631   6.032
 9047SOL     OW28039   0.736   5.069   4.078
 9047SOL    HW128040   0.809   5.137   4.075
 9047SOL    HW228041   0.722   5.039   4.172
 9048SOL     OW28042   1.188   2.159   5.666
 9048SOL    HW128043   1.193   2.157   5.766
 9048SOL    HW228044   1.268   2.112   5.628
 9049SOL     OW28045   4.226   5.567   5.440
 9049SOL    HW128046   4.260   5.656   5.411
 9049SOL    HW228047   4.129   5.574   5.463
 9050SOL     OW28048   0.583   3.707   0.002
 9050SOL    HW128049   0.557   3.803   7.015
 9050SOL    HW228050   0.505   3.654   0.036
 9051SOL     OW28051   0.038   5.505   6.342
 9051SOL    HW128052   0.114   5.439   6.336
 9051SOL    HW228053   0.056   5.580   6.278
 9052SOL     OW28054   2.019   4.662   4.311
 9052SOL    HW128055   1.961   4.735   4.346
 9052SOL    HW228056   2.083   4.701   4.244
 9053SOL     OW28057   0.840   0.489   2.798
 9053SOL    HW128058   0.746   0.521   2.807
 9053SOL    HW228059   0.844   0.418   2.727
 9054SOL     OW28060   1.340   6.985   1.939
 9054SOL    HW128061   1.333   6.926   1.859
 9054SOL    HW228062   1.273   6.958   2.007
 9055SOL     OW28063   1.496   3.103   5.325
 9055SOL    HW128064   1.419   3.163   5.301
 9055SOL    HW228065   1.488   3.076   5.421
 9056SOL     OW28066   5.371   2.393   2.003
 9056SOL    HW128067   5.336   2.458   1.935
 9056SOL    HW228068   5.462   2.362   1.976
 9057SOL     OW28069   3.529   0.324   5.903
 9057SOL    HW128070   3.498   0.364   5.817
 9057SOL    HW228071   3.572   0.235   5.884
 9058SOL     OW28072   2.236   2.852   4.088
 9058SOL    HW128073   2.315   2.795   4.066
 9058SOL    HW228074   2.215   2.912   4.011
 9059SOL     OW28075   0.793   0.111   2.024
 9059SOL    HW128076   0.848   0.191   2.044
 9059SOL    HW228077   0.702   0.139   1.994
 9060SOL     OW28078   0.326   4.881   0.433
 9060SOL    HW128079   0.313   4.895   0.335
 9060SOL    HW228080   0.420   4.854   0.451
 9061SOL     OW28081   3.859   4.864   2.717
 9061SOL    HW128082   3.906   4.918   2.647
 9061SOL    HW228083   3.914   4.861   2.800
 9062SOL     OW28084   6.993   6.073   2.869
 9062SOL    HW128085   0.030   6.148   2.843
 9062SOL    HW228086   6.906   6.082   2.820
 9063SOL     OW28087   5.956   6.655   0.742
 9063SOL    HW128088   6.023   6.589   0.707
 9063SOL    HW228089   6.001   6.718   0.805
 9064SOL     OW28090   1.308   6.102   3.329
 9064SOL    HW128091   1.391   6.047   3.332
 9064SOL    HW228092   1.236   6.057   3.383
 9065SOL     OW28093   3.242   4.094   6.943
 9065SOL    HW128094   3.216   4.056   6.855
 9065SOL    HW228095   3.305   4.171   6.929
 9066SOL     OW28096   5.230   5.396   3.811
 9066SOL    HW128097   5.271   5.442   3.733
 9066SOL    HW228098   5.132   5.415   3.814
 9067SOL     OW28099   1.975   0.292   3.940
 9067SOL    HW128100   1.886   0.303   3.896
 9067SOL    HW228101   2.033   0.369   3.918
 9068SOL     OW28102   5.458   0.708   4.764
 9068SOL    HW128103   5.421   0.787   4.813
 9068SOL    HW228104   5.474   0.633   4.828
 9069SOL     OW28105   4.814   2.671   1.227
 9069SOL    HW128106   4.781   2.626   1.144
 9069SOL    HW228107   4.737   2.705   1.280
 9070SOL     OW28108   0.896   0.793   6.259
 9070SOL    HW128109   0.860   0.722   6.198
 9070SOL    HW228110   0.845   0.792   6.345
 9071SOL     OW28111   5.820   2.441   0.253
 9071SOL    HW128112   5.800   2.481   0.164
 9071SOL    HW228113   5.882   2.363   0.240
 9072SOL     OW28114   6.072   0.622   1.515
 9072SOL    HW128115   6.094   0.529   1.484
 9072SOL    HW228116   6.079   0.685   1.438
 9073SOL     OW28117   4.988   2.913   6.182
 9073SOL    HW128118   4.974   3.000   6.228
 9073SOL    HW228119   4.938   2.911   6.096
 9074SOL     OW28120   2.341   0.298   3.442
 9074SOL    HW128121   2.272   0.230   3.467
 9074SOL    HW228122   2.394   0.265   3.364
 9075SOL     OW28123   5.047   5.745   1.327
 9075SOL    HW128124   5.063   5.684   1.404
 9075SOL    HW228125   4.960   5.793   1.339
 9076SOL     OW28126   0.988   6.759   2.561
 9076SOL    HW128127   0.985   6.851   2.521
 9076SOL    HW228128   0.992   6.767   2.661
 9077SOL     OW28129   6.163   0.558   6.887
 9077SOL    HW128130   6.139   0.597   6.976
 9077SOL    HW228131   6.171   0.459   6.894
 9078SOL     OW28132   5.320   6.239   6.854
 9078SOL    HW128133   5.243   6.186   6.891
 9078SOL    HW228134   5.321   6.231   6.754
 9079SOL     OW28135   3.156   1.603   6.527
 9079SOL    HW128136   3.153   1.558   6.439
 9079SOL    HW228137   3.127   1.698   6.517
 9080SOL     OW28138   6.800   5.089   0.712
 9080SOL    HW128139   6.886   5.037   0.714
 9080SOL    HW228140   6.729   5.034   0.668
 9081SOL     OW28141   5.069   2.093   6.173
 9081SOL    HW128142   5.140   2.087   6.102
 9081SOL    HW228143   4.980   2.073   6.132
 9082SOL     OW28144   2.750   4.491   6.667
 9082SOL    HW128145   2.749   4.558   6.593
 9082SOL    HW228146   2.697   4.525   6.744
 9083SOL     OW28147   3.666   0.429   0.875
 9083SOL    HW128148   3.653   0.410   0.972
 9083SOL    HW228149   3.586   0.399   0.824
 9084SOL     OW28150   0.304   4.517   4.653
 9084SOL    HW128151   0.331   4.453   4.725
 9084SOL    HW228152   0.360   4.502   4.572
 9085SOL     OW28153   3.470   4.872   2.246
 9085SOL    HW128154   3.527   4.843   2.169
 9085SOL    HW228155   3.381   4.827   2.241
 9086SOL     OW28156   0.503   1.561   0.336
 9086SOL    HW128157   0.473   1.466   0.343
 9086SOL    HW228158   0.424   1.619   0.316
 9087SOL     OW28159   4.597   1.677   7.019
 9087SOL    HW128160   4.529   1.641   6.954
 9087SOL    HW228161   4.673   1.717   6.968
 9088SOL     OW28162   5.676   6.819   0.589
 9088SOL    HW128163   5.694   6.764   0.670
 9088SOL    HW228164   5.589   6.791   0.548
 9089SOL     OW28165   4.677   5.511   3.232
 9089SOL    HW128166   4.638   5.598   3.263
 9089SOL    HW228167   4.769   5.526   3.197
 9090SOL     OW28168   6.580   4.855   4.690
 9090SOL    HW128169   6.534   4.919   4.752
 9090SOL    HW228170   6.573   4.762   4.726
 9091SOL     OW28171   1.577   1.771   2.144
 9091SOL    HW128172   1.669   1.732   2.145
 9091SOL    HW228173   1.510   1.699   2.126
 9092SOL     OW28174   3.522   1.728   5.384
 9092SOL    HW128175   3.596   1.772   5.435
 9092SOL    HW228176   3.435   1.751   5.426
 9093SOL     OW28177   1.777   4.079   1.081
 9093SOL    HW128178   1.705   4.058   1.016
 9093SOL    HW228179   1.861   4.032   1.054
 9094SOL     OW28180   0.571   2.783   6.703
 9094SOL    HW128181   0.615   2.734   6.628
 9094SOL    HW228182   0.476   2.803   6.678
 9095SOL     OW28183   2.777   2.070   0.952
 9095SOL    HW128184   2.842   2.067   0.876
 9095SOL    HW228185   2.816   2.024   1.031
 9096SOL     OW28186   6.927   4.238   3.210
 9096SOL    HW128187   6.879   4.271   3.128
 9096SOL    HW228188   6.983   4.159   3.186
 9097SOL     OW28189   6.514   5.688   5.718
 9097SOL    HW128190   6.427   5.686   5.767
 9097SOL    HW228191   6.577   5.751   5.764
 9098SOL     OW28192   3.187   3.407   5.534
 9098SOL    HW128193   3.286   3.416   5.542
 9098SOL    HW228194   3.164   3.374   5.442
 9099SOL     OW28195   2.114   2.321   6.113
 9099SOL    HW128196   2.198   2.370   6.140
 9099SOL    HW228197   2.126   2.223   6.128
 9100SOL     OW28198   1.869   2.032   0.774
 9100SOL    HW128199   1.940   1.980   0.728
 9100SOL    HW228200   1.850   2.116   0.723
 9101SOL     OW28201   2.629   2.192   0.432
 9101SOL    HW128202   2.572   2.188   0.513
 9101SOL    HW228203   2.573   2.177   0.351
 9102SOL     OW28204   4.226   6.242   2.535
 9102SOL    HW128205   4.279   6.184   2.596
 9102SOL    HW228206   4.139   6.267   2.579
 9103SOL     OW28207   1.548   3.783   6.536
 9103SOL    HW128208   1.542   3.747   6.443
 9103SOL    HW228209   1.642   3.815   6.553
 9104SOL     OW28210   4.920   6.734   3.273
 9104SOL    HW128211   5.007   6.707   3.232
 9104SOL    HW228212   4.858   6.768   3.202
 9105SOL     OW28213   3.226   2.383   5.942
 9105SOL    HW128214   3.191   2.299   5.984
 9105SOL    HW228215   3.183   2.396   5.853
 9106SOL     OW28216   6.763   5.177   1.347
 9106SOL    HW128217   6.734   5.266   1.381
 9106SOL    HW228218   6.829   5.137   1.411
 9107SOL     OW28219   4.510   6.873   6.779
 9107SOL    HW128220   4.554   6.949   6.827
 9107SOL    HW228221   4.434   6.908   6.724
 9108SOL     OW28222   3.657   5.560   0.860
 9108SOL    HW128223   3.628   5.610   0.942
 9108SOL    HW228224   3.651   5.620   0.781
 9109SOL     OW28225   3.310   1.784   4.498
 9109SOL    HW128226   3.399   1.783   4.452
 9109SOL    HW228227   3.321   1.811   4.593
 9110SOL     OW28228   0.271   3.929   3.398
 9110SOL    HW128229   0.246   4.023   3.374
 9110SOL    HW228230   0.371   3.923   3.409
 9111SOL     OW28231   3.748   4.611   1.637
 9111SOL    HW128232   3.672   4.627   1.700
 9111SOL    HW228233   3.712   4.578   1.549
 9112SOL     OW28234   0.754   6.739   2.402
 9112SOL    HW128235   0.731   6.665   2.340
 9112SOL    HW228236   0.838   6.718   2.451
 9113SOL     OW28237   1.949   6.294   1.029
 9113SOL    HW128238   1.877   6.238   1.069
 9113SOL    HW228239   1.909   6.377   0.988
 9114SOL     OW28240   2.937   3.736   1.758
 9114SOL    HW128241   2.975   3.754   1.668
 9114SOL    HW228242   2.998   3.773   1.828
 9115SOL     OW28243   1.272   4.757   3.972
 9115SOL    HW128244   1.217   4.677   3.994
 9115SOL    HW228245   1.321   4.741   3.886
 9116SOL     OW28246   3.747   2.516   0.058
 9116SOL    HW128247   3.698   2.554   7.002
 9116SOL    HW228248   3.845   2.531   0.046
 9117SOL     OW28249   1.383   2.653   0.197
 9117SOL    HW128250   1.475   2.614   0.207
 9117SOL    HW228251   1.324   2.586   0.153
 9118SOL     OW28252   0.810   6.939   1.803
 9118SOL    HW128253   0.720   6.946   1.847
 9118SOL    HW228254   0.851   0.007   1.798
 9119SOL     OW28255   6.179   0.280   0.404
 9119SOL    HW128256   6.101   0.306   0.461
 9119SOL    HW228257   6.259   0.334   0.431
 9120SOL     OW28258   6.156   6.834   6.395
 9120SOL    HW128259   6.064   6.830   6.433
 9120SOL    HW228260   6.199   6.744   6.402
 9121SOL     OW28261   1.247   0.563   6.198
 9121SOL    HW128262   1.244   0.660   6.223
 9121SOL    HW228263   1.224   0.553   6.101
 9122SOL     OW28264   0.329   3.095   1.111
 9122SOL    HW128265   0.403   3.029   1.123
 9122SOL    HW228266   0.295   3.124   1.200
 9123SOL     OW28267   1.665   6.975   5.739
 9123SOL    HW128268   1.719   6.955   5.820
 9123SOL    HW228269   1.717   6.952   5.657
 9124SOL     OW28270   0.696   4.398   5.113
 9124SOL    HW128271   0.670   4.380   5.207
 9124SOL    HW228272   0.786   4.356   5.095
 9125SOL     OW28273   4.800   6.263   1.595
 9125SOL    HW128274   4.753   6.296   1.513
 9125SOL    HW228275   4.840   6.173   1.577
 9126SOL     OW28276   5.309   0.720   3.405
 9126SOL    HW128277   5.388   0.668   3.374
 9126SOL    HW228278   5.303   0.717   3.505
 9127SOL     OW28279   5.897   4.712   5.925
 9127SOL    HW128280   5.841   4.789   5.955
 9127SOL    HW228281   5.845   4.657   5.860
 9128SOL     OW28282   4.843   2.954   5.066
 9128SOL    HW128283   4.910   2.879   5.070
 9128SOL    HW228284   4.825   2.987   5.159
 9129SOL     OW28285   3.425   0.788   0.727
 9129SOL    HW128286   3.460   0.795   0.634
 9129SOL    HW228287   3.334   0.747   0.725
 9130SOL     OW28288   5.776   5.299   1.511
 9130SOL    HW128289   5.801   5.388   1.472
 9130SOL    HW228290   5.767   5.307   1.610
 9131SOL     OW28291   0.769   4.909   3.722
 9131SOL    HW128292   0.719   4.988   3.760
 9131SOL    HW228293   0.827   4.870   3.793
 9132SOL     OW28294   1.303   2.830   4.104
 9132SOL    HW128295   1.356   2.745   4.107
 9132SOL    HW228296   1.260   2.846   4.192
 9133SOL     OW28297   1.547   4.847   0.887
 9133SOL    HW128298   1.475   4.913   0.867
 9133SOL    HW228299   1.508   4.767   0.932
 9134SOL     OW28300   3.115   5.231   6.279
 9134SOL    HW128301   3.022   5.264   6.294
 9134SOL    HW228302   3.156   5.282   6.202
 9135SOL     OW28303   1.267   0.226   2.667
 9135SOL    HW128304   1.289   0.322   2.651
 9135SOL    HW228305   1.228   0.187   2.583
 9136SOL     OW28306   3.827   5.407   6.111
 9136SOL    HW128307   3.795   5.480   6.050
 9136SOL    HW228308   3.826   5.440   6.206
 9137SOL     OW28309   3.258   0.398   2.750
 9137SOL    HW128310   3.234   0.400   2.653
 9137SOL    HW228311   3.357   0.395   2.761
 9138SOL     OW28312   3.748   4.664   1.157
 9138SOL    HW128313   3.763   4.590   1.090
 9138SOL    HW228314   3.701   4.740   1.112
 9139SOL     OW28315   4.266   0.842   5.486
 9139SOL    HW128316   4.254   0.745   5.507
 9139SOL    HW228317   4.296   0.891   5.567
 9140SOL     OW28318   6.368   2.332   3.983
 9140SOL    HW128319   6.370   2.430   3.967
 9140SOL    HW228320   6.281   2.294   3.951
 9141SOL     OW28321   5.250   1.448   5.113
 9141SOL    HW128322   5.322   1.395   5.157
 9141SOL    HW228323   5.166   1.443   5.167
 9142SOL     OW28324   1.964   2.740   6.639
 9142SOL    HW128325   2.011   2.750   6.727
 9142SOL    HW228326   1.930   2.829   6.610
 9143SOL     OW28327   6.771   3.940   0.703
 9143SOL    HW128328   6.849   3.879   0.717
 9143SOL    HW228329   6.774   3.977   0.610
 9144SOL     OW28330   1.130   5.899   4.194
 9144SOL    HW128331   1.105   5.968   4.126
 9144SOL    HW228332   1.095   5.810   4.165
 9145SOL     OW28333   1.656   3.266   6.749
 9145SOL    HW128334   1.744   3.289   6.790
 9145SOL    HW228335   1.650   3.307   6.658
 9146SOL     OW28336   0.843   1.704   1.763
 9146SOL    HW128337   0.839   1.746   1.854
 9146SOL    HW228338   0.770   1.740   1.706
 9147SOL     OW28339   4.347   5.508   6.696
 9147SOL    HW128340   4.306   5.420   6.669
 9147SOL    HW228341   4.443   5.509   6.670
 9148SOL     OW28342   3.759   5.091   2.889
 9148SOL    HW128343   3.744   5.038   2.973
 9148SOL    HW228344   3.782   5.030   2.814
 9149SOL     OW28345   6.454   3.450   4.734
 9149SOL    HW128346   6.358   3.468   4.753
 9149SOL    HW228347   6.477   3.357   4.761
 9150SOL     OW28348   3.484   1.436   2.969
 9150SOL    HW128349   3.530   1.349   2.950
 9150SOL    HW228350   3.386   1.421   2.979
 9151SOL     OW28351   6.005   3.487   2.057
 9151SOL    HW128352   5.962   3.404   2.019
 9151SOL    HW228353   5.977   3.498   2.152
 9152SOL     OW28354   1.914   4.725   2.383
 9152SOL    HW128355   1.878   4.694   2.471
 9152SOL    HW228356   1.857   4.798   2.347
 9153SOL     OW28357   2.375   2.746   0.635
 9153SOL    HW128358   2.459   2.717   0.589
 9153SOL    HW228359   2.374   2.846   0.642
 9154SOL     OW28360   0.716   5.025   0.682
 9154SOL    HW128361   0.677   4.945   0.636
 9154SOL    HW228362   0.814   5.012   0.694
 9155SOL     OW28363   2.154   4.734   0.078
 9155SOL    HW128364   2.112   4.680   0.005
 9155SOL    HW228365   2.106   4.821   0.087
 9156SOL     OW28366   4.706   2.472   2.134
 9156SOL    HW128367   4.798   2.439   2.151
 9156SOL    HW228368   4.708   2.572   2.127
 9157SOL     OW28369   5.472   3.900   5.439
 9157SOL    HW128370   5.414   3.847   5.377
 9157SOL    HW228371   5.446   3.880   5.534
 9158SOL     OW28372   0.814   4.530   3.797
 9158SOL    HW128373   0.829   4.456   3.731
 9158SOL    HW228374   0.885   4.600   3.785
 9159SOL     OW28375   0.223   5.675   1.817
 9159SOL    HW128376   0.263   5.617   1.889
 9159SOL    HW228377   0.203   5.766   1.854
 9160SOL     OW28378   0.836   6.512   0.519
 9160SOL    HW128379   0.737   6.504   0.504
 9160SOL    HW228380   0.883   6.517   0.431
 9161SOL     OW28381   5.059   2.852   2.158
 9161SOL    HW128382   4.983   2.880   2.216
 9161SOL    HW228383   5.053   2.899   2.070
 9162SOL     OW28384   5.667   2.818   3.581
 9162SOL    HW128385   5.750   2.762   3.584
 9162SOL    HW228386   5.592   2.768   3.624
 9163SOL     OW28387   3.776   0.815   4.898
 9163SOL    HW128388   3.679   0.801   4.917
 9163SOL    HW228389   3.825   0.834   4.983
 9164SOL     OW28390   2.785   0.584   0.817
 9164SOL    HW128391   2.756   0.636   0.737
 9164SOL    HW228392   2.778   0.486   0.798
 9165SOL     OW28393   5.257   5.993   1.437
 9165SOL    HW128394   5.247   5.986   1.338
 9165SOL    HW228395   5.276   5.902   1.475
 9166SOL     OW28396   3.599   5.055   1.143
 9166SOL    HW128397   3.698   5.056   1.127
 9166SOL    HW228398   3.580   5.091   1.234
 9167SOL     OW28399   0.884   3.350   4.549
 9167SOL    HW128400   0.982   3.369   4.539
 9167SOL    HW228401   0.850   3.392   4.633
 9168SOL     OW28402   4.427   0.844   0.260
 9168SOL    HW128403   4.408   0.936   0.293
 9168SOL    HW228404   4.451   0.785   0.337
 9169SOL     OW28405   0.907   6.931   3.728
 9169SOL    HW128406   0.953   6.888   3.806
 9169SOL    HW228407   0.943   7.022   3.713
 9170SOL     OW28408   6.232   5.361   0.656
 9170SOL    HW128409   6.172   5.303   0.711
 9170SOL    HW228410   6.300   5.404   0.716
 9171SOL     OW28411   4.062   5.732   4.420
 9171SOL    HW128412   4.117   5.723   4.503
 9171SOL    HW228413   4.036   5.641   4.387
 9172SOL     OW28414   1.912   1.784   3.937
 9172SOL    HW128415   1.863   1.784   3.850
 9172SOL    HW228416   1.990   1.721   3.931
 9173SOL     OW28417   6.604   5.274   5.181
 9173SOL    HW128418   6.568   5.194   5.134
 9173SOL    HW228419   6.700   5.287   5.155
 9174SOL     OW28420   0.207   5.298   6.274
 9174SOL    HW128421   0.295   5.317   6.229
 9174SOL    HW228422   0.204   5.202   6.302
 9175SOL     OW28423   1.882   6.304   6.486
 9175SOL    HW128424   1.922   6.334   6.572
 9175SOL    HW228425   1.944   6.327   6.411
 9176SOL     OW28426   1.498   2.801   5.983
 9176SOL    HW128427   1.434   2.764   5.916
 9176SOL    HW228428   1.500   2.742   6.064
 9177SOL     OW28429   2.000   4.227   2.680
 9177SOL    HW128430   2.085   4.176   2.669
 9177SOL    HW228431   1.955   4.238   2.591
 9178SOL     OW28432   1.668   3.925   0.084
 9178SOL    HW128433   1.592   3.936   0.019
 9178SOL    HW228434   1.752   3.908   0.033
 9179SOL     OW28435   3.150   4.169   5.208
 9179SOL    HW128436   3.196   4.250   5.245
 9179SOL    HW228437   3.076   4.143   5.270
 9180SOL     OW28438   5.175   1.277   2.025
 9180SOL    HW128439   5.258   1.294   2.080
 9180SOL    HW228440   5.171   1.180   2.001
 9181SOL     OW28441   3.635   1.221   2.588
 9181SOL    HW128442   3.572   1.227   2.511
 9181SOL    HW228443   3.590   1.253   2.671
 9182SOL     OW28444   2.373   6.779   1.525
 9182SOL    HW128445   2.410   6.711   1.462
 9182SOL    HW228446   2.285   6.812   1.490
 9183SOL     OW28447   5.227   4.948   5.120
 9183SOL    HW128448   5.271   5.037   5.137
 9183SOL    HW228449   5.253   4.915   5.030
 9184SOL     OW28450   5.279   0.012   0.157
 9184SOL    HW128451   5.195   0.044   0.113
 9184SOL    HW228452   5.302   6.944   0.123
 9185SOL     OW28453   5.351   1.395   4.864
 9185SOL    HW128454   5.378   1.470   4.804
 9185SOL    HW228455   5.324   1.431   4.953
 9186SOL     OW28456   5.040   1.081   5.923
 9186SOL    HW128457   5.071   1.135   6.001
 9186SOL    HW228458   5.119   1.052   5.870
 9187SOL     OW28459   2.161   6.332   3.007
 9187SOL    HW128460   2.062   6.332   2.995
 9187SOL    HW228461   2.198   6.243   2.981
 9188SOL     OW28462   3.121   5.530   0.418
 9188SOL    HW128463   3.066   5.557   0.497
 9188SOL    HW228464   3.165   5.442   0.436
 9189SOL     OW28465   5.317   4.538   1.826
 9189SOL    HW128466   5.410   4.549   1.790
 9189SOL    HW228467   5.281   4.449   1.797
 9190SOL     OW28468   1.473   5.851   0.256
 9190SOL    HW128469   1.390   5.828   0.307
 9190SOL    HW228470   1.453   5.851   0.158
 9191SOL     OW28471   6.300   0.593   6.647
 9191SOL    HW128472   6.250   0.555   6.725
 9191SOL    HW228473   6.363   0.524   6.611
 9192SOL     OW28474   1.185   3.372   4.815
 9192SOL    HW128475   1.185   3.381   4.715
 9192SOL    HW228476   1.269   3.326   4.844
 9193SOL     OW28477   4.575   3.874   0.414
 9193SOL    HW128478   4.531   3.804   0.357
 9193SOL    HW228479   4.530   3.962   0.399
 9194SOL     OW28480   3.145   0.385   4.384
 9194SOL    HW128481   3.129   0.390   4.285
 9194SOL    HW228482   3.205   0.307   4.403
 9195SOL     OW28483   1.705   1.555   3.540
 9195SOL    HW128484   1.789   1.591   3.501
 9195SOL    HW228485   1.650   1.630   3.577
 9196SOL     OW28486   5.220   1.122   5.705
 9196SOL    HW128487   5.135   1.161   5.668
 9196SOL    HW228488   5.284   1.196   5.726
 9197SOL     OW28489   3.007   3.492   0.364
 9197SOL    HW128490   3.060   3.569   0.330
 9197SOL    HW228491   3.051   3.407   0.337
 9198SOL     OW28492   1.259   4.187   5.059
 9198SOL    HW128493   1.355   4.161   5.063
 9198SOL    HW228494   1.218   4.147   4.976
 9199SOL     OW28495   6.467   5.066   4.866
 9199SOL    HW128496   6.471   5.166   4.860
 9199SOL    HW228497   6.480   5.039   4.961
 9200SOL     OW28498   3.268   6.207   0.781
 9200SOL    HW128499   3.339   6.141   0.804
 9200SOL    HW228500   3.231   6.186   0.690
 9201SOL     OW28501   2.314   4.984   1.170
 9201SOL    HW128502   2.366   4.913   1.121
 9201SOL    HW228503   2.286   4.949   1.259
 9202SOL     OW28504   2.647   1.322   3.748
 9202SOL    HW128505   2.683   1.412   3.773
 9202SOL    HW228506   2.593   1.285   3.823
 9203SOL     OW28507   6.755   6.353   1.362
 9203SOL    HW128508   6.852   6.374   1.346
 9203SOL    HW228509   6.740   6.255   1.350
 9204SOL     OW28510   5.740   0.431   5.243
 9204SOL    HW128511   5.735   0.332   5.254
 9204SOL    HW228512   5.647   0.469   5.243
 9205SOL     OW28513   6.979   5.184   2.840
 9205SOL    HW128514   0.041   5.154   2.884
 9205SOL    HW228515   6.902   5.132   2.877
 9206SOL     OW28516   4.171   0.377   6.931
 9206SOL    HW128517   4.113   0.449   6.893
 9206SOL    HW228518   4.266   0.409   6.934
 9207SOL     OW28519   5.371   5.637   6.360
 9207SOL    HW128520   5.293   5.597   6.311
 9207SOL    HW228521   5.403   5.572   6.429
 9208SOL     OW28522   1.165   3.568   2.172
 9208SOL    HW128523   1.074   3.540   2.143
 9208SOL    HW228524   1.233   3.506   2.132
 9209SOL     OW28525   2.242   6.323   6.606
 9209SOL    HW128526   2.207   6.296   6.516
 9209SOL    HW228527   2.220   6.419   6.623
 9210SOL     OW28528   6.484   0.328   4.057
 9210SOL    HW128529   6.397   0.366   4.024
 9210SOL    HW228530   6.466   0.244   4.109
 9211SOL     OW28531   0.959   1.436   3.360
 9211SOL    HW128532   0.990   1.468   3.450
 9211SOL    HW228533   1.037   1.402   3.308
 9212SOL     OW28534   4.625   4.847   4.721
 9212SOL    HW128535   4.534   4.806   4.710
 9212SOL    HW228536   4.637   4.877   4.815
 9213SOL     OW28537   6.044   3.725   0.684
 9213SOL    HW128538   6.138   3.737   0.715
 9213SOL    HW228539   6.036   3.639   0.635
 9214SOL     OW28540   0.076   5.420   0.807
 9214SOL    HW128541   0.152   5.471   0.766
 9214SOL    HW228542   0.064   5.449   0.902
 9215SOL     OW28543   0.800   1.437   1.160
 9215SOL    HW128544   0.730   1.477   1.101
 9215SOL    HW228545   0.855   1.372   1.107
 9216SOL     OW28546   1.565   6.846   3.991
 9216SOL    HW128547   1.537   6.792   3.912
 9216SOL    HW228548   1.658   6.880   3.977
 9217SOL     OW28549   0.376   2.076   1.006
 9217SOL    HW128550   0.438   2.080   0.928
 9217SOL    HW228551   0.377   1.983   1.044
 9218SOL     OW28552   2.900   1.141   1.078
 9218SOL    HW128553   2.844   1.065   1.046
 9218SOL    HW228554   2.842   1.220   1.099
 9219SOL     OW28555   5.776   1.139   0.874
 9219SOL    HW128556   5.677   1.135   0.857
 9219SOL    HW228557   5.797   1.222   0.926
 9220SOL     OW28558   3.928   6.251   0.539
 9220SOL    HW128559   3.947   6.333   0.593
 9220SOL    HW228560   3.830   6.246   0.521
 9221SOL     OW28561   2.726   4.752   4.790
 9221SOL    HW128562   2.787   4.727   4.865
 9221SOL    HW228563   2.680   4.669   4.756
 9222SOL     OW28564   3.317   2.364   0.062
 9222SOL    HW128565   3.361   2.368   0.152
 9222SOL    HW228566   3.324   2.271   0.026
 9223SOL     OW28567   2.742   3.121   5.280
 9223SOL    HW128568   2.781   3.206   5.245
 9223SOL    HW228569   2.657   3.102   5.232
 9224SOL     OW28570   2.415   4.402   5.126
 9224SOL    HW128571   2.328   4.366   5.093
 9224SOL    HW228572   2.449   4.345   5.201
 9225SOL     OW28573   1.245   5.849   6.717
 9225SOL    HW128574   1.189   5.802   6.785
 9225SOL    HW228575   1.190   5.919   6.671
 9226SOL     OW28576   5.165   6.300   0.668
 9226SOL    HW128577   5.260   6.331   0.670
 9226SOL    HW228578   5.126   6.315   0.578
 9227SOL     OW28579   1.118   6.250   1.948
 9227SOL    HW128580   1.207   6.279   1.913
 9227SOL    HW228581   1.126   6.230   2.045
 9228SOL     OW28582   1.012   5.983   6.625
 9228SOL    HW128583   0.983   5.891   6.600
 9228SOL    HW228584   0.997   6.045   6.548
 9229SOL     OW28585   1.198   5.943   5.116
 9229SOL    HW128586   1.250   6.021   5.082
 9229SOL    HW228587   1.260   5.868   5.140
 9230SOL     OW28588   4.893   1.195   3.327
 9230SOL    HW128589   4.869   1.133   3.253
 9230SOL    HW228590   4.950   1.148   3.394
 9231SOL     OW28591   2.190   3.163   3.340
 9231SOL    HW128592   2.098   3.140   3.370
 9231SOL    HW228593   2.223   3.094   3.275
 9232SOL     OW28594   4.265   5.423   1.029
 9232SOL    HW128595   4.266   5.379   1.119
 9232SOL    HW228596   4.178   5.403   0.984
 9233SOL     OW28597   6.331   4.170   0.506
 9233SOL    HW128598   6.338   4.269   0.510
 9233SOL    HW228599   6.284   4.137   0.588
 9234SOL     OW28600   1.288   6.218   3.744
 9234SOL    HW128601   1.237   6.272   3.676
 9234SOL    HW228602   1.381   6.253   3.752
 9235SOL     OW28603   1.244   2.863   3.149
 9235SOL    HW128604   1.151   2.827   3.143
 9235SOL    HW228605   1.254   2.917   3.232
 9236SOL     OW28606   3.442   2.476   6.640
 9236SOL    HW128607   3.397   2.560   6.611
 9236SOL    HW228608   3.529   2.466   6.593
 9237SOL     OW28609   1.525   3.894   2.891
 9237SOL    HW128610   1.527   3.909   2.792
 9237SOL    HW228611   1.453   3.829   2.914
 9238SOL     OW28612   4.259   4.215   0.007
 9238SOL    HW128613   4.211   4.215   0.095
 9238SOL    HW228614   4.209   4.271   6.965
 9239SOL     OW28615   2.211   3.533   6.962
 9239SOL    HW128616   2.129   3.511   7.016
 9239SOL    HW228617   2.287   3.475   6.992
 9240SOL     OW28618   4.663   0.560   2.240
 9240SOL    HW128619   4.589   0.588   2.301
 9240SOL    HW228620   4.747   0.548   2.294
 9241SOL     OW28621   0.815   5.989   5.243
 9241SOL    HW128622   0.852   6.005   5.334
 9241SOL    HW228623   0.885   6.006   5.174
 9242SOL     OW28624   5.095   6.912   1.788
 9242SOL    HW128625   5.060   7.005   1.775
 9242SOL    HW228626   5.046   6.868   1.863
 9243SOL     OW28627   5.600   0.411   4.530
 9243SOL    HW128628   5.515   0.422   4.478
 9243SOL    HW228629   5.580   0.407   4.627
 9244SOL     OW28630   3.662   6.298   0.411
 9244SOL    HW128631   3.566   6.292   0.436
 9244SOL    HW228632   3.698   6.388   0.434
 9245SOL     OW28633   0.448   6.961   2.236
 9245SOL    HW128634   0.389   6.923   2.307
 9245SOL    HW228635   0.391   7.002   2.164
 9246SOL     OW28636   6.595   5.592   3.607
 9246SOL    HW128637   6.597   5.679   3.557
 9246SOL    HW228638   6.687   5.554   3.611
 9247SOL     OW28639   0.667   0.719   2.581
 9247SOL    HW128640   0.676   0.813   2.614
 9247SOL    HW228641   0.584   0.678   2.620
 9248SOL     OW28642   4.423   1.644   6.357
 9248SOL    HW128643   4.364   1.564   6.362
 9248SOL    HW228644   4.475   1.642   6.272
 9249SOL     OW28645   3.885   6.505   4.146
 9249SOL    HW128646   3.897   6.594   4.101
 9249SOL    HW228647   3.974   6.460   4.155
 9250SOL     OW28648   4.908   3.902   3.331
 9250SOL    HW128649   4.954   3.943   3.253
 9250SOL    HW228650   4.816   3.872   3.304
 9251SOL     OW28651   4.251   1.927   2.387
 9251SOL    HW128652   4.170   1.982   2.410
 9251SOL    HW228653   4.251   1.844   2.443
 9252SOL     OW28654   1.588   6.984   5.101
 9252SOL    HW128655   1.515   0.019   5.066
 9252SOL    HW228656   1.655   0.018   5.150
 9253SOL     OW28657   1.211   6.694   5.797
 9253SOL    HW128658   1.127   6.702   5.851
 9253SOL    HW228659   1.231   6.782   5.753
 9254SOL     OW28660   4.502   2.242   0.776
 9254SOL    HW128661   4.593   2.235   0.736
 9254SOL    HW228662   4.454   2.321   0.738
 9255SOL     OW28663   0.055   4.723   0.217
 9255SOL    HW128664   0.022   4.762   0.303
 9255SOL    HW228665   7.003   4.722   0.150
 9256SOL     OW28666   3.595   5.523   2.758
 9256SOL    HW128667   3.601   5.551   2.854
 9256SOL    HW228668   3.588   5.424   2.752
 9257SOL     OW28669   0.814   3.762   0.668
 9257SOL    HW128670   0.812   3.771   0.768
 9257SOL    HW228671   0.830   3.852   0.627
 9258SOL     OW28672   3.258   2.874   5.019
 9258SOL    HW128673   3.175   2.835   5.059
 9258SOL    HW228674   3.319   2.903   5.093
 9259SOL     OW28675   1.896   2.758   0.635
 9259SOL    HW128676   1.976   2.703   0.610
 9259SOL    HW228677   1.921   2.855   0.634
 9260SOL     OW28678   6.548   3.938   0.463
 9260SOL    HW128679   6.571   3.999   0.539
 9260SOL    HW228680   6.583   3.977   0.378
 9261SOL     OW28681   2.229   6.607   5.554
 9261SOL    HW128682   2.213   6.701   5.522
 9261SOL    HW228683   2.186   6.594   5.643
 9262SOL     OW28684   5.906   6.834   6.657
 9262SOL    HW128685   5.841   6.759   6.664
 9262SOL    HW228686   5.890   6.884   6.572
 9263SOL     OW28687   5.627   3.752   2.662
 9263SOL    HW128688   5.646   3.834   2.715
 9263SOL    HW228689   5.691   3.680   2.689
 9264SOL     OW28690   5.478   1.922   0.132
 9264SOL    HW128691   5.472   2.019   0.110
 9264SOL    HW228692   5.404   1.897   0.195
 9265SOL     OW28693   1.740   1.411   5.670
 9265SOL    HW128694   1.825   1.446   5.630
 9265SOL    HW228695   1.662   1.440   5.614
 9266SOL     OW28696   2.965   6.768   3.032
 9266SOL    HW128697   2.929   6.779   3.124
 9266SOL    HW228698   2.949   6.675   3.001
 9267SOL     OW28699   3.079   4.686   6.286
 9267SOL    HW128700   3.011   4.742   6.333
 9267SOL    HW228701   3.154   4.744   6.253
 9268SOL     OW28702   1.142   1.212   3.243
 9268SOL    HW128703   1.100   1.143   3.184
 9268SOL    HW228704   1.102   1.208   3.334
 9269SOL     OW28705   4.052   1.489   5.162
 9269SOL    HW128706   4.137   1.517   5.116
 9269SOL    HW228707   4.019   1.403   5.123
 9270SOL     OW28708   1.824   0.439   5.467
 9270SOL    HW128709   1.835   0.491   5.551
 9270SOL    HW228710   1.790   0.499   5.395
 9271SOL     OW28711   0.119   5.436   5.546
 9271SOL    HW128712   0.204   5.413   5.499
 9271SOL    HW228713   0.041   5.411   5.488
 9272SOL     OW28714   2.350   5.219   0.154
 9272SOL    HW128715   2.416   5.294   0.145
 9272SOL    HW228716   2.330   5.181   0.064
 9273SOL     OW28717   3.329   5.168   5.835
 9273SOL    HW128718   3.384   5.113   5.773
 9273SOL    HW228719   3.389   5.222   5.894
 9274SOL     OW28720   4.959   1.536   1.763
 9274SOL    HW128721   4.966   1.471   1.838
 9274SOL    HW228722   4.954   1.629   1.799
 9275SOL     OW28723   6.542   0.268   6.289
 9275SOL    HW128724   6.478   0.201   6.252
 9275SOL    HW228725   6.631   0.225   6.302
 9276SOL     OW28726   5.212   0.332   3.982
 9276SOL    HW128727   5.166   0.414   3.947
 9276SOL    HW228728   5.303   0.357   4.017
 9277SOL     OW28729   5.412   2.590   6.556
 9277SOL    HW128730   5.324   2.544   6.568
 9277SOL    HW228731   5.484   2.537   6.601
 9278SOL     OW28732   1.247   2.085   1.099
 9278SOL    HW128733   1.208   2.138   1.024
 9278SOL    HW228734   1.179   2.077   1.173
 9279SOL     OW28735   2.291   0.192   0.779
 9279SOL    HW128736   2.330   0.111   0.823
 9279SOL    HW228737   2.193   0.181   0.768
 9280SOL     OW28738   1.827   0.564   1.932
 9280SOL    HW128739   1.791   0.505   2.004
 9280SOL    HW228740   1.756   0.627   1.901
 9281SOL     OW28741   1.750   2.556   0.499
 9281SOL    HW128742   1.813   2.620   0.542
 9281SOL    HW228743   1.790   2.520   0.415
 9282SOL     OW28744   3.999   0.698   5.969
 9282SOL    HW128745   3.915   0.752   5.965
 9282SOL    HW228746   4.033   0.683   5.876
 9283SOL     OW28747   5.761   2.470   3.396
 9283SOL    HW128748   5.855   2.500   3.405
 9283SOL    HW228749   5.714   2.526   3.329
 9284SOL     OW28750   3.802   3.916   2.127
 9284SOL    HW128751   3.855   3.832   2.134
 9284SOL    HW228752   3.824   3.963   2.042
 9285SOL     OW28753   6.446   2.692   6.904
 9285SOL    HW128754   6.371   2.711   6.841
 9285SOL    HW228755   6.507   2.623   6.864
 9286SOL     OW28756   5.420   5.376   4.397
 9286SOL    HW128757   5.432   5.318   4.316
 9286SOL    HW228758   5.323   5.387   4.416
 9287SOL     OW28759   3.275   0.116   2.403
 9287SOL    HW128760   3.335   0.137   2.326
 9287SOL    HW228761   3.238   0.023   2.392
 9288SOL     OW28762   4.317   1.817   6.897
 9288SOL    HW128763   4.396   1.873   6.923
 9288SOL    HW228764   4.271   1.785   6.980
 9289SOL     OW28765   5.317   3.564   3.489
 9289SOL    HW128766   5.414   3.587   3.481
 9289SOL    HW228767   5.264   3.626   3.431
 9290SOL     OW28768   4.203   2.270   4.369
 9290SOL    HW128769   4.111   2.262   4.330
 9290SOL    HW228770   4.257   2.333   4.314
 9291SOL     OW28771   0.698   3.133   4.798
 9291SOL    HW128772   0.655   3.108   4.885
 9291SOL    HW228773   0.629   3.130   4.725
 9292SOL     OW28774   1.493   4.319   6.968
 9292SOL    HW128775   1.416   4.273   7.012
 9292SOL    HW228776   1.488   4.307   6.869
 9293SOL     OW28777   5.244   3.532   6.132
 9293SOL    HW128778   5.250   3.433   6.122
 9293SOL    HW228779   5.208   3.572   6.048
 9294SOL     OW28780   5.634   5.505   6.892
 9294SOL    HW128781   5.720   5.504   6.943
 9294SOL    HW228782   5.599   5.599   6.887
 9295SOL     OW28783   4.770   2.866   3.489
 9295SOL    HW128784   4.832   2.929   3.443
 9295SOL    HW228785   4.720   2.915   3.561
 9296SOL     OW28786   5.690   0.659   4.984
 9296SOL    HW128787   5.658   0.565   4.982
 9296SOL    HW228788   5.680   0.697   5.076
 9297SOL     OW28789   0.499   6.829   1.822
 9297SOL    HW128790   0.421   6.790   1.873
 9297SOL    HW228791   0.549   6.755   1.777
 9298SOL     OW28792   0.139   6.833   4.338
 9298SOL    HW128793   0.103   6.762   4.278
 9298SOL    HW228794   0.099   6.921   4.314
 9299SOL     OW28795   1.555   2.528   4.625
 9299SOL    HW128796   1.542   2.473   4.542
 9299SOL    HW228797   1.634   2.588   4.612
 9300SOL     OW28798   5.938   4.902   4.053
 9300SOL    HW128799   5.898   4.831   4.111
 9300SOL    HW228800   5.903   4.991   4.082
 9301SOL     OW28801   6.623   4.815   1.334
 9301SOL    HW128802   6.555   4.751   1.296
 9301SOL    HW228803   6.614   4.903   1.287
 9302SOL     OW28804   1.121   2.102   2.576
 9302SOL    HW128805   1.088   2.030   2.515
 9302SOL    HW228806   1.102   2.191   2.536
 9303SOL     OW28807   4.656   4.243   0.569
 9303SOL    HW128808   4.600   4.170   0.607
 9303SOL    HW228809   4.600   4.301   0.509
 9304SOL     OW28810   4.680   3.768   0.645
 9304SOL    HW128811   4.694   3.671   0.663
 9304SOL    HW228812   4.650   3.781   0.551
 9305SOL     OW28813   4.664   4.054   1.754
 9305SOL    HW128814   4.613   3.968   1.749
 9305SOL    HW228815   4.614   4.119   1.811
 9306SOL     OW28816   0.449   6.397   2.771
 9306SOL    HW128817   0.481   6.462   2.702
 9306SOL    HW228818   0.447   6.442   2.860
 9307SOL     OW28819   2.097   0.662   6.238
 9307SOL    HW128820   2.158   0.606   6.182
 9307SOL    HW228821   2.033   0.603   6.287
 9308SOL     OW28822   0.412   2.152   0.319
 9308SOL    HW128823   0.426   2.111   0.409
 9308SOL    HW228824   0.329   2.208   0.321
 9309SOL     OW28825   4.100   2.920   0.056
 9309SOL    HW128826   4.010   2.918   0.013
 9309SOL    HW228827   4.100   2.985   0.132
 9310SOL     OW28828   3.719   6.239   1.104
 9310SOL    HW128829   3.620   6.254   1.099
 9310SOL    HW228830   3.755   6.230   1.011
 9311SOL     OW28831   0.434   3.123   1.468
 9311SOL    HW128832   0.528   3.155   1.471
 9311SOL    HW228833   0.430   3.026   1.494
 9312SOL     OW28834   1.677   3.862   4.640
 9312SOL    HW128835   1.662   3.853   4.542
 9312SOL    HW228836   1.589   3.872   4.686
 9313SOL     OW28837   6.613   0.579   3.020
 9313SOL    HW128838   6.592   0.484   2.997
 9313SOL    HW228839   6.709   0.597   2.999
 9314SOL     OW28840   0.044   3.749   0.475
 9314SOL    HW128841   0.065   3.717   0.568
 9314SOL    HW228842   7.015   3.679   0.426
 9315SOL     OW28843   0.360   5.899   6.217
 9315SOL    HW128844   0.344   5.929   6.123
 9315SOL    HW228845   0.360   5.978   6.278
 9316SOL     OW28846   2.782   4.992   4.691
 9316SOL    HW128847   2.730   4.959   4.770
 9316SOL    HW228848   2.847   4.922   4.662
 9317SOL     OW28849   3.808   4.213   5.683
 9317SOL    HW128850   3.805   4.193   5.780
 9317SOL    HW228851   3.720   4.190   5.641
 9318SOL     OW28852   0.149   6.793   6.147
 9318SOL    HW128853   0.174   6.871   6.204
 9318SOL    HW228854   0.095   6.824   6.069
 9319SOL     OW28855   6.737   3.948   4.317
 9319SOL    HW128856   6.678   3.880   4.273
 9319SOL    HW228857   6.759   3.918   4.410
 9320SOL     OW28858   3.688   3.124   5.827
 9320SOL    HW128859   3.731   3.035   5.811
 9320SOL    HW228860   3.608   3.134   5.767
 9321SOL     OW28861   5.190   6.967   4.010
 9321SOL    HW128862   5.145   0.020   4.057
 9321SOL    HW228863   5.204   6.992   3.914
 9322SOL     OW28864   0.660   5.982   1.286
 9322SOL    HW128865   0.581   6.033   1.320
 9322SOL    HW228866   0.689   6.021   1.198
 9323SOL     OW28867   0.933   1.395   5.870
 9323SOL    HW128868   0.944   1.422   5.774
 9323SOL    HW228869   0.946   1.475   5.928
 9324SOL     OW28870   1.263   5.297   6.975
 9324SOL    HW128871   1.324   5.366   6.937
 9324SOL    HW228872   1.307   5.207   6.972
 9325SOL     OW28873   0.501   3.176   6.705
 9325SOL    HW128874   0.427   3.120   6.668
 9325SOL    HW228875   0.466   3.266   6.730
 9326SOL     OW28876   2.507   6.141   1.639
 9326SOL    HW128877   2.586   6.091   1.673
 9326SOL    HW228878   2.502   6.131   1.539
 9327SOL     OW28879   1.973   2.028   4.379
 9327SOL    HW128880   1.968   1.979   4.292
 9327SOL    HW228881   2.064   2.020   4.418
 9328SOL     OW28882   2.218   1.588   2.105
 9328SOL    HW128883   2.292   1.527   2.130
 9328SOL    HW228884   2.211   1.593   2.005
 9329SOL     OW28885   0.924   3.780   1.531
 9329SOL    HW128886   0.872   3.848   1.478
 9329SOL    HW228887   0.999   3.745   1.475
 9330SOL     OW28888   5.290   5.906   6.670
 9330SOL    HW128889   5.354   5.868   6.604
 9330SOL    HW228890   5.336   5.918   6.758
 9331SOL     OW28891   0.910   1.061   0.379
 9331SOL    HW128892   0.876   0.979   0.424
 9331SOL    HW228893   0.977   1.106   0.439
 9332SOL     OW28894   3.818   4.167   4.860
 9332SOL    HW128895   3.841   4.091   4.921
 9332SOL    HW228896   3.862   4.251   4.893
 9333SOL     OW28897   5.047   6.434   1.218
 9333SOL    HW128898   5.013   6.350   1.261
 9333SOL    HW228899   5.038   6.427   1.119
 9334SOL     OW28900   2.003   6.476   4.978
 9334SOL    HW128901   1.953   6.471   4.891
 9334SOL    HW228902   1.994   6.568   5.017
 9335SOL     OW28903   0.585   1.682   2.553
 9335SOL    HW128904   0.627   1.653   2.638
 9335SOL    HW228905   0.524   1.760   2.570
 9336SOL     OW28906   3.295   0.389   5.078
 9336SOL    HW128907   3.360   0.461   5.052
 9336SOL    HW228908   3.339   0.300   5.069
 9337SOL     OW28909   4.959   6.560   3.487
 9337SOL    HW128910   5.015   6.482   3.458
 9337SOL    HW228911   4.934   6.615   3.407
 9338SOL     OW28912   1.818   6.457   2.560
 9338SOL    HW128913   1.761   6.418   2.632
 9338SOL    HW228914   1.907   6.411   2.559
 9339SOL     OW28915   3.678   5.656   1.692
 9339SOL    HW128916   3.663   5.658   1.791
 9339SOL    HW228917   3.660   5.564   1.657
 9340SOL     OW28918   6.812   2.721   6.956
 9340SOL    HW128919   6.896   2.752   6.912
 9340SOL    HW228920   6.776   2.642   6.906
 9341SOL     OW28921   0.721   4.010   5.697
 9341SOL    HW128922   0.769   4.094   5.723
 9341SOL    HW228923   0.756   3.934   5.751
 9342SOL     OW28924   1.670   0.227   0.132
 9342SOL    HW128925   1.606   0.166   0.179
 9342SOL    HW228926   1.652   0.225   0.034
 9343SOL     OW28927   6.210   6.593   3.180
 9343SOL    HW128928   6.141   6.654   3.218
 9343SOL    HW228929   6.301   6.631   3.195
 9344SOL     OW28930   5.393   6.146   0.984
 9344SOL    HW128931   5.389   6.246   0.980
 9344SOL    HW228932   5.465   6.117   1.047
 9345SOL     OW28933   0.782   2.175   0.595
 9345SOL    HW128934   0.837   2.121   0.531
 9345SOL    HW228935   0.841   2.240   0.644
 9346SOL     OW28936   6.073   0.459   0.958
 9346SOL    HW128937   6.002   0.480   1.025
 9346SOL    HW228938   6.098   0.363   0.965
 9347SOL     OW28939   1.894   6.305   2.935
 9347SOL    HW128940   1.798   6.281   2.940
 9347SOL    HW228941   1.904   6.396   2.894
 9348SOL     OW28942   2.729   5.253   0.318
 9348SOL    HW128943   2.734   5.153   0.310
 9348SOL    HW228944   2.736   5.293   0.227
 9349SOL     OW28945   1.209   6.452   2.881
 9349SOL    HW128946   1.214   6.386   2.956
 9349SOL    HW228947   1.134   6.517   2.899
 9350SOL     OW28948   0.477   3.063   5.428
 9350SOL    HW128949   0.479   2.964   5.418
 9350SOL    HW228950   0.522   3.106   5.349
 9351SOL     OW28951   3.135   6.564   0.085
 9351SOL    HW128952   3.163   6.652   0.046
 9351SOL    HW228953   3.156   6.563   0.183
 9352SOL     OW28954   2.728   4.818   6.088
 9352SOL    HW128955   2.823   4.838   6.111
 9352SOL    HW228956   2.721   4.795   5.992
 9353SOL     OW28957   6.780   0.192   0.754
 9353SOL    HW128958   6.732   0.154   0.676
 9353SOL    HW228959   6.868   0.229   0.724
 9354SOL     OW28960   1.200   1.305   5.298
 9354SOL    HW128961   1.208   1.289   5.397
 9354SOL    HW228962   1.185   1.402   5.281
 9355SOL     OW28963   1.140   1.568   5.276
 9355SOL    HW128964   1.096   1.646   5.230
 9355SOL    HW228965   1.187   1.600   5.357
 9356SOL     OW28966   3.902   0.884   3.264
 9356SOL    HW128967   3.909   0.982   3.285
 9356SOL    HW228968   3.993   0.845   3.253
 9357SOL     OW28969   2.122   2.631   0.555
 9357SOL    HW128970   2.215   2.664   0.573
 9357SOL    HW228971   2.126   2.535   0.527
 9358SOL     OW28972   1.101   1.768   0.651
 9358SOL    HW128973   1.103   1.860   0.690
 9358SOL    HW228974   1.188   1.749   0.606
 9359SOL     OW28975   0.627   0.773   5.756
 9359SOL    HW128976   0.612   0.781   5.657
 9359SOL    HW228977   0.698   0.838   5.784
 9360SOL     OW28978   6.504   6.852   5.566
 9360SOL    HW128979   6.453   6.862   5.652
 9360SOL    HW228980   6.518   6.755   5.546
 9361SOL     OW28981   2.120   5.606   4.846
 9361SOL    HW128982   2.198   5.662   4.875
 9361SOL    HW228983   2.035   5.653   4.867
 9362SOL     OW28984   1.865   0.634   2.367
 9362SOL    HW128985   1.963   0.637   2.349
 9362SOL    HW228986   1.828   0.546   2.334
 9363SOL     OW28987   1.118   2.903   2.150
 9363SOL    HW128988   1.069   2.854   2.223
 9363SOL    HW228989   1.078   2.878   2.061
 9364SOL     OW28990   0.799   1.928   6.655
 9364SOL    HW128991   0.836   1.898   6.568
 9364SOL    HW228992   0.819   1.859   6.725
 9365SOL     OW28993   2.818   0.799   4.988
 9365SOL    HW128994   2.799   0.792   4.890
 9365SOL    HW228995   2.735   0.779   5.040
 9366SOL     OW28996   3.331   6.071   2.523
 9366SOL    HW128997   3.300   6.165   2.509
 9366SOL    HW228998   3.364   6.060   2.616
 9367SOL     OW28999   6.790   6.875   1.604
 9367SOL    HW129000   6.832   6.963   1.586
 9367SOL    HW229001   6.772   6.865   1.702
 9368SOL     OW29002   2.347   0.728   3.418
 9368SOL    HW129003   2.385   0.649   3.468
 9368SOL    HW229004   2.352   0.710   3.320
 9369SOL     OW29005   3.489   5.123   0.743
 9369SOL    HW129006   3.584   5.154   0.751
 9369SOL    HW229007   3.427   5.197   0.770
 9370SOL     OW29008   4.927   2.476   5.271
 9370SOL    HW129009   4.941   2.487   5.370
 9370SOL    HW229010   4.933   2.379   5.247
 9371SOL     OW29011   4.171   4.963   0.596
 9371SOL    HW129012   4.268   4.984   0.591
 9371SOL    HW229013   4.149   4.891   0.529
 9372SOL     OW29014   5.384   6.877   0.694
 9372SOL    HW129015   5.453   6.871   0.767
 9372SOL    HW229016   5.406   6.954   0.634
 9373SOL     OW29017   0.003   1.215   1.337
 9373SOL    HW129018   0.021   1.256   1.248
 9373SOL    HW229019   7.003   1.118   1.325
 9374SOL     OW29020   6.777   5.334   6.272
 9374SOL    HW129021   6.833   5.357   6.192
 9374SOL    HW229022   6.723   5.413   6.299
 9375SOL     OW29023   1.771   1.422   6.803
 9375SOL    HW129024   1.843   1.409   6.871
 9375SOL    HW229025   1.722   1.507   6.824
 9376SOL     OW29026   3.407   4.030   0.512
 9376SOL    HW129027   3.316   4.070   0.524
 9376SOL    HW229028   3.397   3.932   0.496
 9377SOL     OW29029   0.721   1.255   3.428
 9377SOL    HW129030   0.636   1.282   3.474
 9377SOL    HW229031   0.778   1.335   3.413
 9378SOL     OW29032   4.169   1.158   5.332
 9378SOL    HW129033   4.196   1.062   5.329
 9378SOL    HW229034   4.070   1.165   5.340
 9379SOL     OW29035   3.655   0.024   4.494
 9379SOL    HW129036   3.642   0.123   4.499
 9379SOL    HW229037   3.666   7.020   4.399
 9380SOL     OW29038   4.980   6.447   1.729
 9380SOL    HW129039   4.922   6.387   1.674
 9380SOL    HW229040   5.014   6.521   1.672
 9381SOL     OW29041   4.478   1.456   4.969
 9381SOL    HW129042   4.529   1.400   4.903
 9381SOL    HW229043   4.410   1.399   5.015
 9382SOL     OW29044   2.663   5.792   6.302
 9382SOL    HW129045   2.598   5.747   6.363
 9382SOL    HW229046   2.755   5.787   6.340
 9383SOL     OW29047   5.841   3.991   1.033
 9383SOL    HW129048   5.903   4.035   1.098
 9383SOL    HW229049   5.763   4.051   1.015
 9384SOL     OW29050   4.476   0.558   0.550
 9384SOL    HW129051   4.441   0.646   0.581
 9384SOL    HW229052   4.576   0.557   0.559
 9385SOL     OW29053   4.361   2.436   4.190
 9385SOL    HW129054   4.343   2.422   4.093
 9385SOL    HW229055   4.441   2.494   4.202
 9386SOL     OW29056   5.563   0.368   0.821
 9386SOL    HW129057   5.530   0.462   0.827
 9386SOL    HW229058   5.495   0.311   0.775
 9387SOL     OW29059   3.318   2.224   6.671
 9387SOL    HW129060   3.296   2.208   6.574
 9387SOL    HW229061   3.346   2.319   6.684
 9388SOL     OW29062   2.316   6.227   5.602
 9388SOL    HW129063   2.398   6.273   5.568
 9388SOL    HW229064   2.341   6.140   5.644
 9389SOL     OW29065   2.199   3.740   1.866
 9389SOL    HW129066   2.214   3.657   1.919
 9389SOL    HW229067   2.229   3.819   1.920
 9390SOL     OW29068   5.656   5.174   3.914
 9390SOL    HW129069   5.706   5.166   4.000
 9390SOL    HW229070   5.600   5.093   3.901
 9391SOL     OW29071   0.510   5.329   4.545
 9391SOL    HW129072   0.517   5.325   4.645
 9391SOL    HW229073   0.430   5.277   4.515
 9392SOL     OW29074   3.282   5.233   2.853
 9392SOL    HW129075   3.360   5.202   2.798
 9392SOL    HW229076   3.302   5.323   2.891
 9393SOL     OW29077   2.035   4.897   0.434
 9393SOL    HW129078   1.987   4.811   0.418
 9393SOL    HW229079   2.130   4.879   0.456
 9394SOL     OW29080   4.827   0.071   6.964
 9394SOL    HW129081   4.740   0.098   6.923
 9394SOL    HW229082   4.834   6.995   6.965
 9395SOL     OW29083   0.358   0.765   1.246
 9395SOL    HW129084   0.313   0.754   1.157
 9395SOL    HW229085   0.372   0.862   1.265
 9396SOL     OW29086   1.171   0.848   6.274
 9396SOL    HW129087   1.074   0.827   6.261
 9396SOL    HW229088   1.193   0.933   6.226
 9397SOL     OW29089   3.501   1.841   5.924
 9397SOL    HW129090   3.548   1.765   5.969
 9397SOL    HW229091   3.441   1.887   5.990
 9398SOL     OW29092   6.868   3.057   6.913
 9398SOL    HW129093   6.958   3.087   6.944
 9398SOL    HW229094   6.830   2.992   6.980
 9399SOL     OW29095   1.256   2.658   4.528
 9399SOL    HW129096   1.326   2.726   4.552
 9399SOL    HW229097   1.247   2.592   4.603
 9400SOL     OW29098   5.433   1.324   0.822
 9400SOL    HW129099   5.523   1.354   0.791
 9400SOL    HW229100   5.363   1.378   0.775
 9401SOL     OW29101   6.483   1.928   3.798
 9401SOL    HW129102   6.461   1.915   3.894
 9401SOL    HW229103   6.553   1.861   3.770
 9402SOL     OW29104   3.757   5.292   5.335
 9402SOL    HW129105   3.819   5.362   5.368
 9402SOL    HW229106   3.674   5.335   5.298
 9403SOL     OW29107   5.575   2.277   0.926
 9403SOL    HW129108   5.587   2.180   0.902
 9403SOL    HW229109   5.525   2.283   1.013
 9404SOL     OW29110   2.559   2.351   0.697
 9404SOL    HW129111   2.499   2.272   0.686
 9404SOL    HW229112   2.593   2.353   0.791
 9405SOL     OW29113   5.662   5.906   4.888
 9405SOL    HW129114   5.715   5.951   4.816
 9405SOL    HW229115   5.606   5.833   4.848
 9406SOL     OW29116   1.536   1.063   0.757
 9406SOL    HW129117   1.561   0.967   0.769
 9406SOL    HW229118   1.574   1.117   0.832
 9407SOL     OW29119   1.719   4.406   4.832
 9407SOL    HW129120   1.779   4.480   4.862
 9407SOL    HW229121   1.691   4.421   4.737
 9408SOL     OW29122   5.622   5.365   3.700
 9408SOL    HW129123   5.626   5.297   3.773
 9408SOL    HW229124   5.696   5.431   3.711
 9409SOL     OW29125   5.945   4.857   1.739
 9409SOL    HW129126   5.927   4.947   1.779
 9409SOL    HW229127   5.892   4.846   1.655
 9410SOL     OW29128   4.752   0.559   0.616
 9410SOL    HW129129   4.781   0.481   0.560
 9410SOL    HW229130   4.771   0.540   0.712
 9411SOL     OW29131   3.645   3.640   5.131
 9411SOL    HW129132   3.625   3.721   5.076
 9411SOL    HW229133   3.639   3.558   5.075
 9412SOL     OW29134   3.560   6.739   1.781
 9412SOL    HW129135   3.632   6.797   1.820
 9412SOL    HW229136   3.596   6.690   1.702
 9413SOL     OW29137   4.192   4.870   3.140
 9413SOL    HW129138   4.231   4.931   3.209
 9413SOL    HW229139   4.254   4.865   3.062
 9414SOL     OW29140   2.194   0.990   2.309
 9414SOL    HW129141   2.275   0.939   2.338
 9414SOL    HW229142   2.111   0.938   2.330
 9415SOL     OW29143   4.659   0.936   0.810
 9415SOL    HW129144   4.755   0.939   0.783
 9415SOL    HW229145   4.617   1.025   0.791
 9416SOL     OW29146   6.520   4.896   6.214
 9416SOL    HW129147   6.530   4.818   6.151
 9416SOL    HW229148   6.597   4.958   6.202
 9417SOL     OW29149   3.992   6.328   3.086
 9417SOL    HW129150   4.082   6.322   3.128
 9417SOL    HW229151   3.981   6.253   3.020
 9418SOL     OW29152   2.660   1.950   5.118
 9418SOL    HW129153   2.627   2.010   5.045
 9418SOL    HW229154   2.677   2.003   5.200
 9419SOL     OW29155   2.896   2.335   5.927
 9419SOL    HW129156   2.899   2.423   5.974
 9419SOL    HW229157   2.858   2.348   5.835
 9420SOL     OW29158   5.008   3.641   5.551
 9420SOL    HW129159   5.102   3.639   5.585
 9420SOL    HW229160   5.009   3.630   5.452
 9421SOL     OW29161   3.804   0.076   0.030
 9421SOL    HW129162   3.881   0.034   7.005
 9421SOL    HW229163   3.817   0.175   0.035
 9422SOL     OW29164   1.945   6.145   6.121
 9422SOL    HW129165   1.874   6.133   6.052
 9422SOL    HW229166   1.904   6.143   6.212
 9423SOL     OW29167   5.425   4.637   1.055
 9423SOL    HW129168   5.363   4.560   1.042
 9423SOL    HW229169   5.430   4.690   0.969
 9424SOL     OW29170   5.992   6.574   4.072
 9424SOL    HW129171   5.934   6.615   4.001
 9424SOL    HW229172   5.993   6.633   4.152
 9425SOL     OW29173   0.019   5.825   1.164
 9425SOL    HW129174   0.037   5.777   1.250
 9425SOL    HW229175   0.060   5.774   1.089
 9426SOL     OW29176   4.968   1.380   6.053
 9426SOL    HW129177   4.990   1.432   6.135
 9426SOL    HW229178   5.025   1.297   6.050
 9427SOL     OW29179   3.229   5.804   2.088
 9427SOL    HW129180   3.162   5.868   2.125
 9427SOL    HW229181   3.291   5.775   2.161
 9428SOL     OW29182   6.850   6.536   4.382
 9428SOL    HW129183   6.927   6.559   4.442
 9428SOL    HW229184   6.881   6.474   4.311
 9429SOL     OW29185   3.188   2.092   4.061
 9429SOL    HW129186   3.252   2.020   4.033
 9429SOL    HW229187   3.155   2.074   4.154
 9430SOL     OW29188   1.112   0.414   4.050
 9430SOL    HW129189   1.164   0.451   4.126
 9430SOL    HW229190   1.028   0.372   4.084
 9431SOL     OW29191   1.389   4.748   5.413
 9431SOL    HW129192   1.308   4.715   5.462
 9431SOL    HW229193   1.386   4.716   5.318
 9432SOL     OW29194   6.815   2.084   2.892
 9432SOL    HW129195   6.912   2.062   2.877
 9432SOL    HW229196   6.808   2.171   2.941
 9433SOL     OW29197   4.280   5.590   1.589
 9433SOL    HW129198   4.188   5.617   1.616
 9433SOL    HW229199   4.334   5.566   1.669
 9434SOL     OW29200   4.991   5.916   4.693
 9434SOL    HW129201   4.990   5.999   4.637
 9434SOL    HW229202   5.085   5.883   4.702
 9435SOL     OW29203   6.800   4.017   6.890
 9435SOL    HW129204   6.821   4.099   6.942
 9435SOL    HW229205   6.701   4.000   6.890
 9436SOL     OW29206   2.893   2.078   2.525
 9436SOL    HW129207   2.980   2.093   2.572
 9436SOL    HW229208   2.836   2.160   2.535
 9437SOL     OW29209   4.569   1.266   3.749
 9437SOL    HW129210   4.553   1.331   3.675
 9437SOL    HW229211   4.565   1.313   3.837
 9438SOL     OW29212   4.609   0.328   2.794
 9438SOL    HW129213   4.510   0.314   2.791
 9438SOL    HW229214   4.634   0.400   2.729
 9439SOL     OW29215   1.365   5.014   0.746
 9439SOL    HW129216   1.451   5.051   0.710
 9439SOL    HW229217   1.302   4.997   0.670
 9440SOL     OW29218   1.726   5.118   4.191
 9440SOL    HW129219   1.758   5.038   4.141
 9440SOL    HW229220   1.726   5.098   4.289
 9441SOL     OW29221   6.809   6.190   4.382
 9441SOL    HW129222   6.879   6.205   4.312
 9441SOL    HW229223   6.723   6.232   4.352
 9442SOL     OW29224   6.469   2.721   1.035
 9442SOL    HW129225   6.393   2.673   1.078
 9442SOL    HW229226   6.434   2.795   0.978
 9443SOL     OW29227   0.947   4.788   1.339
 9443SOL    HW129228   0.950   4.785   1.239
 9443SOL    HW229229   0.864   4.836   1.367
 9444SOL     OW29230   2.134   5.855   5.878
 9444SOL    HW129231   2.052   5.840   5.822
 9444SOL    HW229232   2.111   5.838   5.974
 9445SOL     OW29233   1.106   1.440   4.293
 9445SOL    HW129234   1.046   1.416   4.368
 9445SOL    HW229235   1.189   1.482   4.329
 9446SOL     OW29236   5.095   5.905   3.320
 9446SOL    HW129237   5.142   5.885   3.406
 9446SOL    HW229238   4.996   5.899   3.334
 9447SOL     OW29239   5.927   5.248   2.376
 9447SOL    HW129240   5.896   5.154   2.393
 9447SOL    HW229241   5.914   5.303   2.458
 9448SOL     OW29242   4.909   3.023   0.363
 9448SOL    HW129243   4.974   3.059   0.429
 9448SOL    HW229244   4.956   3.004   0.276
 9449SOL     OW29245   4.127   0.312   3.204
 9449SOL    HW129246   4.084   0.395   3.240
 9449SOL    HW229247   4.065   0.268   3.139
 9450SOL     OW29248   0.818   0.463   1.929
 9450SOL    HW129249   0.784   0.461   2.024
 9450SOL    HW229250   0.746   0.431   1.868
 9451SOL     OW29251   4.226   5.037   0.246
 9451SOL    HW129252   4.220   4.939   0.229
 9451SOL    HW229253   4.137   5.071   0.277
 9452SOL     OW29254   6.122   3.171   5.326
 9452SOL    HW129255   6.204   3.198   5.275
 9452SOL    HW229256   6.104   3.237   5.398
 9453SOL     OW29257   6.365   5.030   2.915
 9453SOL    HW129258   6.421   4.961   2.870
 9453SOL    HW229259   6.319   5.086   2.846
 9454SOL     OW29260   5.410   5.503   1.257
 9454SOL    HW129261   5.462   5.583   1.286
 9454SOL    HW229262   5.471   5.425   1.246
 9455SOL     OW29263   4.514   0.789   1.322
 9455SOL    HW129264   4.583   0.763   1.388
 9455SOL    HW229265   4.425   0.751   1.348
 9456SOL     OW29266   6.728   2.627   1.759
 9456SOL    HW129267   6.752   2.677   1.675
 9456SOL    HW229268   6.781   2.542   1.763
 9457SOL     OW29269   6.606   6.517   4.272
 9457SOL    HW129270   6.689   6.519   4.328
 9457SOL    HW229271   6.580   6.423   4.254
 9458SOL     OW29272   0.049   4.131   6.835
 9458SOL    HW129273   7.020   4.051   6.805
 9458SOL    HW229274   0.128   4.102   6.889
 9459SOL     OW29275   6.449   4.704   4.944
 9459SOL    HW129276   6.375   4.668   4.888
 9459SOL    HW229277   6.537   4.669   4.911
 9460SOL     OW29278   2.123   3.083   2.773
 9460SOL    HW129279   2.086   3.151   2.837
 9460SOL    HW229280   2.178   3.016   2.823
 9461SOL     OW29281   1.301   1.176   1.157
 9461SOL    HW129282   1.251   1.121   1.090
 9461SOL    HW229283   1.264   1.268   1.159
 9462SOL     OW29284   7.000   0.921   5.581
 9462SOL    HW129285   7.009   0.878   5.492
 9462SOL    HW229286   0.035   0.872   5.648
 9463SOL     OW29287   0.714   4.840   0.947
 9463SOL    HW129288   0.734   4.894   0.865
 9463SOL    HW229289   0.794   4.839   1.007
 9464SOL     OW29290   1.437   0.894   2.055
 9464SOL    HW129291   1.371   0.832   2.097
 9464SOL    HW229292   1.394   0.981   2.036
 9465SOL     OW29293   1.376   5.537   6.907
 9465SOL    HW129294   1.309   5.556   6.978
 9465SOL    HW229295   1.442   5.613   6.903
 9466SOL     OW29296   3.928   4.441   5.577
 9466SOL    HW129297   3.898   4.354   5.616
 9466SOL    HW229298   3.904   4.445   5.480
 9467SOL     OW29299   1.298   3.818   1.549
 9467SOL    HW129300   1.345   3.769   1.476
 9467SOL    HW229301   1.279   3.756   1.625
 9468SOL     OW29302   6.903   2.183   1.094
 9468SOL    HW129303   6.883   2.247   1.020
 9468SOL    HW229304   6.831   2.188   1.164
 9469SOL     OW29305   5.879   6.549   2.038
 9469SOL    HW129306   5.814   6.498   2.095
 9469SOL    HW229307   5.844   6.641   2.022
 9470SOL     OW29308   3.364   3.581   1.078
 9470SOL    HW129309   3.431   3.564   1.005
 9470SOL    HW229310   3.399   3.545   1.164
 9471SOL     OW29311   0.282   3.243   5.136
 9471SOL    HW129312   0.216   3.186   5.089
 9471SOL    HW229313   0.234   3.307   5.196
 9472SOL     OW29314   2.509   4.486   5.919
 9472SOL    HW129315   2.533   4.418   5.850
 9472SOL    HW229316   2.477   4.440   6.002
 9473SOL     OW29317   2.959   3.277   1.753
 9473SOL    HW129318   2.986   3.357   1.807
 9473SOL    HW229319   2.867   3.290   1.718
 9474SOL     OW29320   5.903   4.374   1.138
 9474SOL    HW129321   5.837   4.305   1.168
 9474SOL    HW229322   5.856   4.445   1.087
 9475SOL     OW29323   6.018   3.483   6.841
 9475SOL    HW129324   6.101   3.434   6.816
 9475SOL    HW229325   5.953   3.480   6.765
 9476SOL     OW29326   4.164   3.520   1.256
 9476SOL    HW129327   4.186   3.423   1.257
 9476SOL    HW229328   4.125   3.545   1.345
 9477SOL     OW29329   0.708   5.733   1.371
 9477SOL    HW129330   0.725   5.734   1.470
 9477SOL    HW229331   0.678   5.824   1.342
 9478SOL     OW29332   0.409   3.488   5.350
 9478SOL    HW129333   0.339   3.543   5.305
 9478SOL    HW229334   0.485   3.473   5.288
 9479SOL     OW29335   4.238   0.610   2.156
 9479SOL    HW129336   4.331   0.643   2.136
 9479SOL    HW229337   4.194   0.674   2.219
 9480SOL     OW29338   5.380   0.997   1.289
 9480SOL    HW129339   5.282   1.016   1.287
 9480SOL    HW229340   5.395   0.907   1.331
 9481SOL     OW29341   4.751   6.914   3.646
 9481SOL    HW129342   4.699   6.881   3.725
 9481SOL    HW229343   4.711   6.880   3.562
 9482SOL     OW29344   5.547   4.060   6.218
 9482SOL    HW129345   5.511   4.004   6.143
 9482SOL    HW229346   5.516   4.021   6.305
 9483SOL     OW29347   5.738   5.038   0.463
 9483SOL    HW129348   5.817   4.993   0.424
 9483SOL    HW229349   5.661   5.032   0.400
 9484SOL     OW29350   1.261   5.519   4.104
 9484SOL    HW129351   1.359   5.541   4.106
 9484SOL    HW229352   1.246   5.443   4.040
 9485SOL     OW29353   6.637   1.559   5.849
 9485SOL    HW129354   6.544   1.530   5.872
 9485SOL    HW229355   6.635   1.620   5.770
 9486SOL     OW29356   6.124   5.311   6.188
 9486SOL    HW129357   6.105   5.250   6.265
 9486SOL    HW229358   6.222   5.332   6.185
 9487SOL     OW29359   2.863   3.624   3.888
 9487SOL    HW129360   2.924   3.680   3.944
 9487SOL    HW229361   2.881   3.641   3.791
 9488SOL     OW29362   0.807   1.237   2.753
 9488SOL    HW129363   0.774   1.221   2.847
 9488SOL    HW229364   0.729   1.258   2.694
 9489SOL     OW29365   0.367   4.395   6.766
 9489SOL    HW129366   0.368   4.431   6.859
 9489SOL    HW229367   0.318   4.458   6.706
 9490SOL     OW29368   5.676   4.140   4.908
 9490SOL    HW129369   5.749   4.170   4.846
 9490SOL    HW229370   5.714   4.077   4.976
 9491SOL     OW29371   5.169   0.155   2.090
 9491SOL    HW129372   5.187   0.180   1.995
 9491SOL    HW229373   5.227   0.210   2.150
 9492SOL     OW29374   4.876   2.714   4.213
 9492SOL    HW129375   4.929   2.752   4.137
 9492SOL    HW229376   4.938   2.669   4.277
 9493SOL     OW29377   2.363   6.686   3.391
 9493SOL    HW129378   2.402   6.778   3.390
 9493SOL    HW229379   2.374   6.644   3.301
 9494SOL     OW29380   4.879   2.548   2.425
 9494SOL    HW129381   4.802   2.505   2.474
 9494SOL    HW229382   4.849   2.636   2.388
 9495SOL     OW29383   6.224   2.370   0.747
 9495SOL    HW129384   6.155   2.302   0.773
 9495SOL    HW229385   6.313   2.326   0.735
 9496SOL     OW29386   6.327   3.198   0.462
 9496SOL    HW129387   6.357   3.128   0.527
 9496SOL    HW229388   6.400   3.265   0.449
 9497SOL     OW29389   6.099   4.681   5.076
 9497SOL    HW129390   6.102   4.780   5.088
 9497SOL    HW229391   6.062   4.638   5.159
 9498SOL     OW29392   1.000   6.011   5.765
 9498SOL    HW129393   0.964   5.992   5.856
 9498SOL    HW229394   1.005   6.109   5.751
 9499SOL     OW29395   5.483   6.233   3.320
 9499SOL    HW129396   5.572   6.191   3.331
 9499SOL    HW229397   5.485   6.327   3.356
 9500SOL     OW29398   2.360   1.791   0.415
 9500SOL    HW129399   2.431   1.732   0.453
 9500SOL    HW229400   2.291   1.734   0.369
 9501SOL     OW29401   1.564   3.189   4.626
 9501SOL    HW129402   1.526   3.230   4.708
 9501SOL    HW229403   1.656   3.153   4.645
 9502SOL     OW29404   5.495   4.598   3.772
 9502SOL    HW129405   5.513   4.511   3.726
 9502SOL    HW229406   5.420   4.586   3.838
 9503SOL     OW29407   6.769   0.590   0.249
 9503SOL    HW129408   6.858   0.544   0.250
 9503SOL    HW229409   6.698   0.523   0.230
 9504SOL     OW29410   6.229   4.676   2.678
 9504SOL    HW129411   6.276   4.764   2.675
 9504SOL    HW229412   6.264   4.622   2.755
 9505SOL     OW29413   5.035   2.920   0.140
 9505SOL    HW129414   5.113   2.867   0.174
 9505SOL    HW229415   4.964   2.857   0.108
 9506SOL     OW29416   4.123   0.757   1.638
 9506SOL    HW129417   4.072   0.680   1.675
 9506SOL    HW229418   4.089   0.779   1.547
 9507SOL     OW29419   7.003   6.067   1.494
 9507SOL    HW129420   0.001   5.986   1.548
 9507SOL    HW229421   0.059   6.128   1.492
 9508SOL     OW29422   5.045   1.546   2.342
 9508SOL    HW129423   5.133   1.583   2.312
 9508SOL    HW229424   4.989   1.619   2.380
 9509SOL     OW29425   5.464   1.517   4.043
 9509SOL    HW129426   5.485   1.489   3.950
 9509SOL    HW229427   5.445   1.615   4.045
 9510SOL     OW29428   1.604   3.676   2.377
 9510SOL    HW129429   1.644   3.761   2.411
 9510SOL    HW229430   1.514   3.695   2.337
 9511SOL     OW29431   0.841   1.210   0.815
 9511SOL    HW129432   0.843   1.115   0.785
 9511SOL    HW229433   0.890   1.218   0.902
 9512SOL     OW29434   6.311   2.579   1.412
 9512SOL    HW129435   6.270   2.661   1.451
 9512SOL    HW229436   6.313   2.506   1.480
 9513SOL     OW29437   4.890   3.678   4.576
 9513SOL    HW129438   4.817   3.718   4.520
 9513SOL    HW229439   4.956   3.632   4.517
 9514SOL     OW29440   3.813   3.253   1.262
 9514SOL    HW129441   3.826   3.348   1.231
 9514SOL    HW229442   3.749   3.207   1.201
 9515SOL     OW29443   6.360   6.827   2.941
 9515SOL    HW129444   6.413   6.783   3.014
 9515SOL    HW229445   6.358   6.768   2.861
 9516SOL     OW29446   1.361   2.799   6.960
 9516SOL    HW129447   1.338   2.761   0.026
 9516SOL    HW229448   1.339   2.897   6.958
 9517SOL     OW29449   0.198   6.546   2.520
 9517SOL    HW129450   0.242   6.456   2.524
 9517SOL    HW229451   0.251   6.612   2.572
 9518SOL     OW29452   5.840   6.920   0.918
 9518SOL    HW129453   5.824   7.019   0.921
 9518SOL    HW229454   5.932   6.902   0.885
 9519SOL     OW29455   1.535   2.634   5.531
 9519SOL    HW129456   1.452   2.601   5.485
 9519SOL    HW229457   1.526   2.623   5.630
 9520SOL     OW29458   3.633   6.583   2.104
 9520SOL    HW129459   3.705   6.584   2.173
 9520SOL    HW229460   3.580   6.499   2.113
 9521SOL     OW29461   5.474   5.080   3.057
 9521SOL    HW129462   5.480   5.179   3.044
 9521SOL    HW229463   5.534   5.052   3.132
 9522SOL     OW29464   3.492   5.031   5.673
 9522SOL    HW129465   3.588   5.051   5.693
 9522SOL    HW229466   3.485   4.939   5.635
 9523SOL     OW29467   1.234   6.785   4.500
 9523SOL    HW129468   1.213   6.789   4.598
 9523SOL    HW229469   1.282   6.868   4.473
 9524SOL     OW29470   5.940   3.110   0.363
 9524SOL    HW129471   5.920   3.114   0.461
 9524SOL    HW229472   5.855   3.117   0.311
 9525SOL     OW29473   4.375   0.502   4.298
 9525SOL    HW129474   4.375   0.433   4.226
 9525SOL    HW229475   4.298   0.487   4.359
 9526SOL     OW29476   5.055   5.579   0.877
 9526SOL    HW129477   5.009   5.531   0.952
 9526SOL    HW229478   5.053   5.522   0.795
 9527SOL     OW29479   6.938   1.079   0.102
 9527SOL    HW129480   6.849   1.088   0.145
 9527SOL    HW229481   6.985   1.168   0.102
 9528SOL     OW29482   5.671   1.242   2.175
 9528SOL    HW129483   5.759   1.260   2.132
 9528SOL    HW229484   5.661   1.145   2.193
 9529SOL     OW29485   1.359   2.489   5.376
 9529SOL    HW129486   1.376   2.463   5.281
 9529SOL    HW229487   1.265   2.464   5.401
 9530SOL     OW29488   2.600   1.302   3.486
 9530SOL    HW129489   2.609   1.338   3.579
 9530SOL    HW229490   2.561   1.210   3.489
 9531SOL     OW29491   2.635   6.485   3.933
 9531SOL    HW129492   2.553   6.524   3.977
 9531SOL    HW229493   2.708   6.476   4.000
 9532SOL     OW29494   3.404   1.136   1.762
 9532SOL    HW129495   3.398   1.220   1.815
 9532SOL    HW229496   3.405   1.159   1.664
 9533SOL     OW29497   0.081   1.621   4.126
 9533SOL    HW129498   0.132   1.553   4.179
 9533SOL    HW229499   0.120   1.628   4.035
 9534SOL     OW29500   5.059   1.353   4.219
 9534SOL    HW129501   5.125   1.329   4.148
 9534SOL    HW229502   5.025   1.446   4.204
 9535SOL     OW29503   2.840   1.564   4.571
 9535SOL    HW129504   2.747   1.529   4.583
 9535SOL    HW229505   2.840   1.663   4.581
 9536SOL     OW29506   2.176   5.694   6.729
 9536SOL    HW129507   2.259   5.677   6.781
 9536SOL    HW229508   2.195   5.759   6.656
 9537SOL     OW29509   2.007   0.411   0.087
 9537SOL    HW129510   2.096   0.390   0.046
 9537SOL    HW229511   1.995   0.510   0.091
 9538SOL     OW29512   5.691   3.837   3.104
 9538SOL    HW129513   5.746   3.855   3.186
 9538SOL    HW229514   5.658   3.743   3.105
 9539SOL     OW29515   1.524   2.586   0.679
 9539SOL    HW129516   1.593   2.577   0.607
 9539SOL    HW229517   1.450   2.645   0.647
 9540SOL     OW29518   6.251   3.515   5.517
 9540SOL    HW129519   6.153   3.529   5.536
 9540SOL    HW229520   6.265   3.510   5.418
 9541SOL     OW29521   6.393   2.302   2.885
 9541SOL    HW129522   6.467   2.236   2.870
 9541SOL    HW229523   6.312   2.254   2.918
 9542SOL     OW29524   4.909   3.542   4.138
 9542SOL    HW129525   4.890   3.619   4.076
 9542SOL    HW229526   4.995   3.558   4.185
 9543SOL     OW29527   3.955   2.247   0.273
 9543SOL    HW129528   3.948   2.226   0.175
 9543SOL    HW229529   4.036   2.302   0.290
 9544SOL     OW29530   4.960   6.899   0.850
 9544SOL    HW129531   4.960   6.937   0.942
 9544SOL    HW229532   4.993   6.967   0.785
 9545SOL     OW29533   0.905   0.500   4.327
 9545SOL    HW129534   0.918   0.401   4.328
 9545SOL    HW229535   0.993   0.545   4.342
 9546SOL     OW29536   3.082   4.275   1.758
 9546SOL    HW129537   3.169   4.321   1.739
 9546SOL    HW229538   3.013   4.343   1.784
 9547SOL     OW29539   5.614   6.954   2.354
 9547SOL    HW129540   5.631   7.022   2.425
 9547SOL    HW229541   5.516   6.937   2.347
 9548SOL     OW29542   6.322   6.595   1.796
 9548SOL    HW129543   6.361   6.576   1.706
 9548SOL    HW229544   6.370   6.542   1.865
 9549SOL     OW29545   2.058   6.121   0.266
 9549SOL    HW129546   2.005   6.206   0.268
 9549SOL    HW229547   2.146   6.136   0.310
 9550SOL     OW29548   1.680   1.008   0.497
 9550SOL    HW129549   1.635   1.033   0.583
 9550SOL    HW229550   1.620   0.950   0.444
 9551SOL     OW29551   1.387   5.600   4.576
 9551SOL    HW129552   1.318   5.596   4.504
 9551SOL    HW229553   1.447   5.520   4.569
 9552SOL     OW29554   6.610   5.655   3.327
 9552SOL    HW129555   6.703   5.627   3.303
 9552SOL    HW229556   6.548   5.577   3.317
 9553SOL     OW29557   5.045   4.682   6.852
 9553SOL    HW129558   4.963   4.661   6.905
 9553SOL    HW229559   5.068   4.778   6.863
 9554SOL     OW29560   1.613   2.779   1.826
 9554SOL    HW129561   1.665   2.865   1.823
 9554SOL    HW229562   1.515   2.799   1.824
 9555SOL     OW29563   0.902   2.300   6.340
 9555SOL    HW129564   0.811   2.333   6.316
 9555SOL    HW229565   0.899   2.256   6.429
 9556SOL     OW29566   5.505   1.652   1.671
 9556SOL    HW129567   5.433   1.645   1.602
 9556SOL    HW229568   5.468   1.632   1.761
 9557SOL     OW29569   5.044   1.907   1.257
 9557SOL    HW129570   5.097   1.940   1.335
 9557SOL    HW229571   5.084   1.823   1.223
 9558SOL     OW29572   6.836   3.774   1.856
 9558SOL    HW129573   6.786   3.767   1.769
 9558SOL    HW229574   6.915   3.834   1.843
 9559SOL     OW29575   6.995   4.632   3.477
 9559SOL    HW129576   6.993   4.713   3.418
 9559SOL    HW229577   7.009   4.550   3.421
 9560SOL     OW29578   3.605   2.510   5.790
 9560SOL    HW129579   3.540   2.529   5.717
 9560SOL    HW229580   3.698   2.510   5.753
 9561SOL     OW29581   3.267   5.273   6.593
 9561SOL    HW129582   3.168   5.265   6.593
 9561SOL    HW229583   3.307   5.197   6.644
 9562SOL     OW29584   6.219   5.770   3.893
 9562SOL    HW129585   6.314   5.787   3.868
 9562SOL    HW229586   6.209   5.677   3.927
 9563SOL     OW29587   0.587   1.214   5.577
 9563SOL    HW129588   0.591   1.137   5.513
 9563SOL    HW229589   0.663   1.276   5.559
 9564SOL     OW29590   6.719   0.309   5.966
 9564SOL    HW129591   6.740   0.241   6.036
 9564SOL    HW229592   6.651   0.374   6.002
 9565SOL     OW29593   2.794   5.660   5.377
 9565SOL    HW129594   2.772   5.717   5.455
 9565SOL    HW229595   2.716   5.657   5.314
 9566SOL     OW29596   2.621   5.956   5.433
 9566SOL    HW129597   2.623   5.899   5.515
 9566SOL    HW229598   2.583   6.046   5.456
 9567SOL     OW29599   5.507   5.953   3.115
 9567SOL    HW129600   5.453   5.897   3.177
 9567SOL    HW229601   5.449   6.022   3.073
 9568SOL     OW29602   6.538   3.599   4.517
 9568SOL    HW129603   6.537   3.534   4.441
 9568SOL    HW229604   6.507   3.553   4.601
 9569SOL     OW29605   5.310   0.369   0.662
 9569SOL    HW129606   5.222   0.353   0.619
 9569SOL    HW229607   5.300   0.363   0.761
 9570SOL     OW29608   0.624   3.615   6.502
 9570SOL    HW129609   0.581   3.528   6.524
 9570SOL    HW229610   0.641   3.620   6.404
 9571SOL     OW29611   3.594   2.018   1.025
 9571SOL    HW129612   3.569   1.962   1.104
 9571SOL    HW229613   3.559   2.110   1.037
 9572SOL     OW29614   0.863   3.556   1.053
 9572SOL    HW129615   0.935   3.622   1.074
 9572SOL    HW229616   0.903   3.476   1.009
 9573SOL     OW29617   4.573   2.169   1.762
 9573SOL    HW129618   4.519   2.084   1.756
 9573SOL    HW229619   4.670   2.147   1.760
 9574SOL     OW29620   1.932   1.507   3.367
 9574SOL    HW129621   1.961   1.429   3.424
 9574SOL    HW229622   1.908   1.474   3.276
 9575SOL     OW29623   2.918   1.671   2.691
 9575SOL    HW129624   2.934   1.765   2.721
 9575SOL    HW229625   2.942   1.662   2.595
 9576SOL     OW29626   4.536   2.804   5.847
 9576SOL    HW129627   4.455   2.863   5.849
 9576SOL    HW229628   4.508   2.709   5.858
 9577SOL     OW29629   0.562   5.908   3.533
 9577SOL    HW129630   0.521   5.955   3.611
 9577SOL    HW229631   0.579   5.812   3.556
 9578SOL     OW29632   6.562   4.140   1.664
 9578SOL    HW129633   6.489   4.151   1.732
 9578SOL    HW229634   6.605   4.228   1.646
 9579SOL     OW29635   1.525   4.787   2.526
 9579SOL    HW129636   1.492   4.780   2.432
 9579SOL    HW229637   1.603   4.850   2.530
 9580SOL     OW29638   3.896   3.878   4.964
 9580SOL    HW129639   3.963   3.825   5.014
 9580SOL    HW229640   3.851   3.821   4.895
 9581SOL     OW29641   0.289   0.031   6.624
 9581SOL    HW129642   0.276   7.009   6.713
 9581SOL    HW229643   0.245   0.121   6.626
 9582SOL     OW29644   4.512   5.330   2.727
 9582SOL    HW129645   4.583   5.326   2.797
 9582SOL    HW229646   4.433   5.276   2.757
 9583SOL     OW29647   1.394   5.090   2.814
 9583SOL    HW129648   1.371   4.994   2.796
 9583SOL    HW229649   1.314   5.147   2.794
 9584SOL     OW29650   5.167   4.772   0.293
 9584SOL    HW129651   5.253   4.780   0.343
 9584SOL    HW229652   5.100   4.725   0.350
 9585SOL     OW29653   5.763   1.459   2.368
 9585SOL    HW129654   5.851   1.477   2.323
 9585SOL    HW229655   5.721   1.378   2.328
 9586SOL     OW29656   3.971   5.001   2.507
 9586SOL    HW129657   4.008   5.056   2.432
 9586SOL    HW229658   4.042   4.988   2.577
 9587SOL     OW29659   3.896   6.494   1.708
 9587SOL    HW129660   3.956   6.477   1.629
 9587SOL    HW229661   3.929   6.572   1.759
 9588SOL     OW29662   5.753   1.189   3.471
 9588SOL    HW129663   5.687   1.262   3.455
 9588SOL    HW229664   5.746   1.158   3.566
 9589SOL     OW29665   4.316   1.910   4.842
 9589SOL    HW129666   4.306   1.995   4.895
 9589SOL    HW229667   4.244   1.906   4.773
 9590SOL     OW29668   6.778   4.922   5.347
 9590SOL    HW129669   6.856   4.984   5.352
 9590SOL    HW229670   6.809   4.831   5.319
 9591SOL     OW29671   0.121   4.320   2.161
 9591SOL    HW129672   0.119   4.251   2.089
 9591SOL    HW229673   0.030   4.328   2.201
 9592SOL     OW29674   3.828   5.324   1.102
 9592SOL    HW129675   3.756   5.365   1.158
 9592SOL    HW229676   3.864   5.243   1.148
 9593SOL     OW29677   2.200   2.918   3.619
 9593SOL    HW129678   2.240   2.999   3.575
 9593SOL    HW229679   2.186   2.847   3.550
 9594SOL     OW29680   5.847   0.400   0.306
 9594SOL    HW129681   5.901   0.422   0.387
 9594SOL    HW229682   5.904   0.350   0.240
 9595SOL     OW29683   1.995   4.497   5.242
 9595SOL    HW129684   2.062   4.441   5.292
 9595SOL    HW229685   2.042   4.554   5.175
 9596SOL     OW29686   5.395   4.521   2.466
 9596SOL    HW129687   5.419   4.439   2.519
 9596SOL    HW229688   5.477   4.578   2.455
 9597SOL     OW29689   1.568   3.983   2.046
 9597SOL    HW129690   1.666   3.990   2.061
 9597SOL    HW229691   1.551   3.940   1.957
 9598SOL     OW29692   0.693   6.317   5.122
 9598SOL    HW129693   0.702   6.218   5.126
 9598SOL    HW229694   0.599   6.344   5.144
 9599SOL     OW29695   4.169   2.228   5.595
 9599SOL    HW129696   4.095   2.160   5.593
 9599SOL    HW229697   4.245   2.193   5.650
 9600SOL     OW29698   1.744   5.187   6.763
 9600SOL    HW129699   1.808   5.247   6.811
 9600SOL    HW229700   1.739   5.098   6.810
 9601SOL     OW29701   1.002   0.217   5.342
 9601SOL    HW129702   1.029   0.133   5.294
 9601SOL    HW229703   0.975   0.195   5.435
 9602SOL     OW29704   0.915   5.604   6.008
 9602SOL    HW129705   0.973   5.682   5.988
 9602SOL    HW229706   0.822   5.636   6.027
 9603SOL     OW29707   1.057   5.101   1.828
 9603SOL    HW129708   1.060   5.025   1.763
 9603SOL    HW229709   0.974   5.154   1.813
 9604SOL     OW29710   6.126   0.326   5.888
 9604SOL    HW129711   6.111   0.414   5.933
 9604SOL    HW229712   6.197   0.335   5.818
 9605SOL     OW29713   3.434   5.096   0.239
 9605SOL    HW129714   3.477   5.183   0.265
 9605SOL    HW229715   3.341   5.113   0.209
 9606SOL     OW29716   7.008   1.638   4.778
 9606SOL    HW129717   7.005   1.710   4.709
 9606SOL    HW229718   6.939   1.568   4.756
 9607SOL     OW29719   6.516   3.600   3.696
 9607SOL    HW129720   6.500   3.538   3.772
 9607SOL    HW229721   6.615   3.610   3.681
 9608SOL     OW29722   6.147   0.760   1.300
 9608SOL    HW129723   6.146   0.729   1.204
 9608SOL    HW229724   6.177   0.855   1.304
 9609SOL     OW29725   1.161   1.962   3.487
 9609SOL    HW129726   1.083   2.008   3.530
 9609SOL    HW229727   1.193   2.016   3.409
 9610SOL     OW29728   5.309   1.500   6.040
 9610SOL    HW129729   5.233   1.435   6.040
 9610SOL    HW229730   5.393   1.453   6.011
 9611SOL     OW29731   5.227   5.324   1.715
 9611SOL    HW129732   5.279   5.246   1.679
 9611SOL    HW229733   5.205   5.308   1.811
 9612SOL     OW29734   4.692   4.203   3.595
 9612SOL    HW129735   4.705   4.292   3.638
 9612SOL    HW229736   4.742   4.133   3.646
 9613SOL     OW29737   4.256   1.444   4.752
 9613SOL    HW129738   4.311   1.527   4.759
 9613SOL    HW229739   4.305   1.368   4.795
 9614SOL     OW29740   3.621   2.617   6.871
 9614SOL    HW129741   3.541   2.676   6.861
 9614SOL    HW229742   3.630   2.559   6.790
 9615SOL     OW29743   6.334   6.337   3.295
 9615SOL    HW129744   6.334   6.271   3.370
 9615SOL    HW229745   6.243   6.378   3.286
 9616SOL     OW29746   0.015   1.954   0.481
 9616SOL    HW129747   7.022   1.855   0.480
 9616SOL    HW229748   0.103   1.973   0.524
 9617SOL     OW29749   1.478   3.461   3.642
 9617SOL    HW129750   1.493   3.422   3.734
 9617SOL    HW229751   1.380   3.476   3.628
 9618SOL     OW29752   5.368   4.141   1.641
 9618SOL    HW129753   5.452   4.093   1.616
 9618SOL    HW229754   5.334   4.193   1.563
 9619SOL     OW29755   1.681   1.374   0.894
 9619SOL    HW129756   1.753   1.415   0.838
 9619SOL    HW229757   1.666   1.430   0.976
 9620SOL     OW29758   3.317   1.043   6.379
 9620SOL    HW129759   3.350   1.136   6.365
 9620SOL    HW229760   3.222   1.045   6.410
 9621SOL     OW29761   0.045   0.046   0.431
 9621SOL    HW129762   0.031   6.973   0.409
 9621SOL    HW229763   6.982   0.087   0.462
 9622SOL     OW29764   6.677   0.390   4.938
 9622SOL    HW129765   6.739   0.466   4.960
 9622SOL    HW229766   6.654   0.394   4.840
 9623SOL     OW29767   2.347   5.588   6.193
 9623SOL    HW129768   2.419   5.526   6.224
 9623SOL    HW229769   2.258   5.553   6.222
 9624SOL     OW29770   4.535   5.222   6.775
 9624SOL    HW129771   4.621   5.188   6.814
 9624SOL    HW229772   4.546   5.318   6.751
 9625SOL     OW29773   5.165   3.690   5.918
 9625SOL    HW129774   5.173   3.651   5.826
 9625SOL    HW229775   5.074   3.730   5.929
 9626SOL     OW29776   2.712   2.798   0.265
 9626SOL    HW129777   2.767   2.787   0.348
 9626SOL    HW229778   2.623   2.753   0.278
 9627SOL     OW29779   6.952   5.277   0.372
 9627SOL    HW129780   6.867   5.225   0.364
 9627SOL    HW229781   7.012   5.232   0.438
 9628SOL     OW29782   6.032   1.797   5.576
 9628SOL    HW129783   5.939   1.763   5.563
 9628SOL    HW229784   6.038   1.891   5.542
 9629SOL     OW29785   0.681   5.864   3.984
 9629SOL    HW129786   0.651   5.949   3.941
 9629SOL    HW229787   0.776   5.845   3.957
 9630SOL     OW29788   6.241   0.494   5.464
 9630SOL    HW129789   6.144   0.513   5.452
 9630SOL    HW229790   6.283   0.567   5.518
 9631SOL     OW29791   4.431   5.924   0.269
 9631SOL    HW129792   4.420   5.837   0.317
 9631SOL    HW229793   4.390   5.998   0.322
 9632SOL     OW29794   2.430   5.722   3.100
 9632SOL    HW129795   2.414   5.798   3.037
 9632SOL    HW229796   2.499   5.661   3.061
 9633SOL     OW29797   2.165   3.053   6.051
 9633SOL    HW129798   2.106   3.130   6.025
 9633SOL    HW229799   2.142   2.973   5.995
 9634SOL     OW29800   5.730   4.687   3.336
 9634SOL    HW129801   5.787   4.605   3.336
 9634SOL    HW229802   5.646   4.668   3.285
 9635SOL     OW29803   0.994   5.409   3.925
 9635SOL    HW129804   0.965   5.332   3.982
 9635SOL    HW229805   1.086   5.392   3.890
 9636SOL     OW29806   4.960   3.695   3.567
 9636SOL    HW129807   4.917   3.784   3.583
 9636SOL    HW229808   4.946   3.636   3.647
 9637SOL     OW29809   3.398   2.583   6.281
 9637SOL    HW129810   3.405   2.484   6.266
 9637SOL    HW229811   3.335   2.601   6.358
 9638SOL     OW29812   1.375   3.981   6.384
 9638SOL    HW129813   1.460   4.029   6.405
 9638SOL    HW229814   1.396   3.897   6.333
 9639SOL     OW29815   5.634   2.916   1.074
 9639SOL    HW129816   5.624   2.818   1.090
 9639SOL    HW229817   5.552   2.964   1.105
 9640SOL     OW29818   2.669   5.981   3.445
 9640SOL    HW129819   2.577   5.956   3.414
 9640SOL    HW229820   2.737   5.935   3.388
 9641SOL     OW29821   0.703   2.783   4.248
 9641SOL    HW129822   0.642   2.704   4.260
 9641SOL    HW229823   0.651   2.859   4.209
 9642SOL     OW29824   0.844   2.850   4.461
 9642SOL    HW129825   0.879   2.944   4.467
 9642SOL    HW229826   0.777   2.844   4.388
 9643SOL     OW29827   6.495   5.468   4.594
 9643SOL    HW129828   6.497   5.567   4.578
 9643SOL    HW229829   6.450   5.422   4.518
 9644SOL     OW29830   1.145   4.918   3.713
 9644SOL    HW129831   1.086   4.845   3.749
 9644SOL    HW229832   1.088   4.986   3.665
 9645SOL     OW29833   0.233   4.772   0.695
 9645SOL    HW129834   0.276   4.801   0.780
 9645SOL    HW229835   0.274   4.822   0.618
 9646SOL     OW29836   2.275   4.897   0.830
 9646SOL    HW129837   2.310   4.870   0.741
 9646SOL    HW229838   2.286   4.996   0.842
 9647SOL     OW29839   4.980   0.066   2.584
 9647SOL    HW129840   4.972   0.164   2.598
 9647SOL    HW229841   5.001   0.047   2.488
 9648SOL     OW29842   4.058   1.799   0.909
 9648SOL    HW129843   4.024   1.851   0.831
 9648SOL    HW229844   4.140   1.843   0.945
 9649SOL     OW29845   0.152   5.363   0.203
 9649SOL    HW129846   0.183   5.277   0.163
 9649SOL    HW229847   0.084   5.345   0.274
 9650SOL     OW29848   0.026   5.113   5.381
 9650SOL    HW129849   0.005   5.030   5.434
 9650SOL    HW229850   0.119   5.108   5.346
 9651SOL     OW29851   3.993   0.806   0.859
 9651SOL    HW129852   3.984   0.877   0.928
 9651SOL    HW229853   3.902   0.776   0.831
 9652SOL     OW29854   0.539   3.961   6.922
 9652SOL    HW129855   0.560   3.897   6.848
 9652SOL    HW229856   0.454   4.008   6.902
 9653SOL     OW29857   5.866   3.514   5.192
 9653SOL    HW129858   5.893   3.439   5.132
 9653SOL    HW229859   5.767   3.512   5.205
 9654SOL     OW29860   3.754   3.430   4.455
 9654SOL    HW129861   3.721   3.510   4.405
 9654SOL    HW229862   3.817   3.459   4.527
 9655SOL     OW29863   4.789   0.680   0.304
 9655SOL    HW129864   4.794   0.771   0.345
 9655SOL    HW229865   4.748   0.616   0.368
 9656SOL     OW29866   5.260   4.955   4.812
 9656SOL    HW129867   5.360   4.952   4.810
 9656SOL    HW229868   5.227   5.015   4.740
 9657SOL     OW29869   4.927   4.618   2.607
 9657SOL    HW129870   4.889   4.544   2.662
 9657SOL    HW229871   4.993   4.581   2.542
 9658SOL     OW29872   4.966   1.307   3.009
 9658SOL    HW129873   4.866   1.309   3.015
 9658SOL    HW229874   4.995   1.228   2.955
 9659SOL     OW29875   4.421   3.070   0.535
 9659SOL    HW129876   4.502   3.013   0.520
 9659SOL    HW229877   4.341   3.012   0.549
 9660SOL     OW29878   2.532   0.442   1.628
 9660SOL    HW129879   2.609   0.445   1.564
 9660SOL    HW229880   2.500   0.348   1.637
 9661SOL     OW29881   3.522   3.647   2.380
 9661SOL    HW129882   3.503   3.583   2.454
 9661SOL    HW229883   3.617   3.676   2.384
 9662SOL     OW29884   3.958   0.665   4.696
 9662SOL    HW129885   3.923   0.699   4.784
 9662SOL    HW229886   3.927   0.570   4.683
 9663SOL     OW29887   1.269   5.905   2.007
 9663SOL    HW129888   1.173   5.882   2.024
 9663SOL    HW229889   1.326   5.865   2.079
 9664SOL     OW29890   1.440   4.816   2.267
 9664SOL    HW129891   1.383   4.772   2.198
 9664SOL    HW229892   1.535   4.815   2.237
 9665SOL     OW29893   6.092   3.694   7.010
 9665SOL    HW129894   6.021   3.765   7.009
 9665SOL    HW229895   6.066   3.621   6.947
 9666SOL     OW29896   5.177   4.172   1.269
 9666SOL    HW129897   5.077   4.178   1.267
 9666SOL    HW229898   5.211   4.210   1.355
 9667SOL     OW29899   5.867   6.214   0.118
 9667SOL    HW129900   5.902   6.121   0.111
 9667SOL    HW229901   5.873   6.245   0.213
 9668SOL     OW29902   2.262   0.703   0.597
 9668SOL    HW129903   2.184   0.687   0.536
 9668SOL    HW229904   2.230   0.741   0.683
 9669SOL     OW29905   3.484   0.095   0.571
 9669SOL    HW129906   3.574   0.068   0.604
 9669SOL    HW229907   3.492   0.174   0.510
 9670SOL     OW29908   0.646   0.228   2.709
 9670SOL    HW129909   0.593   0.257   2.788
 9670SOL    HW229910   0.587   0.178   2.645
 9671SOL     OW29911   1.215   5.434   6.678
 9671SOL    HW129912   1.246   5.506   6.740
 9671SOL    HW229913   1.295   5.382   6.645
 9672SOL     OW29914   0.520   4.201   4.536
 9672SOL    HW129915   0.524   4.288   4.486
 9672SOL    HW229916   0.553   4.127   4.477
 9673SOL     OW29917   2.010   2.728   5.336
 9673SOL    HW129918   1.995   2.660   5.408
 9673SOL    HW229919   1.988   2.687   5.247
 9674SOL     OW29920   2.033   0.737   3.568
 9674SOL    HW129921   2.053   0.641   3.586
 9674SOL    HW229922   2.040   0.754   3.469
 9675SOL     OW29923   6.883   3.857   6.126
 9675SOL    HW129924   6.978   3.831   6.111
 9675SOL    HW229925   6.879   3.940   6.181
 9676SOL     OW29926   0.770   2.829   6.024
 9676SOL    HW129927   0.793   2.874   6.111
 9676SOL    HW229928   0.791   2.891   5.949
 9677SOL     OW29929   0.585   4.938   3.403
 9677SOL    HW129930   0.648   4.964   3.330
 9677SOL    HW229931   0.628   4.868   3.460
 9678SOL     OW29932   4.835   2.897   6.788
 9678SOL    HW129933   4.770   2.913   6.862
 9678SOL    HW229934   4.902   2.829   6.817
 9679SOL     OW29935   1.860   1.116   4.528
 9679SOL    HW129936   1.866   1.144   4.432
 9679SOL    HW229937   1.921   1.173   4.583
 9680SOL     OW29938   4.267   6.494   2.887
 9680SOL    HW129939   4.192   6.450   2.838
 9680SOL    HW229940   4.333   6.424   2.917
 9681SOL     OW29941   0.863   2.745   0.970
 9681SOL    HW129942   0.817   2.669   0.924
 9681SOL    HW229943   0.834   2.749   1.066
 9682SOL     OW29944   3.878   6.815   5.101
 9682SOL    HW129945   3.946   6.802   5.028
 9682SOL    HW229946   3.892   6.746   5.172
 9683SOL     OW29947   2.962   5.970   3.775
 9683SOL    HW129948   2.982   5.873   3.765
 9683SOL    HW229949   2.863   5.985   3.767
 9684SOL     OW29950   1.523   2.618   6.179
 9684SOL    HW129951   1.531   2.534   6.233
 9684SOL    HW229952   1.610   2.668   6.182
 9685SOL     OW29953   3.874   4.836   1.844
 9685SOL    HW129954   3.950   4.781   1.810
 9685SOL    HW229955   3.788   4.795   1.814
 9686SOL     OW29956   1.237   2.205   5.923
 9686SOL    HW129957   1.185   2.249   5.997
 9686SOL    HW229958   1.316   2.158   5.962
 9687SOL     OW29959   5.635   0.333   3.804
 9687SOL    HW129960   5.671   0.240   3.811
 9687SOL    HW229961   5.611   0.352   3.709
 9688SOL     OW29962   0.851   5.215   2.268
 9688SOL    HW129963   0.863   5.173   2.358
 9688SOL    HW229964   0.864   5.147   2.196
 9689SOL     OW29965   1.806   5.719   0.860
 9689SOL    HW129966   1.748   5.640   0.837
 9689SOL    HW229967   1.810   5.729   0.959
 9690SOL     OW29968   6.152   4.522   3.570
 9690SOL    HW129969   6.223   4.467   3.524
 9690SOL    HW229970   6.196   4.584   3.635
 9691SOL     OW29971   4.008   3.722   2.099
 9691SOL    HW129972   4.058   3.804   2.072
 9691SOL    HW229973   4.019   3.652   2.029
 9692SOL     OW29974   6.550   5.330   0.329
 9692SOL    HW129975   6.484   5.389   0.283
 9692SOL    HW229976   6.503   5.248   0.362
 9693SOL     OW29977   4.217   3.951   6.949
 9693SOL    HW129978   4.237   4.048   6.957
 9693SOL    HW229979   4.126   3.932   6.984
 9694SOL     OW29980   2.382   6.209   1.067
 9694SOL    HW129981   2.293   6.224   1.024
 9694SOL    HW229982   2.420   6.297   1.096
 9695SOL     OW29983   1.497   2.763   3.460
 9695SOL    HW129984   1.471   2.765   3.556
 9695SOL    HW229985   1.482   2.853   3.419
 9696SOL     OW29986   4.600   4.468   3.349
 9696SOL    HW129987   4.626   4.389   3.403
 9696SOL    HW229988   4.560   4.438   3.262
 9697SOL     OW29989   6.963   6.886   3.091
 9697SOL    HW129990   6.882   6.832   3.066
 9697SOL    HW229991   6.997   6.856   3.180
 9698SOL     OW29992   0.777   2.661   1.209
 9698SOL    HW129993   0.736   2.713   1.284
 9698SOL    HW229994   0.834   2.588   1.247
 9699SOL     OW29995   1.769   0.379   2.337
 9699SOL    HW129996   1.766   0.282   2.315
 9699SOL    HW229997   1.738   0.393   2.431
 9700SOL     OW29998   6.339   0.652   5.923
 9700SOL    HW129999   6.292   0.634   5.837
 9700SOL    HW230000   6.272   0.675   5.994
 9701SOL     OW30001   5.693   3.797   6.570
 9701SOL    HW130002   5.758   3.870   6.550
 9701SOL    HW230003   5.702   3.771   6.666
 9702SOL     OW30004   2.856   3.515   1.905
 9702SOL    HW130005   2.791   3.469   1.845
 9702SOL    HW230006   2.886   3.600   1.863
 9703SOL     OW30007   6.140   4.653   3.342
 9703SOL    HW130008   6.125   4.751   3.352
 9703SOL    HW230009   6.151   4.611   3.432
 9704SOL     OW30010   0.484   5.045   2.122
 9704SOL    HW130011   0.442   5.120   2.071
 9704SOL    HW230012   0.480   5.065   2.220
 9705SOL     OW30013   0.178   4.197   5.294
 9705SOL    HW130014   0.081   4.176   5.277
 9705SOL    HW230015   0.198   4.185   5.391
 9706SOL     OW30016   0.241   6.942   2.411
 9706SOL    HW130017   0.248   0.018   2.424
 9706SOL    HW230018   0.144   6.916   2.415
 9707SOL     OW30019   1.026   4.245   1.481
 9707SOL    HW130020   1.033   4.339   1.447
 9707SOL    HW230021   0.974   4.245   1.566
 9708SOL     OW30022   2.952   0.714   1.907
 9708SOL    HW130023   3.038   0.757   1.881
 9708SOL    HW230024   2.877   0.754   1.855
 9709SOL     OW30025   3.390   1.797   2.224
 9709SOL    HW130026   3.317   1.824   2.286
 9709SOL    HW230027   3.456   1.872   2.215
 9710SOL     OW30028   5.134   4.725   4.338
 9710SOL    HW130029   5.194   4.716   4.418
 9710SOL    HW230030   5.183   4.771   4.264
 9711SOL     OW30031   3.180   0.417   6.590
 9711SOL    HW130032   3.215   0.454   6.676
 9711SOL    HW230033   3.128   0.487   6.542
 9712SOL     OW30034   4.685   6.488   5.465
 9712SOL    HW130035   4.641   6.578   5.466
 9712SOL    HW230036   4.677   6.448   5.374
 9713SOL     OW30037   0.653   0.855   2.949
 9713SOL    HW130038   0.733   0.817   2.994
 9713SOL    HW230039   0.607   0.784   2.895
 9714SOL     OW30040   2.338   2.680   3.641
 9714SOL    HW130041   2.260   2.620   3.660
 9714SOL    HW230042   2.330   2.763   3.697
 9715SOL     OW30043   0.824   1.766   6.189
 9715SOL    HW130044   0.800   1.688   6.247
 9715SOL    HW230045   0.741   1.804   6.149
 9716SOL     OW30046   1.347   6.190   1.130
 9716SOL    HW130047   1.317   6.218   1.039
 9716SOL    HW230048   1.267   6.167   1.186
 9717SOL     OW30049   4.392   1.901   6.170
 9717SOL    HW130050   4.336   1.828   6.210
 9717SOL    HW230051   4.382   1.984   6.224
 9718SOL     OW30052   2.848   2.862   6.710
 9718SOL    HW130053   2.786   2.857   6.789
 9718SOL    HW230054   2.827   2.943   6.656
 9719SOL     OW30055   5.045   0.289   6.081
 9719SOL    HW130056   5.109   0.310   6.155
 9719SOL    HW230057   5.000   0.202   6.099
 9720SOL     OW30058   2.147   2.275   2.239
 9720SOL    HW130059   2.216   2.331   2.285
 9720SOL    HW230060   2.191   2.222   2.167
 9721SOL     OW30061   0.066   1.645   1.246
 9721SOL    HW130062   0.051   1.577   1.174
 9721SOL    HW230063   0.160   1.639   1.279
 9722SOL     OW30064   3.421   2.770   5.753
 9722SOL    HW130065   3.425   2.716   5.669
 9722SOL    HW230066   3.428   2.709   5.832
 9723SOL     OW30067   5.808   1.267   4.391
 9723SOL    HW130068   5.813   1.338   4.321
 9723SOL    HW230069   5.779   1.181   4.350
 9724SOL     OW30070   1.471   5.341   1.491
 9724SOL    HW130071   1.371   5.337   1.500
 9724SOL    HW230072   1.513   5.311   1.577
 9725SOL     OW30073   5.790   5.532   4.940
 9725SOL    HW130074   5.724   5.538   4.865
 9725SOL    HW230075   5.751   5.573   5.022
 9726SOL     OW30076   6.714   0.070   2.671
 9726SOL    HW130077   6.806   0.100   2.648
 9726SOL    HW230078   6.680   0.121   2.750
 9727SOL     OW30079   6.766   3.338   0.816
 9727SOL    HW130080   6.802   3.429   0.835
 9727SOL    HW230081   6.666   3.340   0.819
 9728SOL     OW30082   5.323   2.544   5.224
 9728SOL    HW130083   5.312   2.643   5.216
 9728SOL    HW230084   5.270   2.499   5.153
 9729SOL     OW30085   6.865   3.396   2.748
 9729SOL    HW130086   6.857   3.486   2.705
 9729SOL    HW230087   6.788   3.381   2.810
 9730SOL     OW30088   0.143   6.911   3.466
 9730SOL    HW130089   0.151   6.836   3.531
 9730SOL    HW230090   0.049   6.945   3.466
 9731SOL     OW30091   6.411   0.821   1.370
 9731SOL    HW130092   6.333   0.772   1.332
 9731SOL    HW230093   6.495   0.771   1.348
 9732SOL     OW30094   6.758   2.664   2.750
 9732SOL    HW130095   6.844   2.715   2.758
 9732SOL    HW230096   6.775   2.568   2.768
 9733SOL     OW30097   4.966   6.083   0.743
 9733SOL    HW130098   4.903   6.061   0.668
 9733SOL    HW230099   5.027   6.157   0.714
 9734SOL     OW30100   4.025   3.858   0.154
 9734SOL    HW130101   3.964   3.781   0.173
 9734SOL    HW230102   4.114   3.842   0.197
 9735SOL     OW30103   0.862   2.587   0.341
 9735SOL    HW130104   0.878   2.670   0.394
 9735SOL    HW230105   0.766   2.582   0.315
 9736SOL     OW30106   6.141   2.640   5.831
 9736SOL    HW130107   6.111   2.699   5.906
 9736SOL    HW230108   6.208   2.689   5.775
 9737SOL     OW30109   5.238   3.810   5.277
 9737SOL    HW130110   5.233   3.805   5.178
 9737SOL    HW230111   5.154   3.851   5.313
 9738SOL     OW30112   2.658   6.002   1.429
 9738SOL    HW130113   2.749   6.005   1.472
 9738SOL    HW230114   2.666   6.024   1.332
 9739SOL     OW30115   5.523   6.004   1.304
 9739SOL    HW130116   5.568   6.058   1.233
 9739SOL    HW230117   5.461   6.063   1.356
 9740SOL     OW30118   6.826   0.053   0.997
 9740SOL    HW130119   6.895   0.071   1.068
 9740SOL    HW230120   6.862   0.082   0.908
 9741SOL     OW30121   2.269   2.629   2.991
 9741SOL    HW130122   2.223   2.559   2.937
 9741SOL    HW230123   2.362   2.598   3.013
 9742SOL     OW30124   5.084   6.743   6.650
 9742SOL    HW130125   5.174   6.784   6.633
 9742SOL    HW230126   5.041   6.720   6.563
 9743SOL     OW30127   5.956   4.042   4.301
 9743SOL    HW130128   5.864   4.023   4.336
 9743SOL    HW230129   6.014   3.962   4.314
 9744SOL     OW30130   1.715   2.980   2.260
 9744SOL    HW130131   1.719   2.882   2.279
 9744SOL    HW230132   1.687   3.029   2.342
 9745SOL     OW30133   1.515   0.145   5.847
 9745SOL    HW130134   1.559   0.058   5.823
 9745SOL    HW230135   1.463   0.178   5.768
 9746SOL     OW30136   4.000   5.619   5.808
 9746SOL    HW130137   4.000   5.525   5.774
 9746SOL    HW230138   4.066   5.673   5.756
 9747SOL     OW30139   4.591   1.505   3.553
 9747SOL    HW130140   4.654   1.582   3.560
 9747SOL    HW230141   4.500   1.534   3.581
 9748SOL     OW30142   0.422   1.549   1.828
 9748SOL    HW130143   0.350   1.514   1.769
 9748SOL    HW230144   0.444   1.643   1.802
 9749SOL     OW30145   6.521   6.828   1.558
 9749SOL    HW130146   6.620   6.829   1.545
 9749SOL    HW230147   6.494   6.737   1.591
 9750SOL     OW30148   5.101   3.123   4.738
 9750SOL    HW130149   5.012   3.080   4.751
 9750SOL    HW230150   5.103   3.171   4.650
 9751SOL     OW30151   2.870   5.041   0.710
 9751SOL    HW130152   2.822   4.956   0.687
 9751SOL    HW230153   2.914   5.078   0.627
 9752SOL     OW30154   4.607   4.308   0.986
 9752SOL    HW130155   4.597   4.386   1.048
 9752SOL    HW230156   4.660   4.236   1.030
 9753SOL     OW30157   5.719   6.308   2.872
 9753SOL    HW130158   5.712   6.219   2.828
 9753SOL    HW230159   5.803   6.313   2.925
 9754SOL     OW30160   3.481   1.101   2.146
 9754SOL    HW130161   3.413   1.072   2.213
 9754SOL    HW230162   3.525   1.021   2.105
 9755SOL     OW30163   3.904   4.280   1.333
 9755SOL    HW130164   3.876   4.344   1.262
 9755SOL    HW230165   3.843   4.289   1.411
 9756SOL     OW30166   4.909   0.507   6.882
 9756SOL    HW130167   4.945   0.600   6.878
 9756SOL    HW230168   4.960   0.449   6.818
 9757SOL     OW30169   5.350   4.224   3.794
 9757SOL    HW130170   5.424   4.280   3.758
 9757SOL    HW230171   5.275   4.282   3.823
 9758SOL     OW30172   3.076   0.736   0.528
 9758SOL    HW130173   3.089   0.821   0.579
 9758SOL    HW230174   2.978   0.722   0.511
 9759SOL     OW30175   6.303   1.060   0.458
 9759SOL    HW130176   6.232   1.128   0.441
 9759SOL    HW230177   6.260   0.974   0.487
 9760SOL     OW30178   4.693   0.601   5.755
 9760SOL    HW130179   4.768   0.666   5.768
 9760SOL    HW230180   4.698   0.531   5.827
 9761SOL     OW30181   0.674   2.233   1.547
 9761SOL    HW130182   0.639   2.233   1.453
 9761SOL    HW230183   0.770   2.205   1.546
 9762SOL     OW30184   3.882   1.558   5.395
 9762SOL    HW130185   3.904   1.624   5.323
 9762SOL    HW230186   3.937   1.578   5.476
 9763SOL     OW30187   6.364   1.946   0.667
 9763SOL    HW130188   6.343   1.923   0.762
 9763SOL    HW230189   6.378   2.044   0.659
 9764SOL     OW30190   6.880   2.602   3.204
 9764SOL    HW130191   6.942   2.629   3.131
 9764SOL    HW230192   6.786   2.600   3.169
 9765SOL     OW30193   0.121   2.009   0.922
 9765SOL    HW130194   0.213   2.047   0.929
 9765SOL    HW230195   0.091   1.977   1.011
 9766SOL     OW30196   0.871   3.243   2.831
 9766SOL    HW130197   0.949   3.266   2.773
 9766SOL    HW230198   0.834   3.326   2.872
 9767SOL     OW30199   3.926   1.515   4.814
 9767SOL    HW130200   3.918   1.600   4.761
 9767SOL    HW230201   3.835   1.476   4.828
 9768SOL     OW30202   4.318   3.525   6.754
 9768SOL    HW130203   4.270   3.519   6.667
 9768SOL    HW230204   4.400   3.468   6.751
 9769SOL     OW30205   2.930   0.638   5.910
 9769SOL    HW130206   2.985   0.556   5.917
 9769SOL    HW230207   2.945   0.696   5.990
 9770SOL     OW30208   1.801   3.445   4.758
 9770SOL    HW130209   1.769   3.363   4.806
 9770SOL    HW230210   1.736   3.519   4.773
 9771SOL     OW30211   3.724   0.136   1.403
 9771SOL    HW130212   3.745   0.168   1.310
 9771SOL    HW230213   3.794   0.169   1.466
 9772SOL     OW30214   0.262   0.518   1.687
 9772SOL    HW130215   0.288   0.596   1.744
 9772SOL    HW230216   0.273   0.542   1.590
 9773SOL     OW30217   4.023   6.313   2.740
 9773SOL    HW130218   3.957   6.388   2.736
 9773SOL    HW230219   3.976   6.227   2.758
 9774SOL     OW30220   1.250   5.000   5.391
 9774SOL    HW130221   1.228   5.000   5.293
 9774SOL    HW230222   1.324   4.935   5.408
 9775SOL     OW30223   1.302   1.433   3.483
 9775SOL    HW130224   1.398   1.421   3.459
 9775SOL    HW230225   1.283   1.531   3.494
 9776SOL     OW30226   0.707   5.675   1.646
 9776SOL    HW130227   0.622   5.724   1.666
 9776SOL    HW230228   0.688   5.578   1.635
 9777SOL     OW30229   5.249   2.802   5.122
 9777SOL    HW130230   5.236   2.850   5.209
 9777SOL    HW230231   5.301   2.859   5.059
 9778SOL     OW30232   1.844   2.983   2.874
 9778SOL    HW130233   1.943   2.984   2.858
 9778SOL    HW230234   1.822   2.917   2.946
 9779SOL     OW30235   1.969   0.887   2.731
 9779SOL    HW130236   1.939   0.876   2.826
 9779SOL    HW230237   2.069   0.884   2.728
 9780SOL     OW30238   1.684   1.971   1.219
 9780SOL    HW130239   1.616   2.045   1.217
 9780SOL    HW230240   1.673   1.918   1.303
 9781SOL     OW30241   1.233   1.076   2.328
 9781SOL    HW130242   1.281   0.988   2.332
 9781SOL    HW230243   1.193   1.087   2.237
 9782SOL     OW30244   0.601   2.637   6.960
 9782SOL    HW130245   0.514   2.605   6.998
 9782SOL    HW230246   0.583   2.693   6.879
 9783SOL     OW30247   5.415   1.356   2.181
 9783SOL    HW130248   5.507   1.318   2.173
 9783SOL    HW230249   5.394   1.371   2.277
 9784SOL     OW30250   2.399   1.179   0.316
 9784SOL    HW130251   2.340   1.099   0.319
 9784SOL    HW230252   2.415   1.212   0.409
 9785SOL     OW30253   1.884   3.802   4.303
 9785SOL    HW130254   1.937   3.763   4.227
 9785SOL    HW230255   1.935   3.878   4.343
 9786SOL     OW30256   3.047   4.362   0.170
 9786SOL    HW130257   3.013   4.319   0.086
 9786SOL    HW230258   2.971   4.402   0.220
 9787SOL     OW30259   2.900   3.507   1.064
 9787SOL    HW130260   2.958   3.566   1.120
 9787SOL    HW230261   2.813   3.553   1.045
 9788SOL     OW30262   3.000   0.160   3.845
 9788SOL    HW130263   2.924   0.096   3.838
 9788SOL    HW230264   2.989   0.232   3.776
 9789SOL     OW30265   4.401   1.399   0.277
 9789SOL    HW130266   4.337   1.469   0.310
 9789SOL    HW230267   4.479   1.393   0.340
 9790SOL     OW30268   4.463   5.700   5.289
 9790SOL    HW130269   4.524   5.766   5.333
 9790SOL    HW230270   4.517   5.637   5.233
 9791SOL     OW30271   0.279   0.762   0.738
 9791SOL    HW130272   0.211   0.724   0.675
 9791SOL    HW230273   0.297   0.858   0.714
 9792SOL     OW30274   3.120   3.485   0.087
 9792SOL    HW130275   3.132   3.396   0.129
 9792SOL    HW230276   3.024   3.496   0.058
 9793SOL     OW30277   5.488   0.699   1.914
 9793SOL    HW130278   5.512   0.686   2.010
 9793SOL    HW230279   5.447   0.790   1.902
 9794SOL     OW30280   3.888   5.795   5.500
 9794SOL    HW130281   3.985   5.819   5.491
 9794SOL    HW230282   3.843   5.862   5.559
 9795SOL     OW30283   2.004   4.173   3.351
 9795SOL    HW130284   2.029   4.150   3.445
 9795SOL    HW230285   2.074   4.232   3.312
 9796SOL     OW30286   3.917   3.382   5.035
 9796SOL    HW130287   3.944   3.413   5.127
 9796SOL    HW230288   3.970   3.434   4.967
 9797SOL     OW30289   4.024   5.137   0.395
 9797SOL    HW130290   3.925   5.143   0.407
 9797SOL    HW230291   4.064   5.087   0.472
 9798SOL     OW30292   0.822   4.248   5.799
 9798SOL    HW130293   0.918   4.230   5.822
 9798SOL    HW230294   0.781   4.306   5.869
 9799SOL     OW30295   3.433   0.184   6.138
 9799SOL    HW130296   3.374   0.121   6.088
 9799SOL    HW230297   3.504   0.219   6.077
 9800SOL     OW30298   0.224   4.736   4.498
 9800SOL    HW130299   0.247   4.652   4.548
 9800SOL    HW230300   0.290   4.750   4.424
 9801SOL     OW30301   4.002   6.547   0.998
 9801SOL    HW130302   3.977   6.616   1.065
 9801SOL    HW230303   3.933   6.474   0.998
 9802SOL     OW30304   3.894   2.133   0.522
 9802SOL    HW130305   3.953   2.183   0.586
 9802SOL    HW230306   3.918   2.159   0.428
 9803SOL     OW30307   2.470   3.638   0.194
 9803SOL    HW130308   2.556   3.681   0.221
 9803SOL    HW230309   2.462   3.548   0.238
 9804SOL     OW30310   1.052   3.639   3.203
 9804SOL    HW130311   1.127   3.648   3.269
 9804SOL    HW230312   0.965   3.660   3.249
 9805SOL     OW30313   6.711   4.614   5.322
 9805SOL    HW130314   6.787   4.565   5.365
 9805SOL    HW230315   6.671   4.557   5.251
 9806SOL     OW30316   3.408   1.190   0.127
 9806SOL    HW130317   3.421   1.282   0.165
 9806SOL    HW230318   3.411   1.194   0.027
 9807SOL     OW30319   3.872   3.558   4.667
 9807SOL    HW130320   3.797   3.622   4.651
 9807SOL    HW230321   3.956   3.609   4.684
 9808SOL     OW30322   2.369   6.833   2.563
 9808SOL    HW130323   2.391   6.829   2.661
 9808SOL    HW230324   2.436   6.780   2.512
 9809SOL     OW30325   0.060   3.614   1.156
 9809SOL    HW130326   0.076   3.584   1.250
 9809SOL    HW230327   0.059   3.535   1.095
 9810SOL     OW30328   4.120   2.851   1.227
 9810SOL    HW130329   4.029   2.891   1.242
 9810SOL    HW230330   4.165   2.838   1.315
 9811SOL     OW30331   5.303   3.523   3.950
 9811SOL    HW130332   5.275   3.465   3.874
 9811SOL    HW230333   5.370   3.474   4.006
 9812SOL     OW30334   3.261   5.517   6.432
 9812SOL    HW130335   3.253   5.442   6.498
 9812SOL    HW230336   3.236   5.484   6.341
 9813SOL     OW30337   4.552   0.373   2.091
 9813SOL    HW130338   4.459   0.352   2.122
 9813SOL    HW230339   4.601   0.422   2.163
 9814SOL     OW30340   6.562   1.584   6.504
 9814SOL    HW130341   6.650   1.629   6.488
 9814SOL    HW230342   6.492   1.653   6.521
 9815SOL     OW30343   5.228   2.905   4.859
 9815SOL    HW130344   5.317   2.932   4.824
 9815SOL    HW230345   5.160   2.975   4.838
 9816SOL     OW30346   4.158   0.838   0.123
 9816SOL    HW130347   4.244   0.797   0.153
 9816SOL    HW230348   4.177   0.911   0.058
 9817SOL     OW30349   5.960   0.135   1.219
 9817SOL    HW130350   5.969   0.043   1.257
 9817SOL    HW230351   6.038   0.155   1.160
 9818SOL     OW30352   4.005   2.176   4.977
 9818SOL    HW130353   3.991   2.159   4.879
 9818SOL    HW230354   4.030   2.271   4.992
 9819SOL     OW30355   2.646   0.110   1.849
 9819SOL    HW130356   2.625   0.043   1.779
 9819SOL    HW230357   2.629   0.071   1.940
 9820SOL     OW30358   4.301   2.751   0.089
 9820SOL    HW130359   4.273   2.702   0.172
 9820SOL    HW230360   4.224   2.806   0.056
 9821SOL     OW30361   0.741   6.434   6.866
 9821SOL    HW130362   0.790   6.379   6.798
 9821SOL    HW230363   0.748   6.391   6.955
 9822SOL     OW30364   0.012   2.012   2.237
 9822SOL    HW130365   0.003   1.985   2.333
 9822SOL    HW230366   0.049   1.937   2.184
 9823SOL     OW30367   2.674   6.174   2.594
 9823SOL    HW130368   2.707   6.080   2.586
 9823SOL    HW230369   2.667   6.214   2.503
 9824SOL     OW30370   2.240   3.881   5.293
 9824SOL    HW130371   2.163   3.872   5.230
 9824SOL    HW230372   2.314   3.930   5.248
 9825SOL     OW30373   4.521   4.481   5.419
 9825SOL    HW130374   4.459   4.512   5.490
 9825SOL    HW230375   4.604   4.445   5.460
 9826SOL     OW30376   5.969   0.447   5.094
 9826SOL    HW130377   5.883   0.439   5.144
 9826SOL    HW230378   6.010   0.536   5.113
 9827SOL     OW30379   0.948   5.805   4.879
 9827SOL    HW130380   0.888   5.787   4.957
 9827SOL    HW230381   0.954   5.722   4.823
 9828SOL     OW30382   2.476   1.514   0.329
 9828SOL    HW130383   2.508   1.541   0.238
 9828SOL    HW230384   2.389   1.466   0.320
 9829SOL     OW30385   3.229   4.478   1.351
 9829SOL    HW130386   3.177   4.504   1.269
 9829SOL    HW230387   3.282   4.557   1.382
 9830SOL     OW30388   5.956   1.087   1.086
 9830SOL    HW130389   5.942   1.166   1.146
 9830SOL    HW230390   5.886   1.087   1.015
 9831SOL     OW30391   6.785   5.841   1.191
 9831SOL    HW130392   6.877   5.837   1.154
 9831SOL    HW230393   6.783   5.796   1.280
 9832SOL     OW30394   3.005   3.808   1.464
 9832SOL    HW130395   2.953   3.869   1.524
 9832SOL    HW230396   3.021   3.853   1.376
 9833SOL     OW30397   4.978   4.281   0.308
 9833SOL    HW130398   4.888   4.246   0.282
 9833SOL    HW230399   5.038   4.279   0.228
 9834SOL     OW30400   2.148   3.063   3.891
 9834SOL    HW130401   2.154   3.156   3.856
 9834SOL    HW230402   2.162   2.998   3.816
 9835SOL     OW30403   5.114   2.647   4.862
 9835SOL    HW130404   5.146   2.624   4.770
 9835SOL    HW230405   5.160   2.730   4.893
 9836SOL     OW30406   5.192   5.009   1.442
 9836SOL    HW130407   5.279   4.996   1.393
 9836SOL    HW230408   5.139   5.081   1.397
 9837SOL     OW30409   2.018   5.181   5.305
 9837SOL    HW130410   2.073   5.216   5.229
 9837SOL    HW230411   2.036   5.083   5.316
 9838SOL     OW30412   6.857   6.555   5.001
 9838SOL    HW130413   6.882   6.651   5.013
 9838SOL    HW230414   6.901   6.500   5.072
 9839SOL     OW30415   5.691   3.132   3.106
 9839SOL    HW130416   5.625   3.136   3.031
 9839SOL    HW230417   5.707   3.224   3.142
 9840SOL     OW30418   6.066   0.024   0.312
 9840SOL    HW130419   6.091   0.117   0.340
 9840SOL    HW230420   6.016   7.002   0.386
 9841SOL     OW30421   1.720   2.836   4.016
 9841SOL    HW130422   1.762   2.801   4.100
 9841SOL    HW230423   1.775   2.810   3.937
 9842SOL     OW30424   2.951   3.219   4.015
 9842SOL    HW130425   2.993   3.305   4.045
 9842SOL    HW230426   2.861   3.238   3.976
 9843SOL     OW30427   5.774   4.481   3.613
 9843SOL    HW130428   5.833   4.472   3.533
 9843SOL    HW230429   5.830   4.487   3.695
 9844SOL     OW30430   3.924   0.186   1.592
 9844SOL    HW130431   3.944   0.266   1.649
 9844SOL    HW230432   4.008   0.155   1.548
 9845SOL     OW30433   1.386   1.548   4.360
 9845SOL    HW130434   1.341   1.615   4.419
 9845SOL    HW230435   1.475   1.582   4.332
 9846SOL     OW30436   2.981   3.475   4.104
 9846SOL    HW130437   2.963   3.501   4.199
 9846SOL    HW230438   2.933   3.538   4.043
 9847SOL     OW30439   2.439   4.386   4.282
 9847SOL    HW130440   2.389   4.310   4.239
 9847SOL    HW230441   2.478   4.444   4.210
 9848SOL     OW30442   0.163   4.402   0.220
 9848SOL    HW130443   0.192   4.484   0.269
 9848SOL    HW230444   0.236   4.333   0.224
 9849SOL     OW30445   6.713   5.905   5.386
 9849SOL    HW130446   6.717   5.814   5.426
 9849SOL    HW230447   6.758   5.904   5.297
 9850SOL     OW30448   5.467   6.891   3.875
 9850SOL    HW130449   5.374   6.881   3.841
 9850SOL    HW230450   5.498   6.985   3.859
 9851SOL     OW30451   5.518   2.550   5.012
 9851SOL    HW130452   5.461   2.600   5.077
 9851SOL    HW230453   5.541   2.461   5.050
 9852SOL     OW30454   5.364   2.034   3.578
 9852SOL    HW130455   5.405   2.063   3.664
 9852SOL    HW230456   5.387   2.099   3.506
 9853SOL     OW30457   6.988   5.145   1.078
 9853SOL    HW130458   0.050   5.198   1.076
 9853SOL    HW230459   6.946   5.151   1.169
 9854SOL     OW30460   3.113   0.026   4.310
 9854SOL    HW130461   3.129   0.075   4.225
 9854SOL    HW230462   3.062   6.965   4.291
 9855SOL     OW30463   2.459   4.285   1.135
 9855SOL    HW130464   2.374   4.246   1.172
 9855SOL    HW230465   2.437   4.369   1.086
 9856SOL     OW30466   3.841   3.515   1.209
 9856SOL    HW130467   3.893   3.590   1.170
 9856SOL    HW230468   3.771   3.551   1.272
 9857SOL     OW30469   5.745   4.899   3.107
 9857SOL    HW130470   5.750   4.842   3.189
 9857SOL    HW230471   5.759   4.995   3.133
 9858SOL     OW30472   3.503   0.821   1.427
 9858SOL    HW130473   3.556   0.902   1.400
 9858SOL    HW230474   3.493   0.820   1.527
 9859SOL     OW30475   0.301   6.531   1.507
 9859SOL    HW130476   0.354   6.463   1.558
 9859SOL    HW230477   0.222   6.560   1.561
 9860SOL     OW30478   0.985   1.028   3.100
 9860SOL    HW130479   0.887   1.015   3.118
 9860SOL    HW230480   1.004   1.008   3.004
 9861SOL     OW30481   2.082   6.215   3.727
 9861SOL    HW130482   2.153   6.280   3.751
 9861SOL    HW230483   2.079   6.203   3.628
 9862SOL     OW30484   0.262   1.737   0.319
 9862SOL    HW130485   0.212   1.738   0.406
 9862SOL    HW230486   0.205   1.777   0.248
 9863SOL     OW30487   5.021   0.706   0.480
 9863SOL    HW130488   5.056   0.786   0.432
 9863SOL    HW230489   4.959   0.655   0.420
 9864SOL     OW30490   3.663   5.376   4.216
 9864SOL    HW130491   3.732   5.307   4.236
 9864SOL    HW230492   3.594   5.338   4.154
 9865SOL     OW30493   2.092   3.602   3.574
 9865SOL    HW130494   2.181   3.590   3.616
 9865SOL    HW230495   2.035   3.522   3.593
 9866SOL     OW30496   2.794   4.874   3.251
 9866SOL    HW130497   2.796   4.826   3.164
 9866SOL    HW230498   2.842   4.961   3.242
 9867SOL     OW30499   3.802   6.513   5.843
 9867SOL    HW130500   3.778   6.490   5.749
 9867SOL    HW230501   3.721   6.549   5.890
 9868SOL     OW30502   1.413   5.294   6.006
 9868SOL    HW130503   1.380   5.205   6.039
 9868SOL    HW230504   1.350   5.366   6.034
 9869SOL     OW30505   0.733   4.960   3.128
 9869SOL    HW130506   0.755   5.057   3.133
 9869SOL    HW230507   0.704   4.937   3.035
 9870SOL     OW30508   4.382   5.577   1.843
 9870SOL    HW130509   4.341   5.544   1.927
 9870SOL    HW230510   4.443   5.654   1.863
 9871SOL     OW30511   2.305   2.656   5.742
 9871SOL    HW130512   2.300   2.687   5.648
 9871SOL    HW230513   2.336   2.561   5.745
 9872SOL     OW30514   1.343   3.680   2.987
 9872SOL    HW130515   1.268   3.692   3.052
 9872SOL    HW230516   1.407   3.612   3.022
 9873SOL     OW30517   2.156   2.234   1.611
 9873SOL    HW130518   2.202   2.318   1.640
 9873SOL    HW230519   2.073   2.256   1.560
 9874SOL     OW30520   1.017   3.870   4.583
 9874SOL    HW130521   1.076   3.948   4.604
 9874SOL    HW230522   0.928   3.883   4.626
 9875SOL     OW30523   1.232   1.446   3.153
 9875SOL    HW130524   1.203   1.351   3.165
 9875SOL    HW230525   1.206   1.499   3.234
 9876SOL     OW30526   6.610   6.362   2.425
 9876SOL    HW130527   6.526   6.379   2.477
 9876SOL    HW230528   6.591   6.296   2.352
 9877SOL     OW30529   4.306   0.143   1.100
 9877SOL    HW130530   4.367   0.184   1.168
 9877SOL    HW230531   4.361   0.101   1.027
 9878SOL     OW30532   6.532   1.614   4.893
 9878SOL    HW130533   6.484   1.637   4.978
 9878SOL    HW230534   6.570   1.697   4.853
 9879SOL     OW30535   5.462   5.238   5.503
 9879SOL    HW130536   5.398   5.263   5.575
 9879SOL    HW230537   5.426   5.269   5.415
 9880SOL     OW30538   0.983   2.373   3.639
 9880SOL    HW130539   0.904   2.356   3.581
 9880SOL    HW230540   1.065   2.380   3.583
 9881SOL     OW30541   0.164   1.753   5.963
 9881SOL    HW130542   0.148   1.655   5.969
 9881SOL    HW230543   0.246   1.771   5.910
 9882SOL     OW30544   1.656   2.574   3.368
 9882SOL    HW130545   1.609   2.655   3.401
 9882SOL    HW230546   1.641   2.564   3.270
 9883SOL     OW30547   3.074   1.355   2.383
 9883SOL    HW130548   3.024   1.337   2.468
 9883SOL    HW230549   3.169   1.328   2.395
 9884SOL     OW30550   3.097   0.568   3.719
 9884SOL    HW130551   3.011   0.524   3.744
 9884SOL    HW230552   3.099   0.661   3.757
 9885SOL     OW30553   6.892   3.064   4.605
 9885SOL    HW130554   6.933   3.089   4.517
 9885SOL    HW230555   6.930   3.122   4.677
 9886SOL     OW30556   7.012   2.635   2.066
 9886SOL    HW130557   0.033   2.552   2.100
 9886SOL    HW230558   6.935   2.658   2.126
 9887SOL     OW30559   4.292   6.140   5.692
 9887SOL    HW130560   4.363   6.071   5.704
 9887SOL    HW230561   4.303   6.185   5.603
 9888SOL     OW30562   6.458   5.493   5.090
 9888SOL    HW130563   6.365   5.469   5.063
 9888SOL    HW230564   6.497   5.419   5.146
 9889SOL     OW30565   0.455   5.767   0.909
 9889SOL    HW130566   0.425   5.855   0.947
 9889SOL    HW230567   0.550   5.774   0.877
 9890SOL     OW30568   0.718   3.068   1.022
 9890SOL    HW130569   0.709   3.167   1.034
 9890SOL    HW230570   0.714   3.046   0.924
 9891SOL     OW30571   5.104   1.378   2.549
 9891SOL    HW130572   5.021   1.323   2.554
 9891SOL    HW230573   5.091   1.451   2.481
 9892SOL     OW30574   1.168   0.352   6.565
 9892SOL    HW130575   1.183   0.450   6.550
 9892SOL    HW230576   1.076   0.327   6.535
 9893SOL     OW30577   2.201   1.603   0.283
 9893SOL    HW130578   2.152   1.516   0.276
 9893SOL    HW230579   2.220   1.638   0.191
 9894SOL     OW30580   2.308   1.079   1.406
 9894SOL    HW130581   2.212   1.097   1.424
 9894SOL    HW230582   2.363   1.113   1.483
 9895SOL     OW30583   4.307   2.749   5.604
 9895SOL    HW130584   4.285   2.770   5.509
 9895SOL    HW230585   4.305   2.832   5.659
 9896SOL     OW30586   6.356   6.863   5.836
 9896SOL    HW130587   6.412   6.781   5.850
 9896SOL    HW230588   6.320   6.894   5.925
 9897SOL     OW30589   6.090   4.978   5.083
 9897SOL    HW130590   6.069   4.987   4.986
 9897SOL    HW230591   6.021   5.026   5.137
 9898SOL     OW30592   2.450   6.954   6.648
 9898SOL    HW130593   2.530   6.898   6.671
 9898SOL    HW230594   2.463   0.024   6.683
 9899SOL     OW30595   0.255   4.589   0.424
 9899SOL    HW130596   0.262   4.688   0.439
 9899SOL    HW230597   0.346   4.550   0.417
 9900SOL     OW30598   2.461   4.800   3.465
 9900SOL    HW130599   2.518   4.720   3.444
 9900SOL    HW230600   2.495   4.845   3.547
 9901SOL     OW30601   1.918   3.248   5.192
 9901SOL    HW130602   1.976   3.191   5.250
 9901SOL    HW230603   1.966   3.269   5.107
 9902SOL     OW30604   3.074   4.589   1.128
 9902SOL    HW130605   3.049   4.686   1.128
 9902SOL    HW230606   2.994   4.534   1.153
 9903SOL     OW30607   5.483   1.311   5.136
 9903SOL    HW130608   5.474   1.255   5.218
 9903SOL    HW230609   5.467   1.255   5.055
 9904SOL     OW30610   6.085   1.490   0.439
 9904SOL    HW130611   6.070   1.476   0.537
 9904SOL    HW230612   6.118   1.583   0.423
 9905SOL     OW30613   5.098   0.027   0.366
 9905SOL    HW130614   5.171   0.056   0.304
 9905SOL    HW230615   5.056   6.966   0.332
 9906SOL     OW30616   3.054   3.347   5.262
 9906SOL    HW130617   2.967   3.378   5.225
 9906SOL    HW230618   3.039   3.299   5.348
 9907SOL     OW30619   1.566   5.986   1.854
 9907SOL    HW130620   1.581   5.889   1.874
 9907SOL    HW230621   1.544   6.034   1.940
 9908SOL     OW30622   5.154   3.460   1.841
 9908SOL    HW130623   5.219   3.475   1.915
 9908SOL    HW230624   5.203   3.442   1.756
 9909SOL     OW30625   1.812   0.291   4.696
 9909SOL    HW130626   1.821   0.388   4.673
 9909SOL    HW230627   1.759   0.245   4.625
 9910SOL     OW30628   0.410   4.728   4.303
 9910SOL    HW130629   0.351   4.671   4.246
 9910SOL    HW230630   0.416   4.819   4.262
 9911SOL     OW30631   2.456   6.379   2.381
 9911SOL    HW130632   2.514   6.421   2.311
 9911SOL    HW230633   2.420   6.292   2.346
 9912SOL     OW30634   4.922   0.873   5.521
 9912SOL    HW130635   4.880   0.867   5.430
 9912SOL    HW230636   4.865   0.930   5.580
 9913SOL     OW30637   4.976   3.419   1.089
 9913SOL    HW130638   5.046   3.438   1.020
 9913SOL    HW230639   4.958   3.321   1.092
 9914SOL     OW30640   0.486   3.365   4.372
 9914SOL    HW130641   0.463   3.374   4.275
 9914SOL    HW230642   0.436   3.434   4.425
 9915SOL     OW30643   4.332   1.136   3.805
 9915SOL    HW130644   4.347   1.037   3.795
 9915SOL    HW230645   4.396   1.185   3.746
 9916SOL     OW30646   1.450   3.099   1.510
 9916SOL    HW130647   1.467   3.110   1.609
 9916SOL    HW230648   1.459   3.003   1.485
 9917SOL     OW30649   6.358   4.738   5.837
 9917SOL    HW130650   6.292   4.726   5.912
 9917SOL    HW230651   6.308   4.758   5.753
 9918SOL     OW30652   4.904   3.108   2.554
 9918SOL    HW130653   5.003   3.093   2.555
 9918SOL    HW230654   4.871   3.107   2.460
 9919SOL     OW30655   5.155   5.910   0.248
 9919SOL    HW130656   5.233   5.887   0.307
 9919SOL    HW230657   5.184   5.906   0.152
 9920SOL     OW30658   4.710   0.921   2.324
 9920SOL    HW130659   4.635   0.937   2.260
 9920SOL    HW230660   4.796   0.915   2.273
 9921SOL     OW30661   4.203   5.058   6.152
 9921SOL    HW130662   4.255   5.020   6.075
 9921SOL    HW230663   4.131   4.995   6.178
 9922SOL     OW30664   0.143   6.262   1.383
 9922SOL    HW130665   0.234   6.280   1.420
 9922SOL    HW230666   0.104   6.347   1.347
 9923SOL     OW30667   6.354   3.967   0.137
 9923SOL    HW130668   6.285   4.006   0.076
 9923SOL    HW230669   6.318   3.965   0.231
 9924SOL     OW30670   1.515   4.675   4.626
 9924SOL    HW130671   1.595   4.625   4.592
 9924SOL    HW230672   1.542   4.769   4.647
 9925SOL     OW30673   4.601   2.670   4.247
 9925SOL    HW130674   4.699   2.680   4.229
 9925SOL    HW230675   4.589   2.632   4.339
 9926SOL     OW30676   3.170   5.512   1.641
 9926SOL    HW130677   3.204   5.440   1.581
 9926SOL    HW230678   3.070   5.516   1.634
 9927SOL     OW30679   5.278   0.723   4.076
 9927SOL    HW130680   5.189   0.758   4.045
 9927SOL    HW230681   5.341   0.721   3.999
 9928SOL     OW30682   5.127   4.269   2.464
 9928SOL    HW130683   5.156   4.359   2.430
 9928SOL    HW230684   5.175   4.198   2.413
 9929SOL     OW30685   0.923   4.064   3.419
 9929SOL    HW130686   0.951   4.067   3.323
 9929SOL    HW230687   1.003   4.077   3.477
 9930SOL     OW30688   5.635   0.746   2.750
 9930SOL    HW130689   5.602   0.740   2.844
 9930SOL    HW230690   5.558   0.744   2.687
 9931SOL     OW30691   1.439   5.554   5.347
 9931SOL    HW130692   1.436   5.467   5.396
 9931SOL    HW230693   1.533   5.589   5.346
 9932SOL     OW30694   0.340   5.820   4.365
 9932SOL    HW130695   0.341   5.756   4.287
 9932SOL    HW230696   0.291   5.778   4.441
 9933SOL     OW30697   6.675   6.875   2.819
 9933SOL    HW130698   6.634   6.787   2.792
 9933SOL    HW230699   6.683   6.934   2.739
 9934SOL     OW30700   0.206   2.700   4.791
 9934SOL    HW130701   0.282   2.709   4.855
 9934SOL    HW230702   0.221   2.759   4.712
 9935SOL     OW30703   1.840   0.054   6.006
 9935SOL    HW130704   1.778   0.132   6.009
 9935SOL    HW230705   1.796   6.997   6.048
 9936SOL     OW30706   1.839   4.564   3.516
 9936SOL    HW130707   1.870   4.659   3.509
 9936SOL    HW230708   1.868   4.525   3.603
 9937SOL     OW30709   6.772   3.011   5.786
 9937SOL    HW130710   6.673   3.006   5.800
 9937SOL    HW230711   6.810   3.084   5.843
 9938SOL     OW30712   6.410   6.039   2.647
 9938SOL    HW130713   6.346   6.024   2.722
 9938SOL    HW230714   6.460   6.124   2.662
 9939SOL     OW30715   3.209   3.053   3.509
 9939SOL    HW130716   3.277   2.997   3.462
 9939SOL    HW230717   3.241   3.077   3.600
 9940SOL     OW30718   0.170   1.189   1.016
 9940SOL    HW130719   0.264   1.163   1.041
 9940SOL    HW230720   0.119   1.107   0.991
 9941SOL     OW30721   3.674   5.701   5.350
 9941SOL    HW130722   3.752   5.727   5.407
 9941SOL    HW230723   3.690   5.734   5.256
 9942SOL     OW30724   2.907   6.257   3.799
 9942SOL    HW130725   2.966   6.182   3.771
 9942SOL    HW230726   2.913   6.268   3.899
 9943SOL     OW30727   0.456   6.326   4.869
 9943SOL    HW130728   0.459   6.406   4.929
 9943SOL    HW230729   0.520   6.338   4.794
 9944SOL     OW30730   1.857   4.593   5.767
 9944SOL    HW130731   1.955   4.595   5.786
 9944SOL    HW230732   1.842   4.571   5.670
 9945SOL     OW30733   0.281   5.482   6.762
 9945SOL    HW130734   0.187   5.515   6.750
 9945SOL    HW230735   0.344   5.560   6.760
 9946SOL     OW30736   5.473   0.720   3.805
 9946SOL    HW130737   5.546   0.686   3.863
 9946SOL    HW230738   5.508   0.792   3.746
 9947SOL     OW30739   6.070   4.335   3.916
 9947SOL    HW130740   6.017   4.293   3.990
 9947SOL    HW230741   6.062   4.434   3.922
 9948SOL     OW30742   5.327   4.297   3.432
 9948SOL    HW130743   5.319   4.200   3.408
 9948SOL    HW230744   5.240   4.342   3.415
 9949SOL     OW30745   5.790   4.783   1.960
 9949SOL    HW130746   5.775   4.685   1.946
 9949SOL    HW230747   5.855   4.818   1.892
 9950SOL     OW30748   4.098   6.258   0.301
 9950SOL    HW130749   4.104   6.175   0.244
 9950SOL    HW230750   4.024   6.247   0.368
 9951SOL     OW30751   5.982   3.133   2.613
 9951SOL    HW130752   5.963   3.067   2.686
 9951SOL    HW230753   5.988   3.085   2.525
 9952SOL     OW30754   0.882   4.619   6.336
 9952SOL    HW130755   0.803   4.648   6.389
 9952SOL    HW230756   0.891   4.676   6.255
 9953SOL     OW30757   5.621   3.401   3.684
 9953SOL    HW130758   5.568   3.472   3.729
 9953SOL    HW230759   5.585   3.311   3.709
 9954SOL     OW30760   5.431   0.880   4.994
 9954SOL    HW130761   5.415   0.971   4.958
 9954SOL    HW230762   5.351   0.850   5.046
 9955SOL     OW30763   0.842   5.103   5.289
 9955SOL    HW130764   0.918   5.125   5.349
 9955SOL    HW230765   0.871   5.036   5.221
 9956SOL     OW30766   0.711   5.932   0.183
 9956SOL    HW130767   0.634   5.933   0.120
 9956SOL    HW230768   0.779   6.000   0.153
 9957SOL     OW30769   5.795   5.802   2.456
 9957SOL    HW130770   5.725   5.864   2.491
 9957SOL    HW230771   5.885   5.835   2.484
 9958SOL     OW30772   2.742   4.339   0.794
 9958SOL    HW130773   2.781   4.307   0.881
 9958SOL    HW230774   2.727   4.438   0.798
 9959SOL     OW30775   3.775   4.187   0.947
 9959SOL    HW130776   3.707   4.138   1.003
 9959SOL    HW230777   3.765   4.160   0.852
 9960SOL     OW30778   0.624   0.983   1.909
 9960SOL    HW130779   0.566   1.062   1.924
 9960SOL    HW230780   0.608   0.915   1.981
 9961SOL     OW30781   1.973   4.371   4.541
 9961SOL    HW130782   1.976   4.283   4.588
 9961SOL    HW230783   2.050   4.428   4.569
 9962SOL     OW30784   6.213   6.521   4.620
 9962SOL    HW130785   6.293   6.543   4.565
 9962SOL    HW230786   6.236   6.450   4.687
 9963SOL     OW30787   3.443   2.389   0.292
 9963SOL    HW130788   3.536   2.357   0.309
 9963SOL    HW230789   3.445   2.487   0.271
 9964SOL     OW30790   5.390   6.238   4.709
 9964SOL    HW130791   5.445   6.254   4.627
 9964SOL    HW230792   5.304   6.288   4.702
 9965SOL     OW30793   4.462   0.037   1.706
 9965SOL    HW130794   4.504   7.004   1.778
 9965SOL    HW230795   4.366   0.011   1.696
 9966SOL     OW30796   6.401   1.227   2.499
 9966SOL    HW130797   6.321   1.263   2.546
 9966SOL    HW230798   6.372   1.178   2.417
 9967SOL     OW30799   0.853   5.447   0.505
 9967SOL    HW130800   0.812   5.359   0.481
 9967SOL    HW230801   0.897   5.441   0.594
 9968SOL     OW30802   3.423   2.966   2.921
 9968SOL    HW130803   3.411   2.944   2.824
 9968SOL    HW230804   3.336   2.956   2.969
 9969SOL     OW30805   1.503   3.024   1.039
 9969SOL    HW130806   1.503   2.954   1.109
 9969SOL    HW230807   1.451   2.992   0.959
 9970SOL     OW30808   6.967   4.354   2.818
 9970SOL    HW130809   6.932   4.337   2.726
 9970SOL    HW230810   0.039   4.383   2.814
 9971SOL     OW30811   3.058   6.734   6.730
 9971SOL    HW130812   2.984   6.782   6.777
 9971SOL    HW230813   3.092   6.661   6.789
 9972SOL     OW30814   0.039   4.912   1.731
 9972SOL    HW130815   0.092   4.997   1.735
 9972SOL    HW230816   0.102   4.834   1.734
 9973SOL     OW30817   4.854   6.540   3.752
 9973SOL    HW130818   4.897   6.543   3.662
 9973SOL    HW230819   4.878   6.622   3.804
 9974SOL     OW30820   2.595   1.226   4.148
 9974SOL    HW130821   2.563   1.270   4.064
 9974SOL    HW230822   2.595   1.127   4.135
 9975SOL     OW30823   6.416   3.656   1.622
 9975SOL    HW130824   6.476   3.700   1.556
 9975SOL    HW230825   6.332   3.626   1.577
 9976SOL     OW30826   3.175   6.357   4.543
 9976SOL    HW130827   3.076   6.350   4.527
 9976SOL    HW230828   3.198   6.452   4.565
 9977SOL     OW30829   6.681   4.892   3.857
 9977SOL    HW130830   6.741   4.903   3.778
 9977SOL    HW230831   6.729   4.920   3.940
 9978SOL     OW30832   0.243   3.189   4.164
 9978SOL    HW130833   0.223   3.141   4.078
 9978SOL    HW230834   0.269   3.123   4.234
 9979SOL     OW30835   0.770   3.356   5.359
 9979SOL    HW130836   0.825   3.418   5.415
 9979SOL    HW230837   0.708   3.410   5.301
 9980SOL     OW30838   3.058   6.706   5.609
 9980SOL    HW130839   3.046   6.800   5.577
 9980SOL    HW230840   2.986   6.649   5.570
 9981SOL     OW30841   3.240   1.725   3.194
 9981SOL    HW130842   3.175   1.711   3.269
 9981SOL    HW230843   3.197   1.700   3.108
 9982SOL     OW30844   5.973   0.199   2.611
 9982SOL    HW130845   6.035   0.190   2.533
 9982SOL    HW230846   5.997   0.280   2.664
 9983SOL     OW30847   6.490   0.512   1.042
 9983SOL    HW130848   6.442   0.600   1.053
 9983SOL    HW230849   6.589   0.528   1.045
 9984SOL     OW30850   3.365   0.614   6.894
 9984SOL    HW130851   3.421   0.534   6.916
 9984SOL    HW230852   3.269   0.591   6.903
 9985SOL     OW30853   1.441   1.974   0.688
 9985SOL    HW130854   1.477   1.963   0.780
 9985SOL    HW230855   1.495   2.042   0.639
 9986SOL     OW30856   5.259   4.235   5.081
 9986SOL    HW130857   5.242   4.307   5.015
 9986SOL    HW230858   5.277   4.149   5.033
 9987SOL     OW30859   0.455   4.648   4.879
 9987SOL    HW130860   0.412   4.607   4.798
 9987SOL    HW230861   0.430   4.595   4.960
 9988SOL     OW30862   6.167   1.307   4.087
 9988SOL    HW130863   6.229   1.270   4.018
 9988SOL    HW230864   6.077   1.266   4.077
 9989SOL     OW30865   1.392   2.451   5.112
 9989SOL    HW130866   1.406   2.361   5.070
 9989SOL    HW230867   1.297   2.479   5.096
 9990SOL     OW30868   1.037   4.506   1.289
 9990SOL    HW130869   0.949   4.538   1.254
 9990SOL    HW230870   1.109   4.531   1.224
 9991SOL     OW30871   3.839   2.143   3.892
 9991SOL    HW130872   3.806   2.070   3.952
 9991SOL    HW230873   3.808   2.126   3.799
 9992SOL     OW30874   6.590   4.830   6.481
 9992SOL    HW130875   6.568   4.860   6.389
 9992SOL    HW230876   6.644   4.900   6.527
 9993SOL     OW30877   1.343   1.001   1.720
 9993SOL    HW130878   1.281   0.936   1.675
 9993SOL    HW230879   1.328   1.093   1.684
 9994SOL     OW30880   5.916   4.472   3.369
 9994SOL    HW130881   5.920   4.377   3.337
 9994SOL    HW230882   6.001   4.519   3.344
 9995SOL     OW30883   5.251   1.886   4.500
 9995SOL    HW130884   5.318   1.833   4.449
 9995SOL    HW230885   5.210   1.955   4.440
 9996SOL     OW30886   3.344   3.006   1.257
 9996SOL    HW130887   3.363   3.076   1.326
 9996SOL    HW230888   3.251   2.972   1.269
 9997SOL     OW30889   2.901   0.711   4.689
 9997SOL    HW130890   2.930   0.663   4.606
 9997SOL    HW230891   2.960   0.790   4.704
 9998SOL     OW30892   6.344   6.227   5.324
 9998SOL    HW130893   6.382   6.314   5.292
 9998SOL    HW230894   6.413   6.177   5.376
 9999SOL     OW30895   0.301   0.931   5.399
 9999SOL    HW130896   0.245   0.856   5.435
 9999SOL    HW230897   0.317   0.917   5.302
10000SOL     OW30898   6.747   4.865   0.520
10000SOL    HW130899   6.680   4.794   0.498
10000SOL    HW230900   6.839   4.826   0.518
10001SOL     OW30901   3.706   0.734   4.055
10001SOL    HW130902   3.666   0.783   4.133
10001SOL    HW230903   3.733   0.800   3.985
10002SOL     OW30904   1.077   1.940   1.796
10002SOL    HW130905   1.135   1.867   1.762
10002SOL    HW230906   1.133   2.015   1.830
10003SOL     OW30907   5.769   3.336   1.308
10003SOL    HW130908   5.830   3.351   1.230
10003SOL    HW230909   5.683   3.384   1.292
10004SOL     OW30910   6.019   3.720   4.154
10004SOL    HW130911   6.081   3.675   4.090
10004SOL    HW230912   6.042   3.692   4.247
10005SOL     OW30913   4.522   6.747   3.170
10005SOL    HW130914   4.496   6.677   3.237
10005SOL    HW230915   4.480   6.834   3.195
10006SOL     OW30916   5.305   2.806   4.290
10006SOL    HW130917   5.387   2.850   4.254
10006SOL    HW230918   5.240   2.877   4.318
10007SOL     OW30919   5.039   5.918   3.935
10007SOL    HW130920   5.040   5.942   4.032
10007SOL    HW230921   5.132   5.923   3.899
10008SOL     OW30922   2.431   6.476   4.303
10008SOL    HW130923   2.467   6.392   4.262
10008SOL    HW230924   2.380   6.453   4.386
10009SOL     OW30925   2.456   4.310   1.833
10009SOL    HW130926   2.419   4.376   1.899
10009SOL    HW230927   2.545   4.343   1.800
10010SOL     OW30928   5.515   0.629   5.271
10010SOL    HW130929   5.477   0.718   5.245
10010SOL    HW230930   5.547   0.633   5.366
10011SOL     OW30931   6.380   6.825   3.452
10011SOL    HW130932   6.461   6.866   3.495
10011SOL    HW230933   6.387   6.834   3.352
10012SOL     OW30934   4.741   2.040   4.979
10012SOL    HW130935   4.808   1.969   5.003
10012SOL    HW230936   4.707   2.025   4.887
10013SOL     OW30937   1.839   0.562   1.138
10013SOL    HW130938   1.740   0.551   1.139
10013SOL    HW230939   1.865   0.642   1.192
10014SOL     OW30940   1.217   4.945   5.653
10014SOL    HW130941   1.241   4.973   5.560
10014SOL    HW230942   1.239   5.018   5.717
10015SOL     OW30943   2.677   6.134   6.302
10015SOL    HW130944   2.662   6.189   6.383
10015SOL    HW230945   2.655   6.038   6.322
10016SOL     OW30946   2.625   1.543   5.189
10016SOL    HW130947   2.703   1.605   5.183
10016SOL    HW230948   2.576   1.560   5.274
10017SOL     OW30949   6.022   2.185   2.804
10017SOL    HW130950   6.039   2.102   2.750
10017SOL    HW230951   6.092   2.195   2.874
10018SOL     OW30952   4.102   0.002   5.607
10018SOL    HW130953   4.092   6.947   5.669
10018SOL    HW230954   4.033   7.019   5.535
10019SOL     OW30955   0.433   0.771   3.515
10019SOL    HW130956   0.452   0.844   3.581
10019SOL    HW230957   0.503   0.772   3.444
10020SOL     OW30958   0.984   3.609   0.424
10020SOL    HW130959   0.895   3.646   0.451
10020SOL    HW230960   0.971   3.543   0.349
10021SOL     OW30961   5.153   2.779   0.916
10021SOL    HW130962   5.211   2.698   0.923
10021SOL    HW230963   5.211   2.861   0.911
10022SOL     OW30964   2.365   1.324   5.765
10022SOL    HW130965   2.376   1.415   5.724
10022SOL    HW230966   2.417   1.257   5.711
10023SOL     OW30967   1.069   3.339   0.559
10023SOL    HW130968   1.023   3.303   0.477
10023SOL    HW230969   1.070   3.439   0.555
10024SOL     OW30970   0.716   3.596   2.269
10024SOL    HW130971   0.753   3.689   2.265
10024SOL    HW230972   0.617   3.599   2.253
10025SOL     OW30973   1.719   1.571   0.498
10025SOL    HW130974   1.637   1.552   0.444
10025SOL    HW230975   1.787   1.500   0.481
10026SOL     OW30976   5.891   0.731   4.070
10026SOL    HW130977   5.976   0.741   4.019
10026SOL    HW230978   5.903   0.663   4.142
10027SOL     OW30979   6.503   2.930   5.851
10027SOL    HW130980   6.410   2.940   5.887
10027SOL    HW230981   6.518   2.834   5.825
10028SOL     OW30982   1.678   1.641   1.068
10028SOL    HW130983   1.605   1.706   1.050
10028SOL    HW230984   1.765   1.689   1.073
10029SOL     OW30985   3.671   1.425   4.879
10029SOL    HW130986   3.660   1.328   4.900
10029SOL    HW230987   3.623   1.479   4.949
10030SOL     OW30988   0.814   0.884   1.595
10030SOL    HW130989   0.797   0.819   1.669
10030SOL    HW230990   0.739   0.949   1.589
10031SOL     OW30991   0.170   5.220   3.252
10031SOL    HW130992   0.231   5.300   3.253
10031SOL    HW230993   0.113   5.221   3.334
10032SOL     OW30994   3.848   2.344   5.365
10032SOL    HW130995   3.895   2.426   5.334
10032SOL    HW230996   3.853   2.273   5.294
10033SOL     OW30997   6.318   3.133   4.048
10033SOL    HW130998   6.391   3.165   4.108
10033SOL    HW230999   6.231   3.133   4.096
10034SOL     OW31000   3.969   6.748   5.780
10034SOL    HW131001   3.973   6.803   5.864
10034SOL    HW231002   3.917   6.665   5.798
10035SOL     OW31003   0.248   6.142   3.928
10035SOL    HW131004   0.241   6.187   4.017
10035SOL    HW231005   0.205   6.200   3.858
10036SOL     OW31006   6.194   0.062   0.061
10036SOL    HW131007   6.168   0.007   7.004
10036SOL    HW231008   6.158   0.020   0.144
10037SOL     OW31009   7.014   0.550   1.509
10037SOL    HW131010   0.085   0.526   1.533
10037SOL    HW231011   6.978   0.615   1.576
10038SOL     OW31012   5.367   7.015   1.683
10038SOL    HW131013   5.273   6.987   1.704
10038SOL    HW231014   5.366   0.059   1.609
10039SOL     OW31015   3.384   0.884   3.141
10039SOL    HW131016   3.422   0.804   3.188
10039SOL    HW231017   3.285   0.882   3.147
10040SOL     OW31018   0.813   1.753   0.732
10040SOL    HW131019   0.852   1.681   0.788
10040SOL    HW231020   0.870   1.767   0.651
10041SOL     OW31021   0.627   6.852   0.036
10041SOL    HW131022   0.560   6.885   0.103
10041SOL    HW231023   0.596   6.875   6.967
10042SOL     OW31024   6.444   1.905   4.074
10042SOL    HW131025   6.413   1.811   4.090
10042SOL    HW231026   6.398   1.967   4.137
10043SOL     OW31027   2.352   3.255   5.279
10043SOL    HW131028   2.282   3.252   5.208
10043SOL    HW231029   2.404   3.169   5.278
10044SOL     OW31030   3.949   0.458   6.161
10044SOL    HW131031   3.870   0.508   6.127
10044SOL    HW231032   4.003   0.422   6.085
10045SOL     OW31033   2.413   6.641   0.982
10045SOL    HW131034   2.481   6.646   0.909
10045SOL    HW231035   2.445   6.578   1.053
10046SOL     OW31036   0.824   6.656   0.092
10046SOL    HW131037   0.911   6.679   0.049
10046SOL    HW231038   0.749   6.701   0.043
10047SOL     OW31039   1.796   3.783   1.390
10047SOL    HW131040   1.805   3.870   1.438
10047SOL    HW231041   1.887   3.751   1.362
10048SOL     OW31042   6.728   2.795   1.096
10048SOL    HW131043   6.779   2.775   1.013
10048SOL    HW231044   6.632   2.771   1.083
10049SOL     OW31045   6.863   2.255   4.583
10049SOL    HW131046   6.772   2.295   4.570
10049SOL    HW231047   6.915   2.265   4.498
10050SOL     OW31048   0.434   1.793   5.817
10050SOL    HW131049   0.500   1.718   5.819
10050SOL    HW231050   0.412   1.815   5.722
10051SOL     OW31051   1.463   0.563   2.281
10051SOL    HW131052   1.541   0.508   2.250
10051SOL    HW231053   1.468   0.576   2.380
10052SOL     OW31054   0.635   0.293   4.540
10052SOL    HW131055   0.645   0.336   4.451
10052SOL    HW231056   0.714   0.316   4.597
10053SOL     OW31057   5.827   5.588   1.866
10053SOL    HW131058   5.863   5.623   1.952
10053SOL    HW231059   5.897   5.593   1.795
10054SOL     OW31060   5.007   4.865   3.258
10054SOL    HW131061   4.910   4.876   3.235
10054SOL    HW231062   5.039   4.944   3.309
10055SOL     OW31063   1.843   1.809   6.823
10055SOL    HW131064   1.743   1.812   6.823
10055SOL    HW231065   1.877   1.846   6.736
10056SOL     OW31066   5.026   3.502   4.438
10056SOL    HW131067   5.113   3.501   4.389
10056SOL    HW231068   4.979   3.415   4.426
10057SOL     OW31069   6.124   4.262   4.957
10057SOL    HW131070   6.187   4.252   4.880
10057SOL    HW231071   6.094   4.172   4.988
10058SOL     OW31072   5.522   3.819   4.144
10058SOL    HW131073   5.597   3.778   4.092
10058SOL    HW231074   5.469   3.746   4.189
10059SOL     OW31075   5.417   6.478   6.072
10059SOL    HW131076   5.494   6.429   6.112
10059SOL    HW231077   5.450   6.549   6.010
10060SOL     OW31078   3.126   1.010   1.694
10060SOL    HW131079   3.082   1.095   1.721
10060SOL    HW231080   3.215   1.029   1.654
10061SOL     OW31081   3.620   0.154   2.963
10061SOL    HW131082   3.683   0.081   2.991
10061SOL    HW231083   3.644   0.238   3.011
10062SOL     OW31084   6.272   6.585   4.079
10062SOL    HW131085   6.181   6.564   4.043
10062SOL    HW231086   6.304   6.672   4.041
10063SOL     OW31087   4.179   2.197   2.930
10063SOL    HW131088   4.279   2.202   2.932
10063SOL    HW231089   4.150   2.102   2.933
10064SOL     OW31090   1.603   6.128   2.340
10064SOL    HW131091   1.671   6.058   2.363
10064SOL    HW231092   1.647   6.218   2.339
10065SOL     OW31093   6.615   1.877   1.176
10065SOL    HW131094   6.666   1.943   1.231
10065SOL    HW231095   6.624   1.901   1.079
10066SOL     OW31096   5.813   4.152   3.615
10066SOL    HW131097   5.770   4.154   3.705
10066SOL    HW231098   5.891   4.214   3.613
10067SOL     OW31099   5.590   3.466   5.197
10067SOL    HW131100   5.514   3.401   5.199
10067SOL    HW231101   5.590   3.519   5.282
10068SOL     OW31102   2.220   4.334   2.908
10068SOL    HW131103   2.268   4.377   2.831
10068SOL    HW231104   2.123   4.361   2.906
10069SOL     OW31105   3.149   5.505   0.899
10069SOL    HW131106   3.220   5.455   0.848
10069SOL    HW231107   3.079   5.440   0.930
10070SOL     OW31108   5.396   0.549   6.786
10070SOL    HW131109   5.412   0.454   6.815
10070SOL    HW231110   5.330   0.550   6.711
10071SOL     OW31111   5.390   1.253   4.570
10071SOL    HW131112   5.404   1.340   4.618
10071SOL    HW231113   5.317   1.201   4.615
10072SOL     OW31114   5.856   2.902   1.370
10072SOL    HW131115   5.775   2.952   1.339
10072SOL    HW231116   5.834   2.806   1.382
10073SOL     OW31117   5.688   5.383   5.269
10073SOL    HW131118   5.658   5.317   5.200
10073SOL    HW231119   5.666   5.476   5.237
10074SOL     OW31120   2.181   4.679   1.562
10074SOL    HW131121   2.118   4.705   1.634
10074SOL    HW231122   2.251   4.618   1.599
10075SOL     OW31123   0.518   3.549   1.420
10075SOL    HW131124   0.478   3.539   1.329
10075SOL    HW231125   0.456   3.603   1.477
10076SOL     OW31126   6.126   4.999   3.826
10076SOL    HW131127   6.047   4.971   3.881
10076SOL    HW231128   6.204   5.018   3.886
10077SOL     OW31129   4.505   4.255   6.910
10077SOL    HW131130   4.485   4.317   6.834
10077SOL    HW231131   4.420   4.236   6.960
10078SOL     OW31132   5.877   6.137   3.609
10078SOL    HW131133   5.808   6.209   3.611
10078SOL    HW231134   5.924   6.137   3.521
10079SOL     OW31135   6.001   5.213   3.330
10079SOL    HW131136   6.007   5.207   3.429
10079SOL    HW231137   6.083   5.258   3.294
10080SOL     OW31138   5.116   2.958   4.408
10080SOL    HW131139   5.028   2.986   4.369
10080SOL    HW231140   5.101   2.920   4.499
10081SOL     OW31141   1.556   5.171   0.605
10081SOL    HW131142   1.604   5.117   0.537
10081SOL    HW231143   1.534   5.261   0.567
10082SOL     OW31144   6.852   4.102   1.852
10082SOL    HW131145   6.889   4.028   1.795
10082SOL    HW231146   6.807   4.063   1.933
10083SOL     OW31147   3.202   5.419   2.567
10083SOL    HW131148   3.174   5.416   2.663
10083SOL    HW231149   3.271   5.489   2.555
10084SOL     OW31150   1.972   4.072   4.343
10084SOL    HW131151   1.937   4.059   4.436
10084SOL    HW231152   2.072   4.074   4.345
10085SOL     OW31153   3.006   6.448   1.667
10085SOL    HW131154   3.101   6.460   1.637
10085SOL    HW231155   2.997   6.482   1.761
10086SOL     OW31156   2.594   1.130   2.754
10086SOL    HW131157   2.572   1.179   2.838
10086SOL    HW231158   2.694   1.119   2.747
10087SOL     OW31159   1.673   5.488   0.066
10087SOL    HW131160   1.660   5.547   0.146
10087SOL    HW231161   1.640   5.534   7.007
10088SOL     OW31162   5.099   1.869   0.689
10088SOL    HW131163   5.174   1.830   0.636
10088SOL    HW231164   5.134   1.945   0.745
10089SOL     OW31165   3.431   0.170   3.653
10089SOL    HW131166   3.392   0.245   3.705
10089SOL    HW231167   3.370   0.091   3.658
10090SOL     OW31168   3.304   6.033   3.540
10090SOL    HW131169   3.255   6.107   3.495
10090SOL    HW231170   3.336   6.063   3.630
10091SOL     OW31171   4.571   6.369   3.279
10091SOL    HW131172   4.549   6.287   3.331
10091SOL    HW231173   4.500   6.438   3.296
10092SOL     OW31174   6.123   0.763   1.732
10092SOL    HW131175   6.119   0.719   1.642
10092SOL    HW231176   6.199   0.725   1.785
10093SOL     OW31177   4.339   4.284   6.217
10093SOL    HW131178   4.319   4.257   6.123
10093SOL    HW231179   4.437   4.280   6.233
10094SOL     OW31180   4.406   3.488   0.296
10094SOL    HW131181   4.362   3.464   0.210
10094SOL    HW231182   4.493   3.533   0.278
10095SOL     OW31183   4.349   2.754   5.307
10095SOL    HW131184   4.293   2.684   5.263
10095SOL    HW231185   4.433   2.768   5.254
10096SOL     OW31186   6.305   4.502   1.563
10096SOL    HW131187   6.273   4.588   1.523
10096SOL    HW231188   6.256   4.425   1.522
10097SOL     OW31189   0.636   0.310   0.822
10097SOL    HW131190   0.637   0.218   0.861
10097SOL    HW231191   0.721   0.357   0.844
10098SOL     OW31192   3.918   4.802   0.821
10098SOL    HW131193   3.855   4.809   0.899
10098SOL    HW231194   3.921   4.889   0.773
10099SOL     OW31195   0.172   6.253   2.839
10099SOL    HW131196   0.227   6.184   2.887
10099SOL    HW231197   0.184   6.342   2.882
10100SOL     OW31198   5.943   5.754   3.802
10100SOL    HW131199   6.040   5.763   3.825
10100SOL    HW231200   5.891   5.823   3.852
10101SOL     OW31201   0.080   2.468   6.301
10101SOL    HW131202   0.137   2.528   6.357
10101SOL    HW231203   0.039   2.398   6.359
10102SOL     OW31204   6.961   5.262   4.227
10102SOL    HW131205   6.997   5.192   4.287
10102SOL    HW231206   6.900   5.323   4.278
10103SOL     OW31207   0.804   0.526   6.428
10103SOL    HW131208   0.779   0.544   6.333
10103SOL    HW231209   0.722   0.528   6.485
10104SOL     OW31210   2.989   1.654   4.300
10104SOL    HW131211   2.978   1.559   4.331
10104SOL    HW231212   3.002   1.714   4.379
10105SOL     OW31213   3.422   1.403   4.381
10105SOL    HW131214   3.426   1.388   4.480
10105SOL    HW231215   3.339   1.454   4.359
10106SOL     OW31216   0.020   3.396   1.918
10106SOL    HW131217   0.083   3.320   1.932
10106SOL    HW231218   6.949   3.365   1.934
10107SOL     OW31219   4.714   5.736   4.898
10107SOL    HW131220   4.743   5.831   4.896
10107SOL    HW231221   4.652   5.721   4.975
10108SOL     OW31222   3.455   2.042   4.662
10108SOL    HW131223   3.418   2.090   4.742
10108SOL    HW231224   3.396   2.058   4.583
10109SOL     OW31225   1.201   2.772   0.775
10109SOL    HW131226   1.146   2.690   0.761
10109SOL    HW231227   1.144   2.847   0.809
10110SOL     OW31228   6.422   6.263   1.826
10110SOL    HW131229   6.520   6.277   1.834
10110SOL    HW231230   6.376   6.300   1.907
10111SOL     OW31231   0.134   2.313   1.105
10111SOL    HW131232   0.075   2.236   1.079
10111SOL    HW231233   0.199   2.283   1.174
10112SOL     OW31234   0.485   3.277   3.112
10112SOL    HW131235   0.497   3.252   3.016
10112SOL    HW231236   0.395   3.247   3.144
10113SOL     OW31237   6.860   6.527   6.064
10113SOL    HW131238   6.925   6.567   6.130
10113SOL    HW231239   6.807   6.600   6.021
10114SOL     OW31240   5.755   3.984   1.773
10114SOL    HW131241   5.854   3.986   1.782
10114SOL    HW231242   5.719   3.902   1.818
10115SOL     OW31243   2.454   1.632   6.610
10115SOL    HW131244   2.376   1.622   6.549
10115SOL    HW231245   2.537   1.647   6.557
10116SOL     OW31246   1.428   6.991   6.043
10116SOL    HW131247   1.466   0.018   5.964
10116SOL    HW231248   1.348   0.018   6.077
10117SOL     OW31249   0.992   4.531   0.927
10117SOL    HW131250   0.910   4.535   0.983
10117SOL    HW231251   1.024   4.436   0.921
10118SOL     OW31252   3.978   5.767   3.338
10118SOL    HW131253   3.989   5.744   3.241
10118SOL    HW231254   3.913   5.704   3.380
10119SOL     OW31255   5.928   5.581   6.785
10119SOL    HW131256   5.851   5.585   6.850
10119SOL    HW231257   5.985   5.662   6.797
10120SOL     OW31258   2.478   1.971   2.545
10120SOL    HW131259   2.545   1.905   2.512
10120SOL    HW231260   2.463   1.957   2.643
10121SOL     OW31261   6.825   6.209   1.783
10121SOL    HW131262   6.781   6.126   1.747
10121SOL    HW231263   6.762   6.253   1.848
10122SOL     OW31264   1.777   0.049   4.072
10122SOL    HW131265   1.842   0.023   4.001
10122SOL    HW231266   1.826   0.090   4.149
10123SOL     OW31267   6.403   6.296   6.405
10123SOL    HW131268   6.475   6.247   6.356
10123SOL    HW231269   6.317   6.286   6.357
10124SOL     OW31270   0.435   4.659   3.451
10124SOL    HW131271   0.380   4.642   3.533
10124SOL    HW231272   0.532   4.666   3.476
10125SOL     OW31273   2.427   2.636   4.026
10125SOL    HW131274   2.440   2.598   4.118
10125SOL    HW231275   2.501   2.606   3.967
10126SOL     OW31276   6.819   5.960   4.551
10126SOL    HW131277   6.828   6.043   4.495
10126SOL    HW231278   6.771   5.890   4.499
10127SOL     OW31279   2.251   0.768   5.452
10127SOL    HW131280   2.242   0.788   5.550
10127SOL    HW231281   2.166   0.793   5.405
10128SOL     OW31282   3.032   0.357   0.313
10128SOL    HW131283   2.965   0.428   0.288
10128SOL    HW231284   3.028   0.342   0.412
10129SOL     OW31285   6.819   2.458   5.625
10129SOL    HW131286   6.890   2.423   5.685
10129SOL    HW231287   6.736   2.477   5.678
10130SOL     OW31288   0.806   2.620   3.408
10130SOL    HW131289   0.827   2.672   3.491
10130SOL    HW231290   0.707   2.617   3.395
10131SOL     OW31291   2.516   0.634   4.935
10131SOL    HW131292   2.598   0.588   4.971
10131SOL    HW231293   2.544   0.701   4.867
10132SOL     OW31294   5.925   0.912   1.864
10132SOL    HW131295   5.999   0.869   1.812
10132SOL    HW231296   5.837   0.873   1.836
10133SOL     OW31297   4.709   5.295   1.151
10133SOL    HW131298   4.673   5.348   1.074
10133SOL    HW231299   4.809   5.299   1.149
10134SOL     OW31300   6.367   0.900   2.908
10134SOL    HW131301   6.425   0.980   2.918
10134SOL    HW231302   6.305   0.894   2.986
10135SOL     OW31303   5.997   6.724   3.250
10135SOL    HW131304   5.905   6.713   3.211
10135SOL    HW231305   6.017   6.822   3.260
10136SOL     OW31306   5.005   0.212   3.124
10136SOL    HW131307   5.043   0.259   3.045
10136SOL    HW231308   4.986   0.116   3.100
10137SOL     OW31309   5.971   5.921   1.961
10137SOL    HW131310   5.988   5.997   1.900
10137SOL    HW231311   6.037   5.923   2.036
10138SOL     OW31312   0.594   1.058   1.633
10138SOL    HW131313   0.615   1.155   1.623
10138SOL    HW231314   0.610   1.029   1.727
10139SOL     OW31315   4.420   2.058   0.185
10139SOL    HW131316   4.491   1.991   0.161
10139SOL    HW231317   4.384   2.038   0.276
10140SOL     OW31318   6.181   6.638   3.502
10140SOL    HW131319   6.145   6.630   3.409
10140SOL    HW231320   6.262   6.697   3.501
10141SOL     OW31321   0.654   1.685   5.449
10141SOL    HW131322   0.712   1.696   5.369
10141SOL    HW231323   0.585   1.758   5.451
10142SOL     OW31324   3.995   5.571   1.634
10142SOL    HW131325   4.025   5.665   1.644
10142SOL    HW231326   3.898   5.563   1.660
10143SOL     OW31327   0.775   3.417   6.310
10143SOL    HW131328   0.771   3.427   6.210
10143SOL    HW231329   0.851   3.471   6.346
10144SOL     OW31330   4.675   0.011   2.641
10144SOL    HW131331   4.662   0.028   2.543
10144SOL    HW231332   4.647   0.091   2.693
10145SOL     OW31333   6.054   0.903   5.363
10145SOL    HW131334   6.008   0.871   5.280
10145SOL    HW231335   6.153   0.907   5.346
10146SOL     OW31336   1.884   0.952   5.605
10146SOL    HW131337   1.792   0.940   5.643
10146SOL    HW231338   1.883   1.028   5.540
10147SOL     OW31339   4.017   4.848   6.528
10147SOL    HW131340   4.033   4.901   6.611
10147SOL    HW231341   4.038   4.752   6.545
10148SOL     OW31342   6.638   5.597   6.276
10148SOL    HW131343   6.626   5.585   6.177
10148SOL    HW231344   6.711   5.663   6.294
10149SOL     OW31345   3.484   3.212   4.649
10149SOL    HW131346   3.414   3.188   4.716
10149SOL    HW231347   3.499   3.311   4.651
10150SOL     OW31348   6.571   4.261   6.806
10150SOL    HW131349   6.627   4.326   6.858
10150SOL    HW231350   6.579   4.170   6.846
10151SOL     OW31351   0.281   0.510   7.002
10151SOL    HW131352   0.379   0.512   6.980
10151SOL    HW231353   0.258   0.588   0.037
10152SOL     OW31354   3.195   6.848   4.003
10152SOL    HW131355   3.186   6.938   4.045
10152SOL    HW231356   3.160   6.852   3.909
10153SOL     OW31357   4.090   4.776   0.418
10153SOL    HW131358   4.014   4.713   0.434
10153SOL    HW231359   4.096   4.796   0.321
10154SOL     OW31360   4.404   5.240   6.191
10154SOL    HW131361   4.462   5.231   6.272
10154SOL    HW231362   4.325   5.180   6.200
10155SOL     OW31363   4.705   2.813   4.651
10155SOL    HW131364   4.615   2.809   4.608
10155SOL    HW231365   4.725   2.725   4.693
10156SOL     OW31366   3.206   2.263   6.346
10156SOL    HW131367   3.167   2.202   6.415
10156SOL    HW231368   3.134   2.322   6.309
10157SOL     OW31369   0.263   5.379   2.885
10157SOL    HW131370   0.190   5.374   2.953
10157SOL    HW231371   0.234   5.438   2.809
10158SOL     OW31372   0.358   5.113   5.896
10158SOL    HW131373   0.343   5.195   5.840
10158SOL    HW231374   0.329   5.032   5.844
10159SOL     OW31375   4.099   2.890   1.707
10159SOL    HW131376   4.093   2.940   1.793
10159SOL    HW231377   4.136   2.799   1.724
10160SOL     OW31378   6.906   4.263   2.549
10160SOL    HW131379   6.945   4.354   2.540
10160SOL    HW231380   6.915   4.214   2.462
10161SOL     OW31381   6.455   2.627   0.173
10161SOL    HW131382   6.487   2.644   0.080
10161SOL    HW231383   6.430   2.713   0.217
10162SOL     OW31384   1.638   1.902   2.658
10162SOL    HW131385   1.683   1.992   2.656
10162SOL    HW231386   1.548   1.911   2.700
10163SOL     OW31387   4.228   5.280   4.511
10163SOL    HW131388   4.251   5.292   4.414
10163SOL    HW231389   4.156   5.345   4.536
10164SOL     OW31390   0.725   1.941   3.733
10164SOL    HW131391   0.800   1.950   3.799
10164SOL    HW231392   0.638   1.953   3.781
10165SOL     OW31393   1.747   2.675   3.679
10165SOL    HW131394   1.653   2.667   3.712
10165SOL    HW231395   1.810   2.669   3.756
10166SOL     OW31396   3.490   6.464   4.007
10166SOL    HW131397   3.479   6.385   4.068
10166SOL    HW231398   3.422   6.533   4.029
10167SOL     OW31399   3.757   2.066   0.110
10167SOL    HW131400   3.785   2.046   0.204
10167SOL    HW231401   3.664   2.031   0.094
10168SOL     OW31402   0.366   0.984   6.380
10168SOL    HW131403   0.369   1.010   6.476
10168SOL    HW231404   0.271   0.970   6.351
10169SOL     OW31405   4.812   4.869   2.586
10169SOL    HW131406   4.864   4.783   2.580
10169SOL    HW231407   4.839   4.919   2.668
10170SOL     OW31408   4.310   0.083   0.101
10170SOL    HW131409   4.406   0.088   0.076
10170SOL    HW231410   4.272   0.175   0.109
10171SOL     OW31411   0.782   4.767   2.921
10171SOL    HW131412   0.765   4.715   3.005
10171SOL    HW231413   0.881   4.770   2.904
10172SOL     OW31414   0.471   0.282   3.696
10172SOL    HW131415   0.449   0.379   3.688
10172SOL    HW231416   0.565   0.267   3.666
10173SOL     OW31417   4.766   2.929   3.860
10173SOL    HW131418   4.711   2.930   3.944
10173SOL    HW231419   4.771   2.836   3.825
10174SOL     OW31420   3.645   5.665   1.290
10174SOL    HW131421   3.742   5.680   1.274
10174SOL    HW231422   3.617   5.711   1.375
10175SOL     OW31423   6.965   6.810   4.906
10175SOL    HW131424   6.998   6.882   4.845
10175SOL    HW231425   6.932   6.851   4.991
10176SOL     OW31426   0.061   1.501   5.005
10176SOL    HW131427   0.157   1.481   4.991
10176SOL    HW231428   0.037   1.587   4.959
10177SOL     OW31429   3.077   0.936   4.578
10177SOL    HW131430   3.163   0.917   4.530
10177SOL    HW231431   3.003   0.942   4.511
10178SOL     OW31432   5.759   1.328   1.518
10178SOL    HW131433   5.767   1.420   1.554
10178SOL    HW231434   5.683   1.323   1.454
10179SOL     OW31435   6.518   6.002   0.970
10179SOL    HW131436   6.583   5.960   1.033
10179SOL    HW231437   6.452   5.934   0.940
10180SOL     OW31438   2.209   0.453   6.146
10180SOL    HW131439   2.184   0.425   6.053
10180SOL    HW231440   2.273   0.386   6.184
10181SOL     OW31441   0.199   4.227   2.672
10181SOL    HW131442   0.220   4.293   2.745
10181SOL    HW231443   0.194   4.275   2.585
10182SOL     OW31444   2.758   6.995   6.333
10182SOL    HW131445   2.763   6.895   6.334
10182SOL    HW231446   2.724   0.003   6.244
10183SOL     OW31447   3.661   6.065   6.431
10183SOL    HW131448   3.571   6.044   6.470
10183SOL    HW231449   3.656   6.058   6.331
10184SOL     OW31450   5.096   2.629   4.379
10184SOL    HW131451   5.062   2.629   4.473
10184SOL    HW231452   5.161   2.704   4.367
10185SOL     OW31453   2.651   4.766   1.836
10185SOL    HW131454   2.735   4.713   1.847
10185SOL    HW231455   2.653   4.844   1.899
10186SOL     OW31456   3.241   3.264   2.006
10186SOL    HW131457   3.227   3.207   2.087
10186SOL    HW231458   3.250   3.359   2.034
10187SOL     OW31459   1.600   3.462   4.526
10187SOL    HW131460   1.617   3.368   4.556
10187SOL    HW231461   1.570   3.517   4.603
10188SOL     OW31462   2.489   6.524   0.224
10188SOL    HW131463   2.552   6.539   0.148
10188SOL    HW231464   2.398   6.502   0.187
10189SOL     OW31465   1.368   1.348   5.868
10189SOL    HW131466   1.289   1.370   5.925
10189SOL    HW231467   1.378   1.417   5.797
10190SOL     OW31468   2.648   4.344   1.321
10190SOL    HW131469   2.580   4.341   1.248
10190SOL    HW231470   2.629   4.271   1.388
10191SOL     OW31471   6.845   0.131   6.757
10191SOL    HW131472   6.754   0.137   6.717
10191SOL    HW231473   6.869   0.035   6.771
10192SOL     OW31474   3.047   1.256   3.871
10192SOL    HW131475   3.021   1.351   3.890
10192SOL    HW231476   3.099   1.253   3.786
10193SOL     OW31477   3.474   3.001   4.340
10193SOL    HW131478   3.557   3.045   4.374
10193SOL    HW231479   3.491   2.963   4.249
10194SOL     OW31480   3.352   5.773   3.653
10194SOL    HW131481   3.285   5.830   3.605
10194SOL    HW231482   3.360   5.804   3.747
10195SOL     OW31483   5.098   6.673   1.621
10195SOL    HW131484   5.167   6.677   1.694
10195SOL    HW231485   5.062   6.764   1.604
10196SOL     OW31486   4.944   4.511   4.819
10196SOL    HW131487   4.935   4.457   4.735
10196SOL    HW231488   4.927   4.607   4.799
10197SOL     OW31489   5.807   2.128   2.602
10197SOL    HW131490   5.843   2.146   2.693
10197SOL    HW231491   5.865   2.173   2.534
10198SOL     OW31492   3.567   1.547   2.226
10198SOL    HW131493   3.574   1.581   2.319
10198SOL    HW231494   3.500   1.600   2.175
10199SOL     OW31495   1.523   1.849   6.723
10199SOL    HW131496   1.581   1.853   6.641
10199SOL    HW231497   1.445   1.789   6.705
10200SOL     OW31498   3.862   6.929   3.408
10200SOL    HW131499   3.882   7.017   3.364
10200SOL    HW231500   3.900   6.855   3.352
10201SOL     OW31501   0.318   4.845   2.495
10201SOL    HW131502   0.360   4.912   2.435
10201SOL    HW231503   0.281   4.890   2.576
10202SOL     OW31504   1.753   2.915   3.546
10202SOL    HW131505   1.756   2.824   3.587
10202SOL    HW231506   1.729   2.908   3.449
10203SOL     OW31507   6.366   2.270   1.138
10203SOL    HW131508   6.372   2.188   1.195
10203SOL    HW231509   6.280   2.316   1.155
10204SOL     OW31510   1.143   5.977   4.446
10204SOL    HW131511   1.161   5.949   4.352
10204SOL    HW231512   1.221   5.952   4.504
10205SOL     OW31513   3.304   6.732   1.333
10205SOL    HW131514   3.403   6.738   1.315
10205SOL    HW231515   3.284   6.646   1.379
10206SOL     OW31516   6.051   6.029   6.543
10206SOL    HW131517   6.122   6.024   6.613
10206SOL    HW231518   5.967   6.067   6.583
10207SOL     OW31519   2.858   1.298   1.530
10207SOL    HW131520   2.796   1.374   1.514
10207SOL    HW231521   2.891   1.263   1.442
10208SOL     OW31522   1.215   2.591   6.049
10208SOL    HW131523   1.287   2.524   6.068
10208SOL    HW231524   1.162   2.607   6.132
10209SOL     OW31525   3.985   6.472   0.672
10209SOL    HW131526   3.999   6.483   0.771
10209SOL    HW231527   4.072   6.449   0.629
10210SOL     OW31528   4.310   6.194   6.762
10210SOL    HW131529   4.231   6.253   6.781
10210SOL    HW231530   4.364   6.234   6.688
10211SOL     OW31531   3.601   4.917   4.749
10211SOL    HW131532   3.664   4.880   4.818
10211SOL    HW231533   3.517   4.948   4.793
10212SOL     OW31534   6.418   5.436   5.622
10212SOL    HW131535   6.465   5.359   5.580
10212SOL    HW231536   6.485   5.505   5.650
10213SOL     OW31537   3.245   0.656   4.733
10213SOL    HW131538   3.261   0.739   4.786
10213SOL    HW231539   3.254   0.677   4.635
10214SOL     OW31540   6.754   6.902   0.355
10214SOL    HW131541   6.667   6.928   0.313
10214SOL    HW231542   6.772   6.805   0.336
10215SOL     OW31543   4.863   2.456   6.860
10215SOL    HW131544   4.908   2.389   6.920
10215SOL    HW231545   4.921   2.537   6.850
10216SOL     OW31546   5.008   0.256   2.832
10216SOL    HW131547   4.992   0.167   2.875
10216SOL    HW231548   4.940   0.321   2.864
10217SOL     OW31549   2.449   1.880   6.019
10217SOL    HW131550   2.374   1.836   6.069
10217SOL    HW231551   2.511   1.810   5.984
10218SOL     OW31552   3.825   0.885   5.824
10218SOL    HW131553   3.899   0.928   5.771
10218SOL    HW231554   3.745   0.944   5.822
10219SOL     OW31555   6.617   5.015   1.179
10219SOL    HW131556   6.652   4.976   1.093
10219SOL    HW231557   6.673   5.093   1.206
10220SOL     OW31558   4.368   2.385   6.398
10220SOL    HW131559   4.295   2.450   6.417
10220SOL    HW231560   4.342   2.294   6.429
10221SOL     OW31561   2.096   0.119   4.607
10221SOL    HW131562   2.013   0.067   4.626
10221SOL    HW231563   2.126   0.102   4.513
10222SOL     OW31564   2.587   5.299   5.558
10222SOL    HW131565   2.612   5.202   5.551
10222SOL    HW231566   2.492   5.311   5.531
10223SOL     OW31567   2.530   5.756   5.824
10223SOL    HW131568   2.444   5.726   5.780
10223SOL    HW231569   2.510   5.794   5.914
10224SOL     OW31570   3.961   5.704   5.174
10224SOL    HW131571   3.889   5.691   5.105
10224SOL    HW231572   4.035   5.639   5.157
10225SOL     OW31573   4.899   0.576   5.454
10225SOL    HW131574   4.802   0.590   5.432
10225SOL    HW231575   4.930   0.650   5.514
10226SOL     OW31576   6.324   2.435   6.685
10226SOL    HW131577   6.308   2.417   6.782
10226SOL    HW231578   6.419   2.461   6.671
10227SOL     OW31579   4.763   4.966   5.270
10227SOL    HW131580   4.681   5.019   5.293
10227SOL    HW231581   4.741   4.898   5.200
10228SOL     OW31582   1.053   2.526   0.981
10228SOL    HW131583   1.094   2.537   1.072
10228SOL    HW231584   0.987   2.599   0.966
10229SOL     OW31585   2.523   0.451   1.918
10229SOL    HW131586   2.602   0.481   1.971
10229SOL    HW231587   2.542   0.462   1.820
10230SOL     OW31588   5.529   0.150   3.169
10230SOL    HW131589   5.497   0.185   3.081
10230SOL    HW231590   5.628   0.160   3.175
10231SOL     OW31591   5.478   0.467   4.943
10231SOL    HW131592   5.440   0.501   5.029
10231SOL    HW231593   5.507   0.372   4.955
10232SOL     OW31594   4.048   1.938   2.908
10232SOL    HW131595   4.110   1.876   2.956
10232SOL    HW231596   4.011   1.891   2.827
10233SOL     OW31597   4.973   6.753   5.059
10233SOL    HW131598   5.037   6.792   5.125
10233SOL    HW231599   4.963   6.814   4.981
10234SOL     OW31600   3.356   4.131   0.969
10234SOL    HW131601   3.263   4.095   0.981
10234SOL    HW231602   3.383   4.181   1.051
10235SOL     OW31603   4.975   6.515   0.053
10235SOL    HW131604   4.968   6.416   0.040
10235SOL    HW231605   5.027   6.534   0.136
10236SOL     OW31606   1.230   5.019   1.229
10236SOL    HW131607   1.223   5.114   1.260
10236SOL    HW231608   1.322   5.002   1.193
10237SOL     OW31609   5.703   1.899   2.062
10237SOL    HW131610   5.766   1.827   2.091
10237SOL    HW231611   5.739   1.945   1.981
10238SOL     OW31612   5.180   4.517   6.482
10238SOL    HW131613   5.087   4.538   6.513
10238SOL    HW231614   5.208   4.583   6.412
10239SOL     OW31615   5.805   4.166   3.343
10239SOL    HW131616   5.804   4.147   3.441
10239SOL    HW231617   5.722   4.131   3.301
10240SOL     OW31618   5.338   3.489   2.057
10240SOL    HW131619   5.419   3.546   2.072
10240SOL    HW231620   5.283   3.485   2.141
10241SOL     OW31621   0.962   2.094   2.827
10241SOL    HW131622   0.870   2.132   2.828
10241SOL    HW231623   1.000   2.100   2.734
10242SOL     OW31624   1.155   5.628   6.416
10242SOL    HW131625   1.095   5.550   6.400
10242SOL    HW231626   1.247   5.595   6.439
10243SOL     OW31627   6.753   5.952   3.396
10243SOL    HW131628   6.692   6.017   3.352
10243SOL    HW231629   6.805   5.999   3.468
10244SOL     OW31630   2.467   6.220   0.588
10244SOL    HW131631   2.528   6.280   0.536
10244SOL    HW231632   2.411   6.275   0.649
10245SOL     OW31633   3.980   3.190   0.712
10245SOL    HW131634   3.893   3.161   0.671
10245SOL    HW231635   3.962   3.259   0.782
10246SOL     OW31636   3.466   3.492   4.728
10246SOL    HW131637   3.479   3.549   4.647
10246SOL    HW231638   3.412   3.542   4.796
10247SOL     OW31639   1.235   5.269   6.311
10247SOL    HW131640   1.153   5.326   6.322
10247SOL    HW231641   1.219   5.200   6.241
10248SOL     OW31642   5.742   6.850   3.952
10248SOL    HW131643   5.800   6.774   3.921
10248SOL    HW231644   5.652   6.843   3.910
10249SOL     OW31645   4.605   1.557   5.902
10249SOL    HW131646   4.680   1.594   5.847
10249SOL    HW231647   4.586   1.463   5.872
10250SOL     OW31648   4.496   5.166   1.237
10250SOL    HW131649   4.452   5.213   1.314
10250SOL    HW231650   4.571   5.222   1.202
10251SOL     OW31651   4.329   4.291   1.201
10251SOL    HW131652   4.327   4.387   1.173
10251SOL    HW231653   4.424   4.259   1.201
10252SOL     OW31654   0.165   3.940   0.858
10252SOL    HW131655   0.136   3.977   0.769
10252SOL    HW231656   0.236   3.871   0.844
10253SOL     OW31657   5.388   3.705   0.353
10253SOL    HW131658   5.484   3.721   0.328
10253SOL    HW231659   5.332   3.779   0.317
10254SOL     OW31660   3.714   2.066   5.949
10254SOL    HW131661   3.689   2.162   5.939
10254SOL    HW231662   3.658   2.011   5.887
10255SOL     OW31663   2.793   4.710   4.034
10255SOL    HW131664   2.834   4.688   4.123
10255SOL    HW231665   2.725   4.782   4.046
10256SOL     OW31666   5.718   4.562   0.095
10256SOL    HW131667   5.705   4.610   0.008
10256SOL    HW231668   5.815   4.556   0.116
10257SOL     OW31669   1.565   4.236   4.959
10257SOL    HW131670   1.637   4.290   4.915
10257SOL    HW231671   1.593   4.140   4.964
10258SOL     OW31672   3.607   1.291   2.314
10258SOL    HW131673   3.586   1.388   2.310
10258SOL    HW231674   3.550   1.242   2.249
10259SOL     OW31675   5.893   3.111   3.486
10259SOL    HW131676   5.894   3.177   3.560
10259SOL    HW231677   5.984   3.068   3.479
10260SOL     OW31678   0.237   5.991   2.647
10260SOL    HW131679   0.242   6.081   2.691
10260SOL    HW231680   0.172   5.933   2.697
10261SOL     OW31681   1.994   0.246   2.499
10261SOL    HW131682   1.986   0.338   2.538
10261SOL    HW231683   1.922   0.232   2.431
10262SOL     OW31684   6.493   6.712   3.182
10262SOL    HW131685   6.542   6.625   3.193
10262SOL    HW231686   6.558   6.787   3.176
10263SOL     OW31687   0.018   3.788   4.929
10263SOL    HW131688   0.074   3.870   4.919
10263SOL    HW231689   6.944   3.812   4.917
10264SOL     OW31690   0.757   0.184   1.158
10264SOL    HW131691   0.689   0.257   1.161
10264SOL    HW231692   0.713   0.100   1.126
10265SOL     OW31693   5.235   2.548   4.631
10265SOL    HW131694   5.304   2.584   4.568
10265SOL    HW231695   5.193   2.467   4.591
10266SOL     OW31696   3.170   3.684   0.248
10266SOL    HW131697   3.142   3.632   0.168
10266SOL    HW231698   3.227   3.761   0.220
10267SOL     OW31699   6.692   0.536   6.289
10267SOL    HW131700   6.749   0.488   6.355
10267SOL    HW231701   6.597   0.505   6.299
10268SOL     OW31702   6.621   4.617   0.427
10268SOL    HW131703   6.614   4.655   0.335
10268SOL    HW231704   6.683   4.539   0.427
10269SOL     OW31705   3.705   1.517   5.811
10269SOL    HW131706   3.624   1.499   5.754
10269SOL    HW231707   3.738   1.431   5.849
10270SOL     OW31708   3.927   6.089   4.170
10270SOL    HW131709   3.937   6.054   4.077
10270SOL    HW231710   3.844   6.144   4.177
10271SOL     OW31711   1.124   4.756   0.777
10271SOL    HW131712   1.062   4.687   0.813
10271SOL    HW231713   1.191   4.712   0.716
10272SOL     OW31714   1.481   3.356   3.899
10272SOL    HW131715   1.446   3.335   3.990
10272SOL    HW231716   1.577   3.328   3.893
10273SOL     OW31717   4.669   0.363   4.435
10273SOL    HW131718   4.638   0.415   4.514
10273SOL    HW231719   4.663   0.420   4.353
10274SOL     OW31720   2.044   4.241   6.617
10274SOL    HW131721   1.955   4.243   6.663
10274SOL    HW231722   2.074   4.335   6.601
10275SOL     OW31723   6.979   5.897   2.039
10275SOL    HW131724   6.997   5.981   2.089
10275SOL    HW231725   6.885   5.867   2.058
10276SOL     OW31726   3.192   6.497   0.342
10276SOL    HW131727   3.114   6.444   0.376
10276SOL    HW231728   3.223   6.560   0.413
10277SOL     OW31729   6.017   6.161   2.153
10277SOL    HW131730   5.946   6.184   2.219
10277SOL    HW231731   6.059   6.074   2.179
10278SOL     OW31732   6.247   1.216   5.265
10278SOL    HW131733   6.329   1.244   5.215
10278SOL    HW231734   6.178   1.183   5.200
10279SOL     OW31735   3.811   6.929   3.694
10279SOL    HW131736   3.852   6.849   3.738
10279SOL    HW231737   3.817   6.919   3.595
10280SOL     OW31738   2.828   2.336   6.878
10280SOL    HW131739   2.853   2.412   6.818
10280SOL    HW231740   2.887   2.336   6.958
10281SOL     OW31741   3.930   1.482   4.375
10281SOL    HW131742   3.866   1.405   4.371
10281SOL    HW231743   4.008   1.464   4.316
10282SOL     OW31744   1.242   3.127   3.777
10282SOL    HW131745   1.164   3.182   3.748
10282SOL    HW231746   1.317   3.188   3.804
10283SOL     OW31747   2.049   5.820   6.948
10283SOL    HW131748   2.077   5.778   6.862
10283SOL    HW231749   2.126   5.820   7.011
10284SOL     OW31750   5.417   2.095   0.656
10284SOL    HW131751   5.435   2.172   0.594
10284SOL    HW231752   5.474   2.017   0.629
10285SOL     OW31753   5.091   1.394   0.127
10285SOL    HW131754   5.073   1.297   0.113
10285SOL    HW231755   5.144   1.430   0.050
10286SOL     OW31756   2.468   6.357   3.392
10286SOL    HW131757   2.382   6.383   3.437
10286SOL    HW231758   2.543   6.410   3.432
10287SOL     OW31759   2.286   4.733   1.937
10287SOL    HW131760   2.347   4.748   1.860
10287SOL    HW231761   2.192   4.726   1.905
10288SOL     OW31762   4.762   6.981   4.347
10288SOL    HW131763   4.834   6.912   4.363
10288SOL    HW231764   4.795   0.048   4.377
10289SOL     OW31765   2.552   1.721   2.674
10289SOL    HW131766   2.452   1.720   2.675
10289SOL    HW231767   2.586   1.627   2.672
10290SOL     OW31768   3.167   4.072   2.760
10290SOL    HW131769   3.212   4.070   2.670
10290SOL    HW231770   3.127   4.162   2.775
10291SOL     OW31771   3.973   0.515   3.308
10291SOL    HW131772   3.965   0.529   3.406
10291SOL    HW231773   3.997   0.602   3.264
10292SOL     OW31774   0.160   3.461   4.597
10292SOL    HW131775   0.227   3.525   4.558
10292SOL    HW231776   0.152   3.478   4.696
10293SOL     OW31777   1.800   5.401   3.488
10293SOL    HW131778   1.742   5.356   3.556
10293SOL    HW231779   1.755   5.401   3.399
10294SOL     OW31780   6.195   0.854   3.112
10294SOL    HW131781   6.172   0.908   3.193
10294SOL    HW231782   6.114   0.806   3.079
10295SOL     OW31783   1.475   4.317   3.311
10295SOL    HW131784   1.467   4.414   3.336
10295SOL    HW231785   1.558   4.303   3.258
10296SOL     OW31786   0.381   3.575   1.164
10296SOL    HW131787   0.319   3.497   1.162
10296SOL    HW231788   0.328   3.660   1.158
10297SOL     OW31789   3.479   4.271   6.268
10297SOL    HW131790   3.556   4.248   6.328
10297SOL    HW231791   3.513   4.307   6.181
10298SOL     OW31792   5.502   3.219   2.912
10298SOL    HW131793   5.443   3.271   2.974
10298SOL    HW231794   5.506   3.265   2.823
10299SOL     OW31795   3.767   5.313   3.076
10299SOL    HW131796   3.796   5.400   3.034
10299SOL    HW231797   3.733   5.252   3.004
10300SOL     OW31798   0.655   6.034   2.548
10300SOL    HW131799   0.595   6.084   2.611
10300SOL    HW231800   0.608   5.951   2.517
10301SOL     OW31801   4.380   0.537   1.832
10301SOL    HW131802   4.394   0.440   1.809
10301SOL    HW231803   4.392   0.549   1.931
10302SOL     OW31804   6.736   4.566   3.341
10302SOL    HW131805   6.701   4.593   3.251
10302SOL    HW231806   6.835   4.582   3.344
10303SOL     OW31807   4.674   3.260   0.888
10303SOL    HW131808   4.587   3.254   0.839
10303SOL    HW231809   4.672   3.339   0.949
10304SOL     OW31810   5.988   6.689   4.588
10304SOL    HW131811   5.942   6.660   4.672
10304SOL    HW231812   6.076   6.643   4.580
10305SOL     OW31813   0.726   5.474   0.953
10305SOL    HW131814   0.718   5.529   0.870
10305SOL    HW231815   0.689   5.383   0.936
10306SOL     OW31816   4.473   3.568   6.475
10306SOL    HW131817   4.394   3.510   6.458
10306SOL    HW231818   4.527   3.577   6.390
10307SOL     OW31819   2.540   2.286   5.926
10307SOL    HW131820   2.510   2.304   5.832
10307SOL    HW231821   2.462   2.261   5.982
10308SOL     OW31822   2.818   4.774   4.327
10308SOL    HW131823   2.878   4.804   4.402
10308SOL    HW231824   2.728   4.751   4.363
10309SOL     OW31825   6.510   6.678   3.712
10309SOL    HW131826   6.461   6.625   3.643
10309SOL    HW231827   6.593   6.630   3.739
10310SOL     OW31828   4.067   3.375   4.385
10310SOL    HW131829   4.127   3.395   4.462
10310SOL    HW231830   3.991   3.318   4.415
10311SOL     OW31831   1.902   1.158   0.538
10311SOL    HW131832   1.821   1.107   0.510
10311SOL    HW231833   1.883   1.205   0.625
10312SOL     OW31834   3.191   4.257   0.387
10312SOL    HW131835   3.141   4.278   0.303
10312SOL    HW231836   3.129   4.265   0.466
10313SOL     OW31837   6.586   5.862   2.970
10313SOL    HW131838   6.620   5.825   2.883
10313SOL    HW231839   6.487   5.876   2.964
10314SOL     OW31840   6.815   5.893   5.133
10314SOL    HW131841   6.810   5.793   5.121
10314SOL    HW231842   6.848   5.935   5.049
10315SOL     OW31843   4.677   5.491   5.092
10315SOL    HW131844   4.596   5.500   5.035
10315SOL    HW231845   4.705   5.395   5.095
10316SOL     OW31846   0.270   2.716   3.392
10316SOL    HW131847   0.195   2.771   3.428
10316SOL    HW231848   0.247   2.619   3.401
10317SOL     OW31849   6.250   3.946   6.129
10317SOL    HW131850   6.273   3.995   6.045
10317SOL    HW231851   6.206   3.859   6.106
10318SOL     OW31852   5.116   4.548   2.398
10318SOL    HW131853   5.100   4.577   2.303
10318SOL    HW231854   5.214   4.554   2.418
10319SOL     OW31855   6.204   6.560   3.759
10319SOL    HW131856   6.300   6.558   3.786
10319SOL    HW231857   6.197   6.589   3.663
10320SOL     OW31858   2.757   6.550   1.641
10320SOL    HW131859   2.758   6.589   1.733
10320SOL    HW231860   2.842   6.500   1.625
10321SOL     OW31861   4.953   6.137   5.567
10321SOL    HW131862   5.046   6.119   5.600
10321SOL    HW231863   4.958   6.182   5.477
10322SOL     OW31864   6.736   1.954   6.204
10322SOL    HW131865   6.799   1.888   6.164
10322SOL    HW231866   6.645   1.914   6.211
10323SOL     OW31867   6.762   1.851   5.587
10323SOL    HW131868   6.766   1.836   5.686
10323SOL    HW231869   6.805   1.938   5.565
10324SOL     OW31870   2.811   3.680   5.273
10324SOL    HW131871   2.730   3.739   5.281
10324SOL    HW231872   2.889   3.724   5.318
10325SOL     OW31873   0.557   2.977   3.665
10325SOL    HW131874   0.640   2.953   3.614
10325SOL    HW231875   0.581   3.033   3.744
10326SOL     OW31876   5.625   0.951   0.638
10326SOL    HW131877   5.531   0.923   0.622
10326SOL    HW231878   5.683   0.870   0.648
10327SOL     OW31879   6.555   2.266   3.772
10327SOL    HW131880   6.485   2.262   3.843
10327SOL    HW231881   6.620   2.191   3.785
10328SOL     OW31882   0.437   3.421   1.749
10328SOL    HW131883   0.358   3.359   1.753
10328SOL    HW231884   0.517   3.375   1.787
10329SOL     OW31885   2.360   5.749   2.516
10329SOL    HW131886   2.324   5.661   2.547
10329SOL    HW231887   2.319   5.773   2.427
10330SOL     OW31888   4.172   3.185   0.513
10330SOL    HW131889   4.133   3.186   0.605
10330SOL    HW231890   4.270   3.168   0.518
10331SOL     OW31891   4.525   1.598   3.988
10331SOL    HW131892   4.583   1.518   4.005
10331SOL    HW231893   4.580   1.672   3.949
10332SOL     OW31894   2.036   3.074   6.302
10332SOL    HW131895   2.103   3.022   6.250
10332SOL    HW231896   1.953   3.086   6.247
10333SOL     OW31897   0.089   4.005   5.780
10333SOL    HW131898   0.124   3.944   5.709
10333SOL    HW231899   0.162   4.025   5.845
10334SOL     OW31900   0.205   5.256   5.723
10334SOL    HW131901   0.165   5.330   5.670
10334SOL    HW231902   0.227   5.179   5.663
10335SOL     OW31903   2.881   5.086   2.967
10335SOL    HW131904   2.914   4.992   2.979
10335SOL    HW231905   2.845   5.096   2.874
10336SOL     OW31906   4.146   0.431   2.597
10336SOL    HW131907   4.103   0.482   2.672
10336SOL    HW231908   4.088   0.435   2.516
10337SOL     OW31909   2.121   3.270   6.470
10337SOL    HW131910   2.091   3.199   6.406
10337SOL    HW231911   2.207   3.242   6.514
10338SOL     OW31912   2.118   4.066   3.613
10338SOL    HW131913   2.152   3.994   3.553
10338SOL    HW231914   2.185   4.140   3.619
10339SOL     OW31915   3.384   6.765   6.722
10339SOL    HW131916   3.318   6.834   6.691
10339SOL    HW231917   3.335   6.684   6.753
10340SOL     OW31918   1.953   5.997   0.742
10340SOL    HW131919   1.947   6.093   0.716
10340SOL    HW231920   1.863   5.965   0.771
10341SOL     OW31921   0.362   2.676   1.908
10341SOL    HW131922   0.354   2.642   2.002
10341SOL    HW231923   0.344   2.601   1.844
10342SOL     OW31924   3.291   5.016   3.921
10342SOL    HW131925   3.296   5.043   3.825
10342SOL    HW231926   3.197   4.996   3.945
10343SOL     OW31927   2.864   2.314   4.567
10343SOL    HW131928   2.765   2.317   4.581
10343SOL    HW231929   2.909   2.372   4.635
10344SOL     OW31930   5.023   4.720   1.162
10344SOL    HW131931   4.982   4.641   1.116
10344SOL    HW231932   5.112   4.694   1.200
10345SOL     OW31933   2.624   2.093   6.085
10345SOL    HW131934   2.536   2.046   6.088
10345SOL    HW231935   2.612   2.185   6.047
10346SOL     OW31936   6.744   4.987   6.660
10346SOL    HW131937   6.781   5.075   6.628
10346SOL    HW231938   6.685   5.003   6.739
10347SOL     OW31939   3.273   6.341   2.464
10347SOL    HW131940   3.213   6.381   2.394
10347SOL    HW231941   3.368   6.365   2.444
10348SOL     OW31942   0.346   2.498   3.946
10348SOL    HW131943   0.406   2.421   3.923
10348SOL    HW231944   0.277   2.508   3.874
10349SOL     OW31945   6.355   1.373   0.059
10349SOL    HW131946   6.366   1.450   7.019
10349SOL    HW231947   6.261   1.371   0.092
10350SOL     OW31948   1.950   5.340   4.250
10350SOL    HW131949   1.899   5.305   4.171
10350SOL    HW231950   1.885   5.368   4.321
10351SOL     OW31951   3.931   5.517   5.438
10351SOL    HW131952   3.868   5.595   5.434
10351SOL    HW231953   3.938   5.485   5.532
10352SOL     OW31954   0.294   1.532   2.054
10352SOL    HW131955   0.359   1.493   2.119
10352SOL    HW231956   0.330   1.524   1.961
10353SOL     OW31957   5.284   2.925   3.690
10353SOL    HW131958   5.203   2.884   3.731
10353SOL    HW231959   5.273   2.928   3.590
10354SOL     OW31960   6.853   2.405   1.829
10354SOL    HW131961   6.943   2.441   1.806
10354SOL    HW231962   6.847   2.309   1.801
10355SOL     OW31963   6.739   1.512   0.407
10355SOL    HW131964   6.774   1.508   0.313
10355SOL    HW231965   6.665   1.445   0.417
10356SOL     OW31966   6.309   2.997   6.039
10356SOL    HW131967   6.327   2.975   6.135
10356SOL    HW231968   6.210   3.000   6.024
10357SOL     OW31969   0.691   6.585   6.480
10357SOL    HW131970   0.681   6.613   6.575
10357SOL    HW231971   0.706   6.486   6.476
10358SOL     OW31972   0.521   3.882   4.121
10358SOL    HW131973   0.572   3.960   4.086
10358SOL    HW231974   0.522   3.808   4.054
10359SOL     OW31975   0.490   2.931   1.802
10359SOL    HW131976   0.433   2.987   1.861
10359SOL    HW231977   0.491   2.837   1.837
10360SOL     OW31978   5.540   4.836   1.353
10360SOL    HW131979   5.607   4.771   1.316
10360SOL    HW231980   5.561   4.853   1.449
10361SOL     OW31981   5.501   2.037   4.141
10361SOL    HW131982   5.452   2.101   4.083
10361SOL    HW231983   5.515   2.078   4.232
10362SOL     OW31984   6.806   6.404   2.606
10362SOL    HW131985   6.811   6.327   2.669
10362SOL    HW231986   6.740   6.383   2.534
10363SOL     OW31987   5.003   5.360   6.687
10363SOL    HW131988   4.909   5.328   6.680
10363SOL    HW231989   5.065   5.290   6.650
10364SOL     OW31990   6.516   4.804   1.599
10364SOL    HW131991   6.581   4.780   1.670
10364SOL    HW231992   6.562   4.806   1.510
10365SOL     OW31993   6.330   5.845   6.436
10365SOL    HW131994   6.292   5.896   6.358
10365SOL    HW231995   6.263   5.778   6.467
10366SOL     OW31996   2.440   0.520   3.568
10366SOL    HW131997   2.386   0.449   3.523
10366SOL    HW231998   2.412   0.528   3.664
10367SOL     OW31999   3.725   6.266   2.833
10367SOL    HW132000   3.685   6.222   2.752
10367SOL    HW232001   3.670   6.345   2.858
10368SOL     OW32002   1.308   5.926   1.751
10368SOL    HW132003   1.408   5.928   1.757
10368SOL    HW232004   1.269   5.920   1.843
10369SOL     OW32005   2.977   1.386   5.021
10369SOL    HW132006   3.019   1.370   4.931
10369SOL    HW232007   2.990   1.481   5.048
10370SOL     OW32008   2.295   1.769   6.999
10370SOL    HW132009   2.213   1.731   6.955
10370SOL    HW232010   2.302   1.866   6.976
10371SOL     OW32011   3.306   5.785   2.371
10371SOL    HW132012   3.324   5.718   2.443
10371SOL    HW232013   3.291   5.875   2.412
10372SOL     OW32014   0.947   6.233   0.940
10372SOL    HW132015   1.014   6.246   1.014
10372SOL    HW232016   0.994   6.204   0.857
10373SOL     OW32017   6.781   0.741   5.310
10373SOL    HW132018   6.768   0.835   5.342
10373SOL    HW232019   6.712   0.681   5.352
10374SOL     OW32020   1.868   5.627   1.980
10374SOL    HW132021   1.824   5.663   1.897
10374SOL    HW232022   1.865   5.527   1.977
10375SOL     OW32023   2.264   5.239   6.787
10375SOL    HW132024   2.166   5.247   6.806
10375SOL    HW232025   2.292   5.144   6.800
10376SOL     OW32026   1.866   5.857   3.499
10376SOL    HW132027   1.850   5.889   3.406
10376SOL    HW232028   1.945   5.904   3.538
10377SOL     OW32029   3.295   1.179   4.039
10377SOL    HW132030   3.321   1.111   3.971
10377SOL    HW232031   3.201   1.209   4.023
10378SOL     OW32032   6.854   6.556   5.384
10378SOL    HW132033   6.889   6.597   5.469
10378SOL    HW232034   6.923   6.567   5.312
10379SOL     OW32035   0.446   5.061   3.599
10379SOL    HW132036   0.495   5.141   3.634
10379SOL    HW232037   0.494   5.024   3.520
10380SOL     OW32038   3.127   1.842   3.830
10380SOL    HW132039   3.195   1.772   3.853
10380SOL    HW232040   3.102   1.893   3.913
10381SOL     OW32041   2.254   6.798   4.066
10381SOL    HW132042   2.332   6.860   4.065
10381SOL    HW232043   2.199   6.815   4.148
10382SOL     OW32044   3.364   5.465   2.979
10382SOL    HW132045   3.427   5.454   3.056
10382SOL    HW232046   3.323   5.556   2.983
10383SOL     OW32047   0.418   6.900   0.240
10383SOL    HW132048   0.451   6.940   0.326
10383SOL    HW232049   0.342   6.954   0.206
10384SOL     OW32050   5.100   5.094   1.189
10384SOL    HW132051   5.019   5.089   1.129
10384SOL    HW232052   5.167   5.026   1.159
10385SOL     OW32053   3.683   4.404   6.827
10385SOL    HW132054   3.731   4.447   6.750
10385SOL    HW232055   3.615   4.467   6.863
10386SOL     OW32056   6.877   0.093   1.630
10386SOL    HW132057   6.791   0.144   1.631
10386SOL    HW232058   6.943   0.138   1.691
10387SOL     OW32059   5.322   0.860   2.259
10387SOL    HW132060   5.354   0.769   2.235
10387SOL    HW232061   5.375   0.896   2.335
10388SOL     OW32062   0.888   6.677   4.648
10388SOL    HW132063   0.799   6.708   4.683
10388SOL    HW232064   0.873   6.612   4.574
10389SOL     OW32065   0.747   3.799   0.931
10389SOL    HW132066   0.775   3.864   1.002
10389SOL    HW232067   0.762   3.706   0.963
10390SOL     OW32068   1.303   2.224   2.125
10390SOL    HW132069   1.366   2.165   2.176
10390SOL    HW232070   1.335   2.318   2.127
10391SOL     OW32071   6.319   0.388   3.255
10391SOL    HW132072   6.391   0.351   3.314
10391SOL    HW232073   6.346   0.379   3.160
10392SOL     OW32074   5.478   3.158   4.384
10392SOL    HW132075   5.577   3.167   4.379
10392SOL    HW232076   5.447   3.090   4.317
10393SOL     OW32077   1.542   2.426   1.327
10393SOL    HW132078   1.555   2.427   1.426
10393SOL    HW232079   1.630   2.410   1.282
10394SOL     OW32080   2.582   5.361   4.155
10394SOL    HW132081   2.617   5.288   4.212
10394SOL    HW232082   2.652   5.432   4.145
10395SOL     OW32083   0.890   0.857   1.329
10395SOL    HW132084   0.957   0.787   1.307
10395SOL    HW232085   0.880   0.864   1.429
10396SOL     OW32086   3.470   2.013   5.247
10396SOL    HW132087   3.480   1.956   5.329
10396SOL    HW232088   3.373   2.035   5.234
10397SOL     OW32089   4.693   1.001   4.030
10397SOL    HW132090   4.628   1.076   4.042
10397SOL    HW232091   4.695   0.973   3.934
10398SOL     OW32092   4.658   2.629   3.024
10398SOL    HW132093   4.635   2.673   2.937
10398SOL    HW232094   4.681   2.533   3.008
10399SOL     OW32095   0.735   2.238   1.845
10399SOL    HW132096   0.712   2.240   1.747
10399SOL    HW232097   0.682   2.308   1.893
10400SOL     OW32098   1.450   6.840   0.016
10400SOL    HW132099   1.527   6.820   0.076
10400SOL    HW232100   1.366   6.844   0.070
10401SOL     OW32101   6.454   1.113   5.439
10401SOL    HW132102   6.500   1.146   5.521
10401SOL    HW232103   6.385   1.180   5.410
10402SOL     OW32104   6.592   4.130   6.124
10402SOL    HW132105   6.561   4.067   6.054
10402SOL    HW232106   6.642   4.080   6.194
10403SOL     OW32107   3.346   0.090   1.718
10403SOL    HW132108   3.312   0.168   1.666
10403SOL    HW232109   3.341   0.008   1.662
10404SOL     OW32110   0.515   5.409   5.822
10404SOL    HW132111   0.582   5.419   5.748
10404SOL    HW232112   0.437   5.468   5.805
10405SOL     OW32113   0.336   1.273   6.979
10405SOL    HW132114   0.254   1.277   6.922
10405SOL    HW232115   0.386   1.359   6.973
10406SOL     OW32116   2.067   5.018   1.738
10406SOL    HW132117   2.047   5.067   1.823
10406SOL    HW232118   2.107   5.081   1.672
10407SOL     OW32119   1.803   6.642   0.752
10407SOL    HW132120   1.774   6.652   0.847
10407SOL    HW232121   1.885   6.698   0.736
10408SOL     OW32122   4.779   0.837   6.022
10408SOL    HW132123   4.776   0.919   6.078
10408SOL    HW232124   4.817   0.858   5.932
10409SOL     OW32125   6.337   3.779   0.592
10409SOL    HW132126   6.409   3.812   0.531
10409SOL    HW232127   6.276   3.717   0.541
10410SOL     OW32128   3.958   0.138   0.785
10410SOL    HW132129   3.993   0.114   0.875
10410SOL    HW232130   4.033   0.138   0.718
10411SOL     OW32131   1.591   5.053   3.880
10411SOL    HW132132   1.671   4.995   3.860
10411SOL    HW232133   1.603   5.141   3.835
10412SOL     OW32134   4.779   0.823   1.930
10412SOL    HW132135   4.724   0.899   1.894
10412SOL    HW232136   4.727   0.738   1.921
10413SOL     OW32137   6.378   3.631   2.308
10413SOL    HW132138   6.412   3.726   2.309
10413SOL    HW232139   6.379   3.597   2.215
10414SOL     OW32140   5.078   4.237   3.575
10414SOL    HW132141   5.063   4.308   3.643
10414SOL    HW232142   5.171   4.201   3.583
10415SOL     OW32143   0.412   1.055   6.641
10415SOL    HW132144   0.503   1.046   6.680
10415SOL    HW232145   0.368   1.137   6.679
10416SOL     OW32146   4.885   2.444   2.770
10416SOL    HW132147   4.826   2.524   2.771
10416SOL    HW232148   4.840   2.369   2.721
10417SOL     OW32149   1.934   4.034   2.338
10417SOL    HW132150   1.949   4.133   2.346
10417SOL    HW232151   2.012   3.985   2.377
10418SOL     OW32152   1.485   5.703   6.153
10418SOL    HW132153   1.581   5.732   6.147
10418SOL    HW232154   1.433   5.770   6.205
10419SOL     OW32155   0.939   1.050   6.121
10419SOL    HW132156   0.894   0.964   6.144
10419SOL    HW232157   0.886   1.098   6.050
10420SOL     OW32158   0.529   3.285   2.183
10420SOL    HW132159   0.442   3.331   2.205
10420SOL    HW232160   0.576   3.261   2.268
10421SOL     OW32161   0.775   2.290   2.705
10421SOL    HW132162   0.798   2.368   2.763
10421SOL    HW232163   0.829   2.294   2.621
10422SOL     OW32164   5.802   2.040   0.092
10422SOL    HW132165   5.842   2.036   0.184
10422SOL    HW232166   5.702   2.037   0.099
10423SOL     OW32167   4.285   5.631   2.803
10423SOL    HW132168   4.235   5.557   2.759
10423SOL    HW232169   4.254   5.719   2.767
10424SOL     OW32170   4.530   1.438   6.159
10424SOL    HW132171   4.588   1.461   6.081
10424SOL    HW232172   4.460   1.373   6.131
10425SOL     OW32173   1.525   6.618   1.859
10425SOL    HW132174   1.474   6.549   1.910
10425SOL    HW232175   1.564   6.684   1.923
10426SOL     OW32176   6.284   4.301   6.383
10426SOL    HW132177   6.364   4.311   6.441
10426SOL    HW232178   6.261   4.204   6.372
10427SOL     OW32179   4.718   0.895   0.538
10427SOL    HW132180   4.646   0.841   0.582
10427SOL    HW232181   4.791   0.913   0.603
10428SOL     OW32182   4.538   2.394   3.763
10428SOL    HW132183   4.487   2.354   3.687
10428SOL    HW232184   4.630   2.355   3.766
10429SOL     OW32185   5.915   5.607   2.278
10429SOL    HW132186   5.844   5.543   2.250
10429SOL    HW232187   5.883   5.661   2.356
10430SOL     OW32188   3.506   6.152   3.097
10430SOL    HW132189   3.431   6.214   3.078
10430SOL    HW232190   3.589   6.205   3.118
10431SOL     OW32191   3.269   1.707   5.489
10431SOL    HW132192   3.171   1.691   5.485
10431SOL    HW232193   3.292   1.755   5.574
10432SOL     OW32194   4.249   0.423   4.562
10432SOL    HW132195   4.180   0.406   4.633
10432SOL    HW232196   4.304   0.340   4.549
10433SOL     OW32197   1.715   5.799   1.146
10433SOL    HW132198   1.772   5.741   1.203
10433SOL    HW232199   1.681   5.877   1.200
10434SOL     OW32200   3.620   2.430   5.465
10434SOL    HW132201   3.704   2.381   5.446
10434SOL    HW232202   3.552   2.409   5.394
10435SOL     OW32203   5.742   4.701   6.857
10435SOL    HW132204   5.701   4.707   6.766
10435SOL    HW232205   5.782   4.789   6.881
10436SOL     OW32206   0.115   1.668   2.933
10436SOL    HW132207   0.143   1.668   3.029
10436SOL    HW232208   0.019   1.697   2.926
10437SOL     OW32209   1.333   3.017   0.834
10437SOL    HW132210   1.305   2.930   0.795
10437SOL    HW232211   1.302   3.092   0.776
10438SOL     OW32212   2.700   0.088   5.778
10438SOL    HW132213   2.700   0.185   5.805
10438SOL    HW232214   2.646   0.077   5.695
10439SOL     OW32215   3.660   0.528   5.540
10439SOL    HW132216   3.569   0.489   5.557
10439SOL    HW232217   3.693   0.573   5.624
10440SOL     OW32218   1.036   6.085   0.327
10440SOL    HW132219   0.992   6.091   0.237
10440SOL    HW232220   0.966   6.067   0.397
10441SOL     OW32221   4.740   6.573   0.912
10441SOL    HW132222   4.762   6.663   0.951
10441SOL    HW232223   4.823   6.518   0.908
10442SOL     OW32224   3.417   6.484   6.406
10442SOL    HW132225   3.512   6.514   6.412
10442SOL    HW232226   3.411   6.387   6.429
10443SOL     OW32227   0.393   3.008   4.712
10443SOL    HW132228   0.461   2.938   4.734
10443SOL    HW232229   0.403   3.036   4.617
10444SOL     OW32230   3.728   4.710   5.292
10444SOL    HW132231   3.781   4.732   5.210
10444SOL    HW232232   3.751   4.775   5.365
10445SOL     OW32233   6.643   6.347   1.976
10445SOL    HW132234   6.716   6.320   2.039
10445SOL    HW232235   6.574   6.400   2.025
10446SOL     OW32236   1.413   6.866   5.700
10446SOL    HW132237   1.498   6.918   5.706
10446SOL    HW232238   1.433   6.772   5.673
10447SOL     OW32239   5.420   2.881   6.695
10447SOL    HW132240   5.441   2.945   6.621
10447SOL    HW232241   5.424   2.788   6.661
10448SOL     OW32242   3.739   3.367   2.222
10448SOL    HW132243   3.803   3.434   2.260
10448SOL    HW232244   3.731   3.381   2.123
10449SOL     OW32245   1.209   5.268   5.253
10449SOL    HW132246   1.241   5.317   5.334
10449SOL    HW232247   1.112   5.287   5.238
10450SOL     OW32248   0.673   3.250   0.232
10450SOL    HW132249   0.771   3.231   0.221
10450SOL    HW232250   0.661   3.327   0.295
10451SOL     OW32251   1.953   4.328   2.440
10451SOL    HW132252   1.880   4.365   2.382
10451SOL    HW232253   2.028   4.393   2.445
10452SOL     OW32254   2.378   2.995   6.301
10452SOL    HW132255   2.350   3.049   6.221
10452SOL    HW232256   2.297   2.964   6.351
10453SOL     OW32257   5.071   0.509   2.140
10453SOL    HW132258   5.043   0.581   2.203
10453SOL    HW232259   5.002   0.437   2.140
10454SOL     OW32260   3.812   5.504   2.580
10454SOL    HW132261   3.736   5.551   2.625
10454SOL    HW232262   3.894   5.511   2.636
10455SOL     OW32263   1.537   5.119   3.556
10455SOL    HW132264   1.526   5.023   3.582
10455SOL    HW232265   1.448   5.158   3.535
10456SOL     OW32266   3.690   6.446   0.777
10456SOL    HW132267   3.692   6.475   0.681
10456SOL    HW232268   3.774   6.396   0.798
10457SOL     OW32269   3.354   2.904   3.330
10457SOL    HW132270   3.325   2.919   3.235
10457SOL    HW232271   3.448   2.870   3.331
10458SOL     OW32272   6.550   6.279   2.739
10458SOL    HW132273   6.607   6.305   2.817
10458SOL    HW232274   6.540   6.357   2.678
10459SOL     OW32275   0.059   5.576   2.046
10459SOL    HW132276   7.021   5.497   2.042
10459SOL    HW232277   0.026   5.646   1.982
10460SOL     OW32278   1.546   4.292   1.206
10460SOL    HW132279   1.626   4.319   1.260
10460SOL    HW232280   1.482   4.242   1.264
10461SOL     OW32281   3.910   0.240   6.336
10461SOL    HW132282   3.952   0.315   6.286
10461SOL    HW232283   3.812   0.237   6.316
10462SOL     OW32284   5.397   6.741   1.100
10462SOL    HW132285   5.464   6.778   1.036
10462SOL    HW232286   5.397   6.796   1.183
10463SOL     OW32287   4.473   2.970   0.122
10463SOL    HW132288   4.405   3.035   0.086
10463SOL    HW232289   4.434   2.878   0.121
10464SOL     OW32290   5.347   6.726   1.736
10464SOL    HW132291   5.402   6.803   1.767
10464SOL    HW232292   5.369   6.706   1.640
10465SOL     OW32293   0.144   4.698   5.957
10465SOL    HW132294   0.161   4.600   5.952
10465SOL    HW232295   0.181   4.743   5.876
10466SOL     OW32296   4.443   5.433   5.253
10466SOL    HW132297   4.415   5.483   5.170
10466SOL    HW232298   4.414   5.484   5.334
10467SOL     OW32299   4.210   1.749   4.365
10467SOL    HW132300   4.174   1.675   4.422
10467SOL    HW232301   4.293   1.718   4.320
10468SOL     OW32302   2.841   5.203   3.209
10468SOL    HW132303   2.875   5.176   3.119
10468SOL    HW232304   2.886   5.288   3.237
10469SOL     OW32305   0.723   4.971   5.948
10469SOL    HW132306   0.638   4.991   5.998
10469SOL    HW232307   0.702   4.955   5.852
10470SOL     OW32308   2.082   2.300   4.108
10470SOL    HW132309   2.088   2.385   4.056
10470SOL    HW232310   2.008   2.243   4.072
10471SOL     OW32311   4.694   3.619   6.624
10471SOL    HW132312   4.607   3.603   6.578
10471SOL    HW232313   4.733   3.705   6.592
10472SOL     OW32314   4.090   1.462   3.707
10472SOL    HW132315   4.163   1.530   3.719
10472SOL    HW232316   4.006   1.507   3.677
10473SOL     OW32317   4.746   4.655   0.631
10473SOL    HW132318   4.653   4.668   0.598
10473SOL    HW232319   4.753   4.566   0.676
10474SOL     OW32320   4.942   1.075   4.205
10474SOL    HW132321   4.949   1.174   4.213
10474SOL    HW232322   4.872   1.052   4.137
10475SOL     OW32323   4.319   6.232   0.947
10475SOL    HW132324   4.273   6.179   0.875
10475SOL    HW232325   4.256   6.245   1.024
10476SOL     OW32326   0.812   4.743   0.023
10476SOL    HW132327   0.769   4.665   0.068
10476SOL    HW232328   0.905   4.720   7.019
10477SOL     OW32329   5.268   4.712   4.576
10477SOL    HW132330   5.288   4.621   4.612
10477SOL    HW232331   5.261   4.777   4.651
10478SOL     OW32332   0.903   0.296   2.631
10478SOL    HW132333   0.819   0.245   2.654
10478SOL    HW232334   0.969   0.233   2.590
10479SOL     OW32335   0.946   3.762   2.959
10479SOL    HW132336   0.894   3.841   2.992
10479SOL    HW232337   0.980   3.709   3.036
10480SOL     OW32338   4.806   1.220   6.357
10480SOL    HW132339   4.833   1.199   6.451
10480SOL    HW232340   4.793   1.319   6.346
10481SOL     OW32341   3.348   1.622   3.547
10481SOL    HW132342   3.402   1.573   3.478
10481SOL    HW232343   3.407   1.688   3.593
10482SOL     OW32344   0.532   6.399   5.833
10482SOL    HW132345   0.614   6.401   5.890
10482SOL    HW232346   0.495   6.491   5.824
10483SOL     OW32347   0.636   6.229   0.563
10483SOL    HW132348   0.626   6.310   0.622
10483SOL    HW232349   0.611   6.253   0.469
10484SOL     OW32350   6.783   1.167   1.947
10484SOL    HW132351   6.831   1.132   2.027
10484SOL    HW232352   6.718   1.238   1.975
10485SOL     OW32353   3.527   3.808   4.930
10485SOL    HW132354   3.439   3.772   4.900
10485SOL    HW232355   3.514   3.895   4.977
10486SOL     OW32356   6.147   4.429   6.031
10486SOL    HW132357   6.243   4.404   6.047
10486SOL    HW232358   6.139   4.528   6.028
10487SOL     OW32359   5.240   3.888   2.542
10487SOL    HW132360   5.262   3.918   2.449
10487SOL    HW232361   5.270   3.958   2.607
10488SOL     OW32362   1.153   2.011   5.345
10488SOL    HW132363   1.206   2.081   5.296
10488SOL    HW232364   1.081   2.056   5.399
10489SOL     OW32365   5.905   4.985   2.711
10489SOL    HW132366   5.872   4.992   2.617
10489SOL    HW232367   5.878   4.896   2.749
10490SOL     OW32368   5.448   6.211   6.588
10490SOL    HW132369   5.468   6.301   6.550
10490SOL    HW232370   5.378   6.166   6.532
10491SOL     OW32371   1.954   1.548   5.562
10491SOL    HW132372   1.892   1.601   5.506
10491SOL    HW232373   2.014   1.493   5.504
10492SOL     OW32374   3.239   6.994   6.874
10492SOL    HW132375   3.258   0.048   6.935
10492SOL    HW232376   3.245   6.909   6.925
10493SOL     OW32377   4.172   6.737   0.403
10493SOL    HW132378   4.207   6.829   0.383
10493SOL    HW232379   4.089   6.746   0.459
10494SOL     OW32380   6.540   5.856   3.585
10494SOL    HW132381   6.478   5.910   3.641
10494SOL    HW232382   6.515   5.866   3.488
10495SOL     OW32383   6.286   6.394   0.030
10495SOL    HW132384   6.386   6.388   0.030
10495SOL    HW232385   6.259   6.489   0.017
10496SOL     OW32386   1.780   3.661   6.344
10496SOL    HW132387   1.828   3.721   6.407
10496SOL    HW232388   1.774   3.705   6.254
10497SOL     OW32389   4.128   0.296   0.169
10497SOL    HW132390   4.191   0.362   0.212
10497SOL    HW232391   4.116   0.320   0.073
10498SOL     OW32392   3.697   3.771   0.480
10498SOL    HW132393   3.693   3.732   0.388
10498SOL    HW232394   3.735   3.864   0.475
10499SOL     OW32395   4.045   4.797   3.996
10499SOL    HW132396   4.087   4.787   3.906
10499SOL    HW232397   4.112   4.777   4.067
10500SOL     OW32398   1.775   2.653   4.540
10500SOL    HW132399   1.787   2.752   4.537
10500SOL    HW232400   1.834   2.610   4.471
10501SOL     OW32401   4.026   4.855   2.936
10501SOL    HW132402   4.082   4.817   2.862
10501SOL    HW232403   4.076   4.851   3.022
10502SOL     OW32404   3.705   3.191   3.301
10502SOL    HW132405   3.676   3.268   3.244
10502SOL    HW232406   3.634   3.171   3.369
10503SOL     OW32407   6.830   6.112   0.814
10503SOL    HW132408   6.775   6.031   0.835
10503SOL    HW232409   6.771   6.192   0.810
10504SOL     OW32410   1.692   2.796   5.350
10504SOL    HW132411   1.782   2.831   5.377
10504SOL    HW232412   1.649   2.750   5.429
10505SOL     OW32413   5.007   6.726   1.301
10505SOL    HW132414   5.044   6.634   1.287
10505SOL    HW232415   5.076   6.782   1.348
10506SOL     OW32416   0.663   5.452   6.032
10506SOL    HW132417   0.694   5.373   6.084
10506SOL    HW232418   0.622   5.421   5.946
10507SOL     OW32419   2.336   6.363   5.886
10507SOL    HW132420   2.325   6.303   5.806
10507SOL    HW232421   2.291   6.321   5.965
10508SOL     OW32422   1.764   6.475   1.270
10508SOL    HW132423   1.798   6.391   1.228
10508SOL    HW232424   1.836   6.518   1.324
10509SOL     OW32425   4.872   3.437   1.753
10509SOL    HW132426   4.965   3.467   1.772
10509SOL    HW232427   4.871   3.381   1.670
10510SOL     OW32428   4.949   6.835   2.003
10510SOL    HW132429   5.014   6.778   2.052
10510SOL    HW232430   4.863   6.840   2.054
10511SOL     OW32431   3.784   1.717   0.797
10511SOL    HW132432   3.846   1.641   0.775
10511SOL    HW232433   3.787   1.734   0.896
10512SOL     OW32434   4.017   0.117   4.828
10512SOL    HW132435   4.106   0.099   4.788
10512SOL    HW232436   3.951   0.137   4.755
10513SOL     OW32437   4.061   4.001   0.805
10513SOL    HW132438   3.976   4.001   0.753
10513SOL    HW232439   4.125   4.066   0.765
10514SOL     OW32440   0.742   4.939   1.429
10514SOL    HW132441   0.762   5.029   1.390
10514SOL    HW232442   0.737   4.946   1.529
10515SOL     OW32443   2.178   3.304   4.655
10515SOL    HW132444   2.100   3.307   4.592
10515SOL    HW232445   2.262   3.319   4.603
10516SOL     OW32446   5.346   1.947   1.213
10516SOL    HW132447   5.344   1.853   1.178
10516SOL    HW232448   5.276   2.001   1.166
10517SOL     OW32449   6.629   1.715   2.016
10517SOL    HW132450   6.725   1.714   2.044
10517SOL    HW232451   6.580   1.641   2.063
10518SOL     OW32452   6.861   5.685   3.057
10518SOL    HW132453   6.834   5.607   3.001
10518SOL    HW232454   6.819   5.768   3.021
10519SOL     OW32455   1.481   6.762   0.506
10519SOL    HW132456   1.500   6.849   0.551
10519SOL    HW232457   1.561   6.702   0.514
10520SOL     OW32458   3.340   2.624   5.996
10520SOL    HW132459   3.385   2.606   6.084
10520SOL    HW232460   3.296   2.540   5.964
10521SOL     OW32461   5.745   1.586   1.635
10521SOL    HW132462   5.791   1.669   1.604
10521SOL    HW232463   5.648   1.605   1.650
10522SOL     OW32464   5.334   1.174   2.715
10522SOL    HW132465   5.296   1.081   2.719
10522SOL    HW232466   5.271   1.234   2.666
10523SOL     OW32467   0.053   3.918   1.785
10523SOL    HW132468   0.115   3.844   1.810
10523SOL    HW232469   0.048   3.925   1.685
10524SOL     OW32470   6.274   6.704   4.893
10524SOL    HW132471   6.230   6.760   4.823
10524SOL    HW232472   6.307   6.763   4.967
10525SOL     OW32473   4.927   2.230   3.795
10525SOL    HW132474   5.000   2.240   3.863
10525SOL    HW232475   4.944   2.148   3.740
10526SOL     OW32476   1.469   6.498   6.150
10526SOL    HW132477   1.433   6.580   6.107
10526SOL    HW232478   1.470   6.423   6.084
10527SOL     OW32479   0.789   6.428   5.497
10527SOL    HW132480   0.834   6.433   5.408
10527SOL    HW232481   0.757   6.334   5.512
10528SOL     OW32482   2.824   5.943   5.264
10528SOL    HW132483   2.783   5.871   5.208
10528SOL    HW232484   2.763   5.966   5.339
10529SOL     OW32485   6.990   5.562   6.607
10529SOL    HW132486   7.009   5.525   6.516
10529SOL    HW232487   6.908   5.519   6.644
10530SOL     OW32488   5.588   0.340   1.631
10530SOL    HW132489   5.668   0.374   1.582
10530SOL    HW232490   5.546   0.415   1.682
10531SOL     OW32491   3.351   0.764   6.438
10531SOL    HW132492   3.405   0.733   6.516
10531SOL    HW232493   3.360   0.864   6.429
10532SOL     OW32494   4.214   5.742   5.683
10532SOL    HW132495   4.258   5.758   5.594
10532SOL    HW232496   4.283   5.745   5.755
10533SOL     OW32497   4.119   6.414   4.221
10533SOL    HW132498   4.206   6.432   4.175
10533SOL    HW232499   4.129   6.334   4.281
10534SOL     OW32500   0.545   6.078   4.857
10534SOL    HW132501   0.490   6.159   4.836
10534SOL    HW232502   0.553   6.068   4.956
10535SOL     OW32503   3.812   1.571   2.055
10535SOL    HW132504   3.814   1.654   1.998
10535SOL    HW232505   3.739   1.579   2.123
10536SOL     OW32506   5.773   3.201   4.386
10536SOL    HW132507   5.803   3.295   4.403
10536SOL    HW232508   5.821   3.139   4.449
10537SOL     OW32509   2.316   1.254   2.209
10537SOL    HW132510   2.388   1.313   2.245
10537SOL    HW232511   2.313   1.169   2.261
10538SOL     OW32512   6.506   2.788   3.662
10538SOL    HW132513   6.444   2.735   3.604
10538SOL    HW232514   6.590   2.806   3.612
10539SOL     OW32515   6.628   0.236   1.622
10539SOL    HW132516   6.595   0.309   1.561
10539SOL    HW232517   6.560   0.163   1.626
10540SOL     OW32518   1.985   2.404   5.878
10540SOL    HW132519   1.924   2.476   5.912
10540SOL    HW232520   2.036   2.365   5.955
10541SOL     OW32521   4.018   2.524   6.990
10541SOL    HW132522   4.066   2.436   6.991
10541SOL    HW232523   4.047   2.578   6.911
10542SOL     OW32524   3.240   6.287   3.037
10542SOL    HW132525   3.259   6.347   2.959
10542SOL    HW232526   3.229   6.343   3.120
10543SOL     OW32527   0.781   2.835   3.581
10543SOL    HW132528   0.852   2.905   3.571
10543SOL    HW232529   0.774   2.808   3.677
10544SOL     OW32530   2.681   2.331   2.527
10544SOL    HW132531   2.660   2.342   2.430
10544SOL    HW232532   2.647   2.410   2.578
10545SOL     OW32533   0.970   3.085   1.637
10545SOL    HW132534   1.019   3.123   1.558
10545SOL    HW232535   0.994   3.137   1.719
10546SOL     OW32536   1.851   0.122   4.893
10546SOL    HW132537   1.832   0.190   4.822
10546SOL    HW232538   1.795   0.041   4.877
10547SOL     OW32539   2.918   5.769   6.397
10547SOL    HW132540   2.974   5.718   6.463
10547SOL    HW232541   2.930   5.867   6.411
10548SOL     OW32542   1.263   5.180   3.202
10548SOL    HW132543   1.359   5.196   3.179
10548SOL    HW232544   1.246   5.081   3.208
10549SOL     OW32545   6.603   1.700   2.493
10549SOL    HW132546   6.687   1.682   2.544
10549SOL    HW232547   6.586   1.799   2.491
10550SOL     OW32548   0.319   4.613   2.663
10550SOL    HW132549   0.291   4.686   2.600
10550SOL    HW232550   0.408   4.578   2.636
10551SOL     OW32551   4.793   1.003   4.665
10551SOL    HW132552   4.774   0.920   4.611
10551SOL    HW232553   4.707   1.039   4.700
10552SOL     OW32554   2.513   6.929   4.084
10552SOL    HW132555   2.485   6.979   4.166
10552SOL    HW232556   2.612   6.934   4.074
10553SOL     OW32557   5.842   5.086   1.854
10553SOL    HW132558   5.787   5.147   1.797
10553SOL    HW232559   5.834   5.115   1.950
10554SOL     OW32560   5.401   5.730   1.994
10554SOL    HW132561   5.305   5.726   1.966
10554SOL    HW232562   5.439   5.818   1.968
10555SOL     OW32563   3.104   3.039   2.541
10555SOL    HW132564   3.158   2.968   2.495
10555SOL    HW232565   3.165   3.113   2.572
10556SOL     OW32566   2.351   1.884   2.079
10556SOL    HW132567   2.424   1.947   2.054
10556SOL    HW232568   2.263   1.922   2.049
10557SOL     OW32569   1.110   4.876   3.043
10557SOL    HW132570   1.186   4.926   3.085
10557SOL    HW232571   1.118   4.880   2.944
10558SOL     OW32572   5.151   5.341   4.416
10558SOL    HW132573   5.069   5.397   4.404
10558SOL    HW232574   5.130   5.264   4.476
10559SOL     OW32575   3.908   5.812   1.791
10559SOL    HW132576   3.900   5.911   1.794
10559SOL    HW232577   3.823   5.773   1.757
10560SOL     OW32578   5.549   7.005   4.441
10560SOL    HW132579   5.607   7.020   4.361
10560SOL    HW232580   5.536   6.907   4.455
10561SOL     OW32581   0.720   5.455   5.655
10561SOL    HW132582   0.781   5.517   5.605
10561SOL    HW232583   0.775   5.395   5.714
10562SOL     OW32584   2.633   1.477   2.615
10562SOL    HW132585   2.543   1.434   2.629
10562SOL    HW232586   2.705   1.409   2.629
10563SOL     OW32587   1.602   5.270   2.305
10563SOL    HW132588   1.574   5.201   2.371
10563SOL    HW232589   1.609   5.228   2.214
10564SOL     OW32590   5.445   5.704   3.756
10564SOL    HW132591   5.491   5.756   3.684
10564SOL    HW232592   5.407   5.620   3.718
10565SOL     OW32593   0.433   1.414   4.583
10565SOL    HW132594   0.470   1.358   4.657
10565SOL    HW232595   0.334   1.422   4.594
10566SOL     OW32596   3.991   1.547   1.039
10566SOL    HW132597   3.921   1.499   0.987
10566SOL    HW232598   4.015   1.632   0.992
10567SOL     OW32599   3.255   1.616   5.924
10567SOL    HW132600   3.224   1.706   5.893
10567SOL    HW232601   3.349   1.623   5.958
10568SOL     OW32602   6.175   1.274   6.869
10568SOL    HW132603   6.148   1.178   6.866
10568SOL    HW232604   6.102   1.328   6.911
10569SOL     OW32605   3.926   0.529   1.423
10569SOL    HW132606   3.856   0.496   1.359
10569SOL    HW232607   3.882   0.564   1.505
10570SOL     OW32608   1.419   3.849   3.266
10570SOL    HW132609   1.506   3.810   3.234
10570SOL    HW232610   1.369   3.887   3.189
10571SOL     OW32611   1.108   4.032   4.865
10571SOL    HW132612   1.073   4.072   4.780
10571SOL    HW232613   1.095   3.933   4.862
10572SOL     OW32614   6.837   5.372   0.700
10572SOL    HW132615   6.836   5.272   0.691
10572SOL    HW232616   6.925   5.401   0.739
10573SOL     OW32617   5.638   2.081   2.965
10573SOL    HW132618   5.674   2.022   2.893
10573SOL    HW232619   5.602   2.024   3.039
10574SOL     OW32620   5.640   2.932   2.780
10574SOL    HW132621   5.585   2.985   2.716
10574SOL    HW232622   5.581   2.898   2.854
10575SOL     OW32623   4.747   6.928   3.099
10575SOL    HW132624   4.665   6.885   3.136
10575SOL    HW232625   4.721   6.998   3.033
10576SOL     OW32626   1.037   3.272   5.205
10576SOL    HW132627   0.994   3.270   5.115
10576SOL    HW232628   0.967   3.260   5.276
10577SOL     OW32629   4.474   5.084   6.508
10577SOL    HW132630   4.467   4.988   6.533
10577SOL    HW232631   4.479   5.140   6.591
10578SOL     OW32632   1.263   3.006   1.735
10578SOL    HW132633   1.246   3.029   1.639
10578SOL    HW232634   1.208   3.065   1.793
10579SOL     OW32635   0.194   3.072   0.297
10579SOL    HW132636   0.241   3.077   0.385
10579SOL    HW232637   0.096   3.056   0.312
10580SOL     OW32638   4.630   6.080   6.323
10580SOL    HW132639   4.680   6.154   6.368
10580SOL    HW232640   4.563   6.042   6.386
10581SOL     OW32641   3.605   0.567   2.770
10581SOL    HW132642   3.572   0.482   2.728
10581SOL    HW232643   3.603   0.557   2.870
10582SOL     OW32644   0.315   3.693   0.128
10582SOL    HW132645   0.334   3.619   0.192
10582SOL    HW232646   0.251   3.660   0.057
10583SOL     OW32647   3.993   2.088   5.997
10583SOL    HW132648   4.014   2.115   6.091
10583SOL    HW232649   3.895   2.100   5.981
10584SOL     OW32650   6.892   0.353   4.078
10584SOL    HW132651   6.984   0.390   4.088
10584SOL    HW232652   6.853   0.336   4.169
10585SOL     OW32653   1.648   0.840   4.639
10585SOL    HW132654   1.632   0.939   4.636
10585SOL    HW232655   1.576   0.794   4.588
10586SOL     OW32656   4.389   3.357   6.318
10586SOL    HW132657   4.346   3.290   6.378
10586SOL    HW232658   4.318   3.401   6.262
10587SOL     OW32659   1.851   4.996   6.110
10587SOL    HW132660   1.752   5.001   6.096
10587SOL    HW232661   1.873   4.916   6.165
10588SOL     OW32662   1.261   4.574   4.467
10588SOL    HW132663   1.332   4.516   4.507
10588SOL    HW232664   1.303   4.656   4.427
10589SOL     OW32665   6.557   0.753   3.457
10589SOL    HW132666   6.504   0.673   3.488
10589SOL    HW232667   6.649   0.749   3.495
10590SOL     OW32668   6.219   6.651   2.591
10590SOL    HW132669   6.210   6.750   2.580
10590SOL    HW232670   6.283   6.632   2.666
10591SOL     OW32671   6.472   4.303   2.907
10591SOL    HW132672   6.418   4.243   2.848
10591SOL    HW232673   6.458   4.278   3.003
10592SOL     OW32674   6.236   3.693   5.755
10592SOL    HW132675   6.214   3.787   5.730
10592SOL    HW232676   6.248   3.639   5.672
10593SOL     OW32677   3.463   5.965   3.309
10593SOL    HW132678   3.397   5.941   3.380
10593SOL    HW232679   3.414   5.994   3.227
10594SOL     OW32680   3.931   6.068   3.292
10594SOL    HW132681   3.877   6.093   3.212
10594SOL    HW232682   3.927   5.969   3.305
10595SOL     OW32683   6.249   5.413   1.411
10595SOL    HW132684   6.218   5.508   1.423
10595SOL    HW232685   6.185   5.364   1.352
10596SOL     OW32686   6.395   3.113   1.163
10596SOL    HW132687   6.422   3.057   1.241
10596SOL    HW232688   6.315   3.169   1.188
10597SOL     OW32689   1.019   6.714   5.156
10597SOL    HW132690   1.066   6.724   5.243
10597SOL    HW232691   1.081   6.739   5.081
10598SOL     OW32692   3.230   1.501   0.745
10598SOL    HW132693   3.267   1.488   0.837
10598SOL    HW232694   3.280   1.573   0.698
10599SOL     OW32695   0.954   1.680   1.150
10599SOL    HW132696   0.908   1.769   1.158
10599SOL    HW232697   0.886   1.610   1.129
10600SOL     OW32698   4.418   1.094   1.903
10600SOL    HW132699   4.350   1.165   1.881
10600SOL    HW232700   4.419   1.025   1.831
10601SOL     OW32701   1.852   1.995   5.187
10601SOL    HW132702   1.833   2.025   5.094
10601SOL    HW232703   1.823   2.066   5.252
10602SOL     OW32704   6.637   6.519   1.057
10602SOL    HW132705   6.732   6.547   1.044
10602SOL    HW232706   6.597   6.571   1.133
10603SOL     OW32707   5.797   0.220   3.145
10603SOL    HW132708   5.785   0.297   3.082
10603SOL    HW232709   5.893   0.192   3.145
10604SOL     OW32710   5.448   2.191   4.378
10604SOL    HW132711   5.445   2.212   4.475
10604SOL    HW232712   5.361   2.150   4.350
10605SOL     OW32713   4.908   1.724   1.519
10605SOL    HW132714   4.994   1.675   1.534
10605SOL    HW232715   4.855   1.677   1.450
10606SOL     OW32716   5.695   1.683   0.892
10606SOL    HW132717   5.717   1.585   0.895
10606SOL    HW232718   5.737   1.725   0.812
10607SOL     OW32719   1.653   4.992   1.426
10607SOL    HW132720   1.566   4.999   1.474
10607SOL    HW232721   1.698   5.081   1.425
10608SOL     OW32722   5.367   3.641   2.658
10608SOL    HW132723   5.455   3.687   2.668
10608SOL    HW232724   5.295   3.709   2.651
10609SOL     OW32725   5.553   5.744   6.782
10609SOL    HW132726   5.570   5.745   6.684
10609SOL    HW232727   5.570   5.835   6.820
10610SOL     OW32728   0.401   2.329   3.566
10610SOL    HW132729   0.307   2.340   3.535
10610SOL    HW232730   0.433   2.237   3.541
10611SOL     OW32731   4.223   5.760   6.720
10611SOL    HW132732   4.254   5.666   6.706
10611SOL    HW232733   4.131   5.771   6.684
10612SOL     OW32734   5.728   2.330   3.933
10612SOL    HW132735   5.698   2.279   3.852
10612SOL    HW232736   5.729   2.428   3.911
10613SOL     OW32737   4.861   4.870   6.282
10613SOL    HW132738   4.862   4.797   6.214
10613SOL    HW232739   4.790   4.851   6.349
10614SOL     OW32740   4.561   1.384   0.060
10614SOL    HW132741   4.536   1.451   7.013
10614SOL    HW232742   4.506   1.399   0.142
10615SOL     OW32743   4.350   3.205   5.966
10615SOL    HW132744   4.442   3.217   6.003
10615SOL    HW232745   4.283   3.214   6.040
10616SOL     OW32746   1.943   4.956   0.131
10616SOL    HW132747   1.864   4.918   0.083
10616SOL    HW232748   1.957   4.905   0.216
10617SOL     OW32749   2.328   3.509   0.530
10617SOL    HW132750   2.319   3.603   0.563
10617SOL    HW232751   2.370   3.453   0.600
10618SOL     OW32752   7.012   4.850   5.181
10618SOL    HW132753   6.955   4.805   5.112
10618SOL    HW232754   0.061   4.902   5.135
10619SOL     OW32755   1.603   2.013   0.894
10619SOL    HW132756   1.607   2.030   0.993
10619SOL    HW232757   1.695   2.023   0.855
10620SOL     OW32758   4.216   1.430   5.932
10620SOL    HW132759   4.284   1.358   5.944
10620SOL    HW232760   4.256   1.507   5.882
10621SOL     OW32761   0.952   5.587   4.700
10621SOL    HW132762   0.988   5.494   4.690
10621SOL    HW232763   0.966   5.637   4.614
10622SOL     OW32764   3.652   2.230   6.400
10622SOL    HW132765   3.698   2.169   6.335
10622SOL    HW232766   3.634   2.181   6.485
10623SOL     OW32767   5.524   4.947   4.791
10623SOL    HW132768   5.619   4.977   4.779
10623SOL    HW232769   5.520   4.847   4.791
10624SOL     OW32770   0.327   1.189   5.296
10624SOL    HW132771   0.298   1.119   5.361
10624SOL    HW232772   0.279   1.274   5.313
10625SOL     OW32773   6.441   5.193   6.725
10625SOL    HW132774   6.389   5.141   6.658
10625SOL    HW232775   6.442   5.144   6.812
10626SOL     OW32776   5.522   3.402   1.725
10626SOL    HW132777   5.442   3.398   1.665
10626SOL    HW232778   5.504   3.466   1.800
10627SOL     OW32779   5.050   5.504   5.700
10627SOL    HW132780   5.113   5.563   5.751
10627SOL    HW232781   4.961   5.549   5.692
10628SOL     OW32782   2.361   6.703   2.045
10628SOL    HW132783   2.270   6.705   2.003
10628SOL    HW232784   2.368   6.777   2.111
10629SOL     OW32785   4.535   5.825   4.179
10629SOL    HW132786   4.532   5.883   4.260
10629SOL    HW232787   4.457   5.763   4.179
10630SOL     OW32788   4.412   0.821   1.811
10630SOL    HW132789   4.447   0.799   1.721
10630SOL    HW232790   4.384   0.738   1.859
10631SOL     OW32791   3.603   6.073   2.121
10631SOL    HW132792   3.557   5.992   2.157
10631SOL    HW232793   3.565   6.095   2.031
10632SOL     OW32794   5.980   0.914   4.987
10632SOL    HW132795   5.929   0.874   5.063
10632SOL    HW232796   5.924   0.912   4.904
10633SOL     OW32797   2.683   3.776   0.195
10633SOL    HW132798   2.736   3.802   0.276
10633SOL    HW232799   2.645   3.858   0.152
10634SOL     OW32800   0.946   4.277   1.147
10634SOL    HW132801   0.975   4.346   1.214
10634SOL    HW232802   1.003   4.195   1.158
10635SOL     OW32803   2.999   5.172   0.484
10635SOL    HW132804   2.951   5.234   0.423
10635SOL    HW232805   3.090   5.209   0.504
10636SOL     OW32806   0.646   2.778   0.470
10636SOL    HW132807   0.743   2.779   0.493
10636SOL    HW232808   0.622   2.861   0.420
10637SOL     OW32809   1.928   6.521   5.330
10637SOL    HW132810   1.855   6.588   5.326
10637SOL    HW232811   2.005   6.559   5.381
10638SOL     OW32812   5.406   4.237   6.798
10638SOL    HW132813   5.343   4.311   6.775
10638SOL    HW232814   5.500   4.271   6.793
10639SOL     OW32815   6.875   5.217   6.561
10639SOL    HW132816   6.848   5.216   6.465
10639SOL    HW232817   6.839   5.299   6.605
10640SOL     OW32818   4.309   5.824   5.105
10640SOL    HW132819   4.326   5.766   5.185
10640SOL    HW232820   4.383   5.889   5.094
10641SOL     OW32821   1.053   1.147   3.476
10641SOL    HW132822   0.983   1.083   3.507
10641SOL    HW232823   1.089   1.197   3.555
10642SOL     OW32824   6.684   2.378   5.966
10642SOL    HW132825   6.676   2.477   5.950
10642SOL    HW232826   6.699   2.362   6.064
10643SOL     OW32827   3.579   5.496   4.967
10643SOL    HW132828   3.529   5.428   5.020
10643SOL    HW232829   3.518   5.535   4.898
10644SOL     OW32830   1.900   4.062   3.983
10644SOL    HW132831   1.893   4.160   3.966
10644SOL    HW232832   1.904   4.045   4.081
10645SOL     OW32833   1.921   3.120   3.130
10645SOL    HW132834   1.984   3.044   3.145
10645SOL    HW232835   1.962   3.185   3.065
10646SOL     OW32836   5.316   1.315   3.573
10646SOL    HW132837   5.271   1.384   3.515
10646SOL    HW232838   5.270   1.227   3.562
10647SOL     OW32839   4.765   6.016   4.802
10647SOL    HW132840   4.722   6.089   4.750
10647SOL    HW232841   4.835   5.972   4.746
10648SOL     OW32842   4.630   3.397   5.842
10648SOL    HW132843   4.539   3.390   5.800
10648SOL    HW232844   4.650   3.313   5.892
10649SOL     OW32845   6.120   3.481   3.433
10649SOL    HW132846   6.054   3.429   3.380
10649SOL    HW232847   6.212   3.444   3.418
10650SOL     OW32848   0.500   1.091   2.495
10650SOL    HW132849   0.462   1.056   2.580
10650SOL    HW232850   0.600   1.083   2.497
10651SOL     OW32851   2.595   5.846   5.076
10651SOL    HW132852   2.615   5.935   5.117
10651SOL    HW232853   2.498   5.840   5.054
10652SOL     OW32854   3.678   0.602   0.048
10652SOL    HW132855   3.737   0.681   0.062
10652SOL    HW232856   3.664   0.555   0.134
10653SOL     OW32857   5.990   5.959   4.818
10653SOL    HW132858   5.964   5.909   4.900
10653SOL    HW232859   6.045   6.038   4.843
10654SOL     OW32860   6.668   1.618   3.979
10654SOL    HW132861   6.767   1.633   3.983
10654SOL    HW232862   6.641   1.600   3.884
10655SOL     OW32863   6.425   4.731   0.699
10655SOL    HW132864   6.345   4.738   0.640
10655SOL    HW232865   6.398   4.690   0.787
10656SOL     OW32866   5.504   0.667   5.599
10656SOL    HW132867   5.450   0.750   5.587
10656SOL    HW232868   5.475   0.619   5.682
10657SOL     OW32869   5.237   0.197   5.668
10657SOL    HW132870   5.151   0.249   5.663
10657SOL    HW232871   5.244   0.154   5.758
10658SOL     OW32872   1.013   0.957   5.077
10658SOL    HW132873   1.016   1.021   5.153
10658SOL    HW232874   1.015   0.863   5.112
10659SOL     OW32875   0.473   5.691   6.772
10659SOL    HW132876   0.437   5.752   6.701
10659SOL    HW232877   0.565   5.722   6.799
10660SOL     OW32878   6.401   2.597   6.040
10660SOL    HW132879   6.357   2.611   5.952
10660SOL    HW232880   6.335   2.558   6.105
10661SOL     OW32881   4.339   5.845   6.132
10661SOL    HW132882   4.365   5.941   6.139
10661SOL    HW232883   4.243   5.834   6.158
10662SOL     OW32884   3.478   1.862   1.264
10662SOL    HW132885   3.478   1.888   1.361
10662SOL    HW232886   3.497   1.764   1.257
10663SOL     OW32887   6.888   3.413   3.918
10663SOL    HW132888   6.903   3.448   4.011
10663SOL    HW232889   6.973   3.374   3.882
10664SOL     OW32890   0.628   6.194   4.154
10664SOL    HW132891   0.723   6.185   4.185
10664SOL    HW232892   0.570   6.132   4.207
10665SOL     OW32893   4.844   3.839   0.948
10665SOL    HW132894   4.919   3.791   0.993
10665SOL    HW232895   4.814   3.787   0.868
10666SOL     OW32896   5.193   3.769   1.849
10666SOL    HW132897   5.290   3.759   1.874
10666SOL    HW232898   5.138   3.708   1.905
10667SOL     OW32899   5.737   2.888   4.378
10667SOL    HW132900   5.802   2.833   4.326
10667SOL    HW232901   5.696   2.957   4.318
10668SOL     OW32902   2.894   3.349   5.925
10668SOL    HW132903   2.977   3.389   5.887
10668SOL    HW232904   2.816   3.407   5.903
10669SOL     OW32905   0.009   2.454   1.561
10669SOL    HW132906   0.038   2.549   1.564
10669SOL    HW232907   6.968   2.441   1.485
10670SOL     OW32908   4.919   4.637   4.185
10670SOL    HW132909   4.899   4.539   4.178
10670SOL    HW232910   4.991   4.652   4.253
10671SOL     OW32911   1.875   3.397   4.201
10671SOL    HW132912   1.889   3.314   4.148
10671SOL    HW232913   1.777   3.418   4.206
10672SOL     OW32914   6.290   4.944   1.653
10672SOL    HW132915   6.376   4.897   1.633
10672SOL    HW232916   6.264   4.926   1.748
10673SOL     OW32917   3.232   0.765   1.692
10673SOL    HW132918   3.194   0.857   1.702
10673SOL    HW232919   3.332   0.770   1.693
10674SOL     OW32920   3.910   3.073   3.616
10674SOL    HW132921   3.947   3.019   3.691
10674SOL    HW232922   3.871   3.012   3.547
10675SOL     OW32923   3.725   6.408   5.585
10675SOL    HW132924   3.814   6.372   5.556
10675SOL    HW232925   3.708   6.494   5.539
10676SOL     OW32926   1.548   1.383   4.645
10676SOL    HW132927   1.511   1.352   4.557
10676SOL    HW232928   1.604   1.465   4.630
10677SOL     OW32929   0.171   1.193   6.771
10677SOL    HW132930   0.160   1.094   6.773
10677SOL    HW232931   0.183   1.224   6.677
10678SOL     OW32932   3.443   4.893   2.868
10678SOL    HW132933   3.510   4.905   2.794
10678SOL    HW232934   3.351   4.897   2.830
10679SOL     OW32935   5.616   3.914   6.894
10679SOL    HW132936   5.710   3.948   6.892
10679SOL    HW232937   5.565   3.962   6.965
10680SOL     OW32938   3.974   1.829   4.930
10680SOL    HW132939   3.879   1.806   4.910
10680SOL    HW232940   4.000   1.912   4.881
10681SOL     OW32941   2.530   3.347   5.719
10681SOL    HW132942   2.525   3.258   5.764
10681SOL    HW232943   2.560   3.335   5.625
10682SOL     OW32944   5.234   3.268   6.071
10682SOL    HW132945   5.293   3.195   6.036
10682SOL    HW232946   5.186   3.312   5.995
10683SOL     OW32947   1.904   6.449   3.210
10683SOL    HW132948   1.920   6.352   3.224
10683SOL    HW232949   1.827   6.461   3.146
10684SOL     OW32950   5.326   3.642   1.337
10684SOL    HW132951   5.254   3.574   1.323
10684SOL    HW232952   5.286   3.733   1.339
10685SOL     OW32953   0.565   0.586   2.327
10685SOL    HW132954   0.612   0.618   2.409
10685SOL    HW232955   0.609   0.624   2.246
10686SOL     OW32956   2.557   1.879   6.671
10686SOL    HW132957   2.503   1.962   6.657
10686SOL    HW232958   2.498   1.798   6.661
10687SOL     OW32959   0.727   3.365   3.593
10687SOL    HW132960   0.804   3.399   3.647
10687SOL    HW232961   0.683   3.442   3.546
10688SOL     OW32962   4.867   1.133   3.594
10688SOL    HW132963   4.793   1.072   3.623
10688SOL    HW232964   4.854   1.158   3.499
10689SOL     OW32965   1.627   1.080   3.026
10689SOL    HW132966   1.644   1.146   2.953
10689SOL    HW232967   1.553   1.113   3.084
10690SOL     OW32968   1.449   5.846   4.924
10690SOL    HW132969   1.377   5.904   4.887
10690SOL    HW232970   1.413   5.794   5.001
10691SOL     OW32971   3.570   6.725   1.248
10691SOL    HW132972   3.616   6.793   1.306
10691SOL    HW232973   3.536   6.770   1.165
10692SOL     OW32974   2.748   2.334   4.248
10692SOL    HW132975   2.749   2.259   4.182
10692SOL    HW232976   2.835   2.335   4.298
10693SOL     OW32977   1.208   4.203   0.238
10693SOL    HW132978   1.224   4.125   0.298
10693SOL    HW232979   1.222   4.176   0.143
10694SOL     OW32980   4.806   2.629   5.530
10694SOL    HW132981   4.815   2.708   5.469
10694SOL    HW232982   4.709   2.604   5.537
10695SOL     OW32983   4.780   4.614   1.739
10695SOL    HW132984   4.711   4.682   1.765
10695SOL    HW232985   4.737   4.524   1.733
10696SOL     OW32986   6.602   5.049   4.277
10696SOL    HW132987   6.661   4.977   4.314
10696SOL    HW232988   6.568   5.105   4.352
10697SOL     OW32989   2.624   5.039   5.036
10697SOL    HW132990   2.708   4.989   5.058
10697SOL    HW232991   2.582   5.071   5.120
10698SOL     OW32992   4.063   4.985   6.751
10698SOL    HW132993   4.024   4.943   6.833
10698SOL    HW232994   4.005   5.061   6.722
10699SOL     OW32995   4.557   3.904   1.472
10699SOL    HW132996   4.653   3.879   1.480
10699SOL    HW232997   4.501   3.820   1.466
10700SOL     OW32998   5.057   0.448   1.273
10700SOL    HW132999   5.114   0.530   1.258
10700SOL    HW233000   5.012   0.455   1.362
10701SOL     OW33001   3.317   0.029   5.602
10701SOL    HW133002   3.276   0.120   5.604
10701SOL    HW233003   3.414   0.037   5.579
10702SOL     OW33004   5.930   3.011   2.389
10702SOL    HW133005   5.942   2.914   2.367
10702SOL    HW233006   5.971   3.067   2.318
10703SOL     OW33007   0.878   2.158   5.398
10703SOL    HW133008   0.837   2.188   5.485
10703SOL    HW233009   0.814   2.099   5.350
10704SOL     OW33010   5.154   6.661   2.131
10704SOL    HW133011   5.212   6.602   2.075
10704SOL    HW233012   5.126   6.612   2.213
10705SOL     OW33013   4.693   3.661   1.732
10705SOL    HW133014   4.771   3.602   1.756
10705SOL    HW233015   4.619   3.605   1.696
10706SOL     OW33016   2.999   1.165   2.080
10706SOL    HW133017   3.031   1.249   2.126
10706SOL    HW233018   3.020   1.171   1.982
10707SOL     OW33019   3.594   6.938   3.426
10707SOL    HW133020   3.584   0.011   3.452
10707SOL    HW233021   3.688   6.923   3.393
10708SOL     OW33022   4.332   1.195   1.056
10708SOL    HW133023   4.427   1.178   1.080
10708SOL    HW233024   4.304   1.285   1.090
10709SOL     OW33025   5.919   4.450   3.015
10709SOL    HW133026   5.838   4.433   3.073
10709SOL    HW233027   5.951   4.543   3.030
10710SOL     OW33028   4.638   1.670   3.194
10710SOL    HW133029   4.732   1.671   3.228
10710SOL    HW233030   4.638   1.676   3.094
10711SOL     OW33031   2.337   6.471   3.169
10711SOL    HW133032   2.375   6.422   3.248
10711SOL    HW233033   2.272   6.412   3.122
10712SOL     OW33034   5.148   0.885   3.269
10712SOL    HW133035   5.209   0.892   3.191
10712SOL    HW233036   5.191   0.831   3.341
10713SOL     OW33037   1.072   4.002   1.186
10713SOL    HW133038   1.150   4.000   1.125
10713SOL    HW233039   1.103   4.000   1.281
10714SOL     OW33040   3.128   4.076   4.684
10714SOL    HW133041   3.081   4.163   4.695
10714SOL    HW233042   3.153   4.040   4.774
10715SOL     OW33043   6.639   0.595   1.625
10715SOL    HW133044   6.642   0.564   1.530
10715SOL    HW233045   6.728   0.636   1.649
10716SOL     OW33046   4.821   0.696   3.100
10716SOL    HW133047   4.736   0.644   3.100
10716SOL    HW233048   4.888   0.651   3.160
10717SOL     OW33049   3.600   3.006   0.326
10717SOL    HW133050   3.539   2.978   0.400
10717SOL    HW233051   3.655   2.928   0.297
10718SOL     OW33052   1.635   4.909   6.430
10718SOL    HW133053   1.568   4.951   6.492
10718SOL    HW233054   1.597   4.908   6.337
10719SOL     OW33055   6.926   4.388   5.491
10719SOL    HW133056   6.855   4.426   5.551
10719SOL    HW233057   6.975   4.315   5.539
10720SOL     OW33058   6.775   5.445   2.931
10720SOL    HW133059   6.828   5.397   3.001
10720SOL    HW233060   6.788   5.400   2.843
10721SOL     OW33061   5.020   2.778   6.560
10721SOL    HW133062   5.097   2.842   6.565
10721SOL    HW233063   4.935   2.830   6.546
10722SOL     OW33064   0.274   3.826   5.615
10722SOL    HW133065   0.340   3.882   5.565
10722SOL    HW233066   0.322   3.770   5.683
10723SOL     OW33067   5.872   5.857   1.206
10723SOL    HW133068   5.817   5.851   1.290
10723SOL    HW233069   5.814   5.892   1.132
10724SOL     OW33070   0.575   6.227   6.242
10724SOL    HW133071   0.656   6.255   6.293
10724SOL    HW233072   0.495   6.276   6.277
10725SOL     OW33073   2.434   6.854   6.259
10725SOL    HW133074   2.523   6.811   6.249
10725SOL    HW233075   2.368   6.810   6.197
10726SOL     OW33076   3.718   0.473   4.269
10726SOL    HW133077   3.709   0.536   4.192
10726SOL    HW233078   3.765   0.390   4.240
10727SOL     OW33079   2.059   6.357   7.011
10727SOL    HW133080   2.044   6.259   7.023
10727SOL    HW233081   1.984   6.396   6.957
10728SOL     OW33082   5.288   6.281   2.254
10728SOL    HW133083   5.222   6.354   2.268
10728SOL    HW233084   5.381   6.320   2.256
10729SOL     OW33085   6.268   1.677   0.338
10729SOL    HW133086   6.245   1.744   0.267
10729SOL    HW233087   6.312   1.598   0.296
10730SOL     OW33088   4.814   0.412   2.954
10730SOL    HW133089   4.731   0.397   2.900
10730SOL    HW233090   4.788   0.424   3.050
10731SOL     OW33091   3.377   6.860   0.433
10731SOL    HW133092   3.340   6.780   0.479
10731SOL    HW233093   3.398   6.931   0.500
10732SOL     OW33094   0.628   3.299   5.905
10732SOL    HW133095   0.566   3.263   5.835
10732SOL    HW233096   0.574   3.335   5.982
10733SOL     OW33097   6.205   0.285   6.879
10733SOL    HW133098   6.182   0.220   6.951
10733SOL    HW233099   6.272   0.245   6.817
10734SOL     OW33100   5.625   2.777   1.703
10734SOL    HW133101   5.550   2.817   1.650
10734SOL    HW233102   5.598   2.769   1.798
10735SOL     OW33103   6.702   5.430   2.551
10735SOL    HW133104   6.690   5.421   2.452
10735SOL    HW233105   6.621   5.394   2.598
10736SOL     OW33106   2.235   1.561   5.277
10736SOL    HW133107   2.152   1.507   5.287
10736SOL    HW233108   2.219   1.635   5.212
10737SOL     OW33109   0.243   1.632   6.232
10737SOL    HW133110   0.319   1.578   6.197
10737SOL    HW233111   0.231   1.714   6.175
10738SOL     OW33112   4.154   6.633   4.636
10738SOL    HW133113   4.198   6.667   4.719
10738SOL    HW233114   4.081   6.695   4.609
10739SOL     OW33115   1.526   1.362   2.125
10739SOL    HW133116   1.465   1.304   2.070
10739SOL    HW233117   1.587   1.412   2.064
10740SOL     OW33118   3.999   6.224   3.935
10740SOL    HW133119   3.926   6.270   3.985
10740SOL    HW233120   3.961   6.145   3.886
10741SOL     OW33121   2.221   0.582   2.826
10741SOL    HW133122   2.235   0.503   2.887
10741SOL    HW233123   2.253   0.559   2.734
10742SOL     OW33124   6.489   5.468   7.022
10742SOL    HW133125   6.455   5.530   6.951
10742SOL    HW233126   6.484   5.513   0.088
10743SOL     OW33127   3.333   1.300   5.154
10743SOL    HW133128   3.340   1.253   5.066
10743SOL    HW233129   3.335   1.232   5.228
10744SOL     OW33130   5.996   1.134   0.707
10744SOL    HW133131   6.047   1.220   0.716
10744SOL    HW233132   5.910   1.141   0.758
10745SOL     OW33133   6.491   6.038   6.279
10745SOL    HW133134   6.489   6.007   6.374
10745SOL    HW233135   6.586   6.036   6.245
10746SOL     OW33136   1.791   4.301   5.179
10746SOL    HW133137   1.830   4.249   5.103
10746SOL    HW233138   1.855   4.373   5.206
10747SOL     OW33139   2.854   2.261   4.930
10747SOL    HW133140   2.894   2.176   4.965
10747SOL    HW233141   2.927   2.327   4.912
10748SOL     OW33142   5.667   1.494   2.819
10748SOL    HW133143   5.752   1.510   2.869
10748SOL    HW233144   5.683   1.425   2.748
10749SOL     OW33145   3.737   0.318   0.356
10749SOL    HW133146   3.646   0.279   0.339
10749SOL    HW233147   3.805   0.246   0.350
10750SOL     OW33148   4.799   5.948   6.502
10750SOL    HW133149   4.791   5.935   6.403
10750SOL    HW233150   4.746   6.028   6.530
10751SOL     OW33151   2.413   6.116   2.726
10751SOL    HW133152   2.418   6.078   2.633
10751SOL    HW233153   2.350   6.194   2.727
10752SOL     OW33154   4.935   5.785   4.293
10752SOL    HW133155   4.958   5.880   4.269
10752SOL    HW233156   4.873   5.748   4.223
10753SOL     OW33157   5.944   4.246   4.512
10753SOL    HW133158   5.960   4.156   4.473
10753SOL    HW233159   5.857   4.282   4.478
10754SOL     OW33160   1.111   6.560   2.417
10754SOL    HW133161   1.134   6.502   2.495
10754SOL    HW233162   1.066   6.643   2.449
10755SOL     OW33163   6.123   5.651   1.423
10755SOL    HW133164   6.142   5.744   1.457
10755SOL    HW233165   6.028   5.628   1.443
10756SOL     OW33166   0.202   6.990   4.974
10756SOL    HW133167   0.143   0.040   4.940
10756SOL    HW233168   0.264   6.962   4.901
10757SOL     OW33169   3.045   2.671   1.734
10757SOL    HW133170   2.983   2.612   1.786
10757SOL    HW233171   3.121   2.617   1.698
10758SOL     OW33172   6.707   5.421   4.058
10758SOL    HW133173   6.607   5.421   4.059
10758SOL    HW233174   6.741   5.382   4.144
10759SOL     OW33175   6.470   0.758   6.797
10759SOL    HW133176   6.533   0.813   6.742
10759SOL    HW233177   6.407   0.710   6.737
10760SOL     OW33178   5.714   2.012   4.382
10760SOL    HW133179   5.747   2.082   4.446
10760SOL    HW233180   5.733   2.041   4.288
10761SOL     OW33181   3.749   5.594   5.882
10761SOL    HW133182   3.845   5.620   5.873
10761SOL    HW233183   3.690   5.668   5.851
10762SOL     OW33184   3.224   0.761   6.106
10762SOL    HW133185   3.276   0.676   6.107
10762SOL    HW233186   3.186   0.779   6.197
10763SOL     OW33187   4.790   5.322   4.232
10763SOL    HW133188   4.710   5.318   4.293
10763SOL    HW233189   4.850   5.396   4.260
10764SOL     OW33190   4.987   0.411   4.790
10764SOL    HW133191   5.004   0.342   4.861
10764SOL    HW233192   5.074   0.445   4.755
10765SOL     OW33193   6.983   3.828   6.938
10765SOL    HW133194   6.903   3.887   6.922
10765SOL    HW233195   7.005   3.828   0.012
10766SOL     OW33196   2.913   3.487   2.163
10766SOL    HW133197   2.921   3.387   2.158
10766SOL    HW233198   2.881   3.523   2.076
10767SOL     OW33199   4.640   2.009   2.207
10767SOL    HW133200   4.705   2.074   2.167
10767SOL    HW233201   4.572   1.984   2.139
10768SOL     OW33202   5.803   4.594   6.292
10768SOL    HW133203   5.844   4.507   6.263
10768SOL    HW233204   5.733   4.621   6.225
10769SOL     OW33205   2.099   3.622   4.520
10769SOL    HW133206   2.107   3.720   4.499
10769SOL    HW233207   2.085   3.571   4.435
10770SOL     OW33208   4.142   6.067   3.690
10770SOL    HW133209   4.168   6.025   3.776
10770SOL    HW233210   4.221   6.116   3.652
10771SOL     OW33211   2.511   2.168   3.898
10771SOL    HW133212   2.467   2.193   3.984
10771SOL    HW233213   2.447   2.181   3.822
10772SOL     OW33214   5.275   5.935   3.791
10772SOL    HW133215   5.216   5.971   3.719
10772SOL    HW233216   5.329   5.859   3.754
10773SOL     OW33217   5.594   5.383   2.813
10773SOL    HW133218   5.681   5.343   2.842
10773SOL    HW233219   5.566   5.344   2.725
10774SOL     OW33220   0.221   0.246   3.265
10774SOL    HW133221   0.169   0.166   3.234
10774SOL    HW233222   0.179   0.283   3.347
10775SOL     OW33223   0.325   2.549   1.165
10775SOL    HW133224   0.394   2.540   1.237
10775SOL    HW233225   0.237   2.518   1.200
10776SOL     OW33226   1.842   0.643   5.624
10776SOL    HW133227   1.868   0.719   5.563
10776SOL    HW233228   1.902   0.644   5.704
10777SOL     OW33229   3.255   5.767   1.627
10777SOL    HW133230   3.236   5.669   1.634
10777SOL    HW233231   3.277   5.790   1.532
10778SOL     OW33232   5.673   5.925   1.511
10778SOL    HW133233   5.611   5.914   1.588
10778SOL    HW233234   5.625   5.974   1.437
10779SOL     OW33235   4.854   3.124   3.669
10779SOL    HW133236   4.835   3.049   3.733
10779SOL    HW233237   4.923   3.095   3.603
10780SOL     OW33238   6.713   0.282   2.115
10780SOL    HW133239   6.780   0.317   2.181
10780SOL    HW233240   6.628   0.260   2.163
10781SOL     OW33241   3.159   0.426   4.125
10781SOL    HW133242   3.241   0.484   4.124
10781SOL    HW233243   3.087   0.471   4.071
10782SOL     OW33244   6.898   5.710   3.324
10782SOL    HW133245   6.857   5.799   3.346
10782SOL    HW233246   6.899   5.699   3.224
10783SOL     OW33247   6.384   2.514   2.704
10783SOL    HW133248   6.405   2.436   2.763
10783SOL    HW233249   6.423   2.597   2.744
10784SOL     OW33250   1.941   1.818   4.940
10784SOL    HW133251   1.980   1.833   5.031
10784SOL    HW233252   1.893   1.901   4.910
10785SOL     OW33253   1.524   3.417   6.079
10785SOL    HW133254   1.458   3.354   6.038
10785SOL    HW233255   1.511   3.418   6.178
10786SOL     OW33256   6.585   4.591   4.740
10786SOL    HW133257   6.621   4.504   4.776
10786SOL    HW233258   6.549   4.577   4.648
10787SOL     OW33259   1.846   1.905   5.777
10787SOL    HW133260   1.945   1.903   5.790
10787SOL    HW233261   1.811   1.997   5.798
10788SOL     OW33262   5.708   3.771   6.178
10788SOL    HW133263   5.738   3.818   6.095
10788SOL    HW233264   5.616   3.735   6.165
10789SOL     OW33265   4.889   1.171   6.613
10789SOL    HW133266   4.827   1.092   6.616
10789SOL    HW233267   4.880   1.222   6.699
10790SOL     OW33268   5.580   6.695   2.442
10790SOL    HW133269   5.627   6.773   2.400
10790SOL    HW233270   5.590   6.699   2.541
10791SOL     OW33271   0.884   5.909   2.727
10791SOL    HW133272   0.853   5.869   2.641
10791SOL    HW233273   0.815   5.974   2.760
10792SOL     OW33274   4.201   4.722   6.315
10792SOL    HW133275   4.119   4.760   6.273
10792SOL    HW233276   4.188   4.624   6.330
10793SOL     OW33277   5.655   4.213   4.490
10793SOL    HW133278   5.658   4.295   4.546
10793SOL    HW233279   5.590   4.226   4.415
10794SOL     OW33280   3.402   3.429   4.326
10794SOL    HW133281   3.490   3.395   4.360
10794SOL    HW233282   3.382   3.386   4.238
10795SOL     OW33283   6.857   4.691   2.861
10795SOL    HW133284   6.839   4.601   2.900
10795SOL    HW233285   6.896   4.751   2.931
10796SOL     OW33286   0.673   6.696   5.473
10796SOL    HW133287   0.717   6.607   5.469
10796SOL    HW233288   0.736   6.763   5.512
10797SOL     OW33289   4.178   2.610   0.325
10797SOL    HW133290   4.186   2.519   0.285
10797SOL    HW233291   4.085   2.622   0.360
10798SOL     OW33292   5.692   1.420   0.747
10798SOL    HW133293   5.646   1.492   0.694
10798SOL    HW233294   5.791   1.433   0.741
10799SOL     OW33295   5.189   1.440   1.268
10799SOL    HW133296   5.225   1.480   1.352
10799SOL    HW233297   5.105   1.391   1.288
10800SOL     OW33298   6.525   6.493   1.302
10800SOL    HW133299   6.457   6.440   1.251
10800SOL    HW233300   6.604   6.434   1.322
10801SOL     OW33301   2.364   0.695   1.234
10801SOL    HW133302   2.364   0.601   1.200
10801SOL    HW233303   2.402   0.755   1.165
10802SOL     OW33304   5.179   1.362   3.938
10802SOL    HW133305   5.169   1.441   3.878
10802SOL    HW233306   5.272   1.325   3.929
10803SOL     OW33307   2.255   4.818   5.062
10803SOL    HW133308   2.308   4.767   5.130
10803SOL    HW233309   2.179   4.762   5.030
10804SOL     OW33310   6.139   3.652   3.917
10804SOL    HW133311   6.131   3.630   3.820
10804SOL    HW233312   6.212   3.720   3.930
10805SOL     OW33313   6.869   6.856   6.535
10805SOL    HW133314   6.786   6.891   6.491
10805SOL    HW233315   6.948   6.875   6.477
10806SOL     OW33316   1.777   4.834   1.032
10806SOL    HW133317   1.735   4.791   1.112
10806SOL    HW233318   1.718   4.822   0.952
10807SOL     OW33319   3.128   5.233   5.286
10807SOL    HW133320   3.173   5.311   5.242
10807SOL    HW233321   3.042   5.263   5.327
10808SOL     OW33322   1.761   3.362   0.400
10808SOL    HW133323   1.668   3.376   0.436
10808SOL    HW233324   1.765   3.276   0.350
10809SOL     OW33325   1.292   0.922   4.889
10809SOL    HW133326   1.369   0.981   4.913
10809SOL    HW233327   1.222   0.927   4.960
10810SOL     OW33328   0.012   0.579   3.368
10810SOL    HW133329   7.015   0.552   3.274
10810SOL    HW233330   0.036   0.498   3.422
10811SOL     OW33331   5.347   5.599   5.048
10811SOL    HW133332   5.278   5.527   5.042
10811SOL    HW233333   5.303   5.689   5.043
10812SOL     OW33334   0.546   2.888   1.118
10812SOL    HW133335   0.503   2.838   1.043
10812SOL    HW233336   0.617   2.948   1.081
10813SOL     OW33337   1.212   3.543   6.909
10813SOL    HW133338   1.274   3.566   6.835
10813SOL    HW233339   1.201   3.443   6.914
10814SOL     OW33340   3.529   1.879   2.484
10814SOL    HW133341   3.456   1.917   2.427
10814SOL    HW233342   3.617   1.893   2.440
10815SOL     OW33343   5.580   1.060   4.532
10815SOL    HW133344   5.522   1.139   4.552
10815SOL    HW233345   5.614   1.067   4.438
10816SOL     OW33346   3.019   3.158   5.452
10816SOL    HW133347   2.925   3.126   5.455
10816SOL    HW233348   3.081   3.080   5.449
10817SOL     OW33349   1.689   6.301   4.886
10817SOL    HW133350   1.693   6.201   4.889
10817SOL    HW233351   1.756   6.335   4.821
10818SOL     OW33352   5.030   3.837   0.470
10818SOL    HW133353   5.060   3.742   0.460
10818SOL    HW233354   4.977   3.846   0.554
10819SOL     OW33355   6.087   5.846   5.581
10819SOL    HW133356   5.994   5.838   5.547
10819SOL    HW233357   6.112   5.762   5.630
10820SOL     OW33358   1.594   4.780   6.088
10820SOL    HW133359   1.650   4.753   6.009
10820SOL    HW233360   1.564   4.875   6.077
10821SOL     OW33361   4.321   5.660   4.226
10821SOL    HW133362   4.272   5.667   4.139
10821SOL    HW233363   4.258   5.633   4.298
10822SOL     OW33364   5.269   0.281   2.707
10822SOL    HW133365   5.282   0.183   2.699
10822SOL    HW233366   5.173   0.301   2.729
10823SOL     OW33367   5.297   6.644   2.483
10823SOL    HW133368   5.298   6.672   2.579
10823SOL    HW233369   5.385   6.668   2.440
10824SOL     OW33370   1.827   2.101   3.582
10824SOL    HW133371   1.882   2.086   3.499
10824SOL    HW233372   1.803   2.197   3.588
10825SOL     OW33373   0.007   1.359   0.093
10825SOL    HW133374   0.045   1.424   0.028
10825SOL    HW233375   0.037   1.381   0.185
10826SOL     OW33376   6.813   3.287   3.025
10826SOL    HW133377   6.757   3.368   3.047
10826SOL    HW233378   6.907   3.315   3.009
10827SOL     OW33379   0.446   3.144   3.448
10827SOL    HW133380   0.477   3.090   3.525
10827SOL    HW233381   0.523   3.196   3.410
10828SOL     OW33382   6.957   4.420   5.030
10828SOL    HW133383   0.033   4.405   5.037
10828SOL    HW233384   6.910   4.359   5.094
10829SOL     OW33385   4.067   3.027   5.734
10829SOL    HW133386   4.022   3.112   5.705
10829SOL    HW233387   3.998   2.957   5.751
10830SOL     OW33388   5.453   1.761   3.746
10830SOL    HW133389   5.448   1.835   3.679
10830SOL    HW233390   5.526   1.698   3.721
10831SOL     OW33391   4.147   0.089   2.884
10831SOL    HW133392   4.130   0.043   2.971
10831SOL    HW233393   4.060   0.105   2.837
10832SOL     OW33394   6.781   3.342   6.665
10832SOL    HW133395   6.825   3.417   6.616
10832SOL    HW233396   6.720   3.292   6.604
10833SOL     OW33397   1.036   1.228   6.659
10833SOL    HW133398   1.123   1.191   6.692
10833SOL    HW233399   0.964   1.210   6.726
10834SOL     OW33400   6.988   6.613   2.625
10834SOL    HW133401   0.053   6.596   2.581
10834SOL    HW233402   6.923   6.542   2.599
10835SOL     OW33403   6.886   2.787   5.618
10835SOL    HW133404   6.864   2.864   5.677
10835SOL    HW233405   6.911   2.708   5.674
10836SOL     OW33406   6.764   1.741   3.268
10836SOL    HW133407   6.723   1.781   3.186
10836SOL    HW233408   6.804   1.813   3.325
10837SOL     OW33409   0.136   3.221   3.469
10837SOL    HW133410   0.236   3.220   3.463
10837SOL    HW233411   0.107   3.302   3.521
10838SOL     OW33412   0.290   6.781   2.632
10838SOL    HW133413   0.390   6.778   2.640
10838SOL    HW233414   0.265   6.843   2.558
10839SOL     OW33415   4.589   2.486   6.954
10839SOL    HW133416   4.675   2.473   6.904
10839SOL    HW233417   4.585   2.578   6.991
10840SOL     OW33418   3.000   0.682   2.176
10840SOL    HW133419   3.032   0.683   2.081
10840SOL    HW233420   2.956   0.594   2.196
10841SOL     OW33421   2.110   5.530   4.512
10841SOL    HW133422   2.012   5.536   4.529
10841SOL    HW233423   2.128   5.460   4.443
10842SOL     OW33424   6.674   4.472   1.842
10842SOL    HW133425   6.760   4.432   1.875
10842SOL    HW233426   6.666   4.455   1.744
10843SOL     OW33427   2.736   1.323   1.172
10843SOL    HW133428   2.647   1.283   1.194
10843SOL    HW233429   2.733   1.421   1.190
10844SOL     OW33430   1.649   5.409   4.378
10844SOL    HW133431   1.593   5.432   4.299
10844SOL    HW233432   1.602   5.341   4.434
10845SOL     OW33433   3.904   0.669   4.385
10845SOL    HW133434   3.853   0.697   4.467
10845SOL    HW233435   3.841   0.631   4.318
10846SOL     OW33436   5.490   6.803   6.202
10846SOL    HW133437   5.404   6.847   6.227
10846SOL    HW233438   5.526   6.844   6.118
10847SOL     OW33439   3.543   0.101   6.922
10847SOL    HW133440   3.462   0.042   6.917
10847SOL    HW233441   3.608   0.062   6.987
10848SOL     OW33442   1.366   2.954   2.098
10848SOL    HW133443   1.382   2.901   2.015
10848SOL    HW233444   1.271   2.943   2.127
10849SOL     OW33445   1.236   6.819   3.646
10849SOL    HW133446   1.192   6.806   3.557
10849SOL    HW233447   1.183   6.773   3.717
10850SOL     OW33448   4.809   4.073   0.141
10850SOL    HW133449   4.841   3.983   0.171
10850SOL    HW233450   4.789   4.070   0.043
10851SOL     OW33451   1.456   4.599   0.966
10851SOL    HW133452   1.543   4.592   1.015
10851SOL    HW233453   1.454   4.533   0.892
10852SOL     OW33454   3.137   0.468   1.070
10852SOL    HW133455   3.225   0.513   1.084
10852SOL    HW233456   3.129   0.440   0.975
10853SOL     OW33457   3.013   1.004   6.290
10853SOL    HW133458   2.969   0.996   6.201
10853SOL    HW233459   3.036   0.913   6.324
10854SOL     OW33460   2.955   6.400   5.957
10854SOL    HW133461   2.876   6.345   5.983
10854SOL    HW233462   3.039   6.349   5.976
10855SOL     OW33463   4.553   0.842   6.347
10855SOL    HW133464   4.594   0.914   6.291
10855SOL    HW233465   4.476   0.879   6.398
10856SOL     OW33466   0.376   0.362   0.850
10856SOL    HW133467   0.369   0.269   0.887
10856SOL    HW233468   0.470   0.379   0.822
10857SOL     OW33469   6.182   1.572   1.470
10857SOL    HW133470   6.186   1.629   1.552
10857SOL    HW233471   6.123   1.493   1.486
10858SOL     OW33472   2.253   6.359   1.873
10858SOL    HW133473   2.157   6.354   1.900
10858SOL    HW233474   2.277   6.453   1.848
10859SOL     OW33475   1.805   4.881   3.732
10859SOL    HW133476   1.884   4.863   3.789
10859SOL    HW233477   1.825   4.857   3.638
10860SOL     OW33478   0.850   3.985   3.045
10860SOL    HW133479   0.796   3.939   3.115
10860SOL    HW233480   0.909   4.053   3.087
10861SOL     OW33481   4.352   3.365   5.315
10861SOL    HW133482   4.305   3.344   5.229
10861SOL    HW233483   4.288   3.352   5.391
10862SOL     OW33484   1.136   0.467   5.827
10862SOL    HW133485   1.225   0.492   5.865
10862SOL    HW233486   1.069   0.539   5.847
10863SOL     OW33487   1.889   6.645   4.273
10863SOL    HW133488   1.834   6.688   4.201
10863SOL    HW233489   1.845   6.560   4.302
10864SOL     OW33490   3.088   6.822   3.754
10864SOL    HW133491   2.996   6.857   3.770
10864SOL    HW233492   3.143   6.891   3.707
10865SOL     OW33493   6.509   0.947   6.061
10865SOL    HW133494   6.526   0.885   5.985
10865SOL    HW233495   6.413   0.976   6.060
10866SOL     OW33496   6.335   4.801   6.833
10866SOL    HW133497   6.383   4.718   6.862
10866SOL    HW233498   6.342   4.811   6.734
10867SOL     OW33499   2.811   1.749   0.020
10867SOL    HW133500   2.888   1.689   0.041
10867SOL    HW233501   2.829   1.840   0.056
10868SOL     OW33502   1.460   2.436   3.548
10868SOL    HW133503   1.516   2.482   3.478
10868SOL    HW233504   1.417   2.505   3.607
10869NA      NA33505   6.687   2.295   5.201
10870NA      NA33506   4.507   4.548   5.182
10871NA      NA33507   2.023   3.401   1.962
10872NA      NA33508   4.977   3.444   4.916
10873NA      NA33509   4.348   2.408   5.208
10874NA      NA33510   3.812   4.892   2.085
10875NA      NA33511   6.711   6.502   4.811
10876NA      NA33512   3.730   3.236   5.048
10877NA      NA33513   4.726   6.044   6.111
10878NA      NA33514   2.835   6.835   4.972
10879NA      NA33515   0.336   4.833   3.298
10880NA      NA33516   2.063   0.547   1.933
10881NA      NA33517   4.117   4.212   1.217
10882NA      NA33518   4.012   3.486   3.153
   7.02292   7.02292   7.02292
