Generated by trjconv : CNT in water t= 130.00000
33518
    1C        C    1   2.837   2.767   4.743
    1C        C    2   2.891   2.716   4.863
    1C        C    3   2.834   2.768   4.979
    1C        C    4   2.839   2.769   4.256
    1C        C    5   2.894   2.727   4.379
    1C        C    6   2.839   2.770   4.503
    1C        C    7   3.014   2.644   4.624
    1C        C    8   2.895   2.720   4.623
    1C        C    9   3.076   2.606   4.745
    1C        C   10   3.004   2.631   4.864
    1C        C   11   3.175   2.486   4.969
    1C        C   12   3.058   2.563   4.974
    1C        C   13   2.845   2.769   3.769
    1C        C   14   2.895   2.717   3.891
    1C        C   15   2.846   2.770   4.013
    1C        C   16   3.016   2.647   4.136
    1C        C   17   2.897   2.722   4.136
    1C        C   18   3.077   2.615   4.259
    1C        C   19   3.014   2.653   4.380
    1C        C   20   3.208   2.564   4.499
    1C        C   21   3.076   2.613   4.501
    1C        C   22   3.276   2.539   4.620
    1C        C   23   3.207   2.550   4.743
    1C        C   24   3.409   2.481   4.863
    1C        C   25   3.266   2.494   4.859
    1C        C   26   3.487   2.477   4.980
    1C        C   27   2.845   2.765   3.279
    1C        C   28   2.903   2.725   3.402
    1C        C   29   2.849   2.772   3.525
    1C        C   30   3.014   2.639   3.647
    1C        C   31   2.901   2.724   3.647
    1C        C   32   3.076   2.607   3.770
    1C        C   33   3.010   2.637   3.892
    1C        C   34   3.206   2.553   4.015
    1C        C   35   3.075   2.606   4.014
    1C        C   36   3.274   2.536   4.137
    1C        C   37   3.207   2.558   4.260
    1C        C   38   3.417   2.511   4.376
    1C        C   39   3.279   2.540   4.379
    1C        C   40   3.486   2.507   4.500
    1C        C   41   3.413   2.506   4.621
    1C        C   42   3.625   2.482   4.741
    1C        C   43   3.483   2.482   4.742
    1C        C   44   3.700   2.490   4.861
    1C        C   45   3.626   2.476   4.978
    1C        C   46   2.829   2.746   2.791
    1C        C   47   2.892   2.709   2.912
    1C        C   48   2.841   2.761   3.033
    1C        C   49   3.013   2.641   3.160
    1C        C   50   2.894   2.716   3.156
    1C        C   51   3.079   2.609   3.280
    1C        C   52   3.019   2.645   3.403
    1C        C   53   3.208   2.550   3.527
    1C        C   54   3.077   2.604   3.525
    1C        C   55   3.275   2.534   3.650
    1C        C   56   3.207   2.555   3.772
    1C        C   57   3.414   2.509   3.890
    1C        C   58   3.275   2.530   3.894
    1C        C   59   3.485   2.502   4.012
    1C        C   60   3.413   2.512   4.134
    1C        C   61   3.628   2.495   4.259
    1C        C   62   3.486   2.499   4.254
    1C        C   63   3.702   2.502   4.379
    1C        C   64   3.627   2.502   4.498
    1C        C   65   3.832   2.543   4.621
    1C        C   66   3.697   2.501   4.621
    1C        C   67   3.903   2.563   4.741
    1C        C   68   3.836   2.528   4.861
    1C        C   69   4.051   2.574   4.976
    1C        C   70   3.921   2.524   4.972
    1C        C   71   2.822   2.735   2.307
    1C        C   72   2.884   2.693   2.427
    1C        C   73   2.830   2.744   2.547
    1C        C   74   3.005   2.626   2.669
    1C        C   75   2.884   2.699   2.669
    1C        C   76   3.071   2.596   2.791
    1C        C   77   3.011   2.632   2.914
    1C        C   78   3.208   2.558   3.036
    1C        C   79   3.075   2.606   3.037
    1C        C   80   3.277   2.540   3.158
    1C        C   81   3.211   2.559   3.281
    1C        C   82   3.411   2.497   3.402
    1C        C   83   3.274   2.528   3.404
    1C        C   84   3.483   2.496   3.524
    1C        C   85   3.414   2.509   3.647
    1C        C   86   3.627   2.508   3.769
    1C        C   87   3.486   2.509   3.769
    1C        C   88   3.696   2.512   3.892
    1C        C   89   3.626   2.505   4.015
    1C        C   90   3.833   2.548   4.136
    1C        C   91   3.697   2.511   4.137
    1C        C   92   3.903   2.567   4.258
    1C        C   93   3.838   2.540   4.380
    1C        C   94   4.030   2.632   4.497
    1C        C   95   3.905   2.567   4.502
    1C        C   96   4.088   2.669   4.621
    1C        C   97   4.030   2.625   4.742
    1C        C   98   4.184   2.766   4.864
    1C        C   99   4.095   2.654   4.865
    1C        C  100   4.206   2.845   4.978
    1C        C  101   2.819   2.733   2.070
    1C        C  102   2.986   2.589   2.186
    1C        C  103   2.874   2.679   2.187
    1C        C  104   3.061   2.574   2.306
    1C        C  105   3.003   2.616   2.427
    1C        C  106   3.199   2.534   2.548
    1C        C  107   3.070   2.591   2.549
    1C        C  108   3.270   2.523   2.670
    1C        C  109   3.202   2.545   2.792
    1C        C  110   3.409   2.499   2.914
    1C        C  111   3.271   2.525   2.914
    1C        C  112   3.483   2.490   3.034
    1C        C  113   3.415   2.509   3.157
    1C        C  114   3.624   2.498   3.280
    1C        C  115   3.482   2.494   3.280
    1C        C  116   3.694   2.506   3.402
    1C        C  117   3.624   2.501   3.525
    1C        C  118   3.836   2.536   3.644
    1C        C  119   3.697   2.512   3.646
    1C        C  120   3.900   2.562   3.767
    1C        C  121   3.834   2.545   3.890
    1C        C  122   4.025   2.632   4.009
    1C        C  123   3.901   2.566   4.013
    1C        C  124   4.085   2.673   4.130
    1C        C  125   4.028   2.634   4.253
    1C        C  126   4.202   2.755   4.378
    1C        C  127   4.089   2.670   4.375
    1C        C  128   4.245   2.813   4.500
    1C        C  129   4.190   2.767   4.622
    1C        C  130   4.323   2.934   4.740
    1C        C  131   4.237   2.821   4.744
    1C        C  132   4.357   3.000   4.860
    1C        C  133   4.280   2.962   4.971
    1C        C  134   3.174   2.469   2.080
    1C        C  135   3.042   2.516   2.076
    1C        C  136   3.260   2.473   2.191
    1C        C  137   3.192   2.520   2.306
    1C        C  138   3.403   2.481   2.428
    1C        C  139   3.263   2.503   2.427
    1C        C  140   3.477   2.484   2.548
    1C        C  141   3.409   2.500   2.671
    1C        C  142   3.622   2.501   2.789
    1C        C  143   3.481   2.489   2.792
    1C        C  144   3.694   2.505   2.910
    1C        C  145   3.624   2.492   3.032
    1C        C  146   3.829   2.537   3.153
    1C        C  147   3.692   2.504   3.156
    1C        C  148   3.895   2.564   3.275
    1C        C  149   3.830   2.541   3.399
    1C        C  150   4.025   2.625   3.520
    1C        C  151   3.900   2.560   3.520
    1C        C  152   4.083   2.664   3.643
    1C        C  153   4.026   2.626   3.766
    1C        C  154   4.194   2.761   3.884
    1C        C  155   4.085   2.670   3.887
    1C        C  156   4.243   2.811   4.007
    1C        C  157   4.195   2.762   4.131
    1C        C  158   4.338   2.914   4.252
    1C        C  159   4.249   2.805   4.254
    1C        C  160   4.372   2.978   4.373
    1C        C  161   4.333   2.923   4.497
    1C        C  162   4.439   3.110   4.615
    1C        C  163   4.368   2.988   4.617
    1C        C  164   4.468   3.179   4.734
    1C        C  165   4.436   3.117   4.856
    1C        C  166   4.513   3.320   4.972
    1C        C  167   4.476   3.186   4.971
    1C        C  168   3.476   2.430   2.074
    1C        C  169   3.399   2.454   2.190
    1C        C  170   3.618   2.464   2.307
    1C        C  171   3.476   2.465   2.308
    1C        C  172   3.691   2.486   2.425
    1C        C  173   3.618   2.488   2.547
    1C        C  174   3.828   2.537   2.666
    1C        C  175   3.692   2.500   2.667
    1C        C  176   3.897   2.559   2.788
    1C        C  177   3.833   2.534   2.911
    1C        C  178   4.029   2.615   3.029
    1C        C  179   3.901   2.555   3.033
    1C        C  180   4.086   2.654   3.152
    1C        C  181   4.025   2.619   3.274
    1C        C  182   4.196   2.745   3.395
    1C        C  183   4.086   2.657   3.396
    1C        C  184   4.248   2.796   3.517
    1C        C  185   4.195   2.751   3.640
    1C        C  186   4.336   2.913   3.761
    1C        C  187   4.245   2.805   3.760
    1C        C  188   4.376   2.973   3.883
    1C        C  189   4.329   2.922   4.007
    1C        C  190   4.438   3.101   4.124
    1C        C  191   4.374   2.975   4.129
    1C        C  192   4.466   3.167   4.246
    1C        C  193   4.436   3.104   4.369
    1C        C  194   4.504   3.307   4.490
    1C        C  195   4.460   3.173   4.490
    1C        C  196   4.517   3.382   4.609
    1C        C  197   4.506   3.316   4.733
    1C        C  198   4.551   3.531   4.848
    1C        C  199   4.535   3.389   4.852
    1C        C  200   4.582   3.614   4.960
    1C        C  201   3.615   2.419   2.072
    1C        C  202   3.824   2.515   2.184
    1C        C  203   3.693   2.458   2.186
    1C        C  204   3.898   2.541   2.303
    1C        C  205   3.827   2.525   2.423
    1C        C  206   4.025   2.610   2.540
    1C        C  207   3.895   2.554   2.543
    1C        C  208   4.088   2.645   2.661
    1C        C  209   4.026   2.615   2.785
    1C        C  210   4.194   2.747   2.904
    1C        C  211   4.088   2.653   2.906
    1C        C  212   4.244   2.795   3.027
    1C        C  213   4.193   2.747   3.150
    1C        C  214   4.331   2.907   3.269
    1C        C  215   4.243   2.796   3.272
    1C        C  216   4.368   2.966   3.392
    1C        C  217   4.334   2.908   3.516
    1C        C  218   4.431   3.099   3.633
    1C        C  219   4.371   2.971   3.637
    1C        C  220   4.461   3.164   3.755
    1C        C  221   4.438   3.099   3.878
    1C        C  222   4.498   3.303   4.000
    1C        C  223   4.463   3.166   4.000
    1C        C  224   4.508   3.374   4.122
    1C        C  225   4.498   3.304   4.244
    1C        C  226   4.516   3.516   4.366
    1C        C  227   4.506   3.375   4.366
    1C        C  228   4.518   3.593   4.484
    1C        C  229   4.526   3.523   4.606
    1C        C  230   4.502   3.738   4.723
    1C        C  231   4.533   3.599   4.724
    1C        C  232   4.496   3.813   4.842
    1C        C  233   4.541   3.748   4.958
    1C        C  234   4.024   2.594   2.060
    1C        C  235   3.895   2.543   2.067
    1C        C  236   4.090   2.635   2.177
    1C        C  237   4.027   2.602   2.299
    1C        C  238   4.203   2.729   2.417
    1C        C  239   4.088   2.645   2.418
    1C        C  240   4.251   2.781   2.539
    1C        C  241   4.197   2.735   2.660
    1C        C  242   4.331   2.904   2.781
    1C        C  243   4.246   2.791   2.780
    1C        C  244   4.374   2.960   2.904
    1C        C  245   4.336   2.902   3.027
    1C        C  246   4.434   3.093   3.146
    1C        C  247   4.376   2.964   3.148
    1C        C  248   4.453   3.162   3.268
    1C        C  249   4.428   3.094   3.390
    1C        C  250   4.488   3.301   3.510
    1C        C  251   4.451   3.165   3.510
    1C        C  252   4.507   3.369   3.632
    1C        C  253   4.497   3.301   3.756
    1C        C  254   4.518   3.513   3.876
    1C        C  255   4.510   3.372   3.877
    1C        C  256   4.514   3.585   3.997
    1C        C  257   4.515   3.515   4.120
    1C        C  258   4.488   3.725   4.239
    1C        C  259   4.511   3.586   4.243
    1C        C  260   4.468   3.798   4.358
    1C        C  261   4.486   3.731   4.481
    1C        C  262   4.425   3.937   4.603
    1C        C  263   4.476   3.805   4.601
    1C        C  264   4.399   4.007   4.723
    1C        C  265   4.433   3.939   4.843
    1C        C  266   4.314   4.124   4.959
    1C        C  267   4.386   4.005   4.957
    1C        C  268   4.260   2.771   2.059
    1C        C  269   4.197   2.726   2.176
    1C        C  270   4.348   2.885   2.297
    1C        C  271   4.255   2.777   2.294
    1C        C  272   4.379   2.953   2.417
    1C        C  273   4.341   2.891   2.538
    1C        C  274   4.444   3.081   2.658
    1C        C  275   4.375   2.957   2.658
    1C        C  276   4.467   3.149   2.779
    1C        C  277   4.440   3.084   2.902
    1C        C  278   4.500   3.291   3.022
    1C        C  279   4.463   3.155   3.022
    1C        C  280   4.505   3.364   3.143
    1C        C  281   4.485   3.299   3.268
    1C        C  282   4.514   3.512   3.387
    1C        C  283   4.502   3.371   3.388
    1C        C  284   4.514   3.581   3.511
    1C        C  285   4.512   3.510   3.633
    1C        C  286   4.492   3.723   3.752
    1C        C  287   4.514   3.583   3.754
    1C        C  288   4.472   3.791   3.874
    1C        C  289   4.488   3.724   3.998
    1C        C  290   4.432   3.932   4.115
    1C        C  291   4.472   3.796   4.118
    1C        C  292   4.401   3.998   4.236
    1C        C  293   4.423   3.931   4.359
    1C        C  294   4.317   4.118   4.478
    1C        C  295   4.393   3.998   4.480
    1C        C  296   4.275   4.179   4.598
    1C        C  297   4.320   4.124   4.720
    1C        C  298   4.200   4.308   4.835
    1C        C  299   4.278   4.188   4.840
    1C        C  300   4.169   4.399   4.941
    1C        C  301   4.352   2.875   2.058
    1C        C  302   4.468   3.063   2.172
    1C        C  303   4.399   2.938   2.175
    1C        C  304   4.478   3.139   2.292
    1C        C  305   4.445   3.078   2.416
    1C        C  306   4.503   3.284   2.532
    1C        C  307   4.475   3.146   2.536
    1C        C  308   4.512   3.355   2.653
    1C        C  309   4.503   3.286   2.776
    1C        C  310   4.519   3.498   2.897
    1C        C  311   4.513   3.357   2.898
    1C        C  312   4.517   3.572   3.017
    1C        C  313   4.514   3.505   3.141
    1C        C  314   4.488   3.718   3.263
    1C        C  315   4.510   3.578   3.262
    1C        C  316   4.478   3.789   3.385
    1C        C  317   4.494   3.720   3.507
    1C        C  318   4.427   3.923   3.626
    1C        C  319   4.475   3.790   3.629
    1C        C  320   4.395   3.987   3.748
    1C        C  321   4.425   3.924   3.871
    1C        C  322   4.316   4.107   3.990
    1C        C  323   4.397   3.991   3.992
    1C        C  324   4.273   4.165   4.112
    1C        C  325   4.321   4.114   4.234
    1C        C  326   4.184   4.279   4.350
    1C        C  327   4.280   4.176   4.355
    1C        C  328   4.134   4.333   4.470
    1C        C  329   4.182   4.286   4.594
    1C        C  330   4.020   4.429   4.709
    1C        C  331   4.134   4.344   4.714
    1C        C  332   3.970   4.488   4.827
    1C        C  333   4.051   4.475   4.941
    1C        C  334   4.560   3.262   2.063
    1C        C  335   4.538   3.124   2.063
    1C        C  336   4.537   3.349   2.171
    1C        C  337   4.514   3.276   2.290
    1C        C  338   4.518   3.494   2.409
    1C        C  339   4.515   3.353   2.409
    1C        C  340   4.520   3.567   2.530
    1C        C  341   4.524   3.496   2.652
    1C        C  342   4.496   3.707   2.770
    1C        C  343   4.517   3.568   2.774
    1C        C  344   4.473   3.776   2.892
    1C        C  345   4.494   3.711   3.016
    1C        C  346   4.424   3.913   3.136
    1C        C  347   4.469   3.780   3.137
    1C        C  348   4.395   3.980   3.257
    1C        C  349   4.428   3.921   3.380
    1C        C  350   4.316   4.101   3.499
    1C        C  351   4.393   3.983   3.502
    1C        C  352   4.271   4.156   3.621
    1C        C  353   4.316   4.103   3.745
    1C        C  354   4.170   4.257   3.865
    1C        C  355   4.271   4.159   3.867
    1C        C  356   4.114   4.306   3.985
    1C        C  357   4.170   4.262   4.107
    1C        C  358   4.010   4.400   4.227
    1C        C  359   4.127   4.322   4.228
    1C        C  360   3.949   4.439   4.349
    1C        C  361   4.017   4.413   4.470
    1C        C  362   3.826   4.517   4.589
    1C        C  363   3.954   4.458   4.588
    1C        C  364   3.761   4.550   4.710
    1C        C  365   3.839   4.540   4.828
    1C        C  366   3.629   4.595   4.945
    1C        C  367   3.766   4.571   4.943
    1C        C  368   4.519   3.564   2.046
    1C        C  369   4.525   3.489   2.164
    1C        C  370   4.501   3.702   2.286
    1C        C  371   4.518   3.562   2.285
    1C        C  372   4.486   3.776   2.405
    1C        C  373   4.503   3.707   2.527
    1C        C  374   4.422   3.905   2.645
    1C        C  375   4.482   3.777   2.648
    1C        C  376   4.394   3.972   2.767
    1C        C  377   4.424   3.908   2.889
    1C        C  378   4.314   4.089   3.008
    1C        C  379   4.394   3.973   3.011
    1C        C  380   4.267   4.146   3.128
    1C        C  381   4.312   4.095   3.252
    1C        C  382   4.170   4.249   3.375
    1C        C  383   4.272   4.152   3.375
    1C        C  384   4.115   4.299   3.496
    1C        C  385   4.172   4.256   3.618
    1C        C  386   4.005   4.386   3.741
    1C        C  387   4.119   4.302   3.741
    1C        C  388   3.939   4.422   3.860
    1C        C  389   4.000   4.389   3.983
    1C        C  390   3.815   4.487   4.105
    1C        C  391   3.946   4.434   4.106
    1C        C  392   3.748   4.512   4.227
    1C        C  393   3.821   4.499   4.347
    1C        C  394   3.615   4.551   4.473
    1C        C  395   3.755   4.530   4.468
    1C        C  396   3.545   4.563   4.595
    1C        C  397   3.620   4.563   4.714
    1C        C  398   3.408   4.554   4.838
    1C        C  399   3.547   4.582   4.833
    1C        C  400   3.341   4.516   4.954
    1C        C  401   4.500   3.702   2.051
    1C        C  402   4.455   3.915   2.161
    1C        C  403   4.490   3.778   2.168
    1C        C  404   4.408   3.974   2.280
    1C        C  405   4.428   3.905   2.402
    1C        C  406   4.326   4.093   2.519
    1C        C  407   4.395   3.970   2.523
    1C        C  408   4.277   4.145   2.641
    1C        C  409   4.315   4.089   2.765
    1C        C  410   4.171   4.247   2.885
    1C        C  411   4.269   4.146   2.886
    1C        C  412   4.118   4.294   3.007
    1C        C  413   4.171   4.250   3.130
    1C        C  414   3.999   4.373   3.249
    1C        C  415   4.116   4.295   3.253
    1C        C  416   3.937   4.404   3.372
    1C        C  417   3.996   4.375   3.497
    1C        C  418   3.810   4.474   3.618
    1C        C  419   3.939   4.417   3.619
    1C        C  420   3.742   4.500   3.739
    1C        C  421   3.810   4.479   3.861
    1C        C  422   3.607   4.536   3.986
    1C        C  423   3.745   4.507   3.984
    1C        C  424   3.538   4.543   4.109
    1C        C  425   3.609   4.538   4.231
    1C        C  426   3.399   4.550   4.356
    1C        C  427   3.540   4.554   4.353
    1C        C  428   3.328   4.549   4.478
    1C        C  429   3.404   4.559   4.596
    1C        C  430   3.195   4.517   4.721
    1C        C  431   3.333   4.547   4.718
    1C        C  432   3.125   4.493   4.842
    1C        C  433   3.204   4.492   4.958
    1C        C  434   4.386   4.123   2.046
    1C        C  435   4.447   3.997   2.047
    1C        C  436   4.304   4.161   2.157
    1C        C  437   4.334   4.095   2.280
    1C        C  438   4.180   4.249   2.399
    1C        C  439   4.281   4.151   2.399
    1C        C  440   4.122   4.294   2.520
    1C        C  441   4.171   4.239   2.640
    1C        C  442   4.001   4.369   2.761
    1C        C  443   4.116   4.287   2.761
    1C        C  444   3.938   4.404   2.883
    1C        C  445   3.998   4.368   3.006
    1C        C  446   3.809   4.468   3.126
    1C        C  447   3.937   4.408   3.127
    1C        C  448   3.743   4.490   3.249
    1C        C  449   3.811   4.469   3.371
    1C        C  450   3.608   4.527   3.493
    1C        C  451   3.745   4.493   3.494
    1C        C  452   3.538   4.543   3.615
    1C        C  453   3.604   4.531   3.739
    1C        C  454   3.396   4.548   3.861
    1C        C  455   3.538   4.544   3.863
    1C        C  456   3.327   4.542   3.985
    1C        C  457   3.397   4.540   4.107
    1C        C  458   3.193   4.508   4.232
    1C        C  459   3.331   4.537   4.232
    1C        C  460   3.128   4.488   4.355
    1C        C  461   3.190   4.519   4.478
    1C        C  462   2.996   4.434   4.601
    1C        C  463   3.123   4.495   4.601
    1C        C  464   2.933   4.399   4.723
    1C        C  465   2.993   4.436   4.846
    1C        C  466   2.795   4.339   4.953
    1C        C  467   2.904   4.427   4.958
    1C        C  468   4.124   4.288   2.040
    1C        C  469   4.191   4.248   2.157
    1C        C  470   4.008   4.372   2.276
    1C        C  471   4.126   4.292   2.275
    1C        C  472   3.942   4.403   2.396
    1C        C  473   4.003   4.369   2.519
    1C        C  474   3.810   4.463   2.641
    1C        C  475   3.938   4.404   2.640
    1C        C  476   3.741   4.491   2.761
    1C        C  477   3.811   4.465   2.882
    1C        C  478   3.605   4.519   3.006
    1C        C  479   3.743   4.491   3.003
    1C        C  480   3.533   4.525   3.128
    1C        C  481   3.605   4.520   3.250
    1C        C  482   3.394   4.533   3.375
    1C        C  483   3.536   4.532   3.372
    1C        C  484   3.323   4.536   3.497
    1C        C  485   3.397   4.543   3.618
    1C        C  486   3.189   4.503   3.745
    1C        C  487   3.326   4.537   3.740
    1C        C  488   3.121   4.482   3.868
    1C        C  489   3.191   4.506   3.988
    1C        C  490   3.003   4.410   4.114
    1C        C  491   3.125   4.482   4.111
    1C        C  492   2.945   4.375   4.238
    1C        C  493   3.004   4.420   4.358
    1C        C  494   2.834   4.295   4.481
    1C        C  495   2.940   4.388   4.480
    1C        C  496   2.776   4.251   4.603
    1C        C  497   2.817   4.316   4.721
    1C        C  498   2.661   4.165   4.843
    1C        C  499   2.749   4.275   4.838
    1C        C  500   2.593   4.118   4.956
    1C        C  501   4.001   4.353   2.036
    1C        C  502   3.814   4.457   2.154
    1C        C  503   3.944   4.403   2.154
    1C        C  504   3.743   4.475   2.275
    1C        C  505   3.809   4.453   2.397
    1C        C  506   3.602   4.504   2.519
    1C        C  507   3.740   4.475   2.519
    1C        C  508   3.530   4.514   2.640
    1C        C  509   3.602   4.514   2.762
    1C        C  510   3.391   4.527   2.883
    1C        C  511   3.533   4.525   2.885
    1C        C  512   3.322   4.527   3.006
    1C        C  513   3.392   4.530   3.129
    1C        C  514   3.186   4.496   3.254
    1C        C  515   3.324   4.525   3.253
    1C        C  516   3.120   4.472   3.377
    1C        C  517   3.187   4.499   3.499
    1C        C  518   2.998   4.410   3.624
    1C        C  519   3.124   4.475   3.623
    1C        C  520   2.939   4.375   3.747
    1C        C  521   2.997   4.414   3.870
    1C        C  522   2.835   4.279   3.995
    1C        C  523   2.942   4.371   3.993
    1C        C  524   2.789   4.231   4.120
    1C        C  525   2.838   4.283   4.242
    1C        C  526   2.696   4.126   4.362
    1C        C  527   2.781   4.239   4.363
    1C        C  528   2.656   4.070   4.485
    1C        C  529   2.694   4.136   4.604
    1C        C  530   2.585   3.957   4.729
    1C        C  531   2.643   4.087   4.726
    1C        C  532   2.542   3.901   4.852
    1C        C  533   2.526   3.995   4.959
    1C        C  534   3.614   4.551   2.039
    1C        C  535   3.749   4.515   2.044
    1C        C  536   3.534   4.532   2.156
    1C        C  537   3.604   4.504   2.276
    1C        C  538   3.390   4.511   2.397
    1C        C  539   3.531   4.513   2.397
    1C        C  540   3.319   4.508   2.519
    1C        C  541   3.389   4.514   2.641
    1C        C  542   3.181   4.481   2.763
    1C        C  543   3.318   4.517   2.763
    1C        C  544   3.119   4.463   2.889
    1C        C  545   3.186   4.491   3.010
    1C        C  546   2.996   4.401   3.132
    1C        C  547   3.119   4.470   3.133
    1C        C  548   2.936   4.367   3.256
    1C        C  549   2.995   4.407   3.378
    1C        C  550   2.833   4.276   3.504
    1C        C  551   2.940   4.369   3.502
    1C        C  552   2.784   4.225   3.626
    1C        C  553   2.833   4.281   3.746
    1C        C  554   2.705   4.117   3.874
    1C        C  555   2.789   4.231   3.871
    1C        C  556   2.667   4.057   3.996
    1C        C  557   2.699   4.122   4.117
    1C        C  558   2.597   3.937   4.244
    1C        C  559   2.659   4.064   4.240
    1C        C  560   2.566   3.875   4.367
    1C        C  561   2.591   3.945   4.487
    1C        C  562   2.527   3.746   4.615
    1C        C  563   2.561   3.883   4.611
    1C        C  564   2.514   3.681   4.740
    1C        C  565   2.516   3.760   4.857
    1C        C  566   2.524   3.544   4.977
    1C        C  567   2.518   3.683   4.974
    1C        C  568   3.323   4.471   2.038
    1C        C  569   3.393   4.511   2.153
    1C        C  570   3.182   4.474   2.279
    1C        C  571   3.320   4.508   2.275
    1C        C  572   3.113   4.454   2.400
    1C        C  573   3.180   4.483   2.521
    1C        C  574   2.984   4.401   2.647
    1C        C  575   3.109   4.466   2.642
    1C        C  576   2.929   4.359   2.771
    1C        C  577   2.994   4.398   2.890
    1C        C  578   2.827   4.266   3.015
    1C        C  579   2.934   4.359   3.013
    1C        C  580   2.778   4.219   3.139
    1C        C  581   2.830   4.273   3.259
    1C        C  582   2.698   4.110   3.381
    1C        C  583   2.785   4.221   3.382
    1C        C  584   2.666   4.052   3.506
    1C        C  585   2.703   4.110   3.629
    1C        C  586   2.599   3.929   3.755
    1C        C  587   2.665   4.054   3.754
    1C        C  588   2.574   3.864   3.878
    1C        C  589   2.606   3.930   3.999
    1C        C  590   2.532   3.734   4.127
    1C        C  591   2.576   3.868   4.123
    1C        C  592   2.518   3.666   4.250
    1C        C  593   2.531   3.738   4.371
    1C        C  594   2.510   3.531   4.495
    1C        C  595   2.517   3.672   4.495
    1C        C  596   2.517   3.464   4.619
    1C        C  597   2.511   3.538   4.739
    1C        C  598   2.531   3.326   4.862
    1C        C  599   2.519   3.467   4.860
    1C        C  600   2.528   3.245   4.976
    1C        C  601   3.190   4.434   2.041
    1C        C  602   2.982   4.385   2.155
    1C        C  603   3.115   4.438   2.159
    1C        C  604   2.927   4.351   2.282
    1C        C  605   2.985   4.394   2.403
    1C        C  606   2.816   4.269   2.528
    1C        C  607   2.925   4.358   2.526
    1C        C  608   2.766   4.220   2.651
    1C        C  609   2.818   4.273   2.771
    1C        C  610   2.685   4.108   2.892
    1C        C  611   2.774   4.217   2.894
    1C        C  612   2.653   4.047   3.016
    1C        C  613   2.695   4.105   3.138
    1C        C  614   2.587   3.925   3.263
    1C        C  615   2.654   4.050   3.261
    1C        C  616   2.568   3.863   3.389
    1C        C  617   2.601   3.927   3.511
    1C        C  618   2.532   3.727   3.637
    1C        C  619   2.574   3.862   3.633
    1C        C  620   2.513   3.659   3.760
    1C        C  621   2.529   3.730   3.881
    1C        C  622   2.503   3.524   4.006
    1C        C  623   2.517   3.664   4.005
    1C        C  624   2.503   3.454   4.129
    1C        C  625   2.500   3.526   4.251
    1C        C  626   2.531   3.318   4.378
    1C        C  627   2.507   3.458   4.374
    1C        C  628   2.552   3.251   4.500
    1C        C  629   2.536   3.324   4.620
    1C        C  630   2.587   3.117   4.739
    1C        C  631   2.555   3.255   4.742
    1C        C  632   2.605   3.045   4.861
    1C        C  633   2.554   3.107   4.979
    1C        C  634   2.773   4.308   2.057
    1C        C  635   2.885   4.392   2.050
    1C        C  636   2.749   4.224   2.167
    1C        C  637   2.811   4.269   2.286
    1C        C  638   2.673   4.108   2.410
    1C        C  639   2.759   4.220   2.408
    1C        C  640   2.636   4.045   2.531
    1C        C  641   2.680   4.107   2.651
    1C        C  642   2.587   3.916   2.776
    1C        C  643   2.644   4.045   2.772
    1C        C  644   2.566   3.850   2.899
    1C        C  645   2.593   3.920   3.019
    1C        C  646   2.526   3.721   3.148
    1C        C  647   2.560   3.858   3.142
    1C        C  648   2.512   3.654   3.272
    1C        C  649   2.532   3.727   3.391
    1C        C  650   2.511   3.518   3.520
    1C        C  651   2.517   3.659   3.514
    1C        C  652   2.513   3.447   3.642
    1C        C  653   2.509   3.518   3.764
    1C        C  654   2.531   3.308   3.887
    1C        C  655   2.508   3.448   3.887
    1C        C  656   2.550   3.246   4.013
    1C        C  657   2.530   3.316   4.134
    1C        C  658   2.600   3.117   4.253
    1C        C  659   2.545   3.247   4.257
    1C        C  660   2.630   3.055   4.376
    1C        C  661   2.594   3.116   4.499
    1C        C  662   2.705   2.934   4.622
    1C        C  663   2.624   3.050   4.620
    1C        C  664   2.749   2.879   4.744
    1C        C  665   2.685   2.927   4.862
    1C        C  666   2.738   2.869   4.978
    1C        C  667   2.680   4.019   2.056
    1C        C  668   2.684   4.099   2.171
    1C        C  669   2.580   3.911   2.290
    1C        C  670   2.639   4.040   2.291
    1C        C  671   2.553   3.847   2.413
    1C        C  672   2.580   3.916   2.534
    1C        C  673   2.517   3.713   2.657
    1C        C  674   2.555   3.849   2.656
    1C        C  675   2.506   3.645   2.780
    1C        C  676   2.526   3.714   2.902
    1C        C  677   2.508   3.508   3.030
    1C        C  678   2.516   3.649   3.027
    1C        C  679   2.510   3.441   3.154
    1C        C  680   2.504   3.513   3.276
    1C        C  681   2.530   3.305   3.398
    1C        C  682   2.510   3.445   3.399
    1C        C  683   2.548   3.239   3.521
    1C        C  684   2.531   3.307   3.644
    1C        C  685   2.594   3.105   3.768
    1C        C  686   2.542   3.237   3.766
    1C        C  687   2.628   3.044   3.891
    1C        C  688   2.598   3.113   4.011
    1C        C  689   2.706   2.930   4.135
    1C        C  690   2.628   3.048   4.133
    1C        C  691   2.745   2.874   4.258
    1C        C  692   2.703   2.935   4.379
    1C        C  693   2.747   2.876   4.500
    1C        C  694   2.625   3.890   2.055
    1C        C  695   2.518   3.704   2.177
    1C        C  696   2.568   3.836   2.171
    1C        C  697   2.495   3.636   2.299
    1C        C  698   2.509   3.713   2.416
    1C        C  699   2.486   3.500   2.542
    1C        C  700   2.497   3.641   2.537
    1C        C  701   2.494   3.432   2.665
    1C        C  702   2.502   3.504   2.786
    1C        C  703   2.519   3.294   2.909
    1C        C  704   2.503   3.434   2.910
    1C        C  705   2.538   3.227   3.032
    1C        C  706   2.528   3.301   3.152
    1C        C  707   2.589   3.101   3.277
    1C        C  708   2.545   3.235   3.276
    1C        C  709   2.623   3.040   3.400
    1C        C  710   2.591   3.104   3.522
    1C        C  711   2.707   2.927   3.644
    1C        C  712   2.627   3.044   3.645
    1C        C  713   2.751   2.873   3.768
    1C        C  714   2.704   2.925   3.890
    1C        C  715   2.750   2.873   4.013
    1C        C  716   2.444   3.500   2.059
    1C        C  717   2.484   3.634   2.061
    1C        C  718   2.459   3.421   2.178
    1C        C  719   2.481   3.494   2.298
    1C        C  720   2.513   3.287   2.421
    1C        C  721   2.486   3.426   2.422
    1C        C  722   2.531   3.221   2.544
    1C        C  723   2.519   3.293   2.665
    1C        C  724   2.582   3.090   2.788
    1C        C  725   2.539   3.225   2.787
    1C        C  726   2.616   3.031   2.912
    1C        C  727   2.592   3.096   3.035
    1C        C  728   2.697   2.914   3.155
    1C        C  729   2.618   3.031   3.157
    1C        C  730   2.746   2.865   3.278
    1C        C  731   2.703   2.924   3.399
    1C        C  732   2.748   2.870   3.522
    1C        C  733   2.485   3.198   2.066
    1C        C  734   2.486   3.281   2.179
    1C        C  735   2.581   3.085   2.302
    1C        C  736   2.520   3.214   2.300
    1C        C  737   2.615   3.023   2.424
    1C        C  738   2.583   3.090   2.544
    1C        C  739   2.688   2.905   2.667
    1C        C  740   2.614   3.025   2.666
    1C        C  741   2.735   2.851   2.789
    1C        C  742   2.697   2.916   2.909
    1C        C  743   2.744   2.863   3.031
    1C        C  744   2.537   3.069   2.074
    1C        C  745   2.685   2.897   2.183
    1C        C  746   2.605   3.014   2.183
    1C        C  747   2.725   2.838   2.305
    1C        C  748   2.684   2.900   2.425
    1C        C  749   2.734   2.848   2.547
    1C        C  750   2.728   2.838   2.064
    1C        C  751   3.664   2.304   1.993
    1C        O  752   3.673   2.190   2.046
    1C        O  753   3.629   2.298   1.857
    1C        C  754   4.594   3.046   1.950
    1C        O  755   4.537   3.064   1.840
    1C        O  756   4.732   3.022   1.955
    1C        C  757   4.452   4.223   1.959
    1C        O  758   4.533   4.309   2.001
    1C        O  759   4.460   4.213   1.819
    1C        C  760   3.585   4.660   1.943
    1C        O  761   3.606   4.778   1.982
    1C        O  762   3.578   4.643   1.804
    1C        C  763   2.883   4.506   1.956
    1C        O  764   2.925   4.496   1.837
    1C        O  765   2.784   4.605   1.959
    1C        C  766   2.324   3.485   1.973
    1C        O  767   2.319   3.493   1.847
    1C        O  768   2.206   3.542   2.021
    1C        C  769   4.710   3.601   5.032
    1C        O  770   4.701   3.562   5.152
    1C        O  771   4.834   3.654   4.992
    1C        C  772   4.275   4.454   5.028
    1C        O  773   4.290   4.427   5.151
    1C        O  774   4.383   4.521   4.971
    1C        C  775   4.138   2.471   5.036
    1C        O  776   4.171   2.373   4.964
    1C        O  777   4.235   2.510   5.129
    1C        C  778   2.861   4.554   5.019
    1C        O  779   2.830   4.654   4.949
    1C        O  780   2.877   4.568   5.158
    1C        C  781   2.474   3.033   5.080
    1C        O  782   2.373   2.972   5.038
    1C        O  783   2.516   3.017   5.211
    1C        C  784   2.399   3.995   5.034
    1C        O  785   2.289   4.045   4.996
    1C        O  786   2.406   3.988   5.174
    1C        C  787   2.953   2.441   1.984
    1C        O  788   2.974   2.439   1.860
    1C        O  789   2.867   2.339   2.023
    1C        C  790   3.155   2.360   5.045
    1C        O  791   3.119   2.251   4.995
    1C        O  792   3.124   2.356   5.182
    1C        H  793   4.235   3.050   5.013
    1C        H  794   4.220   2.787   5.067
    1C        H  795   4.495   3.124   5.056
    1C        H  796   4.497   3.378   5.061
    1C        H  797   4.559   3.807   5.045
    1C        H  798   4.454   4.009   5.040
    1C        H  799   4.276   4.167   5.049
    1C        H  800   4.018   4.518   5.033
    1C        H  801   3.815   4.575   5.038
    1C        H  802   3.584   4.600   5.042
    1C        H  803   3.400   4.497   5.041
    1C        H  804   3.158   4.484   5.054
    1C        H  805   3.898   2.447   5.043
    1C        H  806   3.676   2.431   5.062
    1C        H  807   3.029   2.600   5.070
    1C        H  808   3.441   2.447   5.072
    1C        H  809   2.876   2.744   5.075
    1C        H  810   2.708   2.910   5.072
    1C        H  811   2.527   3.295   5.070
    1C        H  812   2.553   3.502   5.071
    1C        H  813   2.514   3.731   5.070
    1C        H  814   2.624   4.154   5.052
    1C        H  815   2.757   4.302   5.046
    1C        H  816   2.656   2.837   1.984
    1C        H  817   2.854   2.697   1.975
    1C        H  818   3.208   2.416   1.994
    1C        H  819   3.423   2.446   1.983
    1C        H  820   3.841   2.545   1.974
    1C        H  821   4.082   2.582   1.971
    1C        H  822   4.226   2.741   1.962
    1C        H  823   4.389   2.900   1.961
    1C        H  824   4.652   3.285   2.013
    1C        H  825   4.476   3.516   1.960
    1C        H  826   4.519   3.753   1.959
    1C        H  827   3.813   4.557   1.969
    1C        H  828   3.934   4.322   1.958
    1C        H  829   4.172   4.281   1.945
    1C        H  830   4.512   3.972   1.965
    1C        H  831   2.659   3.820   1.981
    1C        H  832   2.764   4.033   1.992
    1C        H  833   2.700   4.313   1.979
    1C        H  834   3.354   4.517   1.947
    1C        H  835   3.148   4.401   1.948
    1C        H  836   2.532   3.015   1.982
    1C        H  837   2.408   3.212   1.993
    1C        H  838   2.467   3.696   1.975
    2V3OU   H29  839   2.805   3.543   1.573
    2V3OU   C27  840   2.781   3.503   1.675
    2V3OU   H27  841   2.722   3.578   1.734
    2V3OU   H28  842   2.722   3.408   1.664
    2V3OU   O11  843   2.910   3.476   1.731
    2V3OU   C15  844   2.921   3.390   1.839
    2V3OU   C13  845   3.048   3.371   1.896
    2V3OU   C14  846   3.069   3.270   1.990
    2V3OU   C16  847   2.966   3.183   2.026
    2V3OU    H6  848   2.986   3.103   2.098
    2V3OU   C12  849   3.205   3.227   2.029
    2V3OU    O2  850   3.232   3.124   2.094
    2V3OU   C10  851   3.322   3.306   1.990
    2V3OU    C8  852   3.456   3.271   2.007
    2V3OU   O10  853   3.487   3.147   2.052
    2V3OU   H26  854   3.405   3.111   2.088
    2V3OU    C6  855   3.565   3.348   1.956
    2V3OU    C5  856   3.534   3.470   1.897
    2V3OU    C4  857   3.702   3.290   1.956
    2V3OU    H4  858   3.723   3.221   2.043
    2V3OU    H5  859   3.709   3.227   1.863
    2V3OU    C2  860   3.813   3.395   1.955
    2V3OU    O6  861   3.801   3.474   2.074
    2V3OU   H21  862   3.752   3.553   2.045
    2V3OU    C3  863   3.779   3.497   1.846
    2V3OU    H2  864   3.856   3.579   1.845
    2V3OU    H3  865   3.782   3.437   1.751
    2V3OU   C25  866   3.950   3.327   1.944
    2V3OU    O7  867   3.997   3.290   1.836
    2V3OU   C26  868   4.029   3.287   2.068
    2V3OU   H22  869   4.063   3.378   2.123
    2V3OU   H23  870   4.117   3.225   2.038
    2V3OU    O8  871   3.956   3.199   2.151
    2V3OU   H24  872   3.925   3.253   2.226
    2V3OU    C1  873   3.643   3.564   1.854
    2V3OU    H1  874   3.624   3.619   1.757
    2V3OU    O3  875   3.665   3.654   1.964
    2V3OU   C19  876   3.617   3.789   1.964
    2V3OU    H9  877   3.519   3.797   1.909
    2V3OU    O4  878   3.713   3.853   1.882
    2V3OU   C20  879   3.844   3.873   1.935
    2V3OU   H10  880   3.894   3.776   1.965
    2V3OU   C24  881   3.607   3.855   2.101
    2V3OU   H16  882   3.543   3.791   2.167
    2V3OU   H17  883   3.558   3.955   2.094
    2V3OU   C23  884   3.746   3.874   2.162
    2V3OU   H15  885   3.790   3.771   2.184
    2V3OU    N1  886   3.735   3.956   2.281
    2V3OU   H19  887   3.809   3.922   2.339
    2V3OU   H20  888   3.646   3.936   2.324
    2V3OU   C21  889   3.842   3.952   2.067
    2V3OU   H11  890   3.946   3.927   2.104
    2V3OU    O5  891   3.820   4.092   2.069
    2V3OU   H18  892   3.773   4.106   2.152
    2V3OU   C22  893   3.918   3.946   1.825
    2V3OU   H12  894   3.864   4.042   1.802
    2V3OU   H13  895   3.910   3.888   1.729
    2V3OU   H14  896   4.024   3.960   1.857
    2V3OU   C11  897   3.158   3.467   1.883
    2V3OU    O1  898   3.128   3.582   1.844
    2V3OU    C9  899   3.296   3.423   1.913
    2V3OU    C7  900   3.399   3.504   1.866
    2V3OU    O9  901   3.387   3.612   1.780
    2V3OU   H25  902   3.291   3.622   1.782
    2V3OU   C17  903   2.814   3.309   1.884
    2V3OU    H7  904   2.711   3.335   1.862
    2V3OU   C18  905   2.838   3.208   1.976
    2V3OU    H8  906   2.750   3.153   2.012
    3SOL     OW  907   2.243   4.125   0.834
    3SOL    HW1  908   2.220   4.030   0.853
    3SOL    HW2  909   2.295   4.163   0.910
    4SOL     OW  910   0.041   6.141   2.076
    4SOL    HW1  911   7.004   6.106   2.001
    4SOL    HW2  912   7.000   6.179   2.146
    5SOL     OW  913   3.951   1.446   1.865
    5SOL    HW1  914   3.998   1.525   1.904
    5SOL    HW2  915   3.889   1.477   1.793
    6SOL     OW  916   3.603   1.976   2.184
    6SOL    HW1  917   3.581   1.984   2.281
    6SOL    HW2  918   3.650   2.059   2.154
    7SOL     OW  919   6.206   2.319   1.962
    7SOL    HW1  920   6.203   2.221   1.981
    7SOL    HW2  921   6.118   2.348   1.925
    8SOL     OW  922   2.295   6.413   5.155
    8SOL    HW1  923   2.298   6.372   5.064
    8SOL    HW2  924   2.361   6.488   5.159
    9SOL     OW  925   1.407   5.693   5.918
    9SOL    HW1  926   1.429   5.713   6.013
    9SOL    HW2  927   1.385   5.779   5.870
   10SOL     OW  928   0.203   4.466   6.060
   10SOL    HW1  929   0.141   4.480   6.137
   10SOL    HW2  930   0.209   4.368   6.039
   11SOL     OW  931   2.977   0.150   0.459
   11SOL    HW1  932   3.051   0.095   0.419
   11SOL    HW2  933   2.926   0.094   0.525
   12SOL     OW  934   4.478   6.079   3.330
   12SOL    HW1  935   4.391   6.073   3.280
   12SOL    HW2  936   4.493   5.995   3.382
   13SOL     OW  937   3.365   6.153   4.236
   13SOL    HW1  938   3.316   6.099   4.168
   13SOL    HW2  939   3.435   6.096   4.280
   14SOL     OW  940   3.502   5.827   6.163
   14SOL    HW1  941   3.531   5.732   6.150
   14SOL    HW2  942   3.569   5.874   6.221
   15SOL     OW  943   1.643   5.985   0.363
   15SOL    HW1  944   1.626   5.891   0.334
   15SOL    HW2  945   1.658   5.987   0.462
   16SOL     OW  946   6.389   1.998   5.714
   16SOL    HW1  947   6.408   2.025   5.808
   16SOL    HW2  948   6.388   1.898   5.708
   17SOL     OW  949   5.250   5.941   4.463
   17SOL    HW1  950   5.204   6.000   4.397
   17SOL    HW2  951   5.204   5.947   4.551
   18SOL     OW  952   2.987   2.297   6.441
   18SOL    HW1  953   2.997   2.355   6.522
   18SOL    HW2  954   3.075   2.293   6.393
   19SOL     OW  955   0.218   0.092   3.285
   19SOL    HW1  956   0.163   0.070   3.205
   19SOL    HW2  957   0.233   0.008   3.338
   20SOL     OW  958   3.360   0.961   4.250
   20SOL    HW1  959   3.350   0.959   4.349
   20SOL    HW2  960   3.430   0.896   4.221
   21SOL     OW  961   3.051   1.936   2.463
   21SOL    HW1  962   3.105   1.853   2.475
   21SOL    HW2  963   2.957   1.911   2.439
   22SOL     OW  964   1.782   0.452   0.023
   22SOL    HW1  965   1.742   0.361   0.027
   22SOL    HW2  966   1.836   0.461   6.958
   23SOL     OW  967   4.585   6.929   3.592
   23SOL    HW1  968   4.486   6.918   3.603
   23SOL    HW2  969   4.611   0.003   3.618
   24SOL     OW  970   5.086   1.274   4.514
   24SOL    HW1  971   5.067   1.290   4.611
   24SOL    HW2  972   5.088   1.361   4.465
   25SOL     OW  973   2.919   5.868   6.365
   25SOL    HW1  974   2.985   5.897   6.296
   25SOL    HW2  975   2.965   5.815   6.435
   26SOL     OW  976   6.212   1.054   1.483
   26SOL    HW1  977   6.142   1.115   1.446
   26SOL    HW2  978   6.300   1.071   1.438
   27SOL     OW  979   0.020   0.487   2.290
   27SOL    HW1  980   6.963   0.428   2.319
   27SOL    HW2  981   7.010   0.542   2.211
   28SOL     OW  982   4.737   0.636   6.948
   28SOL    HW1  983   4.654   0.669   6.903
   28SOL    HW2  984   4.811   0.632   6.881
   29SOL     OW  985   5.273   2.371   2.248
   29SOL    HW1  986   5.261   2.448   2.186
   29SOL    HW2  987   5.309   2.403   2.336
   30SOL     OW  988   2.902   6.916   5.945
   30SOL    HW1  989   2.965   6.928   6.022
   30SOL    HW2  990   2.946   6.862   5.874
   31SOL     OW  991   0.742   1.157   5.944
   31SOL    HW1  992   0.655   1.204   5.931
   31SOL    HW2  993   0.813   1.202   5.890
   32SOL     OW  994   0.431   2.587   3.056
   32SOL    HW1  995   0.500   2.660   3.054
   32SOL    HW2  996   0.342   2.626   3.080
   33SOL     OW  997   1.952   2.976   6.119
   33SOL    HW1  998   2.003   2.959   6.034
   33SOL    HW2  999   1.981   2.910   6.188
   34SOL     OW 1000   1.871   0.446   4.811
   34SOL    HW1 1001   1.858   0.530   4.865
   34SOL    HW2 1002   1.808   0.445   4.734
   35SOL     OW 1003   4.503   2.472   6.222
   35SOL    HW1 1004   4.486   2.554   6.168
   35SOL    HW2 1005   4.592   2.433   6.197
   36SOL     OW 1006   0.602   0.630   6.381
   36SOL    HW1 1007   0.586   0.723   6.349
   36SOL    HW2 1008   0.586   0.565   6.306
   37SOL     OW 1009   2.246   6.738   0.918
   37SOL    HW1 1010   2.312   6.715   0.847
   37SOL    HW2 1011   2.288   6.800   0.984
   38SOL     OW 1012   0.130   6.136   3.014
   38SOL    HW1 1013   0.146   6.233   3.031
   38SOL    HW2 1014   0.100   6.124   2.919
   39SOL     OW 1015   6.455   4.041   6.373
   39SOL    HW1 1016   6.406   3.963   6.410
   39SOL    HW2 1017   6.468   4.110   6.444
   40SOL     OW 1018   6.548   2.489   2.357
   40SOL    HW1 1019   6.576   2.489   2.260
   40SOL    HW2 1020   6.568   2.578   2.397
   41SOL     OW 1021   1.625   6.422   4.274
   41SOL    HW1 1022   1.721   6.427   4.300
   41SOL    HW2 1023   1.608   6.482   4.196
   42SOL     OW 1024   3.101   6.752   5.803
   42SOL    HW1 1025   3.087   6.692   5.882
   42SOL    HW2 1026   3.165   6.825   5.828
   43SOL     OW 1027   6.009   5.725   6.182
   43SOL    HW1 1028   5.989   5.652   6.248
   43SOL    HW2 1029   5.937   5.729   6.114
   44SOL     OW 1030   6.858   2.662   6.418
   44SOL    HW1 1031   6.787   2.727   6.444
   44SOL    HW2 1032   6.816   2.588   6.364
   45SOL     OW 1033   3.594   0.433   2.944
   45SOL    HW1 1034   3.514   0.392   2.901
   45SOL    HW2 1035   3.646   0.363   2.993
   46SOL     OW 1036   0.672   3.533   4.468
   46SOL    HW1 1037   0.707   3.500   4.381
   46SOL    HW2 1038   0.705   3.626   4.484
   47SOL     OW 1039   6.579   3.210   3.899
   47SOL    HW1 1040   6.538   3.296   3.868
   47SOL    HW2 1041   6.507   3.142   3.913
   48SOL     OW 1042   0.601   2.203   4.869
   48SOL    HW1 1043   0.595   2.103   4.866
   48SOL    HW2 1044   0.647   2.231   4.953
   49SOL     OW 1045   4.741   3.877   1.781
   49SOL    HW1 1046   4.720   3.964   1.736
   49SOL    HW2 1047   4.747   3.891   1.879
   50SOL     OW 1048   6.956   3.172   4.677
   50SOL    HW1 1049   6.973   3.089   4.731
   50SOL    HW2 1050   6.898   3.234   4.730
   51SOL     OW 1051   2.865   5.382   2.597
   51SOL    HW1 1052   2.938   5.337   2.545
   51SOL    HW2 1053   2.798   5.421   2.534
   52SOL     OW 1054   3.562   1.805   3.412
   52SOL    HW1 1055   3.585   1.827   3.317
   52SOL    HW2 1056   3.643   1.816   3.469
   53SOL     OW 1057   4.562   0.639   3.639
   53SOL    HW1 1058   4.621   0.693   3.578
   53SOL    HW2 1059   4.619   0.576   3.692
   54SOL     OW 1060   2.803   4.974   6.370
   54SOL    HW1 1061   2.803   5.031   6.453
   54SOL    HW2 1062   2.761   5.025   6.295
   55SOL     OW 1063   3.756   1.489   6.194
   55SOL    HW1 1064   3.778   1.586   6.199
   55SOL    HW2 1065   3.657   1.478   6.179
   56SOL     OW 1066   1.806   0.371   1.685
   56SOL    HW1 1067   1.870   0.442   1.717
   56SOL    HW2 1068   1.752   0.408   1.609
   57SOL     OW 1069   4.856   0.226   0.736
   57SOL    HW1 1070   4.906   0.270   0.811
   57SOL    HW2 1071   4.915   0.221   0.656
   58SOL     OW 1072   0.526   5.622   6.633
   58SOL    HW1 1073   0.459   5.621   6.708
   58SOL    HW2 1074   0.607   5.673   6.661
   59SOL     OW 1075   1.840   0.931   6.157
   59SOL    HW1 1076   1.860   0.901   6.250
   59SOL    HW2 1077   1.808   1.026   6.159
   60SOL     OW 1078   5.004   0.747   6.105
   60SOL    HW1 1079   4.981   0.678   6.174
   60SOL    HW2 1080   5.041   0.828   6.151
   61SOL     OW 1081   4.972   0.886   4.200
   61SOL    HW1 1082   4.877   0.856   4.197
   61SOL    HW2 1083   5.020   0.851   4.119
   62SOL     OW 1084   0.472   0.968   3.517
   62SOL    HW1 1085   0.468   1.049   3.459
   62SOL    HW2 1086   0.385   0.956   3.565
   63SOL     OW 1087   6.622   1.834   3.564
   63SOL    HW1 1088   6.578   1.829   3.475
   63SOL    HW2 1089   6.568   1.783   3.631
   64SOL     OW 1090   6.589   3.728   6.407
   64SOL    HW1 1091   6.498   3.769   6.401
   64SOL    HW2 1092   6.594   3.673   6.491
   65SOL     OW 1093   6.418   4.078   5.363
   65SOL    HW1 1094   6.501   4.127   5.388
   65SOL    HW2 1095   6.353   4.081   5.439
   66SOL     OW 1096   3.232   1.072   6.663
   66SOL    HW1 1097   3.171   0.998   6.637
   66SOL    HW2 1098   3.252   1.067   6.761
   67SOL     OW 1099   5.607   6.037   5.567
   67SOL    HW1 1100   5.704   6.015   5.564
   67SOL    HW2 1101   5.559   5.986   5.496
   68SOL     OW 1102   6.201   1.238   6.566
   68SOL    HW1 1103   6.260   1.308   6.607
   68SOL    HW2 1104   6.117   1.229   6.620
   69SOL     OW 1105   1.384   4.144   6.179
   69SOL    HW1 1106   1.330   4.060   6.191
   69SOL    HW2 1107   1.379   4.173   6.083
   70SOL     OW 1108   6.850   5.616   2.941
   70SOL    HW1 1109   6.827   5.539   2.882
   70SOL    HW2 1110   6.878   5.694   2.884
   71SOL     OW 1111   2.814   2.277   3.275
   71SOL    HW1 1112   2.831   2.283   3.374
   71SOL    HW2 1113   2.739   2.338   3.251
   72SOL     OW 1114   2.706   6.041   4.540
   72SOL    HW1 1115   2.736   5.962   4.594
   72SOL    HW2 1116   2.735   6.125   4.585
   73SOL     OW 1117   3.280   2.090   6.876
   73SOL    HW1 1118   3.252   2.119   6.784
   73SOL    HW2 1119   3.204   2.103   6.940
   74SOL     OW 1120   5.109   6.914   0.430
   74SOL    HW1 1121   5.189   6.913   0.370
   74SOL    HW2 1122   5.026   6.927   0.375
   75SOL     OW 1123   3.317   5.315   5.266
   75SOL    HW1 1124   3.358   5.278   5.183
   75SOL    HW2 1125   3.389   5.350   5.327
   76SOL     OW 1126   2.139   2.586   1.636
   76SOL    HW1 1127   2.204   2.511   1.631
   76SOL    HW2 1128   2.130   2.616   1.731
   77SOL     OW 1129   4.974   5.438   4.504
   77SOL    HW1 1130   4.969   5.339   4.495
   77SOL    HW2 1131   5.051   5.473   4.451
   78SOL     OW 1132   6.914   6.888   6.470
   78SOL    HW1 1133   6.839   6.950   6.446
   78SOL    HW2 1134   6.999   6.923   6.432
   79SOL     OW 1135   2.866   6.945   0.604
   79SOL    HW1 1136   2.910   6.937   0.694
   79SOL    HW2 1137   2.873   6.858   0.555
   80SOL     OW 1138   6.349   0.666   4.624
   80SOL    HW1 1139   6.286   0.623   4.560
   80SOL    HW2 1140   6.438   0.620   4.620
   81SOL     OW 1141   2.317   0.540   2.684
   81SOL    HW1 1142   2.332   0.638   2.697
   81SOL    HW2 1143   2.219   0.521   2.682
   82SOL     OW 1144   6.931   5.320   0.258
   82SOL    HW1 1145   7.017   5.278   0.231
   82SOL    HW2 1146   6.948   5.412   0.295
   83SOL     OW 1147   6.598   0.033   0.765
   83SOL    HW1 1148   6.694   0.011   0.750
   83SOL    HW2 1149   6.573   0.111   0.708
   84SOL     OW 1150   4.931   3.514   3.088
   84SOL    HW1 1151   4.902   3.466   3.005
   84SOL    HW2 1152   4.939   3.449   3.163
   85SOL     OW 1153   0.617   1.350   5.202
   85SOL    HW1 1154   0.536   1.387   5.157
   85SOL    HW2 1155   0.688   1.420   5.207
   86SOL     OW 1156   1.004   0.232   5.799
   86SOL    HW1 1157   0.918   0.198   5.761
   86SOL    HW2 1158   1.033   0.313   5.748
   87SOL     OW 1159   4.608   2.636   0.467
   87SOL    HW1 1160   4.543   2.686   0.524
   87SOL    HW2 1161   4.581   2.644   0.371
   88SOL     OW 1162   4.770   1.822   0.343
   88SOL    HW1 1163   4.825   1.896   0.304
   88SOL    HW2 1164   4.688   1.860   0.385
   89SOL     OW 1165   1.690   2.685   0.046
   89SOL    HW1 1166   1.668   2.687   0.144
   89SOL    HW2 1167   1.757   2.756   0.026
   90SOL     OW 1168   5.013   0.007   4.007
   90SOL    HW1 1169   5.005   6.927   4.019
   90SOL    HW2 1170   4.936   0.040   3.952
   91SOL     OW 1171   5.062   4.894   4.014
   91SOL    HW1 1172   4.995   4.838   4.063
   91SOL    HW2 1173   5.014   4.962   3.958
   92SOL     OW 1174   2.743   5.127   0.397
   92SOL    HW1 1175   2.796   5.151   0.479
   92SOL    HW2 1176   2.806   5.094   0.326
   93SOL     OW 1177   2.532   4.477   6.041
   93SOL    HW1 1178   2.594   4.555   6.033
   93SOL    HW2 1179   2.548   4.414   5.965
   94SOL     OW 1180   2.765   5.689   6.633
   94SOL    HW1 1181   2.857   5.657   6.613
   94SOL    HW2 1182   2.700   5.649   6.568
   95SOL     OW 1183   0.549   1.865   3.608
   95SOL    HW1 1184   0.453   1.841   3.593
   95SOL    HW2 1185   0.554   1.952   3.656
   96SOL     OW 1186   2.658   0.102   6.027
   96SOL    HW1 1187   2.757   0.096   6.010
   96SOL    HW2 1188   2.622   0.185   5.985
   97SOL     OW 1189   0.002   4.069   5.175
   97SOL    HW1 1190   6.994   4.076   5.079
   97SOL    HW2 1191   0.041   3.978   5.192
   98SOL     OW 1192   5.831   3.572   6.671
   98SOL    HW1 1193   5.928   3.596   6.671
   98SOL    HW2 1194   5.792   3.593   6.581
   99SOL     OW 1195   4.179   3.485   1.190
   99SOL    HW1 1196   4.124   3.402   1.196
   99SOL    HW2 1197   4.276   3.461   1.200
  100SOL     OW 1198   0.614   6.911   6.390
  100SOL    HW1 1199   0.612   6.840   6.460
  100SOL    HW2 1200   0.701   6.908   6.342
  101SOL     OW 1201   0.837   5.711   2.557
  101SOL    HW1 1202   0.898   5.750   2.627
  101SOL    HW2 1203   0.771   5.651   2.600
  102SOL     OW 1204   4.592   1.227   2.719
  102SOL    HW1 1205   4.567   1.324   2.712
  102SOL    HW2 1206   4.585   1.198   2.814
  103SOL     OW 1207   4.367   1.677   1.808
  103SOL    HW1 1208   4.429   1.703   1.882
  103SOL    HW2 1209   4.398   1.591   1.768
  104SOL     OW 1210   0.106   5.864   2.578
  104SOL    HW1 1211   0.136   5.769   2.583
  104SOL    HW2 1212   0.117   5.898   2.484
  105SOL     OW 1213   6.276   1.540   6.451
  105SOL    HW1 1214   6.266   1.626   6.501
  105SOL    HW2 1215   6.327   1.475   6.506
  106SOL     OW 1216   3.502   0.018   5.902
  106SOL    HW1 1217   3.440   6.975   5.854
  106SOL    HW2 1218   3.510   7.009   5.998
  107SOL     OW 1219   1.696   2.212   1.824
  107SOL    HW1 1220   1.725   2.247   1.913
  107SOL    HW2 1221   1.739   2.267   1.752
  108SOL     OW 1222   5.187   4.676   0.036
  108SOL    HW1 1223   5.143   4.598   7.010
  108SOL    HW2 1224   5.123   4.717   0.101
  109SOL     OW 1225   0.409   0.242   1.188
  109SOL    HW1 1226   0.367   0.222   1.100
  109SOL    HW2 1227   0.420   0.341   1.199
  110SOL     OW 1228   4.152   6.387   5.543
  110SOL    HW1 1229   4.208   6.379   5.460
  110SOL    HW2 1230   4.148   6.483   5.572
  111SOL     OW 1231   4.004   0.654   4.179
  111SOL    HW1 1232   4.059   0.590   4.233
  111SOL    HW2 1233   3.988   0.616   4.088
  112SOL     OW 1234   6.027   6.005   6.240
  112SOL    HW1 1235   5.976   6.005   6.326
  112SOL    HW2 1236   6.026   5.913   6.200
  113SOL     OW 1237   6.658   4.423   3.331
  113SOL    HW1 1238   6.726   4.452   3.399
  113SOL    HW2 1239   6.704   4.385   3.251
  114SOL     OW 1240   0.886   0.298   0.529
  114SOL    HW1 1241   0.827   0.275   0.606
  114SOL    HW2 1242   0.980   0.312   0.561
  115SOL     OW 1243   4.359   1.295   4.285
  115SOL    HW1 1244   4.332   1.215   4.339
  115SOL    HW2 1245   4.323   1.286   4.192
  116SOL     OW 1246   6.328   5.274   2.173
  116SOL    HW1 1247   6.373   5.320   2.097
  116SOL    HW2 1248   6.263   5.206   2.138
  117SOL     OW 1249   0.593   1.476   6.511
  117SOL    HW1 1250   0.569   1.401   6.449
  117SOL    HW2 1251   0.659   1.443   6.579
  118SOL     OW 1252   0.342   1.719   2.304
  118SOL    HW1 1253   0.274   1.685   2.239
  118SOL    HW2 1254   0.426   1.743   2.256
  119SOL     OW 1255   0.718   2.382   6.581
  119SOL    HW1 1256   0.743   2.294   6.541
  119SOL    HW2 1257   0.705   2.370   6.680
  120SOL     OW 1258   6.848   6.668   1.246
  120SOL    HW1 1259   6.901   6.728   1.306
  120SOL    HW2 1260   6.880   6.574   1.257
  121SOL     OW 1261   2.563   3.771   0.096
  121SOL    HW1 1262   2.609   3.747   0.011
  121SOL    HW2 1263   2.600   3.856   0.132
  122SOL     OW 1264   1.369   4.257   5.948
  122SOL    HW1 1265   1.374   4.350   5.985
  122SOL    HW2 1266   1.320   4.258   5.861
  123SOL     OW 1267   0.557   1.973   1.449
  123SOL    HW1 1268   0.585   1.884   1.487
  123SOL    HW2 1269   0.638   2.024   1.423
  124SOL     OW 1270   5.712   3.271   0.257
  124SOL    HW1 1271   5.688   3.361   0.221
  124SOL    HW2 1272   5.807   3.250   0.233
  125SOL     OW 1273   2.273   1.746   2.862
  125SOL    HW1 1274   2.341   1.675   2.879
  125SOL    HW2 1275   2.233   1.733   2.771
  126SOL     OW 1276   2.903   4.920   1.075
  126SOL    HW1 1277   2.980   4.858   1.087
  126SOL    HW2 1278   2.854   4.930   1.162
  127SOL     OW 1279   0.236   4.863   6.127
  127SOL    HW1 1280   0.277   4.809   6.054
  127SOL    HW2 1281   0.235   4.810   6.212
  128SOL     OW 1282   4.244   2.822   1.710
  128SOL    HW1 1283   4.343   2.834   1.705
  128SOL    HW2 1284   4.210   2.784   1.624
  129SOL     OW 1285   4.372   3.607   5.756
  129SOL    HW1 1286   4.410   3.606   5.849
  129SOL    HW2 1287   4.342   3.514   5.732
  130SOL     OW 1288   0.675   0.759   4.387
  130SOL    HW1 1289   0.588   0.734   4.428
  130SOL    HW2 1290   0.675   0.733   4.291
  131SOL     OW 1291   4.881   1.026   2.303
  131SOL    HW1 1292   4.818   1.018   2.380
  131SOL    HW2 1293   4.955   1.090   2.326
  132SOL     OW 1294   1.734   3.408   0.539
  132SOL    HW1 1295   1.634   3.420   0.540
  132SOL    HW2 1296   1.765   3.391   0.446
  133SOL     OW 1297   5.491   6.876   3.206
  133SOL    HW1 1298   5.556   6.948   3.233
  133SOL    HW2 1299   5.435   6.909   3.131
  134SOL     OW 1300   5.960   2.665   2.986
  134SOL    HW1 1301   5.875   2.621   3.015
  134SOL    HW2 1302   5.947   2.703   2.894
  135SOL     OW 1303   5.209   2.355   2.812
  135SOL    HW1 1304   5.162   2.324   2.894
  135SOL    HW2 1305   5.230   2.452   2.820
  136SOL     OW 1306   4.513   4.085   0.105
  136SOL    HW1 1307   4.540   3.989   0.116
  136SOL    HW2 1308   4.414   4.091   0.092
  137SOL     OW 1309   4.091   0.154   5.533
  137SOL    HW1 1310   4.057   0.123   5.621
  137SOL    HW2 1311   4.170   0.098   5.506
  138SOL     OW 1312   0.294   4.848   4.594
  138SOL    HW1 1313   0.365   4.917   4.611
  138SOL    HW2 1314   0.336   4.758   4.589
  139SOL     OW 1315   2.369   6.059   5.138
  139SOL    HW1 1316   2.420   6.106   5.066
  139SOL    HW2 1317   2.396   5.962   5.140
  140SOL     OW 1318   6.754   5.672   4.006
  140SOL    HW1 1319   6.729   5.628   3.920
  140SOL    HW2 1320   6.787   5.603   4.071
  141SOL     OW 1321   0.114   1.776   5.283
  141SOL    HW1 1322   0.027   1.810   5.320
  141SOL    HW2 1323   0.123   1.679   5.306
  142SOL     OW 1324   2.174   6.102   1.120
  142SOL    HW1 1325   2.209   6.163   1.049
  142SOL    HW2 1326   2.076   6.089   1.107
  143SOL     OW 1327   5.443   4.818   2.109
  143SOL    HW1 1328   5.349   4.838   2.134
  143SOL    HW2 1329   5.447   4.734   2.056
  144SOL     OW 1330   1.915   6.649   6.129
  144SOL    HW1 1331   2.000   6.616   6.089
  144SOL    HW2 1332   1.838   6.617   6.075
  145SOL     OW 1333   1.090   5.059   0.794
  145SOL    HW1 1334   1.053   5.152   0.798
  145SOL    HW2 1335   1.017   4.994   0.815
  146SOL     OW 1336   4.194   6.505   6.149
  146SOL    HW1 1337   4.095   6.499   6.137
  146SOL    HW2 1338   4.214   6.536   6.242
  147SOL     OW 1339   6.151   2.756   0.360
  147SOL    HW1 1340   6.180   2.850   0.377
  147SOL    HW2 1341   6.154   2.738   0.261
  148SOL     OW 1342   0.177   4.933   5.791
  148SOL    HW1 1343   0.171   4.838   5.820
  148SOL    HW2 1344   0.172   4.938   5.691
  149SOL     OW 1345   3.141   1.306   3.922
  149SOL    HW1 1346   3.234   1.316   3.957
  149SOL    HW2 1347   3.095   1.395   3.920
  150SOL     OW 1348   6.416   5.061   6.120
  150SOL    HW1 1349   6.448   5.023   6.033
  150SOL    HW2 1350   6.414   5.160   6.114
  151SOL     OW 1351   3.648   2.421   1.364
  151SOL    HW1 1352   3.577   2.361   1.401
  151SOL    HW2 1353   3.738   2.378   1.376
  152SOL     OW 1354   1.780   1.158   4.358
  152SOL    HW1 1355   1.691   1.136   4.318
  152SOL    HW2 1356   1.776   1.145   4.457
  153SOL     OW 1357   2.836   0.027   1.824
  153SOL    HW1 1358   2.771   0.077   1.768
  153SOL    HW2 1359   2.815   0.043   1.921
  154SOL     OW 1360   0.114   3.158   2.412
  154SOL    HW1 1361   0.182   3.156   2.339
  154SOL    HW2 1362   0.065   3.070   2.414
  155SOL     OW 1363   0.381   1.605   3.653
  155SOL    HW1 1364   0.313   1.645   3.592
  155SOL    HW2 1365   0.389   1.661   3.736
  156SOL     OW 1366   6.697   1.564   1.448
  156SOL    HW1 1367   6.639   1.631   1.494
  156SOL    HW2 1368   6.742   1.506   1.517
  157SOL     OW 1369   5.974   3.182   1.918
  157SOL    HW1 1370   5.915   3.135   1.853
  157SOL    HW2 1371   6.066   3.145   1.913
  158SOL     OW 1372   2.772   0.105   2.094
  158SOL    HW1 1373   2.685   0.055   2.091
  158SOL    HW2 1374   2.826   0.073   2.172
  159SOL     OW 1375   4.783   4.614   1.116
  159SOL    HW1 1376   4.741   4.636   1.028
  159SOL    HW2 1377   4.736   4.663   1.189
  160SOL     OW 1378   6.697   4.593   6.403
  160SOL    HW1 1379   6.665   4.666   6.344
  160SOL    HW2 1380   6.650   4.508   6.380
  161SOL     OW 1381   1.648   4.924   4.681
  161SOL    HW1 1382   1.588   4.985   4.733
  161SOL    HW2 1383   1.623   4.829   4.699
  162SOL     OW 1384   3.952   6.611   0.432
  162SOL    HW1 1385   4.038   6.658   0.448
  162SOL    HW2 1386   3.970   6.516   0.406
  163SOL     OW 1387   4.460   5.807   1.448
  163SOL    HW1 1388   4.506   5.770   1.529
  163SOL    HW2 1389   4.518   5.795   1.368
  164SOL     OW 1390   6.858   3.806   1.512
  164SOL    HW1 1391   6.835   3.855   1.597
  164SOL    HW2 1392   6.863   3.708   1.531
  165SOL     OW 1393   5.221   3.203   1.276
  165SOL    HW1 1394   5.137   3.155   1.300
  165SOL    HW2 1395   5.209   3.249   1.187
  166SOL     OW 1396   6.849   4.967   3.504
  166SOL    HW1 1397   6.768   4.918   3.536
  166SOL    HW2 1398   6.910   4.986   3.581
  167SOL     OW 1399   6.044   1.986   0.605
  167SOL    HW1 1400   6.011   1.935   0.685
  167SOL    HW2 1401   5.967   2.036   0.564
  168SOL     OW 1402   2.835   3.960   0.740
  168SOL    HW1 1403   2.755   4.017   0.761
  168SOL    HW2 1404   2.879   3.933   0.826
  169SOL     OW 1405   3.664   0.226   2.058
  169SOL    HW1 1406   3.566   0.208   2.051
  169SOL    HW2 1407   3.683   0.278   2.140
  170SOL     OW 1408   0.616   1.940   4.039
  170SOL    HW1 1409   0.553   1.989   4.100
  170SOL    HW2 1410   0.710   1.969   4.059
  171SOL     OW 1411   3.613   3.984   0.242
  171SOL    HW1 1412   3.618   4.062   0.304
  171SOL    HW2 1413   3.663   3.906   0.282
  172SOL     OW 1414   5.957   1.376   4.419
  172SOL    HW1 1415   5.878   1.326   4.384
  172SOL    HW2 1416   5.939   1.474   4.413
  173SOL     OW 1417   6.486   0.306   4.493
  173SOL    HW1 1418   6.525   0.389   4.532
  173SOL    HW2 1419   6.517   0.227   4.546
  174SOL     OW 1420   2.657   5.391   3.477
  174SOL    HW1 1421   2.664   5.415   3.574
  174SOL    HW2 1422   2.708   5.458   3.423
  175SOL     OW 1423   1.965   6.885   1.707
  175SOL    HW1 1424   2.030   6.921   1.774
  175SOL    HW2 1425   2.011   6.818   1.649
  176SOL     OW 1426   1.962   4.001   0.738
  176SOL    HW1 1427   2.024   3.948   0.796
  176SOL    HW2 1428   2.010   4.030   0.655
  177SOL     OW 1429   5.577   2.782   2.762
  177SOL    HW1 1430   5.593   2.768   2.665
  177SOL    HW2 1431   5.534   2.872   2.776
  178SOL     OW 1432   4.827   3.501   6.147
  178SOL    HW1 1433   4.893   3.526   6.076
  178SOL    HW2 1434   4.794   3.583   6.192
  179SOL     OW 1435   2.891   1.602   6.327
  179SOL    HW1 1436   2.813   1.663   6.315
  179SOL    HW2 1437   2.941   1.628   6.410
  180SOL     OW 1438   1.116   1.137   6.514
  180SOL    HW1 1439   1.174   1.076   6.460
  180SOL    HW2 1440   1.102   1.097   6.605
  181SOL     OW 1441   3.299   1.582   0.206
  181SOL    HW1 1442   3.250   1.623   0.129
  181SOL    HW2 1443   3.286   1.483   0.205
  182SOL     OW 1444   4.240   2.222   4.460
  182SOL    HW1 1445   4.271   2.270   4.542
  182SOL    HW2 1446   4.316   2.212   4.396
  183SOL     OW 1447   3.663   0.921   2.766
  183SOL    HW1 1448   3.613   1.006   2.746
  183SOL    HW2 1449   3.601   0.856   2.810
  184SOL     OW 1450   1.421   5.593   3.721
  184SOL    HW1 1451   1.494   5.566   3.658
  184SOL    HW2 1452   1.437   5.685   3.754
  185SOL     OW 1453   1.568   2.618   6.244
  185SOL    HW1 1454   1.612   2.565   6.171
  185SOL    HW2 1455   1.547   2.558   6.321
  186SOL     OW 1456   6.665   0.751   3.571
  186SOL    HW1 1457   6.755   0.764   3.614
  186SOL    HW2 1458   6.641   0.654   3.574
  187SOL     OW 1459   5.023   1.258   3.352
  187SOL    HW1 1460   5.007   1.222   3.444
  187SOL    HW2 1461   5.049   1.183   3.291
  188SOL     OW 1462   6.162   2.693   3.214
  188SOL    HW1 1463   6.084   2.656   3.163
  188SOL    HW2 1464   6.145   2.790   3.234
  189SOL     OW 1465   1.706   5.335   2.544
  189SOL    HW1 1466   1.685   5.424   2.585
  189SOL    HW2 1467   1.627   5.303   2.492
  190SOL     OW 1468   3.816   1.316   5.270
  190SOL    HW1 1469   3.804   1.376   5.349
  190SOL    HW2 1470   3.862   1.232   5.297
  191SOL     OW 1471   5.735   5.388   6.536
  191SOL    HW1 1472   5.751   5.389   6.635
  191SOL    HW2 1473   5.756   5.298   6.499
  192SOL     OW 1474   0.185   6.400   2.079
  192SOL    HW1 1475   0.272   6.396   2.030
  192SOL    HW2 1476   0.129   6.321   2.054
  193SOL     OW 1477   5.089   2.692   6.058
  193SOL    HW1 1478   5.182   2.691   6.023
  193SOL    HW2 1479   5.025   2.667   5.985
  194SOL     OW 1480   3.482   0.903   3.217
  194SOL    HW1 1481   3.535   0.818   3.219
  194SOL    HW2 1482   3.411   0.895   3.147
  195SOL     OW 1483   1.666   6.188   3.952
  195SOL    HW1 1484   1.675   6.175   4.050
  195SOL    HW2 1485   1.595   6.128   3.916
  196SOL     OW 1486   2.638   2.540   6.945
  196SOL    HW1 1487   2.648   2.440   6.943
  196SOL    HW2 1488   2.548   2.565   6.910
  197SOL     OW 1489   2.365   1.800   1.324
  197SOL    HW1 1490   2.418   1.831   1.245
  197SOL    HW2 1491   2.398   1.710   1.354
  198SOL     OW 1492   4.527   0.951   3.119
  198SOL    HW1 1493   4.565   0.960   3.212
  198SOL    HW2 1494   4.476   1.034   3.096
  199SOL     OW 1495   1.436   2.672   4.093
  199SOL    HW1 1496   1.447   2.630   4.003
  199SOL    HW2 1497   1.355   2.731   4.092
  200SOL     OW 1498   0.598   2.683   1.047
  200SOL    HW1 1499   0.662   2.727   1.109
  200SOL    HW2 1500   0.646   2.654   0.964
  201SOL     OW 1501   0.241   0.354   6.163
  201SOL    HW1 1502   0.291   0.374   6.078
  201SOL    HW2 1503   0.223   0.439   6.212
  202SOL     OW 1504   4.553   0.902   6.481
  202SOL    HW1 1505   4.504   0.988   6.493
  202SOL    HW2 1506   4.490   0.832   6.448
  203SOL     OW 1507   6.251   2.512   5.505
  203SOL    HW1 1508   6.324   2.474   5.562
  203SOL    HW2 1509   6.213   2.440   5.447
  204SOL     OW 1510   0.744   0.176   5.722
  204SOL    HW1 1511   0.757   0.080   5.695
  204SOL    HW2 1512   0.658   0.184   5.774
  205SOL     OW 1513   1.542   2.128   3.099
  205SOL    HW1 1514   1.631   2.088   3.122
  205SOL    HW2 1515   1.469   2.077   3.145
  206SOL     OW 1516   0.580   3.365   1.646
  206SOL    HW1 1517   0.566   3.300   1.720
  206SOL    HW2 1518   0.582   3.316   1.559
  207SOL     OW 1519   5.201   1.310   3.002
  207SOL    HW1 1520   5.183   1.365   3.083
  207SOL    HW2 1521   5.186   1.365   2.920
  208SOL     OW 1522   6.819   4.329   5.579
  208SOL    HW1 1523   6.894   4.308   5.516
  208SOL    HW2 1524   6.848   4.309   5.673
  209SOL     OW 1525   6.588   4.513   2.440
  209SOL    HW1 1526   6.620   4.437   2.385
  209SOL    HW2 1527   6.488   4.511   2.446
  210SOL     OW 1528   4.158   2.017   0.453
  210SOL    HW1 1529   4.103   2.006   0.535
  210SOL    HW2 1530   4.149   2.110   0.418
  211SOL     OW 1531   1.257   0.038   2.608
  211SOL    HW1 1532   1.343   0.083   2.633
  211SOL    HW2 1533   1.192   0.044   2.684
  212SOL     OW 1534   1.397   3.951   2.664
  212SOL    HW1 1535   1.392   4.051   2.667
  212SOL    HW2 1536   1.487   3.923   2.630
  213SOL     OW 1537   1.975   5.923   0.853
  213SOL    HW1 1538   2.050   5.858   0.838
  213SOL    HW2 1539   1.971   5.947   0.950
  214SOL     OW 1540   3.962   5.348   2.219
  214SOL    HW1 1541   3.929   5.387   2.134
  214SOL    HW2 1542   3.885   5.312   2.272
  215SOL     OW 1543   2.566   4.392   1.172
  215SOL    HW1 1544   2.585   4.486   1.143
  215SOL    HW2 1545   2.533   4.393   1.267
  216SOL     OW 1546   1.031   0.466   2.563
  216SOL    HW1 1547   0.998   0.513   2.481
  216SOL    HW2 1548   1.063   0.374   2.539
  217SOL     OW 1549   1.018   2.707   5.473
  217SOL    HW1 1550   1.020   2.793   5.524
  217SOL    HW2 1551   1.056   2.721   5.382
  218SOL     OW 1552   0.995   1.703   4.747
  218SOL    HW1 1553   1.005   1.631   4.679
  218SOL    HW2 1554   1.067   1.771   4.735
  219SOL     OW 1555   4.414   0.694   0.660
  219SOL    HW1 1556   4.387   0.724   0.751
  219SOL    HW2 1557   4.430   0.773   0.601
  220SOL     OW 1558   2.824   0.547   0.900
  220SOL    HW1 1559   2.856   0.453   0.903
  220SOL    HW2 1560   2.898   0.608   0.870
  221SOL     OW 1561   5.952   4.769   1.299
  221SOL    HW1 1562   5.880   4.783   1.230
  221SOL    HW2 1563   5.999   4.683   1.281
  222SOL     OW 1564   1.408   4.425   6.618
  222SOL    HW1 1565   1.467   4.506   6.615
  222SOL    HW2 1566   1.363   4.420   6.707
  223SOL     OW 1567   0.228   2.902   4.929
  223SOL    HW1 1568   0.195   2.841   5.001
  223SOL    HW2 1569   0.249   2.849   4.846
  224SOL     OW 1570   3.463   2.070   5.895
  224SOL    HW1 1571   3.528   2.022   5.954
  224SOL    HW2 1572   3.373   2.071   5.939
  225SOL     OW 1573   4.477   3.288   5.870
  225SOL    HW1 1574   4.552   3.262   5.931
  225SOL    HW2 1575   4.462   3.387   5.875
  226SOL     OW 1576   0.834   1.760   6.317
  226SOL    HW1 1577   0.919   1.715   6.345
  226SOL    HW2 1578   0.795   1.713   6.239
  227SOL     OW 1579   2.353   4.396   2.686
  227SOL    HW1 1580   2.308   4.307   2.688
  227SOL    HW2 1581   2.414   4.404   2.764
  228SOL     OW 1582   2.245   0.946   3.146
  228SOL    HW1 1583   2.190   1.008   3.090
  228SOL    HW2 1584   2.197   0.927   3.231
  229SOL     OW 1585   5.356   4.897   6.468
  229SOL    HW1 1586   5.365   4.946   6.555
  229SOL    HW2 1587   5.305   4.953   6.403
  230SOL     OW 1588   4.333   5.952   4.859
  230SOL    HW1 1589   4.285   5.988   4.779
  230SOL    HW2 1590   4.428   5.984   4.858
  231SOL     OW 1591   5.485   1.513   6.723
  231SOL    HW1 1592   5.547   1.528   6.800
  231SOL    HW2 1593   5.503   1.582   6.653
  232SOL     OW 1594   6.872   2.966   6.503
  232SOL    HW1 1595   6.807   2.896   6.531
  232SOL    HW2 1596   6.822   3.048   6.475
  233SOL     OW 1597   3.179   2.159   3.432
  233SOL    HW1 1598   3.255   2.114   3.479
  233SOL    HW2 1599   3.213   2.210   3.353
  234SOL     OW 1600   5.994   0.855   6.234
  234SOL    HW1 1601   6.040   0.899   6.156
  234SOL    HW2 1602   6.046   0.774   6.262
  235SOL     OW 1603   5.276   3.324   2.363
  235SOL    HW1 1604   5.250   3.285   2.274
  235SOL    HW2 1605   5.332   3.405   2.349
  236SOL     OW 1606   4.960   3.205   7.010
  236SOL    HW1 1607   5.026   3.219   6.936
  236SOL    HW2 1608   4.867   3.207   6.972
  237SOL     OW 1609   0.113   4.562   2.074
  237SOL    HW1 1610   0.080   4.469   2.062
  237SOL    HW2 1611   0.211   4.560   2.097
  238SOL     OW 1612   6.622   1.022   0.838
  238SOL    HW1 1613   6.632   0.979   0.748
  238SOL    HW2 1614   6.599   0.952   0.906
  239SOL     OW 1615   0.845   3.927   0.338
  239SOL    HW1 1616   0.841   4.004   0.275
  239SOL    HW2 1617   0.892   3.955   0.422
  240SOL     OW 1618   0.428   3.029   3.414
  240SOL    HW1 1619   0.405   3.126   3.420
  240SOL    HW2 1620   0.447   2.994   3.506
  241SOL     OW 1621   2.646   2.424   4.209
  241SOL    HW1 1622   2.727   2.456   4.160
  241SOL    HW2 1623   2.620   2.334   4.175
  242SOL     OW 1624   3.511   3.834   3.188
  242SOL    HW1 1625   3.566   3.850   3.269
  242SOL    HW2 1626   3.449   3.911   3.173
  243SOL     OW 1627   4.442   1.953   0.033
  243SOL    HW1 1628   4.393   1.869   0.055
  243SOL    HW2 1629   4.530   1.930   7.010
  244SOL     OW 1630   5.842   3.544   6.189
  244SOL    HW1 1631   5.855   3.455   6.144
  244SOL    HW2 1632   5.802   3.609   6.125
  245SOL     OW 1633   4.034   1.878   4.094
  245SOL    HW1 1634   4.116   1.934   4.105
  245SOL    HW2 1635   3.954   1.938   4.083
  246SOL     OW 1636   4.923   1.969   3.116
  246SOL    HW1 1637   4.970   1.892   3.072
  246SOL    HW2 1638   4.889   2.031   3.046
  247SOL     OW 1639   2.710   1.973   0.948
  247SOL    HW1 1640   2.652   2.047   0.916
  247SOL    HW2 1641   2.732   1.913   0.871
  248SOL     OW 1642   2.240   1.021   2.782
  248SOL    HW1 1643   2.154   0.973   2.798
  248SOL    HW2 1644   2.239   1.110   2.829
  249SOL     OW 1645   5.030   6.797   5.279
  249SOL    HW1 1646   5.051   6.892   5.303
  249SOL    HW2 1647   5.007   6.746   5.362
  250SOL     OW 1648   4.065   3.555   0.930
  250SOL    HW1 1649   4.010   3.548   1.013
  250SOL    HW2 1650   4.157   3.586   0.953
  251SOL     OW 1651   4.702   3.324   5.270
  251SOL    HW1 1652   4.618   3.325   5.324
  251SOL    HW2 1653   4.700   3.400   5.205
  252SOL     OW 1654   6.125   0.100   5.411
  252SOL    HW1 1655   6.086   0.141   5.329
  252SOL    HW2 1656   6.072   0.129   5.491
  253SOL     OW 1657   3.745   4.773   6.019
  253SOL    HW1 1658   3.766   4.759   6.116
  253SOL    HW2 1659   3.768   4.867   5.994
  254SOL     OW 1660   6.659   2.109   3.577
  254SOL    HW1 1661   6.594   2.113   3.502
  254SOL    HW2 1662   6.727   2.038   3.558
  255SOL     OW 1663   1.446   4.511   5.985
  255SOL    HW1 1664   1.466   4.564   5.902
  255SOL    HW2 1665   1.530   4.497   6.037
  256SOL     OW 1666   5.634   3.261   5.982
  256SOL    HW1 1667   5.610   3.348   6.025
  256SOL    HW2 1668   5.600   3.261   5.888
  257SOL     OW 1669   5.380   6.786   2.882
  257SOL    HW1 1670   5.332   6.719   2.825
  257SOL    HW2 1671   5.461   6.819   2.833
  258SOL     OW 1672   2.569   3.931   5.610
  258SOL    HW1 1673   2.543   3.836   5.628
  258SOL    HW2 1674   2.580   3.944   5.511
  259SOL     OW 1675   5.512   1.121   2.098
  259SOL    HW1 1676   5.501   1.127   2.197
  259SOL    HW2 1677   5.559   1.203   2.065
  260SOL     OW 1678   3.770   5.558   3.164
  260SOL    HW1 1679   3.833   5.525   3.094
  260SOL    HW2 1680   3.682   5.579   3.122
  261SOL     OW 1681   5.612   4.539   1.415
  261SOL    HW1 1682   5.708   4.517   1.398
  261SOL    HW2 1683   5.553   4.477   1.364
  262SOL     OW 1684   1.801   3.910   1.121
  262SOL    HW1 1685   1.823   3.842   1.051
  262SOL    HW2 1686   1.783   3.999   1.078
  263SOL     OW 1687   1.313   0.444   4.362
  263SOL    HW1 1688   1.270   0.357   4.341
  263SOL    HW2 1689   1.413   0.432   4.366
  264SOL     OW 1690   6.311   2.744   0.736
  264SOL    HW1 1691   6.218   2.710   0.724
  264SOL    HW2 1692   6.322   2.830   0.688
  265SOL     OW 1693   6.316   6.632   2.960
  265SOL    HW1 1694   6.407   6.670   2.977
  265SOL    HW2 1695   6.322   6.533   2.949
  266SOL     OW 1696   4.726   2.751   5.779
  266SOL    HW1 1697   4.628   2.738   5.785
  266SOL    HW2 1698   4.747   2.808   5.699
  267SOL     OW 1699   0.999   1.519   5.095
  267SOL    HW1 1700   0.971   1.445   5.034
  267SOL    HW2 1701   0.918   1.557   5.140
  268SOL     OW 1702   3.006   1.229   6.108
  268SOL    HW1 1703   2.950   1.251   6.188
  268SOL    HW2 1704   3.013   1.308   6.048
  269SOL     OW 1705   2.618   3.102   0.297
  269SOL    HW1 1706   2.663   3.183   0.259
  269SOL    HW2 1707   2.528   3.091   0.254
  270SOL     OW 1708   0.427   6.269   0.332
  270SOL    HW1 1709   0.478   6.297   0.414
  270SOL    HW2 1710   0.474   6.304   0.251
  271SOL     OW 1711   0.165   1.883   6.753
  271SOL    HW1 1712   0.176   1.848   6.845
  271SOL    HW2 1713   0.071   1.916   6.740
  272SOL     OW 1714   3.972   6.244   4.043
  272SOL    HW1 1715   4.064   6.226   4.010
  272SOL    HW2 1716   3.907   6.189   3.990
  273SOL     OW 1717   1.697   4.686   5.058
  273SOL    HW1 1718   1.769   4.672   5.127
  273SOL    HW2 1719   1.715   4.772   5.009
  274SOL     OW 1720   3.394   1.183   3.208
  274SOL    HW1 1721   3.441   1.236   3.137
  274SOL    HW2 1722   3.442   1.096   3.222
  275SOL     OW 1723   6.874   6.438   2.759
  275SOL    HW1 1724   6.865   6.527   2.713
  275SOL    HW2 1725   6.813   6.435   2.838
  276SOL     OW 1726   0.178   6.982   3.779
  276SOL    HW1 1727   0.106   6.930   3.824
  276SOL    HW2 1728   0.157   6.992   3.682
  277SOL     OW 1729   1.867   3.553   6.957
  277SOL    HW1 1730   1.940   3.622   6.954
  277SOL    HW2 1731   1.907   3.462   6.946
  278SOL     OW 1732   0.180   3.355   2.612
  278SOL    HW1 1733   0.101   3.393   2.659
  278SOL    HW2 1734   0.151   3.311   2.527
  279SOL     OW 1735   5.255   3.007   4.233
  279SOL    HW1 1736   5.229   2.933   4.171
  279SOL    HW2 1737   5.342   3.047   4.204
  280SOL     OW 1738   2.619   5.466   1.557
  280SOL    HW1 1739   2.627   5.563   1.581
  280SOL    HW2 1740   2.626   5.410   1.639
  281SOL     OW 1741   2.139   4.571   1.514
  281SOL    HW1 1742   2.049   4.538   1.486
  281SOL    HW2 1743   2.184   4.502   1.570
  282SOL     OW 1744   2.913   1.334   5.293
  282SOL    HW1 1745   2.852   1.357   5.217
  282SOL    HW2 1746   2.962   1.250   5.272
  283SOL     OW 1747   5.661   2.376   6.709
  283SOL    HW1 1748   5.734   2.364   6.642
  283SOL    HW2 1749   5.649   2.474   6.728
  284SOL     OW 1750   1.332   3.523   3.959
  284SOL    HW1 1751   1.331   3.535   3.860
  284SOL    HW2 1752   1.426   3.513   3.991
  285SOL     OW 1753   5.491   4.672   4.244
  285SOL    HW1 1754   5.431   4.694   4.166
  285SOL    HW2 1755   5.576   4.724   4.235
  286SOL     OW 1756   3.461   3.981   6.885
  286SOL    HW1 1757   3.399   3.979   6.806
  286SOL    HW2 1758   3.520   4.062   6.878
  287SOL     OW 1759   1.470   3.272   1.208
  287SOL    HW1 1760   1.519   3.356   1.186
  287SOL    HW2 1761   1.471   3.257   1.307
  288SOL     OW 1762   4.128   1.632   6.111
  288SOL    HW1 1763   4.072   1.617   6.193
  288SOL    HW2 1764   4.127   1.729   6.088
  289SOL     OW 1765   1.803   4.283   5.244
  289SOL    HW1 1766   1.719   4.325   5.208
  289SOL    HW2 1767   1.797   4.277   5.344
  290SOL     OW 1768   6.896   1.321   5.144
  290SOL    HW1 1769   6.847   1.289   5.225
  290SOL    HW2 1770   6.891   1.421   5.139
  291SOL     OW 1771   0.873   1.381   3.704
  291SOL    HW1 1772   0.912   1.381   3.796
  291SOL    HW2 1773   0.774   1.392   3.710
  292SOL     OW 1774   2.246   0.896   3.456
  292SOL    HW1 1775   2.159   0.852   3.478
  292SOL    HW2 1776   2.233   0.994   3.447
  293SOL     OW 1777   4.807   5.941   3.295
  293SOL    HW1 1778   4.863   6.012   3.336
  293SOL    HW2 1779   4.794   5.866   3.360
  294SOL     OW 1780   5.553   6.356   6.919
  294SOL    HW1 1781   5.598   6.315   6.998
  294SOL    HW2 1782   5.520   6.284   6.858
  295SOL     OW 1783   4.438   0.386   3.057
  295SOL    HW1 1784   4.418   0.357   3.151
  295SOL    HW2 1785   4.458   0.484   3.055
  296SOL     OW 1786   3.412   1.716   2.938
  296SOL    HW1 1787   3.475   1.643   2.964
  296SOL    HW2 1788   3.382   1.764   3.021
  297SOL     OW 1789   2.167   4.048   3.176
  297SOL    HW1 1790   2.111   3.993   3.239
  297SOL    HW2 1791   2.207   4.125   3.226
  298SOL     OW 1792   6.062   5.874   0.889
  298SOL    HW1 1793   6.119   5.921   0.821
  298SOL    HW2 1794   5.970   5.914   0.889
  299SOL     OW 1795   6.343   2.506   4.906
  299SOL    HW1 1796   6.349   2.605   4.897
  299SOL    HW2 1797   6.257   2.474   4.865
  300SOL     OW 1798   6.653   0.687   3.019
  300SOL    HW1 1799   6.576   0.735   3.059
  300SOL    HW2 1800   6.735   0.704   3.073
  301SOL     OW 1801   5.791   3.625   6.932
  301SOL    HW1 1802   5.811   3.610   6.835
  301SOL    HW2 1803   5.739   3.710   6.941
  302SOL     OW 1804   0.770   0.841   3.779
  302SOL    HW1 1805   0.687   0.793   3.806
  302SOL    HW2 1806   0.842   0.775   3.758
  303SOL     OW 1807   5.218   0.987   2.600
  303SOL    HW1 1808   5.282   1.018   2.670
  303SOL    HW2 1809   5.192   0.892   2.617
  304SOL     OW 1810   2.011   0.103   3.089
  304SOL    HW1 1811   2.003   0.200   3.113
  304SOL    HW2 1812   2.104   0.072   3.108
  305SOL     OW 1813   0.821   4.038   6.892
  305SOL    HW1 1814   0.740   3.985   6.914
  305SOL    HW2 1815   0.897   3.977   6.870
  306SOL     OW 1816   2.272   1.083   3.749
  306SOL    HW1 1817   2.205   1.024   3.793
  306SOL    HW2 1818   2.351   1.027   3.721
  307SOL     OW 1819   4.615   0.252   1.311
  307SOL    HW1 1820   4.582   0.228   1.402
  307SOL    HW2 1821   4.679   0.182   1.279
  308SOL     OW 1822   1.128   6.271   3.209
  308SOL    HW1 1823   1.122   6.182   3.254
  308SOL    HW2 1824   1.153   6.340   3.277
  309SOL     OW 1825   3.790   4.472   5.351
  309SOL    HW1 1826   3.713   4.408   5.347
  309SOL    HW2 1827   3.875   4.422   5.331
  310SOL     OW 1828   0.129   6.608   5.848
  310SOL    HW1 1829   0.077   6.690   5.870
  310SOL    HW2 1830   0.077   6.527   5.874
  311SOL     OW 1831   0.036   5.535   1.632
  311SOL    HW1 1832   0.107   5.586   1.680
  311SOL    HW2 1833   0.077   5.456   1.586
  312SOL     OW 1834   4.931   1.578   5.144
  312SOL    HW1 1835   4.989   1.505   5.107
  312SOL    HW2 1836   4.892   1.548   5.231
  313SOL     OW 1837   2.146   4.325   1.875
  313SOL    HW1 1838   2.076   4.273   1.925
  313SOL    HW2 1839   2.123   4.422   1.876
  314SOL     OW 1840   3.191   5.230   0.691
  314SOL    HW1 1841   3.100   5.202   0.659
  314SOL    HW2 1842   3.234   5.288   0.622
  315SOL     OW 1843   0.698   2.799   3.454
  315SOL    HW1 1844   0.694   2.873   3.388
  315SOL    HW2 1845   0.634   2.727   3.428
  316SOL     OW 1846   2.206   3.014   4.048
  316SOL    HW1 1847   2.112   2.991   4.023
  316SOL    HW2 1848   2.269   2.963   3.990
  317SOL     OW 1849   6.943   1.203   0.299
  317SOL    HW1 1850   6.966   1.275   0.235
  317SOL    HW2 1851   6.867   1.233   0.358
  318SOL     OW 1852   1.654   4.499   0.735
  318SOL    HW1 1853   1.751   4.518   0.751
  318SOL    HW2 1854   1.616   4.571   0.677
  319SOL     OW 1855   1.024   0.116   1.411
  319SOL    HW1 1856   0.929   0.096   1.436
  319SOL    HW2 1857   1.053   0.054   1.339
  320SOL     OW 1858   6.441   3.171   0.942
  320SOL    HW1 1859   6.532   3.129   0.937
  320SOL    HW2 1860   6.412   3.177   1.038
  321SOL     OW 1861   1.719   2.348   2.096
  321SOL    HW1 1862   1.673   2.277   2.149
  321SOL    HW2 1863   1.810   2.364   2.133
  322SOL     OW 1864   3.799   2.882   5.120
  322SOL    HW1 1865   3.859   2.954   5.084
  322SOL    HW2 1866   3.742   2.847   5.047
  323SOL     OW 1867   0.242   4.572   0.896
  323SOL    HW1 1868   0.252   4.506   0.970
  323SOL    HW2 1869   0.147   4.602   0.890
  324SOL     OW 1870   1.193   2.920   4.842
  324SOL    HW1 1871   1.198   3.002   4.784
  324SOL    HW2 1872   1.105   2.917   4.889
  325SOL     OW 1873   1.895   3.014   1.703
  325SOL    HW1 1874   1.871   3.109   1.724
  325SOL    HW2 1875   1.837   2.953   1.757
  326SOL     OW 1876   1.919   6.822   6.514
  326SOL    HW1 1877   1.987   6.811   6.442
  326SOL    HW2 1878   1.827   6.818   6.475
  327SOL     OW 1879   6.802   4.744   4.940
  327SOL    HW1 1880   6.898   4.723   4.928
  327SOL    HW2 1881   6.782   4.835   4.901
  328SOL     OW 1882   4.349   5.006   2.475
  328SOL    HW1 1883   4.351   5.010   2.375
  328SOL    HW2 1884   4.258   4.980   2.506
  329SOL     OW 1885   3.358   3.410   3.210
  329SOL    HW1 1886   3.352   3.334   3.146
  329SOL    HW2 1887   3.362   3.497   3.160
  330SOL     OW 1888   3.638   6.561   1.513
  330SOL    HW1 1889   3.598   6.614   1.439
  330SOL    HW2 1890   3.587   6.576   1.597
  331SOL     OW 1891   4.744   5.348   5.992
  331SOL    HW1 1892   4.776   5.394   5.909
  331SOL    HW2 1893   4.649   5.375   6.010
  332SOL     OW 1894   3.104   1.646   3.837
  332SOL    HW1 1895   3.015   1.662   3.794
  332SOL    HW2 1896   3.135   1.729   3.883
  333SOL     OW 1897   3.886   6.553   5.794
  333SOL    HW1 1898   3.877   6.455   5.778
  333SOL    HW2 1899   3.841   6.604   5.721
  334SOL     OW 1900   3.484   6.698   2.367
  334SOL    HW1 1901   3.445   6.782   2.404
  334SOL    HW2 1902   3.522   6.715   2.276
  335SOL     OW 1903   3.520   5.408   3.765
  335SOL    HW1 1904   3.536   5.334   3.831
  335SOL    HW2 1905   3.532   5.374   3.672
  336SOL     OW 1906   3.109   1.191   3.271
  336SOL    HW1 1907   3.205   1.182   3.242
  336SOL    HW2 1908   3.098   1.274   3.325
  337SOL     OW 1909   0.539   3.614   1.726
  337SOL    HW1 1910   0.562   3.520   1.700
  337SOL    HW2 1911   0.474   3.611   1.803
  338SOL     OW 1912   2.911   3.045   1.608
  338SOL    HW1 1913   2.843   3.065   1.678
  338SOL    HW2 1914   2.999   3.083   1.635
  339SOL     OW 1915   4.092   6.991   3.327
  339SOL    HW1 1916   4.077   6.894   3.347
  339SOL    HW2 1917   4.050   7.015   3.240
  340SOL     OW 1918   5.002   4.298   4.702
  340SOL    HW1 1919   5.087   4.307   4.754
  340SOL    HW2 1920   4.939   4.371   4.729
  341SOL     OW 1921   5.315   5.748   3.782
  341SOL    HW1 1922   5.375   5.794   3.847
  341SOL    HW2 1923   5.292   5.811   3.708
  342SOL     OW 1924   5.962   5.090   0.305
  342SOL    HW1 1925   5.877   5.083   0.357
  342SOL    HW2 1926   6.006   5.177   0.326
  343SOL     OW 1927   3.956   6.645   1.799
  343SOL    HW1 1928   3.908   6.713   1.745
  343SOL    HW2 1929   3.917   6.554   1.781
  344SOL     OW 1930   1.847   5.370   0.498
  344SOL    HW1 1931   1.771   5.408   0.550
  344SOL    HW2 1932   1.864   5.276   0.528
  345SOL     OW 1933   1.110   0.410   5.633
  345SOL    HW1 1934   1.208   0.428   5.632
  345SOL    HW2 1935   1.066   0.461   5.559
  346SOL     OW 1936   1.246   0.283   2.962
  346SOL    HW1 1937   1.159   0.324   2.935
  346SOL    HW2 1938   1.321   0.335   2.920
  347SOL     OW 1939   5.627   7.018   6.566
  347SOL    HW1 1940   5.537   0.032   6.537
  347SOL    HW2 1941   5.623   6.992   6.662
  348SOL     OW 1942   3.693   5.287   1.376
  348SOL    HW1 1943   3.739   5.267   1.289
  348SOL    HW2 1944   3.608   5.335   1.358
  349SOL     OW 1945   0.501   4.443   2.644
  349SOL    HW1 1946   0.535   4.532   2.674
  349SOL    HW2 1947   0.401   4.443   2.646
  350SOL     OW 1948   3.951   3.566   1.539
  350SOL    HW1 1949   3.875   3.630   1.529
  350SOL    HW2 1950   4.028   3.613   1.583
  351SOL     OW 1951   2.649   1.567   0.390
  351SOL    HW1 1952   2.594   1.609   0.462
  351SOL    HW2 1953   2.736   1.616   0.382
  352SOL     OW 1954   3.157   0.353   5.941
  352SOL    HW1 1955   3.187   0.293   5.866
  352SOL    HW2 1956   3.195   0.444   5.927
  353SOL     OW 1957   1.659   6.052   0.891
  353SOL    HW1 1958   1.580   6.008   0.936
  353SOL    HW2 1959   1.702   5.986   0.830
  354SOL     OW 1960   4.084   1.631   7.001
  354SOL    HW1 1961   4.054   1.693   6.929
  354SOL    HW2 1962   4.004   1.593   0.029
  355SOL     OW 1963   6.747   3.270   2.552
  355SOL    HW1 1964   6.770   3.363   2.523
  355SOL    HW2 1965   6.791   3.251   2.639
  356SOL     OW 1966   4.494   4.804   4.136
  356SOL    HW1 1967   4.562   4.745   4.177
  356SOL    HW2 1968   4.538   4.886   4.099
  357SOL     OW 1969   0.448   5.665   5.323
  357SOL    HW1 1970   0.479   5.625   5.237
  357SOL    HW2 1971   0.393   5.599   5.374
  358SOL     OW 1972   5.938   0.226   1.468
  358SOL    HW1 1973   5.977   0.221   1.376
  358SOL    HW2 1974   5.998   0.278   1.527
  359SOL     OW 1975   1.402   2.386   2.651
  359SOL    HW1 1976   1.468   2.366   2.579
  359SOL    HW2 1977   1.404   2.483   2.672
  360SOL     OW 1978   4.509   6.946   6.785
  360SOL    HW1 1979   4.603   6.977   6.769
  360SOL    HW2 1980   4.461   7.013   6.842
  361SOL     OW 1981   5.563   5.771   3.051
  361SOL    HW1 1982   5.571   5.832   3.130
  361SOL    HW2 1983   5.493   5.702   3.071
  362SOL     OW 1984   2.589   4.079   0.776
  362SOL    HW1 1985   2.541   4.153   0.729
  362SOL    HW2 1986   2.636   4.115   0.857
  363SOL     OW 1987   4.350   5.205   4.412
  363SOL    HW1 1988   4.372   5.107   4.409
  363SOL    HW2 1989   4.433   5.257   4.430
  364SOL     OW 1990   1.246   5.629   5.647
  364SOL    HW1 1991   1.318   5.565   5.620
  364SOL    HW2 1992   1.287   5.713   5.683
  365SOL     OW 1993   5.422   6.199   2.378
  365SOL    HW1 1994   5.435   6.157   2.288
  365SOL    HW2 1995   5.325   6.218   2.392
  366SOL     OW 1996   6.242   1.467   6.931
  366SOL    HW1 1997   6.307   1.399   6.898
  366SOL    HW2 1998   6.149   1.432   6.920
  367SOL     OW 1999   5.741   3.264   1.025
  367SOL    HW1 2000   5.717   3.189   0.964
  367SOL    HW2 2001   5.828   3.304   0.997
  368SOL     OW 2002   1.355   4.461   5.297
  368SOL    HW1 2003   1.403   4.541   5.261
  368SOL    HW2 2004   1.416   4.408   5.355
  369SOL     OW 2005   0.464   4.291   1.531
  369SOL    HW1 2006   0.563   4.292   1.545
  369SOL    HW2 2007   0.429   4.384   1.528
  370SOL     OW 2008   2.673   1.219   5.958
  370SOL    HW1 2009   2.589   1.188   5.913
  370SOL    HW2 2010   2.745   1.231   5.890
  371SOL     OW 2011   3.072   3.168   0.277
  371SOL    HW1 2012   3.133   3.121   0.213
  371SOL    HW2 2013   3.001   3.105   0.308
  372SOL     OW 2014   6.743   6.725   5.933
  372SOL    HW1 2015   6.648   6.742   5.959
  372SOL    HW2 2016   6.803   6.749   6.010
  373SOL     OW 2017   0.324   6.402   0.768
  373SOL    HW1 2018   0.237   6.354   0.757
  373SOL    HW2 2019   0.317   6.466   0.845
  374SOL     OW 2020   3.428   0.138   2.000
  374SOL    HW1 2021   3.451   0.043   2.019
  374SOL    HW2 2022   3.329   0.147   1.988
  375SOL     OW 2023   6.664   4.761   3.321
  375SOL    HW1 2024   6.729   4.686   3.311
  375SOL    HW2 2025   6.582   4.729   3.368
  376SOL     OW 2026   1.668   2.465   4.015
  376SOL    HW1 2027   1.755   2.443   4.060
  376SOL    HW2 2028   1.676   2.554   3.970
  377SOL     OW 2029   4.854   2.124   2.895
  377SOL    HW1 2030   4.929   2.120   2.829
  377SOL    HW2 2031   4.767   2.116   2.847
  378SOL     OW 2032   4.534   3.236   5.551
  378SOL    HW1 2033   4.538   3.335   5.562
  378SOL    HW2 2034   4.527   3.193   5.641
  379SOL     OW 2035   5.952   3.884   1.253
  379SOL    HW1 2036   5.948   3.919   1.159
  379SOL    HW2 2037   5.926   3.788   1.254
  380SOL     OW 2038   1.690   1.699   1.303
  380SOL    HW1 2039   1.675   1.795   1.280
  380SOL    HW2 2040   1.783   1.687   1.339
  381SOL     OW 2041   3.489   4.517   1.138
  381SOL    HW1 2042   3.436   4.437   1.108
  381SOL    HW2 2043   3.504   4.579   1.061
  382SOL     OW 2044   3.221   5.851   0.345
  382SOL    HW1 2045   3.178   5.818   0.261
  382SOL    HW2 2046   3.278   5.779   0.384
  383SOL     OW 2047   6.372   2.368   0.304
  383SOL    HW1 2048   6.454   2.367   0.361
  383SOL    HW2 2049   6.294   2.398   0.360
  384SOL     OW 2050   0.863   5.323   4.999
  384SOL    HW1 2051   0.858   5.225   5.020
  384SOL    HW2 2052   0.804   5.343   4.921
  385SOL     OW 2053   4.489   6.321   0.384
  385SOL    HW1 2054   4.538   6.260   0.321
  385SOL    HW2 2055   4.400   6.282   0.406
  386SOL     OW 2056   3.915   6.559   5.439
  386SOL    HW1 2057   3.889   6.463   5.438
  386SOL    HW2 2058   3.956   6.583   5.351
  387SOL     OW 2059   0.339   0.751   5.484
  387SOL    HW1 2060   0.361   0.810   5.563
  387SOL    HW2 2061   0.424   0.717   5.444
  388SOL     OW 2062   0.122   2.204   5.391
  388SOL    HW1 2063   0.110   2.164   5.482
  388SOL    HW2 2064   0.108   2.303   5.396
  389SOL     OW 2065   4.329   4.719   1.405
  389SOL    HW1 2066   4.309   4.658   1.481
  389SOL    HW2 2067   4.292   4.810   1.425
  390SOL     OW 2068   3.533   1.902   0.426
  390SOL    HW1 2069   3.621   1.950   0.433
  390SOL    HW2 2070   3.509   1.863   0.515
  391SOL     OW 2071   3.082   3.931   6.297
  391SOL    HW1 2072   3.146   3.987   6.245
  391SOL    HW2 2073   3.012   3.990   6.338
  392SOL     OW 2074   1.527   3.815   2.099
  392SOL    HW1 2075   1.583   3.837   2.179
  392SOL    HW2 2076   1.524   3.894   2.038
  393SOL     OW 2077   0.916   4.541   1.172
  393SOL    HW1 2078   0.939   4.513   1.265
  393SOL    HW2 2079   0.999   4.540   1.116
  394SOL     OW 2080   6.460   1.411   6.275
  394SOL    HW1 2081   6.391   1.456   6.331
  394SOL    HW2 2082   6.467   1.315   6.301
  395SOL     OW 2083   5.594   4.781   1.547
  395SOL    HW1 2084   5.580   4.691   1.507
  395SOL    HW2 2085   5.681   4.819   1.515
  396SOL     OW 2086   2.788   1.696   2.731
  396SOL    HW1 2087   2.747   1.713   2.642
  396SOL    HW2 2088   2.837   1.609   2.729
  397SOL     OW 2089   4.274   1.313   5.183
  397SOL    HW1 2090   4.198   1.311   5.247
  397SOL    HW2 2091   4.303   1.408   5.169
  398SOL     OW 2092   2.501   0.687   4.803
  398SOL    HW1 2093   2.406   0.658   4.820
  398SOL    HW2 2094   2.510   0.784   4.825
  399SOL     OW 2095   5.467   6.276   3.877
  399SOL    HW1 2096   5.430   6.308   3.964
  399SOL    HW2 2097   5.401   6.293   3.804
  400SOL     OW 2098   6.355   0.206   4.947
  400SOL    HW1 2099   6.390   0.299   4.953
  400SOL    HW2 2100   6.328   0.186   4.853
  401SOL     OW 2101   0.030   5.536   5.629
  401SOL    HW1 2102   0.002   5.531   5.533
  401SOL    HW2 2103   6.986   5.595   5.680
  402SOL     OW 2104   6.765   0.392   2.309
  402SOL    HW1 2105   6.686   0.332   2.299
  402SOL    HW2 2106   6.733   0.485   2.328
  403SOL     OW 2107   2.954   0.999   5.922
  403SOL    HW1 2108   2.980   1.031   5.831
  403SOL    HW2 2109   2.971   1.071   5.989
  404SOL     OW 2110   4.007   4.987   4.737
  404SOL    HW1 2111   4.043   4.925   4.667
  404SOL    HW2 2112   4.048   4.964   4.826
  405SOL     OW 2113   2.682   4.640   3.561
  405SOL    HW1 2114   2.702   4.566   3.626
  405SOL    HW2 2115   2.763   4.698   3.550
  406SOL     OW 2116   0.304   5.162   5.849
  406SOL    HW1 2117   0.241   5.217   5.794
  406SOL    HW2 2118   0.284   5.065   5.836
  407SOL     OW 2119   1.781   2.879   4.569
  407SOL    HW1 2120   1.829   2.881   4.657
  407SOL    HW2 2121   1.846   2.892   4.495
  408SOL     OW 2122   3.139   1.365   3.508
  408SOL    HW1 2123   3.047   1.348   3.545
  408SOL    HW2 2124   3.200   1.392   3.582
  409SOL     OW 2125   1.010   3.977   2.406
  409SOL    HW1 2126   0.917   3.990   2.440
  409SOL    HW2 2127   1.008   3.917   2.326
  410SOL     OW 2128   1.976   2.060   1.322
  410SOL    HW1 2129   2.021   2.149   1.332
  410SOL    HW2 2130   2.037   1.988   1.355
  411SOL     OW 2131   0.798   2.079   1.374
  411SOL    HW1 2132   0.896   2.059   1.365
  411SOL    HW2 2133   0.773   2.153   1.311
  412SOL     OW 2134   1.778   4.701   1.905
  412SOL    HW1 2135   1.735   4.637   1.842
  412SOL    HW2 2136   1.834   4.766   1.854
  413SOL     OW 2137   4.871   5.115   2.677
  413SOL    HW1 2138   4.826   5.176   2.612
  413SOL    HW2 2139   4.851   5.145   2.770
  414SOL     OW 2140   2.406   6.237   3.682
  414SOL    HW1 2141   2.397   6.336   3.672
  414SOL    HW2 2142   2.375   6.209   3.773
  415SOL     OW 2143   6.411   0.541   0.443
  415SOL    HW1 2144   6.384   0.445   0.432
  415SOL    HW2 2145   6.395   0.590   0.357
  416SOL     OW 2146   4.886   3.364   4.683
  416SOL    HW1 2147   4.909   3.342   4.589
  416SOL    HW2 2148   4.793   3.401   4.687
  417SOL     OW 2149   3.710   2.141   6.516
  417SOL    HW1 2150   3.633   2.198   6.545
  417SOL    HW2 2151   3.787   2.200   6.491
  418SOL     OW 2152   4.145   6.383   4.761
  418SOL    HW1 2153   4.048   6.394   4.737
  418SOL    HW2 2154   4.169   6.448   4.833
  419SOL     OW 2155   0.893   6.894   1.753
  419SOL    HW1 2156   0.811   6.878   1.807
  419SOL    HW2 2157   0.955   6.816   1.761
  420SOL     OW 2158   5.851   1.172   6.203
  420SOL    HW1 2159   5.818   1.264   6.182
  420SOL    HW2 2160   5.826   1.110   6.129
  421SOL     OW 2161   5.158   3.450   2.803
  421SOL    HW1 2162   5.163   3.355   2.772
  421SOL    HW2 2163   5.066   3.467   2.840
  422SOL     OW 2164   5.093   3.287   1.695
  422SOL    HW1 2165   5.058   3.197   1.721
  422SOL    HW2 2166   5.020   3.354   1.701
  423SOL     OW 2167   3.437   1.414   5.924
  423SOL    HW1 2168   3.424   1.474   5.845
  423SOL    HW2 2169   3.466   1.324   5.892
  424SOL     OW 2170   1.011   4.131   3.182
  424SOL    HW1 2171   1.097   4.128   3.131
  424SOL    HW2 2172   0.936   4.103   3.122
  425SOL     OW 2173   2.334   0.419   5.349
  425SOL    HW1 2174   2.427   0.389   5.368
  425SOL    HW2 2175   2.328   0.455   5.256
  426SOL     OW 2176   2.450   2.631   4.187
  426SOL    HW1 2177   2.527   2.577   4.221
  426SOL    HW2 2178   2.390   2.655   4.262
  427SOL     OW 2179   3.433   2.078   3.455
  427SOL    HW1 2180   3.461   1.985   3.476
  427SOL    HW2 2181   3.493   2.116   3.385
  428SOL     OW 2182   2.539   1.562   6.101
  428SOL    HW1 2183   2.528   1.628   6.175
  428SOL    HW2 2184   2.533   1.469   6.137
  429SOL     OW 2185   1.411   6.055   4.274
  429SOL    HW1 2186   1.503   6.064   4.235
  429SOL    HW2 2187   1.350   6.014   4.206
  430SOL     OW 2188   1.197   0.141   3.724
  430SOL    HW1 2189   1.170   0.050   3.691
  430SOL    HW2 2190   1.154   0.211   3.668
  431SOL     OW 2191   3.097   1.679   1.975
  431SOL    HW1 2192   3.014   1.724   2.008
  431SOL    HW2 2193   3.174   1.742   1.980
  432SOL     OW 2194   4.318   2.097   1.755
  432SOL    HW1 2195   4.284   2.155   1.681
  432SOL    HW2 2196   4.297   2.002   1.735
  433SOL     OW 2197   2.099   6.042   0.089
  433SOL    HW1 2198   2.080   6.118   0.151
  433SOL    HW2 2199   2.193   6.050   0.055
  434SOL     OW 2200   4.155   5.916   3.748
  434SOL    HW1 2201   4.152   5.981   3.672
  434SOL    HW2 2202   4.237   5.861   3.742
  435SOL     OW 2203   3.298   1.681   6.260
  435SOL    HW1 2204   3.288   1.673   6.359
  435SOL    HW2 2205   3.300   1.777   6.234
  436SOL     OW 2206   5.018   6.808   2.895
  436SOL    HW1 2207   4.997   6.840   2.987
  436SOL    HW2 2208   5.045   6.886   2.838
  437SOL     OW 2209   6.597   0.442   4.942
  437SOL    HW1 2210   6.668   0.449   4.872
  437SOL    HW2 2211   6.522   0.505   4.920
  438SOL     OW 2212   0.456   3.966   2.831
  438SOL    HW1 2213   0.493   4.034   2.768
  438SOL    HW2 2214   0.358   3.980   2.842
  439SOL     OW 2215   6.054   0.576   3.542
  439SOL    HW1 2216   6.070   0.613   3.634
  439SOL    HW2 2217   6.127   0.511   3.520
  440SOL     OW 2218   4.813   0.958   0.565
  440SOL    HW1 2219   4.863   0.978   0.481
  440SOL    HW2 2220   4.717   0.984   0.554
  441SOL     OW 2221   0.062   4.375   2.981
  441SOL    HW1 2222   0.105   4.310   2.918
  441SOL    HW2 2223   0.021   4.450   2.928
  442SOL     OW 2224   5.598   3.146   6.212
  442SOL    HW1 2225   5.627   3.225   6.266
  442SOL    HW2 2226   5.619   3.162   6.116
  443SOL     OW 2227   4.928   3.305   2.559
  443SOL    HW1 2228   4.944   3.390   2.508
  443SOL    HW2 2229   4.882   3.239   2.500
  444SOL     OW 2230   4.057   0.829   1.588
  444SOL    HW1 2231   4.019   0.908   1.540
  444SOL    HW2 2232   4.102   0.860   1.672
  445SOL     OW 2233   1.288   5.699   2.469
  445SOL    HW1 2234   1.262   5.736   2.379
  445SOL    HW2 2235   1.279   5.771   2.538
  446SOL     OW 2236   5.573   6.937   1.447
  446SOL    HW1 2237   5.652   6.888   1.410
  446SOL    HW2 2238   5.502   6.943   1.377
  447SOL     OW 2239   6.646   4.365   0.815
  447SOL    HW1 2240   6.663   4.282   0.763
  447SOL    HW2 2241   6.559   4.406   0.786
  448SOL     OW 2242   2.767   6.478   3.093
  448SOL    HW1 2243   2.772   6.423   3.176
  448SOL    HW2 2244   2.713   6.560   3.110
  449SOL     OW 2245   1.953   3.801   4.755
  449SOL    HW1 2246   1.895   3.775   4.832
  449SOL    HW2 2247   2.003   3.885   4.778
  450SOL     OW 2248   0.780   5.069   3.590
  450SOL    HW1 2249   0.875   5.071   3.623
  450SOL    HW2 2250   0.758   4.977   3.558
  451SOL     OW 2251   0.616   2.297   2.627
  451SOL    HW1 2252   0.543   2.261   2.569
  451SOL    HW2 2253   0.577   2.337   2.710
  452SOL     OW 2254   5.205   5.792   2.311
  452SOL    HW1 2255   5.195   5.828   2.218
  452SOL    HW2 2256   5.123   5.741   2.336
  453SOL     OW 2257   3.515   0.645   6.823
  453SOL    HW1 2258   3.609   0.645   6.788
  453SOL    HW2 2259   3.509   0.583   6.901
  454SOL     OW 2260   6.737   3.588   6.822
  454SOL    HW1 2261   6.664   3.568   6.757
  454SOL    HW2 2262   6.789   3.505   6.841
  455SOL     OW 2263   5.726   4.684   6.075
  455SOL    HW1 2264   5.761   4.773   6.104
  455SOL    HW2 2265   5.793   4.613   6.097
  456SOL     OW 2266   3.345   0.597   2.271
  456SOL    HW1 2267   3.415   0.621   2.338
  456SOL    HW2 2268   3.259   0.643   2.294
  457SOL     OW 2269   2.668   0.693   0.064
  457SOL    HW1 2270   2.646   0.621   0.129
  457SOL    HW2 2271   2.667   0.656   6.990
  458SOL     OW 2272   2.833   1.160   3.163
  458SOL    HW1 2273   2.923   1.174   3.204
  458SOL    HW2 2274   2.793   1.076   3.198
  459SOL     OW 2275   2.915   0.566   3.685
  459SOL    HW1 2276   3.014   0.570   3.700
  459SOL    HW2 2277   2.869   0.627   3.750
  460SOL     OW 2278   1.037   1.671   5.400
  460SOL    HW1 2279   1.023   1.749   5.337
  460SOL    HW2 2280   1.129   1.636   5.388
  461SOL     OW 2281   0.664   5.039   6.239
  461SOL    HW1 2282   0.651   5.034   6.338
  461SOL    HW2 2283   0.591   5.094   6.198
  462SOL     OW 2284   3.241   3.848   4.862
  462SOL    HW1 2285   3.170   3.918   4.860
  462SOL    HW2 2286   3.199   3.758   4.876
  463SOL     OW 2287   5.579   6.819   2.706
  463SOL    HW1 2288   5.608   6.785   2.617
  463SOL    HW2 2289   5.654   6.807   2.771
  464SOL     OW 2290   3.810   5.388   5.797
  464SOL    HW1 2291   3.818   5.459   5.727
  464SOL    HW2 2292   3.771   5.305   5.757
  465SOL     OW 2293   0.948   3.575   0.118
  465SOL    HW1 2294   0.975   3.480   0.109
  465SOL    HW2 2295   1.024   3.629   0.153
  466SOL     OW 2296   4.115   5.606   4.831
  466SOL    HW1 2297   4.091   5.698   4.798
  466SOL    HW2 2298   4.064   5.538   4.779
  467SOL     OW 2299   6.459   0.084   1.422
  467SOL    HW1 2300   6.512   0.168   1.438
  467SOL    HW2 2301   6.517   0.005   1.439
  468SOL     OW 2302   3.697   0.270   6.805
  468SOL    HW1 2303   3.637   0.295   6.729
  468SOL    HW2 2304   3.731   0.177   6.791
  469SOL     OW 2305   2.946   5.036   6.038
  469SOL    HW1 2306   2.931   5.135   6.029
  469SOL    HW2 2307   2.906   4.989   5.959
  470SOL     OW 2308   2.076   4.908   2.930
  470SOL    HW1 2309   2.010   4.936   3.000
  470SOL    HW2 2310   2.124   4.989   2.896
  471SOL     OW 2311   2.239   2.193   4.455
  471SOL    HW1 2312   2.268   2.224   4.546
  471SOL    HW2 2313   2.163   2.129   4.465
  472SOL     OW 2314   5.790   3.675   6.410
  472SOL    HW1 2315   5.852   3.752   6.392
  472SOL    HW2 2316   5.796   3.608   6.336
  473SOL     OW 2317   6.803   2.970   1.937
  473SOL    HW1 2318   6.808   2.946   2.034
  473SOL    HW2 2319   6.817   3.069   1.927
  474SOL     OW 2320   5.220   6.387   3.724
  474SOL    HW1 2321   5.215   6.449   3.645
  474SOL    HW2 2322   5.156   6.418   3.794
  475SOL     OW 2323   6.063   1.800   0.843
  475SOL    HW1 2324   6.113   1.731   0.895
  475SOL    HW2 2325   5.964   1.783   0.853
  476SOL     OW 2326   0.693   4.670   1.427
  476SOL    HW1 2327   0.602   4.710   1.444
  476SOL    HW2 2328   0.744   4.729   1.364
  477SOL     OW 2329   1.461   4.568   3.750
  477SOL    HW1 2330   1.457   4.478   3.707
  477SOL    HW2 2331   1.490   4.558   3.845
  478SOL     OW 2332   5.033   5.963   1.764
  478SOL    HW1 2333   5.002   6.037   1.823
  478SOL    HW2 2334   4.976   5.882   1.777
  479SOL     OW 2335   3.636   3.800   3.451
  479SOL    HW1 2336   3.562   3.815   3.517
  479SOL    HW2 2337   3.719   3.773   3.500
  480SOL     OW 2338   1.827   0.130   2.864
  480SOL    HW1 2339   1.920   0.138   2.899
  480SOL    HW2 2340   1.768   0.092   2.935
  481SOL     OW 2341   0.079   6.947   0.683
  481SOL    HW1 2342   0.066   6.912   0.775
  481SOL    HW2 2343   7.016   6.932   0.629
  482SOL     OW 2344   4.254   5.323   1.602
  482SOL    HW1 2345   4.262   5.409   1.654
  482SOL    HW2 2346   4.275   5.341   1.506
  483SOL     OW 2347   4.926   2.113   3.537
  483SOL    HW1 2348   4.945   2.197   3.487
  483SOL    HW2 2349   4.944   2.034   3.478
  484SOL     OW 2350   2.208   4.514   4.474
  484SOL    HW1 2351   2.157   4.588   4.431
  484SOL    HW2 2352   2.306   4.530   4.464
  485SOL     OW 2353   5.347   3.272   1.884
  485SOL    HW1 2354   5.437   3.272   1.840
  485SOL    HW2 2355   5.276   3.286   1.815
  486SOL     OW 2356   5.832   6.340   6.323
  486SOL    HW1 2357   5.886   6.257   6.338
  486SOL    HW2 2358   5.891   6.420   6.333
  487SOL     OW 2359   6.671   6.643   5.351
  487SOL    HW1 2360   6.743   6.583   5.384
  487SOL    HW2 2361   6.689   6.737   5.381
  488SOL     OW 2362   1.617   6.259   3.095
  488SOL    HW1 2363   1.618   6.160   3.101
  488SOL    HW2 2364   1.711   6.294   3.102
  489SOL     OW 2365   1.186   6.378   6.153
  489SOL    HW1 2366   1.193   6.329   6.240
  489SOL    HW2 2367   1.274   6.420   6.131
  490SOL     OW 2368   1.079   3.933   5.072
  490SOL    HW1 2369   1.085   3.920   4.973
  490SOL    HW2 2370   1.048   3.848   5.115
  491SOL     OW 2371   0.670   2.562   0.745
  491SOL    HW1 2372   0.658   2.557   0.646
  491SOL    HW2 2373   0.678   2.470   0.783
  492SOL     OW 2374   1.716   2.313   5.774
  492SOL    HW1 2375   1.648   2.315   5.846
  492SOL    HW2 2376   1.778   2.391   5.783
  493SOL     OW 2377   2.259   5.574   4.804
  493SOL    HW1 2378   2.285   5.511   4.731
  493SOL    HW2 2379   2.160   5.586   4.804
  494SOL     OW 2380   2.825   6.202   4.934
  494SOL    HW1 2381   2.850   6.173   4.842
  494SOL    HW2 2382   2.791   6.296   4.932
  495SOL     OW 2383   3.667   4.356   6.117
  495SOL    HW1 2384   3.692   4.281   6.055
  495SOL    HW2 2385   3.616   4.425   6.066
  496SOL     OW 2386   5.043   1.709   3.001
  496SOL    HW1 2387   4.991   1.629   3.030
  496SOL    HW2 2388   5.140   1.694   3.017
  497SOL     OW 2389   3.572   2.043   0.203
  497SOL    HW1 2390   3.668   2.027   0.180
  497SOL    HW2 2391   3.550   1.997   0.289
  498SOL     OW 2392   1.040   6.670   1.816
  498SOL    HW1 2393   0.985   6.588   1.801
  498SOL    HW2 2394   1.070   6.673   1.911
  499SOL     OW 2395   2.849   6.125   6.407
  499SOL    HW1 2396   2.910   6.203   6.395
  499SOL    HW2 2397   2.885   6.045   6.359
  500SOL     OW 2398   6.169   2.490   0.426
  500SOL    HW1 2399   6.150   2.586   0.401
  500SOL    HW2 2400   6.138   2.473   0.519
  501SOL     OW 2401   1.035   0.745   3.834
  501SOL    HW1 2402   1.065   0.674   3.896
  501SOL    HW2 2403   1.088   0.829   3.849
  502SOL     OW 2404   2.192   5.032   6.558
  502SOL    HW1 2405   2.179   5.035   6.657
  502SOL    HW2 2406   2.290   5.032   6.537
  503SOL     OW 2407   3.795   4.703   6.917
  503SOL    HW1 2408   3.848   4.627   6.881
  503SOL    HW2 2409   3.698   4.679   6.918
  504SOL     OW 2410   6.240   6.295   1.959
  504SOL    HW1 2411   6.316   6.247   2.004
  504SOL    HW2 2412   6.211   6.371   2.017
  505SOL     OW 2413   4.833   6.696   5.068
  505SOL    HW1 2414   4.914   6.745   5.101
  505SOL    HW2 2415   4.757   6.710   5.132
  506SOL     OW 2416   4.258   5.115   3.027
  506SOL    HW1 2417   4.160   5.134   3.034
  506SOL    HW2 2418   4.279   5.087   2.933
  507SOL     OW 2419   3.206   0.925   0.551
  507SOL    HW1 2420   3.120   0.875   0.559
  507SOL    HW2 2421   3.231   0.962   0.640
  508SOL     OW 2422   6.910   4.446   3.487
  508SOL    HW1 2423   6.941   4.509   3.558
  508SOL    HW2 2424   6.960   4.463   3.402
  509SOL     OW 2425   4.595   6.816   6.105
  509SOL    HW1 2426   4.509   6.800   6.056
  509SOL    HW2 2427   4.586   6.898   6.161
  510SOL     OW 2428   0.116   3.603   0.180
  510SOL    HW1 2429   0.078   3.678   0.234
  510SOL    HW2 2430   0.200   3.634   0.136
  511SOL     OW 2431   0.907   1.735   0.655
  511SOL    HW1 2432   0.812   1.758   0.636
  511SOL    HW2 2433   0.951   1.699   0.573
  512SOL     OW 2434   6.825   2.510   5.813
  512SOL    HW1 2435   6.818   2.602   5.773
  512SOL    HW2 2436   6.857   2.518   5.908
  513SOL     OW 2437   5.454   0.730   2.787
  513SOL    HW1 2438   5.532   0.702   2.843
  513SOL    HW2 2439   5.371   0.733   2.843
  514SOL     OW 2440   6.332   6.576   4.338
  514SOL    HW1 2441   6.240   6.609   4.321
  514SOL    HW2 2442   6.367   6.616   4.423
  515SOL     OW 2443   3.728   0.464   5.952
  515SOL    HW1 2444   3.752   0.391   5.889
  515SOL    HW2 2445   3.646   0.438   6.003
  516SOL     OW 2446   2.410   5.878   1.558
  516SOL    HW1 2447   2.479   5.911   1.622
  516SOL    HW2 2448   2.443   5.889   1.465
  517SOL     OW 2449   3.494   5.832   1.618
  517SOL    HW1 2450   3.439   5.910   1.587
  517SOL    HW2 2451   3.433   5.762   1.657
  518SOL     OW 2452   2.122   3.466   3.959
  518SOL    HW1 2453   2.041   3.409   3.974
  518SOL    HW2 2454   2.203   3.419   3.995
  519SOL     OW 2455   0.492   0.101   2.988
  519SOL    HW1 2456   0.422   0.034   2.963
  519SOL    HW2 2457   0.451   0.173   3.044
  520SOL     OW 2458   0.846   3.189   0.285
  520SOL    HW1 2459   0.885   3.275   0.253
  520SOL    HW2 2460   0.898   3.155   0.363
  521SOL     OW 2461   6.382   5.567   4.749
  521SOL    HW1 2462   6.413   5.621   4.827
  521SOL    HW2 2463   6.394   5.620   4.665
  522SOL     OW 2464   3.746   3.754   1.544
  522SOL    HW1 2465   3.720   3.850   1.557
  522SOL    HW2 2466   3.670   3.705   1.501
  523SOL     OW 2467   0.658   6.713   1.439
  523SOL    HW1 2468   0.740   6.660   1.417
  523SOL    HW2 2469   0.600   6.661   1.501
  524SOL     OW 2470   6.927   2.030   1.771
  524SOL    HW1 2471   6.958   1.935   1.768
  524SOL    HW2 2472   6.833   2.033   1.805
  525SOL     OW 2473   1.406   3.278   5.941
  525SOL    HW1 2474   1.499   3.311   5.932
  525SOL    HW2 2475   1.355   3.336   6.004
  526SOL     OW 2476   2.729   6.660   4.291
  526SOL    HW1 2477   2.742   6.564   4.316
  526SOL    HW2 2478   2.757   6.674   4.196
  527SOL     OW 2479   0.523   1.182   0.294
  527SOL    HW1 2480   0.549   1.277   0.309
  527SOL    HW2 2481   0.601   1.122   0.313
  528SOL     OW 2482   6.840   3.418   4.262
  528SOL    HW1 2483   6.908   3.422   4.336
  528SOL    HW2 2484   6.774   3.346   4.282
  529SOL     OW 2485   1.757   0.553   6.434
  529SOL    HW1 2486   1.743   0.621   6.506
  529SOL    HW2 2487   1.771   0.600   6.347
  530SOL     OW 2488   4.308   3.768   0.727
  530SOL    HW1 2489   4.357   3.853   0.706
  530SOL    HW2 2490   4.366   3.709   0.783
  531SOL     OW 2491   1.363   0.558   1.289
  531SOL    HW1 2492   1.332   0.464   1.274
  531SOL    HW2 2493   1.447   0.573   1.236
  532SOL     OW 2494   2.353   2.226   0.565
  532SOL    HW1 2495   2.427   2.292   0.555
  532SOL    HW2 2496   2.265   2.275   0.568
  533SOL     OW 2497   3.761   0.521   4.087
  533SOL    HW1 2498   3.818   0.544   4.008
  533SOL    HW2 2499   3.817   0.479   4.158
  534SOL     OW 2500   1.420   5.297   1.351
  534SOL    HW1 2501   1.426   5.226   1.421
  534SOL    HW2 2502   1.407   5.386   1.395
  535SOL     OW 2503   5.334   3.807   3.737
  535SOL    HW1 2504   5.289   3.755   3.809
  535SOL    HW2 2505   5.281   3.890   3.718
  536SOL     OW 2506   6.761   6.470   2.446
  536SOL    HW1 2507   6.813   6.423   2.517
  536SOL    HW2 2508   6.688   6.410   2.412
  537SOL     OW 2509   3.329   1.346   4.515
  537SOL    HW1 2510   3.422   1.367   4.486
  537SOL    HW2 2511   3.278   1.310   4.437
  538SOL     OW 2512   2.842   4.614   5.581
  538SOL    HW1 2513   2.853   4.712   5.591
  538SOL    HW2 2514   2.850   4.589   5.484
  539SOL     OW 2515   1.034   0.092   0.052
  539SOL    HW1 2516   0.966   0.146   0.001
  539SOL    HW2 2517   1.035   0.122   0.147
  540SOL     OW 2518   0.482   0.401   4.427
  540SOL    HW1 2519   0.543   0.344   4.372
  540SOL    HW2 2520   0.391   0.359   4.431
  541SOL     OW 2521   4.665   5.831   4.277
  541SOL    HW1 2522   4.638   5.835   4.373
  541SOL    HW2 2523   4.758   5.795   4.270
  542SOL     OW 2524   3.303   0.472   6.444
  542SOL    HW1 2525   3.366   0.405   6.485
  542SOL    HW2 2526   3.294   0.452   6.346
  543SOL     OW 2527   5.830   2.080   4.225
  543SOL    HW1 2528   5.759   2.134   4.179
  543SOL    HW2 2529   5.911   2.137   4.239
  544SOL     OW 2530   1.093   4.142   1.270
  544SOL    HW1 2531   1.128   4.210   1.206
  544SOL    HW2 2532   1.118   4.168   1.363
  545SOL     OW 2533   6.068   1.700   1.128
  545SOL    HW1 2534   5.994   1.672   1.189
  545SOL    HW2 2535   6.107   1.620   1.084
  546SOL     OW 2536   0.719   3.983   2.384
  546SOL    HW1 2537   0.724   3.987   2.284
  546SOL    HW2 2538   0.665   3.903   2.412
  547SOL     OW 2539   3.878   1.047   6.150
  547SOL    HW1 2540   3.813   1.103   6.203
  547SOL    HW2 2541   3.850   1.046   6.054
  548SOL     OW 2542   3.256   3.061   0.102
  548SOL    HW1 2543   3.218   3.125   0.035
  548SOL    HW2 2544   3.344   3.027   0.071
  549SOL     OW 2545   6.246   1.989   1.364
  549SOL    HW1 2546   6.212   2.052   1.294
  549SOL    HW2 2547   6.284   1.908   1.320
  550SOL     OW 2548   0.213   5.510   3.344
  550SOL    HW1 2549   0.227   5.609   3.353
  550SOL    HW2 2550   0.120   5.491   3.315
  551SOL     OW 2551   6.355   1.052   0.503
  551SOL    HW1 2552   6.349   0.953   0.514
  551SOL    HW2 2553   6.323   1.096   0.588
  552SOL     OW 2554   5.806   5.178   5.571
  552SOL    HW1 2555   5.788   5.231   5.489
  552SOL    HW2 2556   5.877   5.224   5.625
  553SOL     OW 2557   3.249   0.610   5.602
  553SOL    HW1 2558   3.257   0.709   5.613
  553SOL    HW2 2559   3.180   0.575   5.665
  554SOL     OW 2560   5.839   6.092   0.916
  554SOL    HW1 2561   5.754   6.124   0.874
  554SOL    HW2 2562   5.916   6.146   0.883
  555SOL     OW 2563   1.923   4.453   5.945
  555SOL    HW1 2564   1.857   4.437   5.872
  555SOL    HW2 2565   1.968   4.366   5.968
  556SOL     OW 2566   5.207   1.008   3.696
  556SOL    HW1 2567   5.239   1.101   3.677
  556SOL    HW2 2568   5.276   0.960   3.750
  557SOL     OW 2569   6.620   4.686   6.686
  557SOL    HW1 2570   6.620   4.671   6.587
  557SOL    HW2 2571   6.667   4.611   6.732
  558SOL     OW 2572   3.201   3.713   2.406
  558SOL    HW1 2573   3.260   3.665   2.471
  558SOL    HW2 2574   3.124   3.754   2.454
  559SOL     OW 2575   6.290   6.618   5.851
  559SOL    HW1 2576   6.357   6.563   5.801
  559SOL    HW2 2577   6.304   6.715   5.829
  560SOL     OW 2578   6.286   3.144   2.683
  560SOL    HW1 2579   6.306   3.103   2.595
  560SOL    HW2 2580   6.334   3.094   2.755
  561SOL     OW 2581   0.981   3.003   6.565
  561SOL    HW1 2582   0.918   3.051   6.504
  561SOL    HW2 2583   1.072   3.044   6.558
  562SOL     OW 2584   4.155   0.543   5.580
  562SOL    HW1 2585   4.136   0.479   5.655
  562SOL    HW2 2586   4.169   0.492   5.496
  563SOL     OW 2587   1.826   1.490   4.591
  563SOL    HW1 2588   1.879   1.428   4.650
  563SOL    HW2 2589   1.858   1.480   4.496
  564SOL     OW 2590   0.029   2.200   5.047
  564SOL    HW1 2591   6.966   2.240   5.089
  564SOL    HW2 2592   0.090   2.167   5.119
  565SOL     OW 2593   3.831   3.272   3.762
  565SOL    HW1 2594   3.852   3.314   3.674
  565SOL    HW2 2595   3.835   3.173   3.753
  566SOL     OW 2596   3.011   6.537   2.952
  566SOL    HW1 2597   3.010   6.475   2.873
  566SOL    HW2 2598   2.930   6.520   3.008
  567SOL     OW 2599   2.180   2.895   6.547
  567SOL    HW1 2600   2.261   2.952   6.563
  567SOL    HW2 2601   2.153   2.850   6.632
  568SOL     OW 2602   6.947   6.681   0.402
  568SOL    HW1 2603   6.942   6.761   0.461
  568SOL    HW2 2604   0.006   6.625   0.428
  569SOL     OW 2605   6.853   1.930   0.416
  569SOL    HW1 2606   6.907   1.898   0.494
  569SOL    HW2 2607   6.894   2.014   0.380
  570SOL     OW 2608   2.597   0.323   5.839
  570SOL    HW1 2609   2.689   0.316   5.801
  570SOL    HW2 2610   2.535   0.358   5.769
  571SOL     OW 2611   2.653   5.039   2.165
  571SOL    HW1 2612   2.637   4.946   2.130
  571SOL    HW2 2613   2.742   5.071   2.134
  572SOL     OW 2614   2.293   6.671   4.089
  572SOL    HW1 2615   2.299   6.738   4.163
  572SOL    HW2 2616   2.381   6.664   4.042
  573SOL     OW 2617   6.917   1.261   5.671
  573SOL    HW1 2618   6.839   1.199   5.661
  573SOL    HW2 2619   6.993   1.211   5.712
  574SOL     OW 2620   2.564   1.960   6.047
  574SOL    HW1 2621   2.573   1.925   5.953
  574SOL    HW2 2622   2.654   1.981   6.084
  575SOL     OW 2623   3.012   3.877   0.982
  575SOL    HW1 2624   3.052   3.794   0.944
  575SOL    HW2 2625   3.069   3.911   1.057
  576SOL     OW 2626   2.042   3.118   3.409
  576SOL    HW1 2627   1.961   3.062   3.394
  576SOL    HW2 2628   2.044   3.193   3.343
  577SOL     OW 2629   0.971   1.526   2.149
  577SOL    HW1 2630   0.918   1.498   2.069
  577SOL    HW2 2631   0.915   1.587   2.206
  578SOL     OW 2632   1.999   5.721   6.507
  578SOL    HW1 2633   1.997   5.802   6.448
  578SOL    HW2 2634   2.048   5.743   6.591
  579SOL     OW 2635   2.309   4.714   1.848
  579SOL    HW1 2636   2.306   4.763   1.760
  579SOL    HW2 2637   2.397   4.669   1.857
  580SOL     OW 2638   4.270   5.237   5.175
  580SOL    HW1 2639   4.328   5.168   5.130
  580SOL    HW2 2640   4.285   5.326   5.132
  581SOL     OW 2641   1.658   2.743   4.266
  581SOL    HW1 2642   1.607   2.699   4.191
  581SOL    HW2 2643   1.712   2.675   4.314
  582SOL     OW 2644   5.556   5.186   3.290
  582SOL    HW1 2645   5.504   5.138   3.360
  582SOL    HW2 2646   5.605   5.263   3.331
  583SOL     OW 2647   3.472   5.213   5.824
  583SOL    HW1 2648   3.550   5.153   5.806
  583SOL    HW2 2649   3.410   5.170   5.890
  584SOL     OW 2650   4.494   0.877   6.870
  584SOL    HW1 2651   4.458   0.924   6.789
  584SOL    HW2 2652   4.557   0.936   6.919
  585SOL     OW 2653   2.369   6.919   1.106
  585SOL    HW1 2654   2.345   6.863   1.185
  585SOL    HW2 2655   2.463   6.952   1.116
  586SOL     OW 2656   4.683   6.879   0.907
  586SOL    HW1 2657   4.767   6.827   0.895
  586SOL    HW2 2658   4.681   6.917   1.000
  587SOL     OW 2659   5.181   2.107   2.275
  587SOL    HW1 2660   5.225   2.078   2.359
  587SOL    HW2 2661   5.213   2.199   2.250
  588SOL     OW 2662   0.858   5.575   1.932
  588SOL    HW1 2663   0.937   5.634   1.917
  588SOL    HW2 2664   0.888   5.481   1.942
  589SOL     OW 2665   3.846   6.084   1.549
  589SOL    HW1 2666   3.786   6.153   1.588
  589SOL    HW2 2667   3.790   6.011   1.508
  590SOL     OW 2668   4.727   1.496   0.292
  590SOL    HW1 2669   4.792   1.436   0.339
  590SOL    HW2 2670   4.764   1.588   0.287
  591SOL     OW 2671   4.113   6.109   4.737
  591SOL    HW1 2672   4.023   6.098   4.696
  591SOL    HW2 2673   4.144   6.203   4.726
  592SOL     OW 2674   4.327   2.423   4.193
  592SOL    HW1 2675   4.231   2.439   4.170
  592SOL    HW2 2676   4.373   2.511   4.204
  593SOL     OW 2677   3.463   1.557   5.523
  593SOL    HW1 2678   3.516   1.512   5.595
  593SOL    HW2 2679   3.411   1.488   5.473
  594SOL     OW 2680   6.011   0.952   1.796
  594SOL    HW1 2681   6.047   0.867   1.758
  594SOL    HW2 2682   6.077   1.026   1.781
  595SOL     OW 2683   5.304   6.099   2.858
  595SOL    HW1 2684   5.315   6.025   2.791
  595SOL    HW2 2685   5.338   6.184   2.819
  596SOL     OW 2686   6.684   4.055   3.868
  596SOL    HW1 2687   6.753   4.020   3.805
  596SOL    HW2 2688   6.728   4.106   3.942
  597SOL     OW 2689   2.929   0.469   6.627
  597SOL    HW1 2690   2.992   0.513   6.563
  597SOL    HW2 2691   2.974   0.457   6.716
  598SOL     OW 2692   3.329   2.981   4.414
  598SOL    HW1 2693   3.266   2.994   4.490
  598SOL    HW2 2694   3.278   2.965   4.329
  599SOL     OW 2695   1.226   5.764   2.003
  599SOL    HW1 2696   1.289   5.720   1.939
  599SOL    HW2 2697   1.176   5.837   1.956
  600SOL     OW 2698   6.924   4.059   4.882
  600SOL    HW1 2699   6.995   3.994   4.854
  600SOL    HW2 2700   6.835   4.015   4.875
  601SOL     OW 2701   1.381   0.569   5.023
  601SOL    HW1 2702   1.393   0.668   5.033
  601SOL    HW2 2703   1.416   0.522   5.103
  602SOL     OW 2704   2.810   6.024   4.107
  602SOL    HW1 2705   2.832   5.947   4.046
  602SOL    HW2 2706   2.724   6.005   4.154
  603SOL     OW 2707   1.909   1.213   5.372
  603SOL    HW1 2708   1.827   1.270   5.371
  603SOL    HW2 2709   1.904   1.147   5.447
  604SOL     OW 2710   6.553   2.535   1.663
  604SOL    HW1 2711   6.462   2.529   1.705
  604SOL    HW2 2712   6.610   2.460   1.696
  605SOL     OW 2713   6.969   5.171   2.539
  605SOL    HW1 2714   6.880   5.127   2.548
  605SOL    HW2 2715   6.975   5.217   2.451
  606SOL     OW 2716   3.819   0.253   4.805
  606SOL    HW1 2717   3.814   0.183   4.876
  606SOL    HW2 2718   3.754   0.326   4.825
  607SOL     OW 2719   1.230   4.680   6.267
  607SOL    HW1 2720   1.222   4.778   6.249
  607SOL    HW2 2721   1.140   4.636   6.258
  608SOL     OW 2722   3.229   0.630   5.320
  608SOL    HW1 2723   3.221   0.601   5.416
  608SOL    HW2 2724   3.222   0.550   5.261
  609SOL     OW 2725   3.862   2.627   1.666
  609SOL    HW1 2726   3.897   2.713   1.628
  609SOL    HW2 2727   3.918   2.551   1.633
  610SOL     OW 2728   4.793   3.354   0.814
  610SOL    HW1 2729   4.741   3.285   0.865
  610SOL    HW2 2730   4.865   3.308   0.761
  611SOL     OW 2731   3.955   0.264   2.383
  611SOL    HW1 2732   4.047   0.277   2.419
  611SOL    HW2 2733   3.942   0.167   2.359
  612SOL     OW 2734   4.040   4.464   6.051
  612SOL    HW1 2735   3.978   4.391   6.020
  612SOL    HW2 2736   4.010   4.551   6.012
  613SOL     OW 2737   4.281   5.549   5.329
  613SOL    HW1 2738   4.188   5.525   5.356
  613SOL    HW2 2739   4.284   5.563   5.230
  614SOL     OW 2740   5.083   5.696   6.107
  614SOL    HW1 2741   5.051   5.614   6.058
  614SOL    HW2 2742   5.102   5.769   6.041
  615SOL     OW 2743   0.355   4.928   1.282
  615SOL    HW1 2744   0.339   4.972   1.193
  615SOL    HW2 2745   0.287   4.856   1.296
  616SOL     OW 2746   5.711   3.178   3.311
  616SOL    HW1 2747   5.691   3.135   3.223
  616SOL    HW2 2748   5.642   3.247   3.330
  617SOL     OW 2749   2.106   4.700   6.285
  617SOL    HW1 2750   2.033   4.668   6.225
  617SOL    HW2 2751   2.095   4.798   6.302
  618SOL     OW 2752   1.505   1.250   2.192
  618SOL    HW1 2753   1.448   1.293   2.261
  618SOL    HW2 2754   1.455   1.175   2.149
  619SOL     OW 2755   1.093   1.623   6.382
  619SOL    HW1 2756   1.061   1.543   6.433
  619SOL    HW2 2757   1.185   1.606   6.348
  620SOL     OW 2758   5.121   3.489   0.279
  620SOL    HW1 2759   5.216   3.522   0.282
  620SOL    HW2 2760   5.076   3.510   0.366
  621SOL     OW 2761   0.440   4.598   1.279
  621SOL    HW1 2762   0.370   4.612   1.349
  621SOL    HW2 2763   0.531   4.600   1.321
  622SOL     OW 2764   2.074   1.581   0.338
  622SOL    HW1 2765   2.139   1.576   0.414
  622SOL    HW2 2766   1.990   1.532   0.364
  623SOL     OW 2767   0.443   4.815   6.375
  623SOL    HW1 2768   0.412   4.911   6.375
  623SOL    HW2 2769   0.518   4.804   6.439
  624SOL     OW 2770   0.867   2.648   2.853
  624SOL    HW1 2771   0.821   2.658   2.941
  624SOL    HW2 2772   0.885   2.738   2.814
  625SOL     OW 2773   2.620   1.571   2.395
  625SOL    HW1 2774   2.538   1.576   2.338
  625SOL    HW2 2775   2.688   1.635   2.360
  626SOL     OW 2776   2.562   6.339   4.521
  626SOL    HW1 2777   2.595   6.422   4.566
  626SOL    HW2 2778   2.462   6.340   4.516
  627SOL     OW 2779   5.218   0.580   0.346
  627SOL    HW1 2780   5.289   0.600   0.279
  627SOL    HW2 2781   5.207   0.659   0.407
  628SOL     OW 2782   4.961   4.231   3.938
  628SOL    HW1 2783   4.916   4.218   4.026
  628SOL    HW2 2784   4.931   4.318   3.897
  629SOL     OW 2785   0.811   0.010   1.047
  629SOL    HW1 2786   0.875   6.952   1.046
  629SOL    HW2 2787   0.749   0.001   1.125
  630SOL     OW 2788   4.437   1.632   1.080
  630SOL    HW1 2789   4.371   1.704   1.103
  630SOL    HW2 2790   4.504   1.669   1.016
  631SOL     OW 2791   2.233   6.959   5.546
  631SOL    HW1 2792   2.228   0.021   5.487
  631SOL    HW2 2793   2.291   6.979   5.624
  632SOL     OW 2794   2.352   1.263   1.236
  632SOL    HW1 2795   2.258   1.264   1.203
  632SOL    HW2 2796   2.408   1.207   1.175
  633SOL     OW 2797   2.936   0.063   6.177
  633SOL    HW1 2798   2.971   0.135   6.237
  633SOL    HW2 2799   2.944   0.093   6.082
  634SOL     OW 2800   3.723   5.651   0.910
  634SOL    HW1 2801   3.723   5.742   0.952
  634SOL    HW2 2802   3.776   5.654   0.825
  635SOL     OW 2803   2.947   6.927   2.817
  635SOL    HW1 2804   2.967   7.018   2.781
  635SOL    HW2 2805   2.951   6.929   2.917
  636SOL     OW 2806   5.027   4.911   6.865
  636SOL    HW1 2807   5.123   4.890   6.846
  636SOL    HW2 2808   4.971   4.883   6.787
  637SOL     OW 2809   4.796   4.474   1.447
  637SOL    HW1 2810   4.834   4.382   1.458
  637SOL    HW2 2811   4.712   4.469   1.393
  638SOL     OW 2812   4.953   1.427   1.931
  638SOL    HW1 2813   4.865   1.380   1.930
  638SOL    HW2 2814   4.968   1.469   2.020
  639SOL     OW 2815   4.092   4.796   2.399
  639SOL    HW1 2816   4.151   4.751   2.332
  639SOL    HW2 2817   4.018   4.844   2.352
  640SOL     OW 2818   3.317   4.229   5.341
  640SOL    HW1 2819   3.332   4.161   5.413
  640SOL    HW2 2820   3.381   4.305   5.352
  641SOL     OW 2821   0.062   6.091   5.028
  641SOL    HW1 2822   0.149   6.085   4.979
  641SOL    HW2 2823   0.079   6.082   5.126
  642SOL     OW 2824   0.227   5.045   4.947
  642SOL    HW1 2825   0.284   5.126   4.948
  642SOL    HW2 2826   0.199   5.023   5.041
  643SOL     OW 2827   6.139   5.237   6.117
  643SOL    HW1 2828   6.150   5.140   6.140
  643SOL    HW2 2829   6.143   5.248   6.018
  644SOL     OW 2830   0.618   6.937   2.616
  644SOL    HW1 2831   0.613   6.869   2.689
  644SOL    HW2 2832   0.701   6.991   2.626
  645SOL     OW 2833   5.947   2.738   3.759
  645SOL    HW1 2834   5.957   2.651   3.807
  645SOL    HW2 2835   6.001   2.736   3.675
  646SOL     OW 2836   1.389   1.328   4.865
  646SOL    HW1 2837   1.318   1.259   4.880
  646SOL    HW2 2838   1.479   1.286   4.875
  647SOL     OW 2839   6.014   3.114   0.447
  647SOL    HW1 2840   6.108   3.085   0.429
  647SOL    HW2 2841   5.965   3.123   0.360
  648SOL     OW 2842   5.976   4.069   2.022
  648SOL    HW1 2843   5.933   4.003   2.082
  648SOL    HW2 2844   6.076   4.060   2.029
  649SOL     OW 2845   3.885   4.668   0.857
  649SOL    HW1 2846   3.818   4.727   0.901
  649SOL    HW2 2847   3.919   4.601   0.923
  650SOL     OW 2848   4.900   4.368   0.622
  650SOL    HW1 2849   4.914   4.377   0.523
  650SOL    HW2 2850   4.918   4.274   0.650
  651SOL     OW 2851   0.971   5.990   0.431
  651SOL    HW1 2852   0.919   6.075   0.421
  651SOL    HW2 2853   1.059   6.009   0.474
  652SOL     OW 2854   4.409   0.990   2.377
  652SOL    HW1 2855   4.340   0.929   2.417
  652SOL    HW2 2856   4.468   0.938   2.316
  653SOL     OW 2857   3.690   4.989   4.030
  653SOL    HW1 2858   3.620   4.982   4.101
  653SOL    HW2 2859   3.778   4.957   4.065
  654SOL     OW 2860   0.036   5.043   6.833
  654SOL    HW1 2861   6.976   4.982   6.837
  654SOL    HW2 2862   0.006   5.137   6.845
  655SOL     OW 2863   0.915   0.616   0.887
  655SOL    HW1 2864   0.996   0.671   0.867
  655SOL    HW2 2865   0.943   0.523   0.909
  656SOL     OW 2866   2.369   6.585   1.964
  656SOL    HW1 2867   2.461   6.555   1.941
  656SOL    HW2 2868   2.371   6.642   2.046
  657SOL     OW 2869   3.421   1.357   0.662
  657SOL    HW1 2870   3.397   1.326   0.570
  657SOL    HW2 2871   3.510   1.402   0.659
  658SOL     OW 2872   3.045   3.737   6.634
  658SOL    HW1 2873   3.051   3.792   6.717
  658SOL    HW2 2874   3.018   3.644   6.658
  659SOL     OW 2875   3.101   6.741   6.976
  659SOL    HW1 2876   3.046   6.816   6.939
  659SOL    HW2 2877   3.105   6.749   0.057
  660SOL     OW 2878   3.594   5.456   2.776
  660SOL    HW1 2879   3.655   5.377   2.767
  660SOL    HW2 2880   3.598   5.512   2.694
  661SOL     OW 2881   4.619   5.419   2.731
  661SOL    HW1 2882   4.655   5.375   2.648
  661SOL    HW2 2883   4.555   5.492   2.705
  662SOL     OW 2884   3.470   1.456   6.185
  662SOL    HW1 2885   3.414   1.530   6.220
  662SOL    HW2 2886   3.442   1.433   6.092
  663SOL     OW 2887   2.197   4.908   5.408
  663SOL    HW1 2888   2.150   4.977   5.463
  663SOL    HW2 2889   2.282   4.881   5.452
  664SOL     OW 2890   6.740   0.785   6.810
  664SOL    HW1 2891   6.690   0.789   6.723
  664SOL    HW2 2892   6.683   0.742   6.879
  665SOL     OW 2893   2.250   5.439   3.193
  665SOL    HW1 2894   2.172   5.465   3.136
  665SOL    HW2 2895   2.266   5.340   3.183
  666SOL     OW 2896   3.515   1.013   1.746
  666SOL    HW1 2897   3.573   0.931   1.751
  666SOL    HW2 2898   3.560   1.088   1.794
  667SOL     OW 2899   1.207   6.153   2.151
  667SOL    HW1 2900   1.282   6.088   2.162
  667SOL    HW2 2901   1.146   6.122   2.079
  668SOL     OW 2902   5.564   3.958   6.352
  668SOL    HW1 2903   5.617   3.970   6.268
  668SOL    HW2 2904   5.494   3.887   6.337
  669SOL     OW 2905   5.019   1.150   2.809
  669SOL    HW1 2906   4.962   1.205   2.749
  669SOL    HW2 2907   5.071   1.209   2.870
  670SOL     OW 2908   1.588   2.130   3.630
  670SOL    HW1 2909   1.528   2.136   3.710
  670SOL    HW2 2910   1.592   2.219   3.584
  671SOL     OW 2911   2.406   6.492   1.296
  671SOL    HW1 2912   2.457   6.421   1.344
  671SOL    HW2 2913   2.469   6.552   1.246
  672SOL     OW 2914   0.718   6.989   2.357
  672SOL    HW1 2915   0.678   6.931   2.428
  672SOL    HW2 2916   0.704   6.945   2.268
  673SOL     OW 2917   5.322   6.855   0.852
  673SOL    HW1 2918   5.270   6.906   0.920
  673SOL    HW2 2919   5.379   6.917   0.799
  674SOL     OW 2920   6.955   0.536   5.102
  674SOL    HW1 2921   7.006   0.528   5.188
  674SOL    HW2 2922   6.956   0.447   5.055
  675SOL     OW 2923   6.451   2.893   2.609
  675SOL    HW1 2924   6.450   2.884   2.708
  675SOL    HW2 2925   6.381   2.834   2.569
  676SOL     OW 2926   2.157   4.900   5.749
  676SOL    HW1 2927   2.185   4.970   5.814
  676SOL    HW2 2928   2.234   4.840   5.728
  677SOL     OW 2929   4.699   0.960   1.146
  677SOL    HW1 2930   4.684   1.038   1.086
  677SOL    HW2 2931   4.741   0.886   1.095
  678SOL     OW 2932   2.364   4.373   5.491
  678SOL    HW1 2933   2.419   4.333   5.417
  678SOL    HW2 2934   2.290   4.311   5.515
  679SOL     OW 2935   4.740   1.935   4.861
  679SOL    HW1 2936   4.657   1.931   4.806
  679SOL    HW2 2937   4.747   1.853   4.918
  680SOL     OW 2938   5.232   6.766   4.199
  680SOL    HW1 2939   5.314   6.815   4.168
  680SOL    HW2 2940   5.258   6.691   4.259
  681SOL     OW 2941   4.882   5.461   1.789
  681SOL    HW1 2942   4.912   5.469   1.884
  681SOL    HW2 2943   4.915   5.539   1.737
  682SOL     OW 2944   0.983   0.680   3.001
  682SOL    HW1 2945   0.981   0.602   3.063
  682SOL    HW2 2946   1.029   0.654   2.916
  683SOL     OW 2947   4.167   3.744   1.276
  683SOL    HW1 2948   4.158   3.764   1.373
  683SOL    HW2 2949   4.163   3.645   1.261
  684SOL     OW 2950   6.542   0.168   5.838
  684SOL    HW1 2951   6.465   0.228   5.860
  684SOL    HW2 2952   6.597   0.152   5.919
  685SOL     OW 2953   3.757   0.350   3.157
  685SOL    HW1 2954   3.845   0.379   3.194
  685SOL    HW2 2955   3.708   0.296   3.225
  686SOL     OW 2956   3.937   1.383   4.474
  686SOL    HW1 2957   3.976   1.348   4.389
  686SOL    HW2 2958   3.866   1.321   4.507
  687SOL     OW 2959   1.413   1.987   4.325
  687SOL    HW1 2960   1.451   2.024   4.410
  687SOL    HW2 2961   1.482   1.930   4.281
  688SOL     OW 2962   6.769   1.539   6.933
  688SOL    HW1 2963   6.830   1.506   7.005
  688SOL    HW2 2964   6.710   1.612   6.970
  689SOL     OW 2965   1.662   5.092   5.729
  689SOL    HW1 2966   1.597   5.068   5.657
  689SOL    HW2 2967   1.650   5.029   5.806
  690SOL     OW 2968   6.102   3.597   2.407
  690SOL    HW1 2969   6.174   3.528   2.415
  690SOL    HW2 2970   6.014   3.553   2.393
  691SOL     OW 2971   4.187   1.914   6.702
  691SOL    HW1 2972   4.270   1.874   6.742
  691SOL    HW2 2973   4.109   1.855   6.721
  692SOL     OW 2974   2.944   1.494   4.837
  692SOL    HW1 2975   2.982   1.557   4.906
  692SOL    HW2 2976   2.997   1.410   4.836
  693SOL     OW 2977   5.207   6.144   3.572
  693SOL    HW1 2978   5.287   6.138   3.512
  693SOL    HW2 2979   5.214   6.227   3.627
  694SOL     OW 2980   4.396   5.656   4.822
  694SOL    HW1 2981   4.381   5.749   4.854
  694SOL    HW2 2982   4.320   5.628   4.762
  695SOL     OW 2983   3.190   6.762   4.077
  695SOL    HW1 2984   3.212   6.696   4.149
  695SOL    HW2 2985   3.113   6.819   4.105
  696SOL     OW 2986   5.210   4.089   2.940
  696SOL    HW1 2987   5.253   4.153   3.005
  696SOL    HW2 2988   5.221   4.124   2.847
  697SOL     OW 2989   0.513   5.096   2.426
  697SOL    HW1 2990   0.591   5.066   2.481
  697SOL    HW2 2991   0.470   5.018   2.382
  698SOL     OW 2992   5.421   6.943   1.215
  698SOL    HW1 2993   5.410   6.844   1.226
  698SOL    HW2 2994   5.344   6.980   1.163
  699SOL     OW 2995   2.921   2.230   0.688
  699SOL    HW1 2996   2.829   2.253   0.657
  699SOL    HW2 2997   2.964   2.168   0.622
  700SOL     OW 2998   3.772   0.046   2.803
  700SOL    HW1 2999   3.748   0.121   2.740
  700SOL    HW2 3000   3.727   0.061   2.891
  701SOL     OW 3001   6.067   5.024   1.351
  701SOL    HW1 3002   6.046   4.930   1.324
  701SOL    HW2 3003   5.992   5.061   1.405
  702SOL     OW 3004   2.899   1.065   4.232
  702SOL    HW1 3005   2.822   1.125   4.209
  702SOL    HW2 3006   2.894   1.039   4.328
  703SOL     OW 3007   3.134   2.620   6.207
  703SOL    HW1 3008   3.119   2.704   6.155
  703SOL    HW2 3009   3.083   2.545   6.166
  704SOL     OW 3010   1.712   3.088   6.073
  704SOL    HW1 3011   1.806   3.060   6.094
  704SOL    HW2 3012   1.648   3.020   6.110
  705SOL     OW 3013   6.866   6.063   4.368
  705SOL    HW1 3014   6.769   6.084   4.364
  705SOL    HW2 3015   6.879   5.970   4.404
  706SOL     OW 3016   4.662   1.304   5.149
  706SOL    HW1 3017   4.759   1.286   5.133
  706SOL    HW2 3018   4.607   1.241   5.094
  707SOL     OW 3019   3.449   4.987   3.406
  707SOL    HW1 3020   3.507   4.929   3.348
  707SOL    HW2 3021   3.502   5.018   3.485
  708SOL     OW 3022   3.315   1.126   3.592
  708SOL    HW1 3023   3.294   1.209   3.541
  708SOL    HW2 3024   3.332   1.051   3.528
  709SOL     OW 3025   2.268   0.158   1.536
  709SOL    HW1 3026   2.170   0.139   1.534
  709SOL    HW2 3027   2.300   0.158   1.631
  710SOL     OW 3028   4.525   2.843   1.695
  710SOL    HW1 3029   4.545   2.920   1.756
  710SOL    HW2 3030   4.596   2.837   1.625
  711SOL     OW 3031   0.320   2.250   5.916
  711SOL    HW1 3032   0.278   2.163   5.942
  711SOL    HW2 3033   0.286   2.279   5.827
  712SOL     OW 3034   4.851   2.987   0.844
  712SOL    HW1 3035   4.923   3.049   0.814
  712SOL    HW2 3036   4.862   2.899   0.797
  713SOL     OW 3037   4.122   2.642   5.333
  713SOL    HW1 3038   4.178   2.623   5.252
  713SOL    HW2 3039   4.083   2.557   5.367
  714SOL     OW 3040   5.637   4.709   3.559
  714SOL    HW1 3041   5.629   4.799   3.517
  714SOL    HW2 3042   5.732   4.678   3.556
  715SOL     OW 3043   6.487   5.265   5.881
  715SOL    HW1 3044   6.405   5.319   5.900
  715SOL    HW2 3045   6.567   5.314   5.913
  716SOL     OW 3046   1.978   1.118   2.502
  716SOL    HW1 3047   1.911   1.064   2.452
  716SOL    HW2 3048   1.997   1.074   2.590
  717SOL     OW 3049   5.663   4.835   3.926
  717SOL    HW1 3050   5.617   4.753   3.892
  717SOL    HW2 3051   5.756   4.838   3.889
  718SOL     OW 3052   4.849   1.810   4.217
  718SOL    HW1 3053   4.862   1.898   4.264
  718SOL    HW2 3054   4.842   1.826   4.119
  719SOL     OW 3055   5.990   0.591   2.651
  719SOL    HW1 3056   5.965   0.574   2.746
  719SOL    HW2 3057   5.917   0.642   2.606
  720SOL     OW 3058   1.785   1.117   0.294
  720SOL    HW1 3059   1.754   1.141   0.386
  720SOL    HW2 3060   1.782   1.018   0.282
  721SOL     OW 3061   6.900   2.377   2.916
  721SOL    HW1 3062   6.938   2.369   2.824
  721SOL    HW2 3063   6.974   2.386   2.983
  722SOL     OW 3064   4.204   7.010   6.696
  722SOL    HW1 3065   4.267   0.043   6.754
  722SOL    HW2 3066   4.110   0.006   6.727
  723SOL     OW 3067   2.376   5.974   3.976
  723SOL    HW1 3068   2.454   5.914   3.993
  723SOL    HW2 3069   2.325   5.940   3.896
  724SOL     OW 3070   0.894   1.004   3.961
  724SOL    HW1 3071   0.846   0.953   3.890
  724SOL    HW2 3072   0.922   0.942   4.034
  725SOL     OW 3073   1.869   4.389   2.003
  725SOL    HW1 3074   1.826   4.361   1.918
  725SOL    HW2 3075   1.917   4.311   2.044
  726SOL     OW 3076   1.921   5.147   0.641
  726SOL    HW1 3077   1.853   5.161   0.712
  726SOL    HW2 3078   2.004   5.110   0.681
  727SOL     OW 3079   4.747   5.006   5.774
  727SOL    HW1 3080   4.725   4.909   5.765
  727SOL    HW2 3081   4.683   5.060   5.718
  728SOL     OW 3082   0.062   3.199   4.965
  728SOL    HW1 3083   0.085   3.143   5.045
  728SOL    HW2 3084   0.127   3.181   4.892
  729SOL     OW 3085   0.341   3.518   1.505
  729SOL    HW1 3086   0.344   3.567   1.418
  729SOL    HW2 3087   0.420   3.545   1.561
  730SOL     OW 3088   4.812   0.680   2.608
  730SOL    HW1 3089   4.834   0.680   2.510
  730SOL    HW2 3090   4.813   0.774   2.642
  731SOL     OW 3091   4.225   4.584   6.806
  731SOL    HW1 3092   4.259   4.670   6.844
  731SOL    HW2 3093   4.228   4.589   6.706
  732SOL     OW 3094   4.646   1.640   2.963
  732SOL    HW1 3095   4.603   1.685   3.041
  732SOL    HW2 3096   4.730   1.595   2.993
  733SOL     OW 3097   6.594   6.470   3.322
  733SOL    HW1 3098   6.645   6.480   3.408
  733SOL    HW2 3099   6.554   6.378   3.318
  734SOL     OW 3100   5.931   5.655   2.822
  734SOL    HW1 3101   5.853   5.594   2.839
  734SOL    HW2 3102   5.943   5.667   2.724
  735SOL     OW 3103   5.128   0.817   2.078
  735SOL    HW1 3104   5.101   0.907   2.043
  735SOL    HW2 3105   5.226   0.816   2.094
  736SOL     OW 3106   1.364   1.661   4.137
  736SOL    HW1 3107   1.298   1.628   4.069
  736SOL    HW2 3108   1.427   1.726   4.094
  737SOL     OW 3109   5.144   1.468   6.202
  737SOL    HW1 3110   5.049   1.477   6.232
  737SOL    HW2 3111   5.147   1.423   6.113
  738SOL     OW 3112   2.746   4.211   1.454
  738SOL    HW1 3113   2.698   4.157   1.385
  738SOL    HW2 3114   2.713   4.185   1.545
  739SOL     OW 3115   3.114   6.793   4.792
  739SOL    HW1 3116   3.026   6.747   4.800
  739SOL    HW2 3117   3.171   6.745   4.725
  740SOL     OW 3118   5.947   2.308   3.181
  740SOL    HW1 3119   5.881   2.334   3.111
  740SOL    HW2 3120   5.898   2.276   3.263
  741SOL     OW 3121   2.943   0.648   3.426
  741SOL    HW1 3122   3.027   0.700   3.411
  741SOL    HW2 3123   2.926   0.638   3.524
  742SOL     OW 3124   1.599   0.153   1.262
  742SOL    HW1 3125   1.697   0.145   1.279
  742SOL    HW2 3126   1.582   0.231   1.202
  743SOL     OW 3127   0.943   6.155   3.611
  743SOL    HW1 3128   0.865   6.099   3.582
  743SOL    HW2 3129   0.911   6.228   3.672
  744SOL     OW 3130   5.443   1.422   0.221
  744SOL    HW1 3131   5.417   1.355   0.151
  744SOL    HW2 3132   5.430   1.514   0.186
  745SOL     OW 3133   2.264   5.595   5.102
  745SOL    HW1 3134   2.273   5.588   5.002
  745SOL    HW2 3135   2.229   5.509   5.138
  746SOL     OW 3136   5.687   4.779   5.766
  746SOL    HW1 3137   5.671   4.682   5.783
  746SOL    HW2 3138   5.732   4.790   5.678
  747SOL     OW 3139   5.674   5.507   3.077
  747SOL    HW1 3140   5.751   5.567   3.096
  747SOL    HW2 3141   5.660   5.501   2.978
  748SOL     OW 3142   5.399   5.715   2.511
  748SOL    HW1 3143   5.315   5.716   2.456
  748SOL    HW2 3144   5.378   5.685   2.604
  749SOL     OW 3145   5.120   4.227   3.579
  749SOL    HW1 3146   5.160   4.215   3.489
  749SOL    HW2 3147   5.157   4.310   3.621
  750SOL     OW 3148   2.527   1.770   1.883
  750SOL    HW1 3149   2.580   1.685   1.878
  750SOL    HW2 3150   2.435   1.749   1.916
  751SOL     OW 3151   4.856   1.017   0.296
  751SOL    HW1 3152   4.866   0.920   0.274
  751SOL    HW2 3153   4.784   1.057   0.240
  752SOL     OW 3154   3.164   2.567   5.333
  752SOL    HW1 3155   3.080   2.613   5.362
  752SOL    HW2 3156   3.143   2.500   5.262
  753SOL     OW 3157   3.621   4.197   4.738
  753SOL    HW1 3158   3.565   4.114   4.742
  753SOL    HW2 3159   3.582   4.259   4.670
  754SOL     OW 3160   5.346   0.670   6.519
  754SOL    HW1 3161   5.253   0.703   6.503
  754SOL    HW2 3162   5.412   0.741   6.492
  755SOL     OW 3163   3.845   4.299   5.644
  755SOL    HW1 3164   3.749   4.316   5.624
  755SOL    HW2 3165   3.875   4.217   5.596
  756SOL     OW 3166   2.484   5.042   6.519
  756SOL    HW1 3167   2.551   5.002   6.456
  756SOL    HW2 3168   2.530   5.108   6.578
  757SOL     OW 3169   2.044   6.832   2.232
  757SOL    HW1 3170   2.019   6.927   2.215
  757SOL    HW2 3171   1.967   6.772   2.210
  758SOL     OW 3172   3.439   1.812   4.028
  758SOL    HW1 3173   3.479   1.902   4.044
  758SOL    HW2 3174   3.399   1.810   3.936
  759SOL     OW 3175   0.558   2.872   4.477
  759SOL    HW1 3176   0.556   2.789   4.421
  759SOL    HW2 3177   0.481   2.930   4.453
  760SOL     OW 3178   6.695   6.369   4.176
  760SOL    HW1 3179   6.732   6.320   4.097
  760SOL    HW2 3180   6.601   6.397   4.157
  761SOL     OW 3181   4.520   4.224   5.687
  761SOL    HW1 3182   4.561   4.147   5.735
  761SOL    HW2 3183   4.469   4.190   5.608
  762SOL     OW 3184   2.811   5.824   4.688
  762SOL    HW1 3185   2.737   5.811   4.753
  762SOL    HW2 3186   2.809   5.750   4.620
  763SOL     OW 3187   5.840   0.868   6.495
  763SOL    HW1 3188   5.878   0.868   6.402
  763SOL    HW2 3189   5.798   0.957   6.514
  764SOL     OW 3190   5.218   6.758   5.020
  764SOL    HW1 3191   5.160   6.745   5.101
  764SOL    HW2 3192   5.280   6.835   5.035
  765SOL     OW 3193   0.465   6.570   0.567
  765SOL    HW1 3194   0.417   6.519   0.639
  765SOL    HW2 3195   0.524   6.639   0.609
  766SOL     OW 3196   1.549   2.592   5.380
  766SOL    HW1 3197   1.591   2.582   5.290
  766SOL    HW2 3198   1.523   2.502   5.414
  767SOL     OW 3199   0.449   6.580   4.247
  767SOL    HW1 3200   0.500   6.663   4.272
  767SOL    HW2 3201   0.505   6.500   4.269
  768SOL     OW 3202   2.372   6.048   2.299
  768SOL    HW1 3203   2.340   5.978   2.363
  768SOL    HW2 3204   2.294   6.099   2.265
  769SOL     OW 3205   2.999   2.076   5.180
  769SOL    HW1 3206   2.984   2.126   5.265
  769SOL    HW2 3207   3.026   2.140   5.108
  770SOL     OW 3208   1.906   4.642   4.668
  770SOL    HW1 3209   1.856   4.728   4.677
  770SOL    HW2 3210   1.896   4.589   4.751
  771SOL     OW 3211   1.128   5.798   3.433
  771SOL    HW1 3212   1.124   5.699   3.430
  771SOL    HW2 3213   1.129   5.829   3.529
  772SOL     OW 3214   5.309   4.808   6.859
  772SOL    HW1 3215   5.251   4.760   6.925
  772SOL    HW2 3216   5.352   4.886   6.904
  773SOL     OW 3217   0.817   3.336   3.724
  773SOL    HW1 3218   0.837   3.428   3.758
  773SOL    HW2 3219   0.892   3.275   3.748
  774SOL     OW 3220   2.477   0.660   3.310
  774SOL    HW1 3221   2.402   0.720   3.337
  774SOL    HW2 3222   2.503   0.678   3.216
  775SOL     OW 3223   2.195   3.991   4.328
  775SOL    HW1 3224   2.262   3.930   4.372
  775SOL    HW2 3225   2.170   3.954   4.238
  776SOL     OW 3226   2.448   6.237   6.340
  776SOL    HW1 3227   2.489   6.276   6.258
  776SOL    HW2 3228   2.354   6.208   6.320
  777SOL     OW 3229   2.042   3.725   6.822
  777SOL    HW1 3230   2.004   3.814   6.796
  777SOL    HW2 3231   2.140   3.723   6.802
  778SOL     OW 3232   3.252   0.089   1.562
  778SOL    HW1 3233   3.186   0.107   1.635
  778SOL    HW2 3234   3.204   0.079   1.475
  779SOL     OW 3235   0.228   2.033   2.515
  779SOL    HW1 3236   0.197   2.125   2.490
  779SOL    HW2 3237   0.321   2.019   2.482
  780SOL     OW 3238   1.324   1.724   5.617
  780SOL    HW1 3239   1.316   1.653   5.687
  780SOL    HW2 3240   1.315   1.683   5.527
  781SOL     OW 3241   0.640   3.979   0.641
  781SOL    HW1 3242   0.724   3.926   0.629
  781SOL    HW2 3243   0.649   4.038   0.721
  782SOL     OW 3244   1.616   3.682   5.860
  782SOL    HW1 3245   1.681   3.738   5.809
  782SOL    HW2 3246   1.659   3.651   5.945
  783SOL     OW 3247   5.465   4.402   6.894
  783SOL    HW1 3248   5.427   4.493   6.878
  783SOL    HW2 3249   5.564   4.408   6.900
  784SOL     OW 3250   3.251   6.396   0.598
  784SOL    HW1 3251   3.158   6.395   0.634
  784SOL    HW2 3252   3.307   6.459   0.651
  785SOL     OW 3253   0.573   0.262   4.678
  785SOL    HW1 3254   0.590   0.323   4.601
  785SOL    HW2 3255   0.599   0.308   4.763
  786SOL     OW 3256   6.641   1.038   3.258
  786SOL    HW1 3257   6.734   1.030   3.294
  786SOL    HW2 3258   6.580   1.072   3.330
  787SOL     OW 3259   2.687   0.146   0.550
  787SOL    HW1 3260   2.743   0.063   0.551
  787SOL    HW2 3261   2.648   0.160   0.459
  788SOL     OW 3262   3.788   3.421   1.098
  788SOL    HW1 3263   3.798   3.519   1.113
  788SOL    HW2 3264   3.759   3.377   1.183
  789SOL     OW 3265   4.560   5.276   1.601
  789SOL    HW1 3266   4.554   5.332   1.684
  789SOL    HW2 3267   4.650   5.233   1.597
  790SOL     OW 3268   0.836   2.835   2.461
  790SOL    HW1 3269   0.809   2.928   2.438
  790SOL    HW2 3270   0.860   2.829   2.558
  791SOL     OW 3271   3.055   5.198   4.914
  791SOL    HW1 3272   2.972   5.171   4.866
  791SOL    HW2 3273   3.043   5.288   4.954
  792SOL     OW 3274   1.142   1.381   1.078
  792SOL    HW1 3275   1.050   1.342   1.067
  792SOL    HW2 3276   1.202   1.346   1.006
  793SOL     OW 3277   3.532   5.904   4.030
  793SOL    HW1 3278   3.490   5.828   4.079
  793SOL    HW2 3279   3.460   5.962   3.991
  794SOL     OW 3280   3.547   3.218   3.518
  794SOL    HW1 3281   3.537   3.316   3.507
  794SOL    HW2 3282   3.581   3.178   3.432
  795SOL     OW 3283   4.141   0.109   6.359
  795SOL    HW1 3284   4.129   0.179   6.289
  795SOL    HW2 3285   4.222   0.054   6.338
  796SOL     OW 3286   1.428   3.451   6.771
  796SOL    HW1 3287   1.368   3.451   6.691
  796SOL    HW2 3288   1.498   3.381   6.760
  797SOL     OW 3289   5.019   6.760   1.139
  797SOL    HW1 3290   4.989   6.720   1.226
  797SOL    HW2 3291   4.999   6.858   1.139
  798SOL     OW 3292   3.874   6.864   0.290
  798SOL    HW1 3293   3.957   6.918   0.279
  798SOL    HW2 3294   3.893   6.784   0.347
  799SOL     OW 3295   1.383   2.134   6.722
  799SOL    HW1 3296   1.361   2.230   6.705
  799SOL    HW2 3297   1.420   2.124   6.815
  800SOL     OW 3298   6.430   2.042   1.549
  800SOL    HW1 3299   6.432   1.973   1.621
  800SOL    HW2 3300   6.352   2.026   1.489
  801SOL     OW 3301   1.789   5.331   5.411
  801SOL    HW1 3302   1.809   5.326   5.509
  801SOL    HW2 3303   1.824   5.249   5.366
  802SOL     OW 3304   5.700   2.661   0.083
  802SOL    HW1 3305   5.622   2.709   0.123
  802SOL    HW2 3306   5.716   2.577   0.134
  803SOL     OW 3307   2.451   1.218   5.263
  803SOL    HW1 3308   2.368   1.172   5.295
  803SOL    HW2 3309   2.428   1.280   5.188
  804SOL     OW 3310   6.524   0.353   1.713
  804SOL    HW1 3311   6.536   0.408   1.795
  804SOL    HW2 3312   6.489   0.263   1.738
  805SOL     OW 3313   3.651   0.303   3.539
  805SOL    HW1 3314   3.623   0.244   3.614
  805SOL    HW2 3315   3.603   0.391   3.545
  806SOL     OW 3316   1.661   6.298   5.141
  806SOL    HW1 3317   1.697   6.364   5.207
  806SOL    HW2 3318   1.604   6.231   5.187
  807SOL     OW 3319   0.666   6.347   5.828
  807SOL    HW1 3320   0.612   6.274   5.871
  807SOL    HW2 3321   0.692   6.414   5.898
  808SOL     OW 3322   5.492   2.731   0.230
  808SOL    HW1 3323   5.462   2.744   0.325
  808SOL    HW2 3324   5.432   2.784   0.169
  809SOL     OW 3325   1.290   4.793   0.437
  809SOL    HW1 3326   1.320   4.786   0.342
  809SOL    HW2 3327   1.191   4.807   0.440
  810SOL     OW 3328   3.004   3.669   0.346
  810SOL    HW1 3329   3.073   3.741   0.335
  810SOL    HW2 3330   3.032   3.589   0.293
  811SOL     OW 3331   5.359   4.522   4.438
  811SOL    HW1 3332   5.426   4.568   4.379
  811SOL    HW2 3333   5.270   4.521   4.392
  812SOL     OW 3334   0.698   2.561   1.764
  812SOL    HW1 3335   0.607   2.586   1.732
  812SOL    HW2 3336   0.754   2.530   1.687
  813SOL     OW 3337   1.610   1.840   5.001
  813SOL    HW1 3338   1.588   1.912   4.934
  813SOL    HW2 3339   1.620   1.753   4.953
  814SOL     OW 3340   0.888   5.459   3.522
  814SOL    HW1 3341   0.918   5.420   3.609
  814SOL    HW2 3342   0.876   5.385   3.455
  815SOL     OW 3343   4.773   2.266   3.898
  815SOL    HW1 3344   4.835   2.191   3.875
  815SOL    HW2 3345   4.703   2.233   3.961
  816SOL     OW 3346   5.316   3.649   0.057
  816SOL    HW1 3347   5.362   3.672   6.990
  816SOL    HW2 3348   5.323   3.551   0.073
  817SOL     OW 3349   1.131   4.951   6.927
  817SOL    HW1 3350   1.202   4.891   6.892
  817SOL    HW2 3351   1.065   4.971   6.854
  818SOL     OW 3352   6.108   2.502   3.893
  818SOL    HW1 3353   6.098   2.403   3.883
  818SOL    HW2 3354   6.092   2.527   3.989
  819SOL     OW 3355   5.171   2.750   2.302
  819SOL    HW1 3356   5.124   2.832   2.268
  819SOL    HW2 3357   5.115   2.706   2.372
  820SOL     OW 3358   2.594   1.928   5.327
  820SOL    HW1 3359   2.644   1.953   5.410
  820SOL    HW2 3360   2.537   1.847   5.345
  821SOL     OW 3361   5.472   4.004   5.139
  821SOL    HW1 3362   5.448   3.942   5.065
  821SOL    HW2 3363   5.528   3.956   5.207
  822SOL     OW 3364   0.515   4.384   3.364
  822SOL    HW1 3365   0.560   4.330   3.435
  822SOL    HW2 3366   0.480   4.323   3.293
  823SOL     OW 3367   0.801   3.538   5.713
  823SOL    HW1 3368   0.717   3.521   5.661
  823SOL    HW2 3369   0.826   3.456   5.763
  824SOL     OW 3370   5.775   1.335   5.395
  824SOL    HW1 3371   5.806   1.316   5.302
  824SOL    HW2 3372   5.853   1.333   5.457
  825SOL     OW 3373   6.905   5.935   1.023
  825SOL    HW1 3374   6.941   6.028   1.035
  825SOL    HW2 3375   6.970   5.869   1.059
  826SOL     OW 3376   3.738   0.961   5.459
  826SOL    HW1 3377   3.811   0.987   5.522
  826SOL    HW2 3378   3.652   1.005   5.487
  827SOL     OW 3379   3.284   3.756   4.173
  827SOL    HW1 3380   3.240   3.667   4.184
  827SOL    HW2 3381   3.213   3.826   4.160
  828SOL     OW 3382   6.007   5.501   4.988
  828SOL    HW1 3383   6.040   5.504   4.893
  828SOL    HW2 3384   6.061   5.434   5.039
  829SOL     OW 3385   3.116   2.955   2.593
  829SOL    HW1 3386   3.174   2.922   2.667
  829SOL    HW2 3387   3.162   2.944   2.505
  830SOL     OW 3388   6.453   4.662   0.235
  830SOL    HW1 3389   6.450   4.571   0.194
  830SOL    HW2 3390   6.484   4.728   0.167
  831SOL     OW 3391   5.654   6.354   1.094
  831SOL    HW1 3392   5.627   6.259   1.100
  831SOL    HW2 3393   5.742   6.367   1.140
  832SOL     OW 3394   3.265   2.093   4.841
  832SOL    HW1 3395   3.223   2.004   4.862
  832SOL    HW2 3396   3.216   2.165   4.889
  833SOL     OW 3397   2.192   3.164   6.172
  833SOL    HW1 3398   2.111   3.114   6.201
  833SOL    HW2 3399   2.202   3.159   6.073
  834SOL     OW 3400   4.816   3.517   6.690
  834SOL    HW1 3401   4.806   3.577   6.769
  834SOL    HW2 3402   4.914   3.501   6.672
  835SOL     OW 3403   1.084   6.833   4.697
  835SOL    HW1 3404   1.117   6.831   4.791
  835SOL    HW2 3405   1.160   6.850   4.635
  836SOL     OW 3406   3.070   1.137   5.167
  836SOL    HW1 3407   3.069   1.217   5.106
  836SOL    HW2 3408   3.127   1.065   5.126
  837SOL     OW 3409   1.389   0.726   0.680
  837SOL    HW1 3410   1.417   0.630   0.680
  837SOL    HW2 3411   1.452   0.780   0.736
  838SOL     OW 3412   1.941   5.589   3.473
  838SOL    HW1 3413   2.040   5.588   3.458
  838SOL    HW2 3414   1.918   5.665   3.534
  839SOL     OW 3415   1.611   1.544   1.040
  839SOL    HW1 3416   1.554   1.582   0.966
  839SOL    HW2 3417   1.624   1.614   1.110
  840SOL     OW 3418   5.130   5.953   0.204
  840SOL    HW1 3419   5.204   6.004   0.160
  840SOL    HW2 3420   5.065   5.922   0.135
  841SOL     OW 3421   3.655   4.834   5.748
  841SOL    HW1 3422   3.732   4.799   5.802
  841SOL    HW2 3423   3.569   4.818   5.797
  842SOL     OW 3424   3.239   0.247   0.139
  842SOL    HW1 3425   3.297   0.209   0.067
  842SOL    HW2 3426   3.199   0.333   0.108
  843SOL     OW 3427   1.392   1.506   2.100
  843SOL    HW1 3428   1.484   1.483   2.130
  843SOL    HW2 3429   1.355   1.430   2.046
  844SOL     OW 3430   6.206   6.799   1.091
  844SOL    HW1 3431   6.270   6.861   1.138
  844SOL    HW2 3432   6.200   6.824   0.995
  845SOL     OW 3433   3.469   1.598   2.573
  845SOL    HW1 3434   3.377   1.600   2.613
  845SOL    HW2 3435   3.519   1.520   2.610
  846SOL     OW 3436   2.792   1.836   0.231
  846SOL    HW1 3437   2.834   1.752   0.264
  846SOL    HW2 3438   2.794   1.905   0.304
  847SOL     OW 3439   2.458   4.418   1.450
  847SOL    HW1 3440   2.375   4.395   1.500
  847SOL    HW2 3441   2.535   4.427   1.514
  848SOL     OW 3442   6.802   6.394   6.273
  848SOL    HW1 3443   6.881   6.452   6.295
  848SOL    HW2 3444   6.826   6.298   6.287
  849SOL     OW 3445   5.891   4.182   0.502
  849SOL    HW1 3446   5.912   4.157   0.597
  849SOL    HW2 3447   5.839   4.268   0.502
  850SOL     OW 3448   0.239   0.621   5.712
  850SOL    HW1 3449   0.278   0.623   5.620
  850SOL    HW2 3450   0.141   0.605   5.706
  851SOL     OW 3451   6.530   3.063   6.047
  851SOL    HW1 3452   6.555   3.142   6.103
  851SOL    HW2 3453   6.544   3.084   5.950
  852SOL     OW 3454   0.116   3.705   2.100
  852SOL    HW1 3455   0.120   3.612   2.135
  852SOL    HW2 3456   0.044   3.712   2.031
  853SOL     OW 3457   2.274   3.693   0.096
  853SOL    HW1 3458   2.373   3.698   0.106
  853SOL    HW2 3459   2.251   3.628   0.023
  854SOL     OW 3460   5.752   6.539   6.810
  854SOL    HW1 3461   5.841   6.500   6.789
  854SOL    HW2 3462   5.694   6.469   6.852
  855SOL     OW 3463   5.976   0.916   0.630
  855SOL    HW1 3464   5.907   0.844   0.620
  855SOL    HW2 3465   6.066   0.879   0.607
  856SOL     OW 3466   2.189   6.586   0.212
  856SOL    HW1 3467   2.091   6.566   0.207
  856SOL    HW2 3468   2.202   6.683   0.234
  857SOL     OW 3469   6.528   5.275   4.333
  857SOL    HW1 3470   6.486   5.279   4.424
  857SOL    HW2 3471   6.623   5.303   4.339
  858SOL     OW 3472   3.620   3.438   0.348
  858SOL    HW1 3473   3.632   3.416   0.444
  858SOL    HW2 3474   3.572   3.526   0.339
  859SOL     OW 3475   4.308   0.040   5.044
  859SOL    HW1 3476   4.349   6.993   4.983
  859SOL    HW2 3477   4.330   0.017   5.139
  860SOL     OW 3478   5.476   3.061   5.830
  860SOL    HW1 3479   5.439   3.154   5.826
  860SOL    HW2 3480   5.460   3.023   5.921
  861SOL     OW 3481   2.164   6.107   2.610
  861SOL    HW1 3482   2.186   6.127   2.705
  861SOL    HW2 3483   2.082   6.158   2.583
  862SOL     OW 3484   1.746   4.283   3.621
  862SOL    HW1 3485   1.748   4.229   3.705
  862SOL    HW2 3486   1.766   4.224   3.543
  863SOL     OW 3487   0.237   0.732   6.795
  863SOL    HW1 3488   0.148   0.690   6.809
  863SOL    HW2 3489   0.308   0.661   6.797
  864SOL     OW 3490   5.086   0.268   5.326
  864SOL    HW1 3491   5.131   0.340   5.274
  864SOL    HW2 3492   5.009   0.232   5.274
  865SOL     OW 3493   1.705   5.758   4.704
  865SOL    HW1 3494   1.663   5.843   4.673
  865SOL    HW2 3495   1.786   5.738   4.648
  866SOL     OW 3496   2.419   6.299   1.797
  866SOL    HW1 3497   2.364   6.334   1.873
  866SOL    HW2 3498   2.370   6.313   1.711
  867SOL     OW 3499   5.432   2.053   0.025
  867SOL    HW1 3500   5.429   2.117   6.967
  867SOL    HW2 3501   5.524   2.052   0.064
  868SOL     OW 3502   6.756   2.266   2.037
  868SOL    HW1 3503   6.805   2.184   2.066
  868SOL    HW2 3504   6.704   2.303   2.114
  869SOL     OW 3505   0.126   3.903   3.581
  869SOL    HW1 3506   0.171   3.963   3.515
  869SOL    HW2 3507   0.191   3.878   3.653
  870SOL     OW 3508   3.284   5.359   1.620
  870SOL    HW1 3509   3.186   5.350   1.636
  870SOL    HW2 3510   3.334   5.322   1.698
  871SOL     OW 3511   4.689   1.679   3.415
  871SOL    HW1 3512   4.590   1.670   3.427
  871SOL    HW2 3513   4.731   1.588   3.414
  872SOL     OW 3514   6.718   2.906   4.349
  872SOL    HW1 3515   6.680   2.863   4.431
  872SOL    HW2 3516   6.700   2.848   4.270
  873SOL     OW 3517   4.361   6.657   5.996
  873SOL    HW1 3518   4.297   6.609   6.056
  873SOL    HW2 3519   4.439   6.597   5.976
  874SOL     OW 3520   5.604   3.839   0.779
  874SOL    HW1 3521   5.587   3.783   0.698
  874SOL    HW2 3522   5.660   3.918   0.755
  875SOL     OW 3523   5.015   5.511   1.035
  875SOL    HW1 3524   5.106   5.490   1.072
  875SOL    HW2 3525   4.987   5.438   0.974
  876SOL     OW 3526   0.457   5.840   1.913
  876SOL    HW1 3527   0.366   5.838   1.954
  876SOL    HW2 3528   0.482   5.934   1.893
  877SOL     OW 3529   2.984   4.279   6.977
  877SOL    HW1 3530   2.914   4.346   7.002
  877SOL    HW2 3531   3.009   4.226   0.039
  878SOL     OW 3532   3.778   6.977   4.183
  878SOL    HW1 3533   3.790   6.919   4.264
  878SOL    HW2 3534   3.740   6.922   4.108
  879SOL     OW 3535   4.497   0.221   0.320
  879SOL    HW1 3536   4.399   0.243   0.325
  879SOL    HW2 3537   4.548   0.304   0.295
  880SOL     OW 3538   3.009   3.258   3.195
  880SOL    HW1 3539   2.969   3.322   3.261
  880SOL    HW2 3540   3.042   3.177   3.244
  881SOL     OW 3541   4.664   2.462   5.625
  881SOL    HW1 3542   4.697   2.370   5.609
  881SOL    HW2 3543   4.613   2.465   5.712
  882SOL     OW 3544   1.077   3.291   5.264
  882SOL    HW1 3545   1.087   3.321   5.359
  882SOL    HW2 3546   1.125   3.205   5.251
  883SOL     OW 3547   3.420   0.291   2.804
  883SOL    HW1 3548   3.388   0.381   2.775
  883SOL    HW2 3549   3.344   0.226   2.797
  884SOL     OW 3550   4.794   2.850   5.008
  884SOL    HW1 3551   4.797   2.938   4.960
  884SOL    HW2 3552   4.765   2.864   5.103
  885SOL     OW 3553   3.140   1.421   5.953
  885SOL    HW1 3554   3.100   1.505   5.990
  885SOL    HW2 3555   3.238   1.422   5.968
  886SOL     OW 3556   3.611   0.927   0.104
  886SOL    HW1 3557   3.561   1.012   0.125
  886SOL    HW2 3558   3.614   0.915   0.005
  887SOL     OW 3559   4.130   0.798   3.627
  887SOL    HW1 3560   4.190   0.741   3.684
  887SOL    HW2 3561   4.185   0.866   3.579
  888SOL     OW 3562   0.765   0.860   3.081
  888SOL    HW1 3563   0.852   0.811   3.072
  888SOL    HW2 3564   0.689   0.799   3.056
  889SOL     OW 3565   0.626   4.216   6.746
  889SOL    HW1 3566   0.529   4.197   6.729
  889SOL    HW2 3567   0.670   4.134   6.783
  890SOL     OW 3568   2.104   5.696   3.839
  890SOL    HW1 3569   2.053   5.720   3.756
  890SOL    HW2 3570   2.062   5.739   3.918
  891SOL     OW 3571   5.144   5.065   0.917
  891SOL    HW1 3572   5.083   4.987   0.932
  891SOL    HW2 3573   5.217   5.039   0.855
  892SOL     OW 3574   2.429   4.140   5.712
  892SOL    HW1 3575   2.360   4.146   5.639
  892SOL    HW2 3576   2.480   4.055   5.702
  893SOL     OW 3577   2.470   6.242   3.071
  893SOL    HW1 3578   2.537   6.180   3.030
  893SOL    HW2 3579   2.426   6.196   3.148
  894SOL     OW 3580   1.391   3.712   1.652
  894SOL    HW1 3581   1.381   3.693   1.554
  894SOL    HW2 3582   1.310   3.680   1.701
  895SOL     OW 3583   0.661   5.337   3.198
  895SOL    HW1 3584   0.683   5.432   3.217
  895SOL    HW2 3585   0.732   5.278   3.237
  896SOL     OW 3586   6.599   5.437   6.911
  896SOL    HW1 3587   6.543   5.367   6.955
  896SOL    HW2 3588   6.668   5.393   6.854
  897SOL     OW 3589   5.133   0.820   0.508
  897SOL    HW1 3590   5.054   0.782   0.556
  897SOL    HW2 3591   5.107   0.904   0.461
  898SOL     OW 3592   3.284   5.472   2.839
  898SOL    HW1 3593   3.349   5.423   2.897
  898SOL    HW2 3594   3.198   5.486   2.888
  899SOL     OW 3595   0.857   5.228   6.220
  899SOL    HW1 3596   0.911   5.237   6.304
  899SOL    HW2 3597   0.796   5.150   6.229
  900SOL     OW 3598   5.893   6.780   6.834
  900SOL    HW1 3599   5.841   6.854   6.877
  900SOL    HW2 3600   5.833   6.703   6.815
  901SOL     OW 3601   2.066   0.658   2.536
  901SOL    HW1 3602   2.074   0.568   2.579
  901SOL    HW2 3603   2.154   0.706   2.541
  902SOL     OW 3604   6.164   3.509   0.592
  902SOL    HW1 3605   6.076   3.463   0.600
  902SOL    HW2 3606   6.220   3.488   0.673
  903SOL     OW 3607   0.236   2.419   6.689
  903SOL    HW1 3608   0.283   2.331   6.679
  903SOL    HW2 3609   0.156   2.421   6.629
  904SOL     OW 3610   3.070   2.203   3.739
  904SOL    HW1 3611   3.040   2.150   3.659
  904SOL    HW2 3612   2.999   2.269   3.764
  905SOL     OW 3613   5.739   2.436   0.232
  905SOL    HW1 3614   5.641   2.421   0.238
  905SOL    HW2 3615   5.767   2.500   0.303
  906SOL     OW 3616   0.600   2.157   5.857
  906SOL    HW1 3617   0.518   2.167   5.914
  906SOL    HW2 3618   0.676   2.126   5.914
  907SOL     OW 3619   5.032   3.700   7.007
  907SOL    HW1 3620   4.984   3.630   0.041
  907SOL    HW2 3621   5.129   3.701   0.013
  908SOL     OW 3622   2.817   4.724   2.232
  908SOL    HW1 3623   2.807   4.643   2.174
  908SOL    HW2 3624   2.886   4.785   2.193
  909SOL     OW 3625   4.211   5.162   6.320
  909SOL    HW1 3626   4.257   5.077   6.347
  909SOL    HW2 3627   4.279   5.236   6.313
  910SOL     OW 3628   2.612   2.819   1.557
  910SOL    HW1 3629   2.709   2.825   1.578
  910SOL    HW2 3630   2.599   2.777   1.467
  911SOL     OW 3631   1.765   5.937   6.098
  911SOL    HW1 3632   1.840   5.893   6.050
  911SOL    HW2 3633   1.796   5.968   6.188
  912SOL     OW 3634   5.232   3.249   3.401
  912SOL    HW1 3635   5.210   3.346   3.396
  912SOL    HW2 3636   5.229   3.209   3.309
  913SOL     OW 3637   5.348   6.384   3.154
  913SOL    HW1 3638   5.285   6.431   3.091
  913SOL    HW2 3639   5.420   6.448   3.183
  914SOL     OW 3640   2.736   0.248   6.693
  914SOL    HW1 3641   2.814   0.310   6.696
  914SOL    HW2 3642   2.704   0.231   6.787
  915SOL     OW 3643   6.126   5.499   0.604
  915SOL    HW1 3644   6.125   5.548   0.691
  915SOL    HW2 3645   6.219   5.464   0.587
  916SOL     OW 3646   0.915   2.532   2.353
  916SOL    HW1 3647   0.816   2.550   2.349
  916SOL    HW2 3648   0.957   2.592   2.421
  917SOL     OW 3649   0.179   6.866   0.427
  917SOL    HW1 3650   0.200   6.910   0.340
  917SOL    HW2 3651   0.211   6.924   0.502
  918SOL     OW 3652   2.100   6.314   0.908
  918SOL    HW1 3653   2.006   6.303   0.940
  918SOL    HW2 3654   2.105   6.390   0.843
  919SOL     OW 3655   5.767   1.402   3.213
  919SOL    HW1 3656   5.729   1.492   3.189
  919SOL    HW2 3657   5.842   1.413   3.278
  920SOL     OW 3658   2.806   4.721   1.523
  920SOL    HW1 3659   2.869   4.645   1.540
  920SOL    HW2 3660   2.729   4.716   1.586
  921SOL     OW 3661   5.242   5.527   4.408
  921SOL    HW1 3662   5.308   5.484   4.347
  921SOL    HW2 3663   5.278   5.615   4.439
  922SOL     OW 3664   3.566   3.671   4.190
  922SOL    HW1 3665   3.482   3.709   4.154
  922SOL    HW2 3666   3.549   3.579   4.226
  923SOL     OW 3667   1.971   2.600   5.396
  923SOL    HW1 3668   2.065   2.630   5.410
  923SOL    HW2 3669   1.970   2.508   5.358
  924SOL     OW 3670   6.781   3.904   2.107
  924SOL    HW1 3671   6.863   3.905   2.165
  924SOL    HW2 3672   6.709   3.959   2.150
  925SOL     OW 3673   5.865   1.724   0.215
  925SOL    HW1 3674   5.935   1.736   0.286
  925SOL    HW2 3675   5.861   1.627   0.189
  926SOL     OW 3676   0.563   1.794   2.157
  926SOL    HW1 3677   0.549   1.787   2.058
  926SOL    HW2 3678   0.534   1.884   2.188
  927SOL     OW 3679   5.529   3.790   3.994
  927SOL    HW1 3680   5.450   3.851   4.003
  927SOL    HW2 3681   5.524   3.741   3.907
  928SOL     OW 3682   3.360   5.974   6.605
  928SOL    HW1 3683   3.407   5.887   6.619
  928SOL    HW2 3684   3.382   6.010   6.515
  929SOL     OW 3685   6.591   1.303   5.818
  929SOL    HW1 3686   6.586   1.341   5.725
  929SOL    HW2 3687   6.595   1.377   5.884
  930SOL     OW 3688   4.819   5.062   6.278
  930SOL    HW1 3689   4.799   4.968   6.304
  930SOL    HW2 3690   4.907   5.090   6.317
  931SOL     OW 3691   6.406   2.660   3.494
  931SOL    HW1 3692   6.446   2.648   3.403
  931SOL    HW2 3693   6.448   2.597   3.559
  932SOL     OW 3694   4.031   0.601   3.464
  932SOL    HW1 3695   3.971   0.538   3.514
  932SOL    HW2 3696   4.077   0.661   3.530
  933SOL     OW 3697   1.668   4.912   2.912
  933SOL    HW1 3698   1.664   5.011   2.925
  933SOL    HW2 3699   1.741   4.890   2.847
  934SOL     OW 3700   1.980   5.378   6.382
  934SOL    HW1 3701   2.060   5.363   6.440
  934SOL    HW2 3702   2.009   5.425   6.299
  935SOL     OW 3703   5.773   3.537   3.230
  935SOL    HW1 3704   5.692   3.573   3.185
  935SOL    HW2 3705   5.746   3.482   3.309
  936SOL     OW 3706   1.759   0.659   6.163
  936SOL    HW1 3707   1.764   0.759   6.162
  936SOL    HW2 3708   1.845   0.622   6.127
  937SOL     OW 3709   4.642   0.827   5.433
  937SOL    HW1 3710   4.565   0.802   5.491
  937SOL    HW2 3711   4.699   0.894   5.480
  938SOL     OW 3712   6.917   5.498   4.128
  938SOL    HW1 3713   6.994   5.511   4.191
  938SOL    HW2 3714   6.951   5.467   4.039
  939SOL     OW 3715   0.023   0.014   5.236
  939SOL    HW1 3716   0.015   6.934   5.249
  939SOL    HW2 3717   6.950   0.055   5.238
  940SOL     OW 3718   2.101   4.858   0.590
  940SOL    HW1 3719   2.038   4.851   0.667
  940SOL    HW2 3720   2.195   4.867   0.625
  941SOL     OW 3721   3.871   0.146   6.400
  941SOL    HW1 3722   3.959   0.103   6.383
  941SOL    HW2 3723   3.834   0.183   6.314
  942SOL     OW 3724   0.310   5.717   0.792
  942SOL    HW1 3725   0.219   5.693   0.758
  942SOL    HW2 3726   0.307   5.808   0.832
  943SOL     OW 3727   2.990   4.809   2.471
  943SOL    HW1 3728   2.907   4.853   2.507
  943SOL    HW2 3729   2.964   4.738   2.405
  944SOL     OW 3730   0.802   6.498   4.188
  944SOL    HW1 3731   0.764   6.437   4.118
  944SOL    HW2 3732   0.822   6.445   4.271
  945SOL     OW 3733   0.990   5.809   5.740
  945SOL    HW1 3734   1.043   5.865   5.677
  945SOL    HW2 3735   1.045   5.731   5.771
  946SOL     OW 3736   4.584   4.372   4.004
  946SOL    HW1 3737   4.601   4.274   3.998
  946SOL    HW2 3738   4.652   4.421   3.950
  947SOL     OW 3739   3.622   4.120   4.018
  947SOL    HW1 3740   3.646   4.165   4.104
  947SOL    HW2 3741   3.665   4.030   4.014
  948SOL     OW 3742   4.962   1.700   2.444
  948SOL    HW1 3743   4.907   1.768   2.493
  948SOL    HW2 3744   4.902   1.627   2.411
  949SOL     OW 3745   3.362   6.706   6.883
  949SOL    HW1 3746   3.277   6.728   6.932
  949SOL    HW2 3747   3.369   6.607   6.869
  950SOL     OW 3748   6.865   6.161   2.475
  950SOL    HW1 3749   6.835   6.144   2.569
  950SOL    HW2 3750   6.964   6.177   2.474
  951SOL     OW 3751   1.532   0.313   3.299
  951SOL    HW1 3752   1.554   0.226   3.342
  951SOL    HW2 3753   1.612   0.347   3.250
  952SOL     OW 3754   4.099   1.693   1.916
  952SOL    HW1 3755   4.072   1.741   1.833
  952SOL    HW2 3756   4.198   1.675   1.914
  953SOL     OW 3757   6.829   5.353   4.965
  953SOL    HW1 3758   6.862   5.283   5.029
  953SOL    HW2 3759   6.737   5.382   4.993
  954SOL     OW 3760   4.767   5.675   2.691
  954SOL    HW1 3761   4.773   5.578   2.665
  954SOL    HW2 3762   4.687   5.716   2.646
  955SOL     OW 3763   1.053   4.568   6.691
  955SOL    HW1 3764   1.056   4.474   6.656
  955SOL    HW2 3765   1.120   4.624   6.642
  956SOL     OW 3766   6.356   0.396   1.077
  956SOL    HW1 3767   6.336   0.458   1.001
  956SOL    HW2 3768   6.443   0.351   1.061
  957SOL     OW 3769   6.307   2.288   3.726
  957SOL    HW1 3770   6.334   2.192   3.723
  957SOL    HW2 3771   6.360   2.340   3.659
  958SOL     OW 3772   5.668   6.788   2.234
  958SOL    HW1 3773   5.726   6.805   2.154
  958SOL    HW2 3774   5.630   6.696   2.228
  959SOL     OW 3775   3.663   6.849   3.990
  959SOL    HW1 3776   3.572   6.885   4.008
  959SOL    HW2 3777   3.657   6.750   3.974
  960SOL     OW 3778   0.935   0.351   6.984
  960SOL    HW1 3779   0.842   0.331   7.016
  960SOL    HW2 3780   0.936   0.440   6.938
  961SOL     OW 3781   3.219   6.569   3.156
  961SOL    HW1 3782   3.157   6.572   3.078
  961SOL    HW2 3783   3.166   6.564   3.240
  962SOL     OW 3784   6.392   6.863   5.196
  962SOL    HW1 3785   6.390   6.774   5.242
  962SOL    HW2 3786   6.381   6.935   5.264
  963SOL     OW 3787   4.812   2.577   1.144
  963SOL    HW1 3788   4.892   2.636   1.132
  963SOL    HW2 3789   4.730   2.634   1.147
  964SOL     OW 3790   5.076   4.165   5.286
  964SOL    HW1 3791   5.103   4.141   5.192
  964SOL    HW2 3792   5.013   4.096   5.321
  965SOL     OW 3793   5.625   2.291   3.268
  965SOL    HW1 3794   5.567   2.256   3.193
  965SOL    HW2 3795   5.611   2.389   3.276
  966SOL     OW 3796   4.918   2.060   3.826
  966SOL    HW1 3797   4.873   1.974   3.849
  966SOL    HW2 3798   4.946   2.059   3.731
  967SOL     OW 3799   4.678   4.172   6.108
  967SOL    HW1 3800   4.581   4.151   6.096
  967SOL    HW2 3801   4.701   4.252   6.051
  968SOL     OW 3802   4.190   0.102   1.604
  968SOL    HW1 3803   4.221   0.187   1.646
  968SOL    HW2 3804   4.176   0.116   1.506
  969SOL     OW 3805   3.419   4.450   5.821
  969SOL    HW1 3806   3.439   4.526   5.882
  969SOL    HW2 3807   3.333   4.468   5.772
  970SOL     OW 3808   5.867   0.553   6.021
  970SOL    HW1 3809   5.931   0.510   6.085
  970SOL    HW2 3810   5.803   0.611   6.072
  971SOL     OW 3811   6.064   3.958   2.913
  971SOL    HW1 3812   6.151   4.007   2.906
  971SOL    HW2 3813   5.992   4.012   2.869
  972SOL     OW 3814   0.128   2.451   0.988
  972SOL    HW1 3815   0.054   2.386   1.006
  972SOL    HW2 3816   0.214   2.401   0.975
  973SOL     OW 3817   6.798   3.782   6.236
  973SOL    HW1 3818   6.724   3.742   6.290
  973SOL    HW2 3819   6.881   3.728   6.249
  974SOL     OW 3820   6.892   4.808   4.506
  974SOL    HW1 3821   6.938   4.722   4.485
  974SOL    HW2 3822   6.793   4.796   4.500
  975SOL     OW 3823   2.134   6.941   1.904
  975SOL    HW1 3824   2.200   6.871   1.931
  975SOL    HW2 3825   2.100   6.987   1.985
  976SOL     OW 3826   6.379   4.338   1.846
  976SOL    HW1 3827   6.396   4.350   1.944
  976SOL    HW2 3828   6.466   4.349   1.797
  977SOL     OW 3829   0.736   1.470   2.448
  977SOL    HW1 3830   0.678   1.550   2.429
  977SOL    HW2 3831   0.812   1.498   2.506
  978SOL     OW 3832   5.613   2.429   2.048
  978SOL    HW1 3833   5.572   2.502   2.102
  978SOL    HW2 3834   5.693   2.393   2.095
  979SOL     OW 3835   6.610   3.587   0.254
  979SOL    HW1 3836   6.643   3.493   0.257
  979SOL    HW2 3837   6.552   3.605   0.334
  980SOL     OW 3838   3.523   1.404   5.138
  980SOL    HW1 3839   3.430   1.427   5.109
  980SOL    HW2 3840   3.587   1.469   5.097
  981SOL     OW 3841   6.737   6.854   4.928
  981SOL    HW1 3842   6.824   6.880   4.886
  981SOL    HW2 3843   6.684   6.937   4.948
  982SOL     OW 3844   0.219   1.494   5.302
  982SOL    HW1 3845   0.159   1.416   5.320
  982SOL    HW2 3846   0.277   1.474   5.223
  983SOL     OW 3847   0.581   3.523   3.707
  983SOL    HW1 3848   0.575   3.559   3.613
  983SOL    HW2 3849   0.609   3.427   3.704
  984SOL     OW 3850   1.688   1.657   2.653
  984SOL    HW1 3851   1.718   1.654   2.748
  984SOL    HW2 3852   1.705   1.748   2.615
  985SOL     OW 3853   6.043   3.415   4.294
  985SOL    HW1 3854   5.946   3.416   4.268
  985SOL    HW2 3855   6.057   3.479   4.370
  986SOL     OW 3856   5.431   4.402   1.275
  986SOL    HW1 3857   5.375   4.391   1.193
  986SOL    HW2 3858   5.424   4.320   1.332
  987SOL     OW 3859   5.917   4.758   3.598
  987SOL    HW1 3860   5.981   4.833   3.582
  987SOL    HW2 3861   5.901   4.747   3.696
  988SOL     OW 3862   3.347   4.051   1.545
  988SOL    HW1 3863   3.337   4.116   1.621
  988SOL    HW2 3864   3.268   3.991   1.543
  989SOL     OW 3865   0.220   1.810   1.209
  989SOL    HW1 3866   0.163   1.856   1.141
  989SOL    HW2 3867   0.222   1.865   1.293
  990SOL     OW 3868   3.911   0.431   3.656
  990SOL    HW1 3869   3.814   0.414   3.642
  990SOL    HW2 3870   3.959   0.345   3.674
  991SOL     OW 3871   6.863   4.390   4.099
  991SOL    HW1 3872   6.916   4.383   4.184
  991SOL    HW2 3873   6.775   4.432   4.119
  992SOL     OW 3874   0.780   2.730   1.231
  992SOL    HW1 3875   0.785   2.824   1.196
  992SOL    HW2 3876   0.727   2.729   1.315
  993SOL     OW 3877   2.000   5.323   0.864
  993SOL    HW1 3878   2.041   5.254   0.804
  993SOL    HW2 3879   1.916   5.358   0.824
  994SOL     OW 3880   3.267   6.793   0.808
  994SOL    HW1 3881   3.295   6.827   0.718
  994SOL    HW2 3882   3.307   6.702   0.822
  995SOL     OW 3883   5.270   3.635   5.407
  995SOL    HW1 3884   5.214   3.707   5.367
  995SOL    HW2 3885   5.276   3.559   5.343
  996SOL     OW 3886   3.627   6.205   5.643
  996SOL    HW1 3887   3.598   6.162   5.557
  996SOL    HW2 3888   3.624   6.137   5.717
  997SOL     OW 3889   1.675   6.134   4.228
  997SOL    HW1 3890   1.741   6.083   4.283
  997SOL    HW2 3891   1.674   6.230   4.257
  998SOL     OW 3892   5.544   0.054   6.234
  998SOL    HW1 3893   5.597   6.989   6.243
  998SOL    HW2 3894   5.592   0.128   6.282
  999SOL     OW 3895   4.894   3.434   1.980
  999SOL    HW1 3896   4.893   3.335   1.995
  999SOL    HW2 3897   4.840   3.456   1.898
 1000SOL     OW 3898   3.671   1.821   1.421
 1000SOL    HW1 3899   3.731   1.742   1.410
 1000SOL    HW2 3900   3.636   1.825   1.514
 1001SOL     OW 3901   2.677   0.034   2.423
 1001SOL    HW1 3902   2.651   6.991   2.496
 1001SOL    HW2 3903   2.766   0.007   2.387
 1002SOL     OW 3904   5.687   2.954   1.290
 1002SOL    HW1 3905   5.695   2.856   1.277
 1002SOL    HW2 3906   5.770   2.988   1.336
 1003SOL     OW 3907   1.023   5.972   2.462
 1003SOL    HW1 3908   1.082   5.972   2.382
 1003SOL    HW2 3909   0.935   5.930   2.440
 1004SOL     OW 3910   5.225   1.783   3.651
 1004SOL    HW1 3911   5.325   1.781   3.651
 1004SOL    HW2 3912   5.192   1.823   3.736
 1005SOL     OW 3913   1.614   4.936   4.267
 1005SOL    HW1 3914   1.515   4.945   4.276
 1005SOL    HW2 3915   1.659   4.982   4.343
 1006SOL     OW 3916   2.058   3.694   0.550
 1006SOL    HW1 3917   2.011   3.774   0.515
 1006SOL    HW2 3918   2.157   3.709   0.547
 1007SOL     OW 3919   4.700   2.072   6.634
 1007SOL    HW1 3920   4.777   2.087   6.572
 1007SOL    HW2 3921   4.683   1.974   6.643
 1008SOL     OW 3922   0.541   4.322   5.055
 1008SOL    HW1 3923   0.618   4.332   4.991
 1008SOL    HW2 3924   0.455   4.327   5.004
 1009SOL     OW 3925   6.299   5.135   5.681
 1009SOL    HW1 3926   6.311   5.187   5.597
 1009SOL    HW2 3927   6.370   5.160   5.747
 1010SOL     OW 3928   2.111   3.307   1.274
 1010SOL    HW1 3929   2.193   3.353   1.239
 1010SOL    HW2 3930   2.062   3.368   1.336
 1011SOL     OW 3931   0.887   4.903   2.832
 1011SOL    HW1 3932   0.867   4.805   2.825
 1011SOL    HW2 3933   0.848   4.940   2.916
 1012SOL     OW 3934   6.092   0.405   2.497
 1012SOL    HW1 3935   6.004   0.363   2.474
 1012SOL    HW2 3936   6.076   0.487   2.550
 1013SOL     OW 3937   6.903   1.101   6.315
 1013SOL    HW1 3938   6.877   1.072   6.406
 1013SOL    HW2 3939   6.871   1.035   6.247
 1014SOL     OW 3940   1.061   4.893   4.165
 1014SOL    HW1 3941   1.115   4.811   4.184
 1014SOL    HW2 3942   0.968   4.866   4.139
 1015SOL     OW 3943   3.761   0.186   6.165
 1015SOL    HW1 3944   3.842   0.233   6.128
 1015SOL    HW2 3945   3.771   0.088   6.151
 1016SOL     OW 3946   5.272   4.303   1.560
 1016SOL    HW1 3947   5.302   4.230   1.622
 1016SOL    HW2 3948   5.175   4.321   1.575
 1017SOL     OW 3949   2.187   1.670   2.569
 1017SOL    HW1 3950   2.117   1.632   2.629
 1017SOL    HW2 3951   2.161   1.654   2.473
 1018SOL     OW 3952   0.345   4.890   3.708
 1018SOL    HW1 3953   0.351   4.984   3.672
 1018SOL    HW2 3954   0.364   4.892   3.806
 1019SOL     OW 3955   0.288   5.214   0.532
 1019SOL    HW1 3956   0.225   5.136   0.523
 1019SOL    HW2 3957   0.380   5.179   0.553
 1020SOL     OW 3958   6.989   0.129   1.034
 1020SOL    HW1 3959   0.023   0.157   1.114
 1020SOL    HW2 3960   6.912   0.073   1.063
 1021SOL     OW 3961   6.197   5.948   1.819
 1021SOL    HW1 3962   6.210   5.878   1.748
 1021SOL    HW2 3963   6.153   6.028   1.778
 1022SOL     OW 3964   2.766   6.370   6.207
 1022SOL    HW1 3965   2.769   6.325   6.296
 1022SOL    HW2 3966   2.679   6.351   6.163
 1023SOL     OW 3967   0.240   1.782   3.490
 1023SOL    HW1 3968   0.251   1.845   3.567
 1023SOL    HW2 3969   0.196   1.830   3.414
 1024SOL     OW 3970   1.381   2.028   4.686
 1024SOL    HW1 3971   1.312   2.095   4.656
 1024SOL    HW2 3972   1.447   2.074   4.746
 1025SOL     OW 3973   4.897   3.507   0.136
 1025SOL    HW1 3974   4.983   3.494   0.186
 1025SOL    HW2 3975   4.891   3.438   0.063
 1026SOL     OW 3976   3.105   2.788   1.237
 1026SOL    HW1 3977   3.046   2.850   1.184
 1026SOL    HW2 3978   3.125   2.830   1.325
 1027SOL     OW 3979   0.997   6.645   1.231
 1027SOL    HW1 3980   0.940   6.590   1.291
 1027SOL    HW2 3981   1.093   6.619   1.242
 1028SOL     OW 3982   0.791   6.061   3.053
 1028SOL    HW1 3983   0.831   6.001   3.123
 1028SOL    HW2 3984   0.826   6.154   3.064
 1029SOL     OW 3985   1.292   1.986   5.573
 1029SOL    HW1 3986   1.292   1.889   5.598
 1029SOL    HW2 3987   1.238   1.999   5.490
 1030SOL     OW 3988   3.062   3.631   1.557
 1030SOL    HW1 3989   3.140   3.580   1.522
 1030SOL    HW2 3990   3.007   3.572   1.616
 1031SOL     OW 3991   3.635   3.404   1.557
 1031SOL    HW1 3992   3.701   3.478   1.571
 1031SOL    HW2 3993   3.601   3.408   1.463
 1032SOL     OW 3994   1.781   1.706   6.048
 1032SOL    HW1 3995   1.839   1.769   5.996
 1032SOL    HW2 3996   1.686   1.717   6.020
 1033SOL     OW 3997   0.727   6.214   2.022
 1033SOL    HW1 3998   0.778   6.297   2.045
 1033SOL    HW2 3999   0.690   6.174   2.106
 1034SOL     OW 4000   3.514   6.792   4.684
 1034SOL    HW1 4001   3.444   6.858   4.657
 1034SOL    HW2 4002   3.484   6.744   4.767
 1035SOL     OW 4003   0.483   1.320   5.884
 1035SOL    HW1 4004   0.467   1.302   5.981
 1035SOL    HW2 4005   0.535   1.405   5.875
 1036SOL     OW 4006   5.166   1.806   1.038
 1036SOL    HW1 4007   5.213   1.821   0.951
 1036SOL    HW2 4008   5.170   1.889   1.093
 1037SOL     OW 4009   1.575   2.622   2.961
 1037SOL    HW1 4010   1.591   2.537   3.012
 1037SOL    HW2 4011   1.635   2.624   2.881
 1038SOL     OW 4012   3.031   0.431   6.875
 1038SOL    HW1 4013   3.097   0.372   6.829
 1038SOL    HW2 4014   2.999   0.387   6.959
 1039SOL     OW 4015   3.657   3.498   3.767
 1039SOL    HW1 4016   3.559   3.487   3.746
 1039SOL    HW2 4017   3.699   3.408   3.778
 1040SOL     OW 4018   3.824   0.823   2.583
 1040SOL    HW1 4019   3.782   0.843   2.671
 1040SOL    HW2 4020   3.886   0.744   2.593
 1041SOL     OW 4021   6.560   6.207   5.620
 1041SOL    HW1 4022   6.523   6.230   5.529
 1041SOL    HW2 4023   6.526   6.274   5.686
 1042SOL     OW 4024   4.890   4.480   2.209
 1042SOL    HW1 4025   4.863   4.523   2.295
 1042SOL    HW2 4026   4.836   4.519   2.134
 1043SOL     OW 4027   3.120   1.531   3.266
 1043SOL    HW1 4028   3.220   1.530   3.259
 1043SOL    HW2 4029   3.093   1.498   3.357
 1044SOL     OW 4030   5.823   5.077   1.638
 1044SOL    HW1 4031   5.847   4.982   1.620
 1044SOL    HW2 4032   5.775   5.083   1.725
 1045SOL     OW 4033   2.243   0.488   3.704
 1045SOL    HW1 4034   2.332   0.526   3.677
 1045SOL    HW2 4035   2.255   0.393   3.733
 1046SOL     OW 4036   3.393   1.458   1.034
 1046SOL    HW1 4037   3.472   1.472   0.974
 1046SOL    HW2 4038   3.400   1.368   1.078
 1047SOL     OW 4039   3.569   6.671   3.417
 1047SOL    HW1 4040   3.517   6.753   3.444
 1047SOL    HW2 4041   3.550   6.651   3.321
 1048SOL     OW 4042   1.465   5.947   2.223
 1048SOL    HW1 4043   1.534   6.001   2.272
 1048SOL    HW2 4044   1.467   5.971   2.126
 1049SOL     OW 4045   4.061   0.006   5.146
 1049SOL    HW1 4046   4.136   0.042   5.089
 1049SOL    HW2 4047   4.099   6.965   5.216
 1050SOL     OW 4048   3.334   4.919   3.978
 1050SOL    HW1 4049   3.357   4.920   4.075
 1050SOL    HW2 4050   3.405   4.871   3.927
 1051SOL     OW 4051   0.098   0.197   0.291
 1051SOL    HW1 4052   0.175   0.135   0.278
 1051SOL    HW2 4053   0.013   0.151   0.264
 1052SOL     OW 4054   3.999   0.386   6.463
 1052SOL    HW1 4055   4.019   0.385   6.561
 1052SOL    HW2 4056   3.931   0.315   6.442
 1053SOL     OW 4057   6.286   3.366   2.380
 1053SOL    HW1 4058   6.269   3.401   2.288
 1053SOL    HW2 4059   6.374   3.400   2.413
 1054SOL     OW 4060   3.353   4.356   0.409
 1054SOL    HW1 4061   3.383   4.402   0.325
 1054SOL    HW2 4062   3.322   4.264   0.387
 1055SOL     OW 4063   4.204   5.771   6.732
 1055SOL    HW1 4064   4.198   5.840   6.805
 1055SOL    HW2 4065   4.269   5.700   6.758
 1056SOL     OW 4066   2.323   4.271   0.114
 1056SOL    HW1 4067   2.420   4.260   0.136
 1056SOL    HW2 4068   2.273   4.191   0.148
 1057SOL     OW 4069   3.471   2.016   1.676
 1057SOL    HW1 4070   3.428   2.105   1.665
 1057SOL    HW2 4071   3.558   2.026   1.725
 1058SOL     OW 4072   3.234   2.089   2.735
 1058SOL    HW1 4073   3.218   1.991   2.739
 1058SOL    HW2 4074   3.172   2.130   2.668
 1059SOL     OW 4075   2.515   5.928   1.305
 1059SOL    HW1 4076   2.597   5.951   1.356
 1059SOL    HW2 4077   2.536   5.926   1.207
 1060SOL     OW 4078   0.022   5.844   5.437
 1060SOL    HW1 4079   6.951   5.865   5.398
 1060SOL    HW2 4080   0.081   5.808   5.364
 1061SOL     OW 4081   0.001   4.065   0.803
 1061SOL    HW1 4082   7.008   4.020   0.714
 1061SOL    HW2 4083   6.931   4.102   0.833
 1062SOL     OW 4084   3.669   6.448   5.265
 1062SOL    HW1 4085   3.588   6.469   5.320
 1062SOL    HW2 4086   3.731   6.390   5.317
 1063SOL     OW 4087   1.454   6.579   5.625
 1063SOL    HW1 4088   1.444   6.482   5.648
 1063SOL    HW2 4089   1.551   6.602   5.619
 1064SOL     OW 4090   0.564   4.578   0.979
 1064SOL    HW1 4091   0.500   4.549   0.908
 1064SOL    HW2 4092   0.514   4.602   1.062
 1065SOL     OW 4093   3.855   0.369   4.319
 1065SOL    HW1 4094   3.778   0.323   4.363
 1065SOL    HW2 4095   3.927   0.386   4.387
 1066SOL     OW 4096   4.683   0.299   2.377
 1066SOL    HW1 4097   4.774   0.331   2.350
 1066SOL    HW2 4098   4.620   0.307   2.300
 1067SOL     OW 4099   2.916   1.202   0.182
 1067SOL    HW1 4100   2.937   1.297   0.157
 1067SOL    HW2 4101   2.817   1.188   0.179
 1068SOL     OW 4102   5.895   3.357   1.288
 1068SOL    HW1 4103   5.971   3.304   1.252
 1068SOL    HW2 4104   5.809   3.307   1.273
 1069SOL     OW 4105   6.430   4.440   1.160
 1069SOL    HW1 4106   6.360   4.369   1.151
 1069SOL    HW2 4107   6.394   4.516   1.214
 1070SOL     OW 4108   1.464   0.795   2.221
 1070SOL    HW1 4109   1.399   0.727   2.187
 1070SOL    HW2 4110   1.419   0.854   2.287
 1071SOL     OW 4111   6.869   2.570   5.060
 1071SOL    HW1 4112   6.805   2.515   5.114
 1071SOL    HW2 4113   6.893   2.653   5.110
 1072SOL     OW 4114   2.948   1.097   2.502
 1072SOL    HW1 4115   3.005   1.177   2.519
 1072SOL    HW2 4116   3.006   1.016   2.493
 1073SOL     OW 4117   5.075   2.138   3.305
 1073SOL    HW1 4118   5.154   2.113   3.362
 1073SOL    HW2 4119   5.041   2.057   3.258
 1074SOL     OW 4120   3.223   5.194   1.926
 1074SOL    HW1 4121   3.143   5.170   1.870
 1074SOL    HW2 4122   3.267   5.110   1.957
 1075SOL     OW 4123   5.902   2.626   5.184
 1075SOL    HW1 4124   5.808   2.631   5.219
 1075SOL    HW2 4125   5.902   2.583   5.094
 1076SOL     OW 4126   2.063   4.048   4.850
 1076SOL    HW1 4127   2.151   4.052   4.898
 1076SOL    HW2 4128   2.075   4.074   4.755
 1077SOL     OW 4129   6.596   0.552   0.105
 1077SOL    HW1 4130   6.597   0.509   0.015
 1077SOL    HW2 4131   6.662   0.507   0.164
 1078SOL     OW 4132   6.814   6.235   3.980
 1078SOL    HW1 4133   6.899   6.207   4.023
 1078SOL    HW2 4134   6.827   6.238   3.880
 1079SOL     OW 4135   1.021   5.760   2.854
 1079SOL    HW1 4136   1.054   5.675   2.895
 1079SOL    HW2 4137   1.081   5.836   2.879
 1080SOL     OW 4138   2.205   5.119   5.246
 1080SOL    HW1 4139   2.208   5.053   5.320
 1080SOL    HW2 4140   2.238   5.077   5.162
 1081SOL     OW 4141   6.078   5.614   4.467
 1081SOL    HW1 4142   6.128   5.676   4.405
 1081SOL    HW2 4143   5.980   5.619   4.447
 1082SOL     OW 4144   5.562   6.805   6.271
 1082SOL    HW1 4145   5.643   6.747   6.266
 1082SOL    HW2 4146   5.537   6.836   6.179
 1083SOL     OW 4147   5.258   4.325   1.017
 1083SOL    HW1 4148   5.199   4.250   1.045
 1083SOL    HW2 4149   5.253   4.336   0.917
 1084SOL     OW 4150   0.146   0.080   6.658
 1084SOL    HW1 4151   0.073   0.115   6.717
 1084SOL    HW2 4152   0.146   0.129   6.572
 1085SOL     OW 4153   2.090   3.808   4.124
 1085SOL    HW1 4154   2.059   3.746   4.195
 1085SOL    HW2 4155   2.089   3.761   4.036
 1086SOL     OW 4156   6.297   4.519   6.809
 1086SOL    HW1 4157   6.289   4.493   6.713
 1086SOL    HW2 4158   6.331   4.613   6.815
 1087SOL     OW 4159   1.896   0.696   5.610
 1087SOL    HW1 4160   1.942   0.783   5.628
 1087SOL    HW2 4161   1.803   0.700   5.647
 1088SOL     OW 4162   0.068   4.601   3.647
 1088SOL    HW1 4163   0.105   4.555   3.727
 1088SOL    HW2 4164   0.125   4.680   3.624
 1089SOL     OW 4165   6.465   4.814   4.820
 1089SOL    HW1 4166   6.508   4.878   4.757
 1089SOL    HW2 4167   6.442   4.730   4.771
 1090SOL     OW 4168   4.997   1.452   4.717
 1090SOL    HW1 4169   5.007   1.463   4.816
 1090SOL    HW2 4170   5.020   1.538   4.671
 1091SOL     OW 4171   2.139   3.141   3.660
 1091SOL    HW1 4172   2.190   3.057   3.678
 1091SOL    HW2 4173   2.121   3.149   3.562
 1092SOL     OW 4174   0.708   5.045   0.737
 1092SOL    HW1 4175   0.690   4.955   0.776
 1092SOL    HW2 4176   0.776   5.093   0.793
 1093SOL     OW 4177   2.002   6.674   1.034
 1093SOL    HW1 4178   1.969   6.761   1.072
 1093SOL    HW2 4179   2.097   6.685   1.004
 1094SOL     OW 4180   1.289   0.406   3.243
 1094SOL    HW1 4181   1.251   0.342   3.176
 1094SOL    HW2 4182   1.379   0.373   3.273
 1095SOL     OW 4183   0.052   3.075   0.166
 1095SOL    HW1 4184   0.122   3.065   0.236
 1095SOL    HW2 4185   6.991   3.021   0.191
 1096SOL     OW 4186   3.066   5.355   1.291
 1096SOL    HW1 4187   3.072   5.256   1.290
 1096SOL    HW2 4188   2.970   5.383   1.301
 1097SOL     OW 4189   2.489   5.302   3.811
 1097SOL    HW1 4190   2.566   5.366   3.810
 1097SOL    HW2 4191   2.506   5.228   3.746
 1098SOL     OW 4192   6.017   4.832   0.289
 1098SOL    HW1 4193   6.106   4.805   0.327
 1098SOL    HW2 4194   6.012   4.932   0.282
 1099SOL     OW 4195   4.706   1.468   6.496
 1099SOL    HW1 4196   4.734   1.534   6.566
 1099SOL    HW2 4197   4.611   1.484   6.470
 1100SOL     OW 4198   3.884   1.317   3.523
 1100SOL    HW1 4199   3.795   1.271   3.527
 1100SOL    HW2 4200   3.880   1.402   3.576
 1101SOL     OW 4201   5.828   3.306   5.615
 1101SOL    HW1 4202   5.863   3.215   5.634
 1101SOL    HW2 4203   5.801   3.312   5.519
 1102SOL     OW 4204   2.212   0.976   4.540
 1102SOL    HW1 4205   2.271   1.019   4.609
 1102SOL    HW2 4206   2.259   0.975   4.452
 1103SOL     OW 4207   3.097   0.627   6.511
 1103SOL    HW1 4208   3.138   0.683   6.583
 1103SOL    HW2 4209   3.156   0.549   6.492
 1104SOL     OW 4210   0.544   3.962   3.070
 1104SOL    HW1 4211   0.555   3.869   3.106
 1104SOL    HW2 4212   0.498   3.958   2.981
 1105SOL     OW 4213   5.057   1.368   5.013
 1105SOL    HW1 4214   5.001   1.314   4.950
 1105SOL    HW2 4215   5.154   1.359   4.988
 1106SOL     OW 4216   0.598   1.515   0.616
 1106SOL    HW1 4217   0.561   1.519   0.523
 1106SOL    HW2 4218   0.642   1.426   0.630
 1107SOL     OW 4219   0.637   1.013   6.973
 1107SOL    HW1 4220   0.624   0.989   6.877
 1107SOL    HW2 4221   0.577   0.958   0.011
 1108SOL     OW 4222   3.240   6.028   4.000
 1108SOL    HW1 4223   3.180   5.989   4.070
 1108SOL    HW2 4224   3.187   6.045   3.917
 1109SOL     OW 4225   5.280   1.470   4.390
 1109SOL    HW1 4226   5.293   1.544   4.324
 1109SOL    HW2 4227   5.333   1.489   4.473
 1110SOL     OW 4228   3.707   0.509   2.700
 1110SOL    HW1 4229   3.791   0.563   2.690
 1110SOL    HW2 4230   3.684   0.502   2.798
 1111SOL     OW 4231   4.759   3.723   6.317
 1111SOL    HW1 4232   4.663   3.707   6.340
 1111SOL    HW2 4233   4.813   3.727   6.401
 1112SOL     OW 4234   5.724   0.563   2.334
 1112SOL    HW1 4235   5.659   0.505   2.383
 1112SOL    HW2 4236   5.758   0.634   2.397
 1113SOL     OW 4237   6.290   4.541   2.487
 1113SOL    HW1 4238   6.196   4.554   2.458
 1113SOL    HW2 4239   6.297   4.459   2.543
 1114SOL     OW 4240   4.466   2.637   5.838
 1114SOL    HW1 4241   4.404   2.681   5.773
 1114SOL    HW2 4242   4.435   2.543   5.855
 1115SOL     OW 4243   2.711   3.893   6.069
 1115SOL    HW1 4244   2.721   3.912   5.971
 1115SOL    HW2 4245   2.708   3.794   6.084
 1116SOL     OW 4246   4.854   0.631   6.331
 1116SOL    HW1 4247   4.789   0.556   6.337
 1116SOL    HW2 4248   4.812   0.715   6.365
 1117SOL     OW 4249   1.052   2.706   1.528
 1117SOL    HW1 4250   1.127   2.702   1.462
 1117SOL    HW2 4251   0.979   2.643   1.501
 1118SOL     OW 4252   3.095   5.164   0.124
 1118SOL    HW1 4253   3.107   5.169   0.223
 1118SOL    HW2 4254   3.005   5.125   0.103
 1119SOL     OW 4255   4.072   5.036   3.761
 1119SOL    HW1 4256   4.062   5.133   3.783
 1119SOL    HW2 4257   4.139   5.026   3.687
 1120SOL     OW 4258   6.893   5.779   0.793
 1120SOL    HW1 4259   6.849   5.808   0.708
 1120SOL    HW2 4260   6.909   5.859   0.851
 1121SOL     OW 4261   0.669   4.584   4.196
 1121SOL    HW1 4262   0.640   4.523   4.123
 1121SOL    HW2 4263   0.758   4.553   4.232
 1122SOL     OW 4264   5.762   2.585   1.781
 1122SOL    HW1 4265   5.703   2.601   1.702
 1122SOL    HW2 4266   5.711   2.603   1.865
 1123SOL     OW 4267   4.236   2.263   3.254
 1123SOL    HW1 4268   4.225   2.173   3.296
 1123SOL    HW2 4269   4.207   2.259   3.159
 1124SOL     OW 4270   2.098   2.873   4.613
 1124SOL    HW1 4271   2.135   2.892   4.704
 1124SOL    HW2 4272   2.117   2.950   4.552
 1125SOL     OW 4273   1.331   3.603   4.273
 1125SOL    HW1 4274   1.421   3.641   4.294
 1125SOL    HW2 4275   1.336   3.550   4.188
 1126SOL     OW 4276   4.411   5.744   5.466
 1126SOL    HW1 4277   4.345   5.817   5.449
 1126SOL    HW2 4278   4.370   5.656   5.440
 1127SOL     OW 4279   5.326   5.616   3.168
 1127SOL    HW1 4280   5.352   5.519   3.162
 1127SOL    HW2 4281   5.351   5.652   3.257
 1128SOL     OW 4282   6.364   1.397   3.342
 1128SOL    HW1 4283   6.363   1.443   3.431
 1128SOL    HW2 4284   6.273   1.404   3.300
 1129SOL     OW 4285   1.821   0.399   1.008
 1129SOL    HW1 4286   1.805   0.407   0.910
 1129SOL    HW2 4287   1.900   0.340   1.024
 1130SOL     OW 4288   2.273   5.172   3.174
 1130SOL    HW1 4289   2.204   5.113   3.216
 1130SOL    HW2 4290   2.264   5.167   3.074
 1131SOL     OW 4291   1.226   6.594   3.965
 1131SOL    HW1 4292   1.312   6.547   3.944
 1131SOL    HW2 4293   1.162   6.529   4.006
 1132SOL     OW 4294   4.120   1.306   2.986
 1132SOL    HW1 4295   4.185   1.284   2.912
 1132SOL    HW2 4296   4.160   1.278   3.074
 1133SOL     OW 4297   0.887   6.713   5.134
 1133SOL    HW1 4298   0.798   6.685   5.099
 1133SOL    HW2 4299   0.896   6.684   5.230
 1134SOL     OW 4300   4.671   0.124   1.596
 1134SOL    HW1 4301   4.593   0.061   1.588
 1134SOL    HW2 4302   4.644   0.204   1.649
 1135SOL     OW 4303   1.926   6.185   3.544
 1135SOL    HW1 4304   1.959   6.259   3.602
 1135SOL    HW2 4305   1.966   6.193   3.453
 1136SOL     OW 4306   2.782   5.572   2.301
 1136SOL    HW1 4307   2.711   5.527   2.355
 1136SOL    HW2 4308   2.757   5.668   2.286
 1137SOL     OW 4309   0.431   5.802   6.432
 1137SOL    HW1 4310   0.466   5.748   6.509
 1137SOL    HW2 4311   0.496   5.797   6.356
 1138SOL     OW 4312   2.134   3.017   5.151
 1138SOL    HW1 4313   2.226   2.979   5.145
 1138SOL    HW2 4314   2.096   2.998   5.241
 1139SOL     OW 4315   2.966   4.840   4.275
 1139SOL    HW1 4316   2.990   4.857   4.179
 1139SOL    HW2 4317   3.047   4.851   4.332
 1140SOL     OW 4318   2.009   1.010   2.043
 1140SOL    HW1 4319   2.061   1.060   2.113
 1140SOL    HW2 4320   2.044   0.917   2.036
 1141SOL     OW 4321   5.945   4.790   5.877
 1141SOL    HW1 4322   5.845   4.792   5.885
 1141SOL    HW2 4323   5.973   4.710   5.825
 1142SOL     OW 4324   2.306   0.006   3.145
 1142SOL    HW1 4325   2.380   6.958   3.139
 1142SOL    HW2 4326   2.344   0.098   3.139
 1143SOL     OW 4327   0.928   3.839   1.759
 1143SOL    HW1 4328   0.838   3.879   1.742
 1143SOL    HW2 4329   0.937   3.754   1.707
 1144SOL     OW 4330   5.470   4.630   1.899
 1144SOL    HW1 4331   5.463   4.575   1.816
 1144SOL    HW2 4332   5.518   4.715   1.878
 1145SOL     OW 4333   0.967   1.681   0.373
 1145SOL    HW1 4334   1.054   1.632   0.373
 1145SOL    HW2 4335   0.904   1.639   0.307
 1146SOL     OW 4336   0.558   1.325   1.740
 1146SOL    HW1 4337   0.642   1.273   1.727
 1146SOL    HW2 4338   0.567   1.384   1.821
 1147SOL     OW 4339   3.334   6.297   1.241
 1147SOL    HW1 4340   3.281   6.303   1.156
 1147SOL    HW2 4341   3.382   6.209   1.245
 1148SOL     OW 4342   4.004   6.318   2.138
 1148SOL    HW1 4343   4.056   6.281   2.214
 1148SOL    HW2 4344   3.975   6.411   2.158
 1149SOL     OW 4345   5.479   2.132   1.649
 1149SOL    HW1 4346   5.492   2.170   1.740
 1149SOL    HW2 4347   5.453   2.205   1.586
 1150SOL     OW 4348   1.203   4.184   6.792
 1150SOL    HW1 4349   1.150   4.223   6.717
 1150SOL    HW2 4350   1.167   4.093   6.813
 1151SOL     OW 4351   6.563   5.116   3.711
 1151SOL    HW1 4352   6.591   5.021   3.702
 1151SOL    HW2 4353   6.605   5.155   3.794
 1152SOL     OW 4354   5.056   0.918   6.823
 1152SOL    HW1 4355   5.033   0.838   6.767
 1152SOL    HW2 4356   4.979   0.981   6.825
 1153SOL     OW 4357   6.212   6.959   1.451
 1153SOL    HW1 4358   6.252   6.867   1.440
 1153SOL    HW2 4359   6.284   0.009   1.441
 1154SOL     OW 4360   1.394   3.121   2.240
 1154SOL    HW1 4361   1.377   3.046   2.177
 1154SOL    HW2 4362   1.445   3.087   2.319
 1155SOL     OW 4363   2.535   6.569   4.686
 1155SOL    HW1 4364   2.438   6.565   4.709
 1155SOL    HW2 4365   2.548   6.636   4.612
 1156SOL     OW 4366   3.904   1.569   4.861
 1156SOL    HW1 4367   3.967   1.527   4.796
 1156SOL    HW2 4368   3.928   1.664   4.876
 1157SOL     OW 4369   4.074   0.431   5.807
 1157SOL    HW1 4370   4.005   0.361   5.823
 1157SOL    HW2 4371   4.031   0.522   5.808
 1158SOL     OW 4372   6.038   5.702   3.078
 1158SOL    HW1 4373   6.024   5.682   2.981
 1158SOL    HW2 4374   5.950   5.702   3.126
 1159SOL     OW 4375   6.821   6.133   2.737
 1159SOL    HW1 4376   6.810   6.223   2.780
 1159SOL    HW2 4377   6.737   6.080   2.749
 1160SOL     OW 4378   4.388   0.148   0.618
 1160SOL    HW1 4379   4.374   0.230   0.674
 1160SOL    HW2 4380   4.461   0.164   0.552
 1161SOL     OW 4381   6.879   5.641   0.045
 1161SOL    HW1 4382   6.812   5.567   0.051
 1161SOL    HW2 4383   6.887   5.671   6.969
 1162SOL     OW 4384   2.027   2.916   5.389
 1162SOL    HW1 4385   1.983   2.969   5.462
 1162SOL    HW2 4386   1.960   2.858   5.344
 1163SOL     OW 4387   6.125   4.378   1.765
 1163SOL    HW1 4388   6.068   4.346   1.841
 1163SOL    HW2 4389   6.220   4.383   1.794
 1164SOL     OW 4390   5.009   1.996   4.349
 1164SOL    HW1 4391   5.006   2.086   4.305
 1164SOL    HW2 4392   4.960   1.999   4.435
 1165SOL     OW 4393   3.998   6.291   3.559
 1165SOL    HW1 4394   4.069   6.225   3.584
 1165SOL    HW2 4395   3.945   6.255   3.482
 1166SOL     OW 4396   2.385   6.344   6.787
 1166SOL    HW1 4397   2.378   6.444   6.782
 1166SOL    HW2 4398   2.462   6.314   6.731
 1167SOL     OW 4399   5.433   4.288   2.372
 1167SOL    HW1 4400   5.453   4.220   2.442
 1167SOL    HW2 4401   5.364   4.252   2.309
 1168SOL     OW 4402   5.936   2.410   2.531
 1168SOL    HW1 4403   5.979   2.408   2.441
 1168SOL    HW2 4404   5.991   2.465   2.594
 1169SOL     OW 4405   5.595   0.937   5.231
 1169SOL    HW1 4406   5.689   0.971   5.228
 1169SOL    HW2 4407   5.589   0.852   5.179
 1170SOL     OW 4408   4.886   0.089   3.296
 1170SOL    HW1 4409   4.865   7.010   3.297
 1170SOL    HW2 4410   4.855   0.129   3.210
 1171SOL     OW 4411   1.405   0.444   0.694
 1171SOL    HW1 4412   1.465   0.407   0.623
 1171SOL    HW2 4413   1.311   0.446   0.661
 1172SOL     OW 4414   6.547   3.873   0.242
 1172SOL    HW1 4415   6.459   3.828   0.252
 1172SOL    HW2 4416   6.597   3.833   0.165
 1173SOL     OW 4417   2.922   1.211   1.375
 1173SOL    HW1 4418   2.884   1.276   1.441
 1173SOL    HW2 4419   3.009   1.246   1.341
 1174SOL     OW 4420   3.596   3.792   1.278
 1174SOL    HW1 4421   3.638   3.870   1.324
 1174SOL    HW2 4422   3.500   3.812   1.258
 1175SOL     OW 4423   4.087   3.046   5.498
 1175SOL    HW1 4424   4.043   3.124   5.543
 1175SOL    HW2 4425   4.035   3.021   5.417
 1176SOL     OW 4426   5.018   3.566   5.976
 1176SOL    HW1 4427   5.001   3.574   5.878
 1176SOL    HW2 4428   5.089   3.498   5.993
 1177SOL     OW 4429   6.339   2.134   4.589
 1177SOL    HW1 4430   6.377   2.201   4.524
 1177SOL    HW2 4431   6.239   2.137   4.586
 1178SOL     OW 4432   2.951   4.798   0.293
 1178SOL    HW1 4433   2.977   4.746   0.211
 1178SOL    HW2 4434   3.030   4.805   0.354
 1179SOL     OW 4435   2.377   5.746   0.232
 1179SOL    HW1 4436   2.424   5.799   0.302
 1179SOL    HW2 4437   2.384   5.648   0.254
 1180SOL     OW 4438   3.102   5.821   0.782
 1180SOL    HW1 4439   3.109   5.842   0.685
 1180SOL    HW2 4440   3.055   5.895   0.830
 1181SOL     OW 4441   0.718   5.680   6.846
 1181SOL    HW1 4442   0.708   5.760   6.786
 1181SOL    HW2 4443   0.628   5.653   6.879
 1182SOL     OW 4444   3.517   5.548   3.036
 1182SOL    HW1 4445   3.446   5.612   3.008
 1182SOL    HW2 4446   3.565   5.513   2.956
 1183SOL     OW 4447   1.620   4.364   6.901
 1183SOL    HW1 4448   1.587   4.285   6.848
 1183SOL    HW2 4449   1.553   4.438   6.896
 1184SOL     OW 4450   1.027   0.254   4.895
 1184SOL    HW1 4451   1.035   0.321   4.969
 1184SOL    HW2 4452   0.978   0.296   4.818
 1185SOL     OW 4453   6.869   1.006   6.567
 1185SOL    HW1 4454   6.814   0.932   6.606
 1185SOL    HW2 4455   6.926   1.047   6.638
 1186SOL     OW 4456   4.859   5.687   4.147
 1186SOL    HW1 4457   4.953   5.709   4.119
 1186SOL    HW2 4458   4.804   5.668   4.065
 1187SOL     OW 4459   6.910   0.282   6.299
 1187SOL    HW1 4460   6.930   0.305   6.204
 1187SOL    HW2 4461   6.830   0.334   6.330
 1188SOL     OW 4462   2.896   6.237   4.655
 1188SOL    HW1 4463   2.916   6.334   4.674
 1188SOL    HW2 4464   2.982   6.188   4.641
 1189SOL     OW 4465   6.571   3.441   2.904
 1189SOL    HW1 4466   6.509   3.372   2.866
 1189SOL    HW2 4467   6.519   3.510   2.953
 1190SOL     OW 4468   1.912   5.785   3.221
 1190SOL    HW1 4469   1.865   5.738   3.297
 1190SOL    HW2 4470   2.010   5.773   3.231
 1191SOL     OW 4471   4.014   5.412   3.369
 1191SOL    HW1 4472   4.058   5.342   3.425
 1191SOL    HW2 4473   3.930   5.375   3.329
 1192SOL     OW 4474   3.561   5.816   3.181
 1192SOL    HW1 4475   3.616   5.871   3.117
 1192SOL    HW2 4476   3.469   5.804   3.144
 1193SOL     OW 4477   5.895   4.533   4.351
 1193SOL    HW1 4478   5.877   4.448   4.401
 1193SOL    HW2 4479   5.970   4.582   4.396
 1194SOL     OW 4480   5.424   0.452   1.171
 1194SOL    HW1 4481   5.353   0.504   1.217
 1194SOL    HW2 4482   5.382   0.377   1.120
 1195SOL     OW 4483   6.229   4.878   1.732
 1195SOL    HW1 4484   6.164   4.802   1.737
 1195SOL    HW2 4485   6.280   4.884   1.818
 1196SOL     OW 4486   0.086   6.463   3.704
 1196SOL    HW1 4487   0.179   6.500   3.706
 1196SOL    HW2 4488   0.022   6.532   3.739
 1197SOL     OW 4489   3.319   0.973   6.911
 1197SOL    HW1 4490   3.415   0.962   6.885
 1197SOL    HW2 4491   3.310   0.961   7.010
 1198SOL     OW 4492   1.346   2.535   1.181
 1198SOL    HW1 4493   1.328   2.466   1.111
 1198SOL    HW2 4494   1.358   2.491   1.270
 1199SOL     OW 4495   4.761   5.093   1.619
 1199SOL    HW1 4496   4.752   5.066   1.715
 1199SOL    HW2 4497   4.740   5.014   1.561
 1200SOL     OW 4498   3.288   3.260   2.731
 1200SOL    HW1 4499   3.352   3.205   2.678
 1200SOL    HW2 4500   3.202   3.269   2.681
 1201SOL     OW 4501   1.370   1.019   4.914
 1201SOL    HW1 4502   1.281   0.983   4.943
 1201SOL    HW2 4503   1.443   0.959   4.948
 1202SOL     OW 4504   1.253   5.524   6.687
 1202SOL    HW1 4505   1.330   5.584   6.667
 1202SOL    HW2 4506   1.167   5.574   6.673
 1203SOL     OW 4507   4.723   5.920   6.317
 1203SOL    HW1 4508   4.820   5.945   6.322
 1203SOL    HW2 4509   4.713   5.821   6.325
 1204SOL     OW 4510   2.361   0.376   1.408
 1204SOL    HW1 4511   2.327   0.287   1.436
 1204SOL    HW2 4512   2.297   0.447   1.436
 1205SOL     OW 4513   4.990   4.075   1.693
 1205SOL    HW1 4514   4.923   4.024   1.747
 1205SOL    HW2 4515   4.984   4.172   1.717
 1206SOL     OW 4516   3.639   2.907   4.671
 1206SOL    HW1 4517   3.630   2.864   4.761
 1206SOL    HW2 4518   3.567   2.975   4.658
 1207SOL     OW 4519   2.823   6.791   1.603
 1207SOL    HW1 4520   2.835   6.805   1.702
 1207SOL    HW2 4521   2.758   6.857   1.567
 1208SOL     OW 4522   3.294   3.967   0.078
 1208SOL    HW1 4523   3.338   4.021   0.006
 1208SOL    HW2 4524   3.252   3.885   0.037
 1209SOL     OW 4525   3.835   0.240   5.440
 1209SOL    HW1 4526   3.825   0.328   5.487
 1209SOL    HW2 4527   3.929   0.207   5.452
 1210SOL     OW 4528   2.542   6.745   3.682
 1210SOL    HW1 4529   2.521   6.666   3.740
 1210SOL    HW2 4530   2.639   6.742   3.657
 1211SOL     OW 4531   1.113   3.793   0.853
 1211SOL    HW1 4532   1.211   3.814   0.861
 1211SOL    HW2 4533   1.064   3.874   0.821
 1212SOL     OW 4534   0.420   0.194   6.606
 1212SOL    HW1 4535   0.453   0.160   6.518
 1212SOL    HW2 4536   0.328   0.161   6.623
 1213SOL     OW 4537   5.865   3.046   0.244
 1213SOL    HW1 4538   5.826   3.010   0.329
 1213SOL    HW2 4539   5.856   2.977   0.172
 1214SOL     OW 4540   0.034   1.935   1.040
 1214SOL    HW1 4541   0.005   1.946   0.945
 1214SOL    HW2 4542   0.076   2.020   1.071
 1215SOL     OW 4543   1.718   4.334   4.068
 1215SOL    HW1 4544   1.754   4.417   4.110
 1215SOL    HW2 4545   1.794   4.277   4.035
 1216SOL     OW 4546   4.412   0.438   0.077
 1216SOL    HW1 4547   4.479   0.387   0.024
 1216SOL    HW2 4548   4.366   0.505   0.018
 1217SOL     OW 4549   2.124   4.583   0.549
 1217SOL    HW1 4550   2.125   4.680   0.573
 1217SOL    HW2 4551   2.045   4.564   0.491
 1218SOL     OW 4552   0.986   5.176   4.156
 1218SOL    HW1 4553   1.037   5.195   4.072
 1218SOL    HW2 4554   1.010   5.085   4.190
 1219SOL     OW 4555   4.773   6.134   2.052
 1219SOL    HW1 4556   4.722   6.200   2.107
 1219SOL    HW2 4557   4.720   6.111   1.970
 1220SOL     OW 4558   1.336   5.248   3.078
 1220SOL    HW1 4559   1.395   5.310   3.026
 1220SOL    HW2 4560   1.371   5.155   3.070
 1221SOL     OW 4561   5.444   3.247   5.392
 1221SOL    HW1 4562   5.480   3.169   5.340
 1221SOL    HW2 4563   5.356   3.222   5.432
 1222SOL     OW 4564   6.318   6.891   6.596
 1222SOL    HW1 4565   6.356   6.817   6.652
 1222SOL    HW2 4566   6.223   6.908   6.622
 1223SOL     OW 4567   3.847   0.252   0.180
 1223SOL    HW1 4568   3.878   0.294   0.265
 1223SOL    HW2 4569   3.747   0.242   0.183
 1224SOL     OW 4570   2.479   0.311   1.130
 1224SOL    HW1 4571   2.497   0.378   1.058
 1224SOL    HW2 4572   2.466   0.358   1.217
 1225SOL     OW 4573   3.377   4.202   5.972
 1225SOL    HW1 4574   3.423   4.116   5.950
 1225SOL    HW2 4575   3.425   4.278   5.929
 1226SOL     OW 4576   2.245   4.558   1.256
 1226SOL    HW1 4577   2.238   4.563   1.355
 1226SOL    HW2 4578   2.340   4.574   1.228
 1227SOL     OW 4579   6.877   3.333   6.874
 1227SOL    HW1 4580   6.909   3.259   6.815
 1227SOL    HW2 4581   6.928   3.332   6.960
 1228SOL     OW 4582   3.793   2.902   6.592
 1228SOL    HW1 4583   3.891   2.902   6.572
 1228SOL    HW2 4584   3.749   2.826   6.544
 1229SOL     OW 4585   4.496   4.454   6.901
 1229SOL    HW1 4586   4.406   4.463   6.945
 1229SOL    HW2 4587   4.517   4.538   6.851
 1230SOL     OW 4588   4.230   0.465   3.985
 1230SOL    HW1 4589   4.324   0.473   4.017
 1230SOL    HW2 4590   4.185   0.388   4.029
 1231SOL     OW 4591   2.058   3.582   5.168
 1231SOL    HW1 4592   2.120   3.658   5.149
 1231SOL    HW2 4593   2.109   3.504   5.204
 1232SOL     OW 4594   1.059   2.719   5.176
 1232SOL    HW1 4595   0.977   2.664   5.164
 1232SOL    HW2 4596   1.140   2.661   5.168
 1233SOL     OW 4597   1.073   2.396   5.480
 1233SOL    HW1 4598   1.029   2.486   5.485
 1233SOL    HW2 4599   1.166   2.403   5.517
 1234SOL     OW 4600   6.791   4.264   4.398
 1234SOL    HW1 4601   6.890   4.277   4.396
 1234SOL    HW2 4602   6.768   4.178   4.352
 1235SOL     OW 4603   6.463   5.378   2.758
 1235SOL    HW1 4604   6.465   5.386   2.658
 1235SOL    HW2 4605   6.480   5.284   2.784
 1236SOL     OW 4606   5.047   1.072   6.498
 1236SOL    HW1 4607   4.983   1.090   6.424
 1236SOL    HW2 4608   5.049   0.974   6.518
 1237SOL     OW 4609   2.567   4.607   6.462
 1237SOL    HW1 4610   2.631   4.598   6.386
 1237SOL    HW2 4611   2.483   4.651   6.430
 1238SOL     OW 4612   2.150   1.068   1.062
 1238SOL    HW1 4613   2.248   1.053   1.077
 1238SOL    HW2 4614   2.099   0.988   1.094
 1239SOL     OW 4615   6.832   6.282   6.652
 1239SOL    HW1 4616   6.786   6.360   6.608
 1239SOL    HW2 4617   6.820   6.201   6.595
 1240SOL     OW 4618   5.540   5.970   1.694
 1240SOL    HW1 4619   5.590   6.009   1.617
 1240SOL    HW2 4620   5.444   5.998   1.689
 1241SOL     OW 4621   6.325   3.542   4.431
 1241SOL    HW1 4622   6.358   3.483   4.506
 1241SOL    HW2 4623   6.343   3.497   4.343
 1242SOL     OW 4624   1.440   3.320   0.368
 1242SOL    HW1 4625   1.433   3.362   0.458
 1242SOL    HW2 4626   1.473   3.387   0.302
 1243SOL     OW 4627   2.119   5.359   5.182
 1243SOL    HW1 4628   2.142   5.263   5.199
 1243SOL    HW2 4629   2.039   5.363   5.121
 1244SOL     OW 4630   0.326   0.694   3.152
 1244SOL    HW1 4631   0.401   0.731   3.096
 1244SOL    HW2 4632   0.270   0.769   3.186
 1245SOL     OW 4633   3.360   3.523   6.668
 1245SOL    HW1 4634   3.388   3.588   6.739
 1245SOL    HW2 4635   3.373   3.430   6.702
 1246SOL     OW 4636   2.572   6.941   2.047
 1246SOL    HW1 4637   2.539   6.944   1.952
 1246SOL    HW2 4638   2.496   6.958   2.109
 1247SOL     OW 4639   3.011   6.664   6.571
 1247SOL    HW1 4640   2.964   6.713   6.498
 1247SOL    HW2 4641   3.029   6.727   6.646
 1248SOL     OW 4642   1.733   5.980   3.174
 1248SOL    HW1 4643   1.702   5.973   3.079
 1248SOL    HW2 4644   1.813   5.922   3.188
 1249SOL     OW 4645   6.057   3.356   3.337
 1249SOL    HW1 4646   6.043   3.373   3.434
 1249SOL    HW2 4647   5.970   3.362   3.289
 1250SOL     OW 4648   1.314   4.899   3.891
 1250SOL    HW1 4649   1.334   4.874   3.796
 1250SOL    HW2 4650   1.399   4.898   3.944
 1251SOL     OW 4651   3.925   0.680   4.606
 1251SOL    HW1 4652   3.895   0.736   4.529
 1251SOL    HW2 4653   4.016   0.644   4.588
 1252SOL     OW 4654   3.339   3.637   5.999
 1252SOL    HW1 4655   3.259   3.683   6.038
 1252SOL    HW2 4656   3.325   3.538   6.002
 1253SOL     OW 4657   3.469   5.295   2.431
 1253SOL    HW1 4658   3.476   5.322   2.336
 1253SOL    HW2 4659   3.433   5.371   2.485
 1254SOL     OW 4660   6.226   2.109   3.237
 1254SOL    HW1 4661   6.186   2.200   3.250
 1254SOL    HW2 4662   6.312   2.103   3.288
 1255SOL     OW 4663   0.424   0.192   5.822
 1255SOL    HW1 4664   0.441   0.147   5.734
 1255SOL    HW2 4665   0.350   0.258   5.811
 1256SOL     OW 4666   6.393   0.026   2.846
 1256SOL    HW1 4667   6.457   0.083   2.793
 1256SOL    HW2 4668   6.444   6.975   2.896
 1257SOL     OW 4669   6.909   0.531   3.618
 1257SOL    HW1 4670   6.928   0.614   3.670
 1257SOL    HW2 4671   6.812   0.508   3.627
 1258SOL     OW 4672   0.804   6.646   3.119
 1258SOL    HW1 4673   0.808   6.681   3.026
 1258SOL    HW2 4674   0.738   6.700   3.172
 1259SOL     OW 4675   4.046   1.688   5.285
 1259SOL    HW1 4676   4.066   1.736   5.370
 1259SOL    HW2 4677   4.129   1.681   5.230
 1260SOL     OW 4678   0.913   0.968   6.912
 1260SOL    HW1 4679   0.904   1.067   6.923
 1260SOL    HW2 4680   0.861   0.922   6.983
 1261SOL     OW 4681   0.499   5.385   0.513
 1261SOL    HW1 4682   0.401   5.378   0.497
 1261SOL    HW2 4683   0.518   5.467   0.566
 1262SOL     OW 4684   5.019   5.506   2.027
 1262SOL    HW1 4685   5.090   5.575   2.009
 1262SOL    HW2 4686   5.058   5.415   2.015
 1263SOL     OW 4687   0.825   2.279   3.267
 1263SOL    HW1 4688   0.871   2.283   3.178
 1263SOL    HW2 4689   0.894   2.282   3.340
 1264SOL     OW 4690   1.056   2.999   5.602
 1264SOL    HW1 4691   1.131   3.007   5.536
 1264SOL    HW2 4692   1.082   3.044   5.687
 1265SOL     OW 4693   5.927   5.943   5.174
 1265SOL    HW1 4694   5.952   5.876   5.104
 1265SOL    HW2 4695   5.972   6.030   5.155
 1266SOL     OW 4696   1.469   0.454   4.776
 1266SOL    HW1 4697   1.537   0.520   4.746
 1266SOL    HW2 4698   1.431   0.481   4.864
 1267SOL     OW 4699   4.901   0.413   2.269
 1267SOL    HW1 4700   4.927   0.509   2.281
 1267SOL    HW2 4701   4.928   0.382   2.178
 1268SOL     OW 4702   4.124   2.344   5.319
 1268SOL    HW1 4703   4.172   2.292   5.390
 1268SOL    HW2 4704   4.191   2.386   5.258
 1269SOL     OW 4705   6.140   2.395   3.481
 1269SOL    HW1 4706   6.125   2.491   3.504
 1269SOL    HW2 4707   6.149   2.385   3.382
 1270SOL     OW 4708   1.476   4.392   2.565
 1270SOL    HW1 4709   1.524   4.460   2.621
 1270SOL    HW2 4710   1.426   4.439   2.492
 1271SOL     OW 4711   1.581   1.403   1.718
 1271SOL    HW1 4712   1.579   1.307   1.688
 1271SOL    HW2 4713   1.591   1.462   1.638
 1272SOL     OW 4714   6.803   4.147   0.046
 1272SOL    HW1 4715   6.835   4.242   0.044
 1272SOL    HW2 4716   6.855   4.093   6.998
 1273SOL     OW 4717   1.261   4.347   5.044
 1273SOL    HW1 4718   1.345   4.340   4.989
 1273SOL    HW2 4719   1.282   4.393   5.130
 1274SOL     OW 4720   0.633   5.046   2.171
 1274SOL    HW1 4721   0.640   5.113   2.244
 1274SOL    HW2 4722   0.663   4.957   2.204
 1275SOL     OW 4723   2.920   0.609   3.028
 1275SOL    HW1 4724   2.972   0.691   3.051
 1275SOL    HW2 4725   2.899   0.558   3.112
 1276SOL     OW 4726   5.117   4.594   4.327
 1276SOL    HW1 4727   5.098   4.678   4.377
 1276SOL    HW2 4728   5.129   4.615   4.230
 1277SOL     OW 4729   7.017   5.657   6.585
 1277SOL    HW1 4730   0.088   5.627   6.553
 1277SOL    HW2 4731   6.956   5.670   6.506
 1278SOL     OW 4732   1.210   6.052   2.920
 1278SOL    HW1 4733   1.160   6.018   3.000
 1278SOL    HW2 4734   1.208   6.152   2.920
 1279SOL     OW 4735   3.195   2.482   6.605
 1279SOL    HW1 4736   3.275   2.488   6.546
 1279SOL    HW2 4737   3.203   2.548   6.679
 1280SOL     OW 4738   3.023   1.542   2.983
 1280SOL    HW1 4739   3.022   1.642   2.976
 1280SOL    HW2 4740   3.024   1.515   3.079
 1281SOL     OW 4741   3.761   6.115   3.910
 1281SOL    HW1 4742   3.692   6.056   3.951
 1281SOL    HW2 4743   3.815   6.063   3.844
 1282SOL     OW 4744   0.157   2.790   0.656
 1282SOL    HW1 4745   0.108   2.792   0.743
 1282SOL    HW2 4746   0.233   2.855   0.658
 1283SOL     OW 4747   5.800   3.491   5.073
 1283SOL    HW1 4748   5.718   3.539   5.105
 1283SOL    HW2 4749   5.814   3.510   4.976
 1284SOL     OW 4750   4.103   1.653   1.278
 1284SOL    HW1 4751   4.159   1.734   1.289
 1284SOL    HW2 4752   4.041   1.643   1.356
 1285SOL     OW 4753   3.335   1.244   4.787
 1285SOL    HW1 4754   3.427   1.221   4.819
 1285SOL    HW2 4755   3.342   1.298   4.703
 1286SOL     OW 4756   4.857   2.345   2.099
 1286SOL    HW1 4757   4.925   2.315   2.032
 1286SOL    HW2 4758   4.781   2.280   2.101
 1287SOL     OW 4759   6.634   4.509   4.840
 1287SOL    HW1 4760   6.606   4.520   4.745
 1287SOL    HW2 4761   6.662   4.598   4.877
 1288SOL     OW 4762   4.359   3.819   6.919
 1288SOL    HW1 4763   4.410   3.763   6.984
 1288SOL    HW2 4764   4.423   3.873   6.864
 1289SOL     OW 4765   0.060   0.614   1.842
 1289SOL    HW1 4766   0.157   0.591   1.851
 1289SOL    HW2 4767   0.007   0.530   1.829
 1290SOL     OW 4768   1.267   0.132   6.748
 1290SOL    HW1 4769   1.213   0.180   6.678
 1290SOL    HW2 4770   1.205   0.088   6.813
 1291SOL     OW 4771   6.535   4.800   2.734
 1291SOL    HW1 4772   6.527   4.855   2.652
 1291SOL    HW2 4773   6.461   4.732   2.737
 1292SOL     OW 4774   1.086   6.006   1.938
 1292SOL    HW1 4775   1.097   6.047   1.848
 1292SOL    HW2 4776   0.998   5.958   1.943
 1293SOL     OW 4777   2.893   1.311   6.653
 1293SOL    HW1 4778   2.871   1.245   6.581
 1293SOL    HW2 4779   2.820   1.379   6.660
 1294SOL     OW 4780   2.187   4.159   5.562
 1294SOL    HW1 4781   2.219   4.081   5.508
 1294SOL    HW2 4782   2.087   4.158   5.566
 1295SOL     OW 4783   0.071   3.355   1.206
 1295SOL    HW1 4784   0.020   3.279   1.167
 1295SOL    HW2 4785   0.156   3.369   1.154
 1296SOL     OW 4786   5.530   6.865   5.992
 1296SOL    HW1 4787   5.576   6.796   5.936
 1296SOL    HW2 4788   5.552   6.957   5.958
 1297SOL     OW 4789   0.245   0.347   2.313
 1297SOL    HW1 4790   0.255   0.313   2.407
 1297SOL    HW2 4791   0.172   0.415   2.309
 1298SOL     OW 4792   5.715   5.688   2.187
 1298SOL    HW1 4793   5.756   5.675   2.277
 1298SOL    HW2 4794   5.620   5.718   2.198
 1299SOL     OW 4795   2.126   3.477   4.463
 1299SOL    HW1 4796   2.157   3.384   4.478
 1299SOL    HW2 4797   2.062   3.503   4.535
 1300SOL     OW 4798   1.903   4.292   1.302
 1300SOL    HW1 4799   1.996   4.311   1.274
 1300SOL    HW2 4800   1.872   4.363   1.365
 1301SOL     OW 4801   1.108   0.892   1.732
 1301SOL    HW1 4802   1.017   0.929   1.713
 1301SOL    HW2 4803   1.099   0.801   1.772
 1302SOL     OW 4804   5.283   6.292   6.159
 1302SOL    HW1 4805   5.306   6.360   6.229
 1302SOL    HW2 4806   5.335   6.312   6.076
 1303SOL     OW 4807   4.558   6.676   1.538
 1303SOL    HW1 4808   4.550   6.589   1.490
 1303SOL    HW2 4809   4.579   6.659   1.635
 1304SOL     OW 4810   0.608   0.851   1.267
 1304SOL    HW1 4811   0.640   0.937   1.227
 1304SOL    HW2 4812   0.649   0.840   1.358
 1305SOL     OW 4813   5.669   4.111   6.928
 1305SOL    HW1 4814   5.647   4.154   6.840
 1305SOL    HW2 4815   5.603   4.142   6.997
 1306SOL     OW 4816   1.531   5.144   4.800
 1306SOL    HW1 4817   1.439   5.119   4.770
 1306SOL    HW2 4818   1.549   5.240   4.776
 1307SOL     OW 4819   2.084   2.667   3.990
 1307SOL    HW1 4820   2.016   2.619   4.045
 1307SOL    HW2 4821   2.084   2.629   3.897
 1308SOL     OW 4822   6.654   5.415   6.079
 1308SOL    HW1 4823   6.715   5.428   6.157
 1308SOL    HW2 4824   6.559   5.408   6.112
 1309SOL     OW 4825   5.292   4.399   6.552
 1309SOL    HW1 4826   5.303   4.335   6.628
 1309SOL    HW2 4827   5.344   4.483   6.572
 1310SOL     OW 4828   1.098   3.826   4.084
 1310SOL    HW1 4829   1.137   3.747   4.131
 1310SOL    HW2 4830   1.170   3.874   4.033
 1311SOL     OW 4831   6.908   5.870   0.188
 1311SOL    HW1 4832   6.900   5.794   0.123
 1311SOL    HW2 4833   6.857   5.949   0.153
 1312SOL     OW 4834   1.636   0.694   5.728
 1312SOL    HW1 4835   1.641   0.604   5.772
 1312SOL    HW2 4836   1.639   0.765   5.798
 1313SOL     OW 4837   6.678   4.963   2.904
 1313SOL    HW1 4838   6.641   4.890   2.847
 1313SOL    HW2 4839   6.623   4.973   2.987
 1314SOL     OW 4840   2.880   1.698   4.654
 1314SOL    HW1 4841   2.930   1.629   4.706
 1314SOL    HW2 4842   2.880   1.785   4.705
 1315SOL     OW 4843   5.668   0.454   4.380
 1315SOL    HW1 4844   5.688   0.357   4.397
 1315SOL    HW2 4845   5.753   0.502   4.357
 1316SOL     OW 4846   4.239   0.686   4.937
 1316SOL    HW1 4847   4.255   0.774   4.891
 1316SOL    HW2 4848   4.288   0.614   4.888
 1317SOL     OW 4849   3.080   3.215   5.375
 1317SOL    HW1 4850   3.052   3.121   5.356
 1317SOL    HW2 4851   3.022   3.278   5.324
 1318SOL     OW 4852   2.113   2.648   6.979
 1318SOL    HW1 4853   2.048   2.579   6.949
 1318SOL    HW2 4854   2.095   2.671   0.056
 1319SOL     OW 4855   6.801   6.363   0.725
 1319SOL    HW1 4856   6.710   6.393   0.697
 1319SOL    HW2 4857   6.868   6.432   0.698
 1320SOL     OW 4858   3.391   2.948   6.406
 1320SOL    HW1 4859   3.483   2.946   6.444
 1320SOL    HW2 4860   3.373   2.862   6.357
 1321SOL     OW 4861   5.599   2.013   6.266
 1321SOL    HW1 4862   5.630   2.098   6.224
 1321SOL    HW2 4863   5.566   1.950   6.195
 1322SOL     OW 4864   3.174   1.317   6.569
 1322SOL    HW1 4865   3.078   1.328   6.595
 1322SOL    HW2 4866   3.200   1.221   6.579
 1323SOL     OW 4867   3.571   0.287   0.502
 1323SOL    HW1 4868   3.493   0.331   0.457
 1323SOL    HW2 4869   3.540   0.238   0.583
 1324SOL     OW 4870   1.232   3.492   6.950
 1324SOL    HW1 4871   1.269   3.552   0.002
 1324SOL    HW2 4872   1.303   3.472   6.883
 1325SOL     OW 4873   2.165   5.793   6.133
 1325SOL    HW1 4874   2.190   5.881   6.093
 1325SOL    HW2 4875   2.234   5.767   6.201
 1326SOL     OW 4876   4.751   4.147   4.156
 1326SOL    HW1 4877   4.735   4.056   4.192
 1326SOL    HW2 4878   4.785   4.207   4.229
 1327SOL     OW 4879   0.345   6.730   0.797
 1327SOL    HW1 4880   0.283   6.697   0.726
 1327SOL    HW2 4881   0.438   6.733   0.762
 1328SOL     OW 4882   0.900   3.266   5.725
 1328SOL    HW1 4883   0.958   3.219   5.792
 1328SOL    HW2 4884   0.955   3.286   5.644
 1329SOL     OW 4885   0.235   2.591   3.642
 1329SOL    HW1 4886   0.168   2.529   3.683
 1329SOL    HW2 4887   0.200   2.622   3.553
 1330SOL     OW 4888   6.539   2.249   0.828
 1330SOL    HW1 4889   6.455   2.295   0.856
 1330SOL    HW2 4890   6.577   2.199   0.905
 1331SOL     OW 4891   4.269   2.029   2.521
 1331SOL    HW1 4892   4.236   2.088   2.447
 1331SOL    HW2 4893   4.237   1.935   2.504
 1332SOL     OW 4894   2.002   0.691   0.607
 1332SOL    HW1 4895   2.046   0.618   0.555
 1332SOL    HW2 4896   1.922   0.724   0.558
 1333SOL     OW 4897   3.397   4.050   2.993
 1333SOL    HW1 4898   3.443   4.073   2.907
 1333SOL    HW2 4899   3.324   3.984   2.974
 1334SOL     OW 4900   6.681   1.575   2.542
 1334SOL    HW1 4901   6.651   1.624   2.624
 1334SOL    HW2 4902   6.617   1.594   2.467
 1335SOL     OW 4903   1.762   4.226   1.793
 1335SOL    HW1 4904   1.814   4.198   1.713
 1335SOL    HW2 4905   1.727   4.145   1.840
 1336SOL     OW 4906   3.785   0.461   5.548
 1336SOL    HW1 4907   3.763   0.506   5.634
 1336SOL    HW2 4908   3.745   0.511   5.472
 1337SOL     OW 4909   5.987   1.434   3.552
 1337SOL    HW1 4910   6.033   1.421   3.464
 1337SOL    HW2 4911   6.043   1.492   3.611
 1338SOL     OW 4912   5.816   4.178   4.519
 1338SOL    HW1 4913   5.826   4.110   4.591
 1338SOL    HW2 4914   5.754   4.250   4.549
 1339SOL     OW 4915   0.380   0.460   6.556
 1339SOL    HW1 4916   0.400   0.363   6.568
 1339SOL    HW2 4917   0.281   0.475   6.555
 1340SOL     OW 4918   5.125   1.389   1.561
 1340SOL    HW1 4919   5.201   1.439   1.518
 1340SOL    HW2 4920   5.150   1.366   1.655
 1341SOL     OW 4921   4.610   6.951   6.415
 1341SOL    HW1 4922   4.636   6.974   6.321
 1341SOL    HW2 4923   4.660   6.869   6.444
 1342SOL     OW 4924   3.290   5.610   0.766
 1342SOL    HW1 4925   3.242   5.696   0.779
 1342SOL    HW2 4926   3.228   5.534   0.784
 1343SOL     OW 4927   5.444   5.459   2.718
 1343SOL    HW1 4928   5.427   5.367   2.682
 1343SOL    HW2 4929   5.528   5.458   2.771
 1344SOL     OW 4930   6.954   0.125   4.500
 1344SOL    HW1 4931   6.860   0.093   4.491
 1344SOL    HW2 4932   7.014   0.068   4.443
 1345SOL     OW 4933   0.378   5.393   1.874
 1345SOL    HW1 4934   0.445   5.465   1.894
 1345SOL    HW2 4935   0.422   5.319   1.823
 1346SOL     OW 4936   2.445   4.886   5.575
 1346SOL    HW1 4937   2.513   4.848   5.513
 1346SOL    HW2 4938   2.438   4.828   5.657
 1347SOL     OW 4939   1.344   0.453   6.796
 1347SOL    HW1 4940   1.312   0.358   6.794
 1347SOL    HW2 4941   1.426   0.462   6.741
 1348SOL     OW 4942   0.063   6.131   5.295
 1348SOL    HW1 4943   0.096   6.146   5.388
 1348SOL    HW2 4944   6.982   6.128   5.295
 1349SOL     OW 4945   5.348   4.012   4.007
 1349SOL    HW1 4946   5.262   4.031   3.958
 1349SOL    HW2 4947   5.333   4.027   4.105
 1350SOL     OW 4948   3.212   3.817   0.312
 1350SOL    HW1 4949   3.263   3.864   0.239
 1350SOL    HW2 4950   3.210   3.876   0.393
 1351SOL     OW 4951   6.622   2.811   4.637
 1351SOL    HW1 4952   6.567   2.747   4.583
 1351SOL    HW2 4953   6.656   2.765   4.719
 1352SOL     OW 4954   6.894   0.124   2.672
 1352SOL    HW1 4955   6.946   0.044   2.703
 1352SOL    HW2 4956   6.948   0.174   2.605
 1353SOL     OW 4957   0.605   1.675   1.245
 1353SOL    HW1 4958   0.569   1.586   1.219
 1353SOL    HW2 4959   0.592   1.689   1.344
 1354SOL     OW 4960   5.967   4.178   2.351
 1354SOL    HW1 4961   6.016   4.195   2.266
 1354SOL    HW2 4962   5.884   4.233   2.353
 1355SOL     OW 4963   6.273   3.380   4.666
 1355SOL    HW1 4964   6.306   3.455   4.723
 1355SOL    HW2 4965   6.176   3.392   4.648
 1356SOL     OW 4966   3.549   2.872   2.107
 1356SOL    HW1 4967   3.580   2.808   2.036
 1356SOL    HW2 4968   3.625   2.930   2.136
 1357SOL     OW 4969   6.790   3.392   5.358
 1357SOL    HW1 4970   6.752   3.308   5.319
 1357SOL    HW2 4971   6.742   3.415   5.442
 1358SOL     OW 4972   0.920   6.693   6.917
 1358SOL    HW1 4973   1.008   6.650   6.934
 1358SOL    HW2 4974   0.847   6.640   6.960
 1359SOL     OW 4975   6.398   4.370   1.543
 1359SOL    HW1 4976   6.335   4.436   1.584
 1359SOL    HW2 4977   6.346   4.299   1.496
 1360SOL     OW 4978   3.018   2.771   6.434
 1360SOL    HW1 4979   3.036   2.867   6.412
 1360SOL    HW2 4980   3.095   2.715   6.404
 1361SOL     OW 4981   0.039   4.007   4.349
 1361SOL    HW1 4982   0.021   4.069   4.272
 1361SOL    HW2 4983   6.972   3.978   4.389
 1362SOL     OW 4984   3.536   2.877   2.483
 1362SOL    HW1 4985   3.623   2.874   2.434
 1362SOL    HW2 4986   3.533   2.802   2.549
 1363SOL     OW 4987   0.326   5.453   5.472
 1363SOL    HW1 4988   0.403   5.437   5.535
 1363SOL    HW2 4989   0.275   5.368   5.460
 1364SOL     OW 4990   4.449   4.352   0.492
 1364SOL    HW1 4991   4.475   4.370   0.397
 1364SOL    HW2 4992   4.510   4.402   0.553
 1365SOL     OW 4993   0.505   3.469   6.531
 1365SOL    HW1 4994   0.516   3.448   6.628
 1365SOL    HW2 4995   0.594   3.486   6.490
 1366SOL     OW 4996   2.008   0.301   5.025
 1366SOL    HW1 4997   1.967   0.333   4.939
 1366SOL    HW2 4998   2.099   0.263   5.005
 1367SOL     OW 4999   2.284   0.811   2.474
 1367SOL    HW1 5000   2.355   0.778   2.537
 1367SOL    HW2 5001   2.276   0.911   2.483
 1368SOL     OW 5002   6.275   6.441   4.619
 1368SOL    HW1 5003   6.330   6.518   4.651
 1368SOL    HW2 5004   6.299   6.359   4.670
 1369SOL     OW 5005   0.763   0.625   3.428
 1369SOL    HW1 5006   0.682   0.678   3.404
 1369SOL    HW2 5007   0.762   0.604   3.526
 1370SOL     OW 5008   2.982   1.038   1.755
 1370SOL    HW1 5009   2.992   1.132   1.722
 1370SOL    HW2 5010   3.063   1.012   1.808
 1371SOL     OW 5011   3.510   0.635   6.294
 1371SOL    HW1 5012   3.481   0.729   6.274
 1371SOL    HW2 5013   3.433   0.584   6.332
 1372SOL     OW 5014   2.662   1.931   2.098
 1372SOL    HW1 5015   2.629   1.837   2.090
 1372SOL    HW2 5016   2.587   1.995   2.082
 1373SOL     OW 5017   0.786   5.993   0.967
 1373SOL    HW1 5018   0.749   5.901   0.951
 1373SOL    HW2 5019   0.736   6.036   1.043
 1374SOL     OW 5020   4.335   2.274   0.427
 1374SOL    HW1 5021   4.367   2.224   0.346
 1374SOL    HW2 5022   4.260   2.335   0.401
 1375SOL     OW 5023   0.184   4.189   5.981
 1375SOL    HW1 5024   0.102   4.179   5.925
 1375SOL    HW2 5025   0.208   4.100   6.021
 1376SOL     OW 5026   4.927   2.960   2.679
 1376SOL    HW1 5027   4.993   2.993   2.611
 1376SOL    HW2 5028   4.845   2.928   2.632
 1377SOL     OW 5029   0.174   5.535   5.098
 1377SOL    HW1 5030   0.183   5.437   5.079
 1377SOL    HW2 5031   0.171   5.586   5.012
 1378SOL     OW 5032   1.281   2.597   6.993
 1378SOL    HW1 5033   1.304   2.634   0.064
 1378SOL    HW2 5034   1.339   2.640   6.923
 1379SOL     OW 5035   3.778   6.121   2.697
 1379SOL    HW1 5036   3.790   6.214   2.663
 1379SOL    HW2 5037   3.699   6.117   2.757
 1380SOL     OW 5038   6.710   6.721   2.680
 1380SOL    HW1 5039   6.684   6.786   2.752
 1380SOL    HW2 5040   6.775   6.764   2.618
 1381SOL     OW 5041   6.473   1.594   0.827
 1381SOL    HW1 5042   6.444   1.688   0.844
 1381SOL    HW2 5043   6.541   1.593   0.753
 1382SOL     OW 5044   5.268   4.298   6.277
 1382SOL    HW1 5045   5.258   4.331   6.371
 1382SOL    HW2 5046   5.221   4.210   6.268
 1383SOL     OW 5047   2.513   0.240   0.756
 1383SOL    HW1 5048   2.449   0.313   0.733
 1383SOL    HW2 5049   2.585   0.237   0.687
 1384SOL     OW 5050   2.733   2.209   2.483
 1384SOL    HW1 5051   2.797   2.205   2.406
 1384SOL    HW2 5052   2.652   2.260   2.455
 1385SOL     OW 5053   6.927   3.398   3.131
 1385SOL    HW1 5054   6.896   3.316   3.084
 1385SOL    HW2 5055   6.857   3.469   3.125
 1386SOL     OW 5056   2.153   2.044   4.214
 1386SOL    HW1 5057   2.054   2.038   4.231
 1386SOL    HW2 5058   2.188   2.130   4.252
 1387SOL     OW 5059   2.439   0.169   5.096
 1387SOL    HW1 5060   2.445   0.266   5.122
 1387SOL    HW2 5061   2.356   0.154   5.044
 1388SOL     OW 5062   6.338   0.991   4.180
 1388SOL    HW1 5063   6.366   1.057   4.110
 1388SOL    HW2 5064   6.241   1.005   4.201
 1389SOL     OW 5065   5.806   0.224   4.403
 1389SOL    HW1 5066   5.849   0.133   4.398
 1389SOL    HW2 5067   5.864   0.285   4.457
 1390SOL     OW 5068   4.687   2.400   2.726
 1390SOL    HW1 5069   4.639   2.450   2.654
 1390SOL    HW2 5070   4.706   2.462   2.802
 1391SOL     OW 5071   4.975   0.762   4.438
 1391SOL    HW1 5072   4.960   0.808   4.526
 1391SOL    HW2 5073   4.986   0.830   4.366
 1392SOL     OW 5074   4.702   5.660   6.705
 1392SOL    HW1 5075   4.675   5.652   6.801
 1392SOL    HW2 5076   4.697   5.756   6.678
 1393SOL     OW 5077   6.062   0.781   6.938
 1393SOL    HW1 5078   6.125   0.827   7.001
 1393SOL    HW2 5079   6.069   0.682   6.950
 1394SOL     OW 5080   4.584   6.613   4.193
 1394SOL    HW1 5081   4.658   6.667   4.233
 1394SOL    HW2 5082   4.622   6.550   4.125
 1395SOL     OW 5083   1.466   4.876   2.274
 1395SOL    HW1 5084   1.539   4.895   2.341
 1395SOL    HW2 5085   1.430   4.962   2.239
 1396SOL     OW 5086   1.915   1.606   4.035
 1396SOL    HW1 5087   1.866   1.601   3.948
 1396SOL    HW2 5088   1.946   1.700   4.050
 1397SOL     OW 5089   0.099   4.972   4.463
 1397SOL    HW1 5090   0.150   4.941   4.543
 1397SOL    HW2 5091   0.009   4.929   4.463
 1398SOL     OW 5092   0.467   0.653   0.782
 1398SOL    HW1 5093   0.467   0.613   0.690
 1398SOL    HW2 5094   0.401   0.728   0.787
 1399SOL     OW 5095   4.270   0.392   0.381
 1399SOL    HW1 5096   4.320   0.399   0.467
 1399SOL    HW2 5097   4.243   0.483   0.351
 1400SOL     OW 5098   6.192   6.980   5.020
 1400SOL    HW1 5099   6.235   6.906   5.072
 1400SOL    HW2 5100   6.249   0.043   5.027
 1401SOL     OW 5101   5.309   0.384   3.377
 1401SOL    HW1 5102   5.221   0.409   3.336
 1401SOL    HW2 5103   5.310   0.286   3.398
 1402SOL     OW 5104   6.898   4.734   2.140
 1402SOL    HW1 5105   6.859   4.726   2.232
 1402SOL    HW2 5106   6.985   4.683   2.136
 1403SOL     OW 5107   3.076   3.047   6.409
 1403SOL    HW1 5108   3.043   3.138   6.386
 1403SOL    HW2 5109   3.173   3.040   6.387
 1404SOL     OW 5110   4.207   6.738   0.380
 1404SOL    HW1 5111   4.240   6.778   0.466
 1404SOL    HW2 5112   4.281   6.689   0.336
 1405SOL     OW 5113   1.090   3.656   1.070
 1405SOL    HW1 5114   1.115   3.736   1.124
 1405SOL    HW2 5115   1.106   3.675   0.973
 1406SOL     OW 5116   2.481   3.135   1.045
 1406SOL    HW1 5117   2.464   3.170   0.953
 1406SOL    HW2 5118   2.398   3.093   1.081
 1407SOL     OW 5119   0.279   3.069   0.936
 1407SOL    HW1 5120   0.319   3.011   0.866
 1407SOL    HW2 5121   0.273   3.018   1.022
 1408SOL     OW 5122   6.099   6.197   0.826
 1408SOL    HW1 5123   6.087   6.294   0.846
 1408SOL    HW2 5124   6.135   6.187   0.733
 1409SOL     OW 5125   6.501   1.692   5.730
 1409SOL    HW1 5126   6.577   1.638   5.693
 1409SOL    HW2 5127   6.425   1.691   5.664
 1410SOL     OW 5128   4.037   1.515   5.870
 1410SOL    HW1 5129   4.078   1.533   5.959
 1410SOL    HW2 5130   3.943   1.485   5.882
 1411SOL     OW 5131   3.349   5.063   0.064
 1411SOL    HW1 5132   3.255   5.096   0.078
 1411SOL    HW2 5133   3.378   5.010   0.144
 1412SOL     OW 5134   2.046   3.400   0.422
 1412SOL    HW1 5135   2.097   3.445   0.495
 1412SOL    HW2 5136   2.108   3.344   0.367
 1413SOL     OW 5137   1.285   1.627   5.352
 1413SOL    HW1 5138   1.329   1.686   5.285
 1413SOL    HW2 5139   1.260   1.540   5.309
 1414SOL     OW 5140   1.326   4.216   2.712
 1414SOL    HW1 5141   1.396   4.281   2.682
 1414SOL    HW2 5142   1.235   4.255   2.694
 1415SOL     OW 5143   2.129   1.817   4.689
 1415SOL    HW1 5144   2.081   1.729   4.683
 1415SOL    HW2 5145   2.223   1.806   4.655
 1416SOL     OW 5146   4.086   0.395   4.760
 1416SOL    HW1 5147   4.109   0.311   4.810
 1416SOL    HW2 5148   4.015   0.445   4.810
 1417SOL     OW 5149   3.430   3.117   6.115
 1417SOL    HW1 5150   3.525   3.093   6.131
 1417SOL    HW2 5151   3.415   3.131   6.017
 1418SOL     OW 5152   3.249   4.534   6.148
 1418SOL    HW1 5153   3.170   4.572   6.196
 1418SOL    HW2 5154   3.219   4.460   6.088
 1419SOL     OW 5155   2.416   4.848   2.439
 1419SOL    HW1 5156   2.393   4.870   2.344
 1419SOL    HW2 5157   2.336   4.864   2.497
 1420SOL     OW 5158   2.704   6.316   2.895
 1420SOL    HW1 5159   2.729   6.390   2.958
 1420SOL    HW2 5160   2.625   6.344   2.841
 1421SOL     OW 5161   1.147   4.673   5.670
 1421SOL    HW1 5162   1.075   4.684   5.601
 1421SOL    HW2 5163   1.107   4.643   5.756
 1422SOL     OW 5164   2.002   3.924   6.095
 1422SOL    HW1 5165   2.059   3.897   6.017
 1422SOL    HW2 5166   2.055   3.915   6.180
 1423SOL     OW 5167   4.619   0.658   4.908
 1423SOL    HW1 5168   4.610   0.561   4.885
 1423SOL    HW2 5169   4.582   0.674   4.999
 1424SOL     OW 5170   6.609   2.902   0.165
 1424SOL    HW1 5171   6.541   2.928   0.233
 1424SOL    HW2 5172   6.700   2.919   0.201
 1425SOL     OW 5173   4.903   6.454   3.259
 1425SOL    HW1 5174   4.875   6.381   3.197
 1425SOL    HW2 5175   4.835   6.465   3.331
 1426SOL     OW 5176   3.723   2.308   0.220
 1426SOL    HW1 5177   3.668   2.378   0.176
 1426SOL    HW2 5178   3.697   2.218   0.185
 1427SOL     OW 5179   1.740   0.813   4.027
 1427SOL    HW1 5180   1.830   0.855   4.038
 1427SOL    HW2 5181   1.672   0.883   4.006
 1428SOL     OW 5182   1.051   3.191   3.792
 1428SOL    HW1 5183   0.979   3.169   3.858
 1428SOL    HW2 5184   1.131   3.134   3.810
 1429SOL     OW 5185   6.051   1.294   1.323
 1429SOL    HW1 5186   5.970   1.278   1.266
 1429SOL    HW2 5187   6.129   1.245   1.284
 1430SOL     OW 5188   1.738   3.538   4.251
 1430SOL    HW1 5189   1.829   3.579   4.259
 1430SOL    HW2 5190   1.744   3.439   4.267
 1431SOL     OW 5191   2.206   1.091   6.436
 1431SOL    HW1 5192   2.289   1.046   6.404
 1431SOL    HW2 5193   2.144   1.023   6.474
 1432SOL     OW 5194   2.916   0.512   2.354
 1432SOL    HW1 5195   2.973   0.445   2.306
 1432SOL    HW2 5196   2.847   0.465   2.408
 1433SOL     OW 5197   2.537   7.013   3.802
 1433SOL    HW1 5198   2.529   7.000   3.901
 1433SOL    HW2 5199   2.518   6.926   3.756
 1434SOL     OW 5200   0.284   3.216   0.664
 1434SOL    HW1 5201   0.313   3.200   0.759
 1434SOL    HW2 5202   0.213   3.287   0.663
 1435SOL     OW 5203   1.437   6.754   3.676
 1435SOL    HW1 5204   1.455   6.655   3.678
 1435SOL    HW2 5205   1.512   6.802   3.721
 1436SOL     OW 5206   5.393   1.833   6.785
 1436SOL    HW1 5207   5.391   1.928   6.754
 1436SOL    HW2 5208   5.431   1.775   6.713
 1437SOL     OW 5209   3.473   0.609   5.804
 1437SOL    HW1 5210   3.433   0.564   5.725
 1437SOL    HW2 5211   3.401   0.633   5.869
 1438SOL     OW 5212   2.684   0.369   1.985
 1438SOL    HW1 5213   2.691   0.455   2.035
 1438SOL    HW2 5214   2.708   0.293   2.045
 1439SOL     OW 5215   0.297   4.959   6.916
 1439SOL    HW1 5216   0.197   4.965   6.911
 1439SOL    HW2 5217   0.331   4.907   6.838
 1440SOL     OW 5218   3.762   3.383   3.093
 1440SOL    HW1 5219   3.799   3.473   3.070
 1440SOL    HW2 5220   3.736   3.335   3.009
 1441SOL     OW 5221   6.078   3.017   4.026
 1441SOL    HW1 5222   6.087   3.068   4.111
 1441SOL    HW2 5223   6.013   2.942   4.038
 1442SOL     OW 5224   5.533   5.328   0.714
 1442SOL    HW1 5225   5.557   5.413   0.760
 1442SOL    HW2 5226   5.519   5.256   0.782
 1443SOL     OW 5227   0.487   3.023   3.148
 1443SOL    HW1 5228   0.471   3.015   3.247
 1443SOL    HW2 5229   0.585   3.027   3.131
 1444SOL     OW 5230   4.700   1.038   3.869
 1444SOL    HW1 5231   4.794   1.007   3.882
 1444SOL    HW2 5232   4.639   0.959   3.857
 1445SOL     OW 5233   6.448   1.868   0.910
 1445SOL    HW1 5234   6.482   1.873   1.004
 1445SOL    HW2 5235   6.365   1.923   0.901
 1446SOL     OW 5236   4.165   0.609   1.431
 1446SOL    HW1 5237   4.222   0.627   1.351
 1446SOL    HW2 5238   4.151   0.694   1.482
 1447SOL     OW 5239   6.053   0.994   5.690
 1447SOL    HW1 5240   5.970   1.038   5.657
 1447SOL    HW2 5241   6.036   0.898   5.709
 1448SOL     OW 5242   5.328   0.649   6.838
 1448SOL    HW1 5243   5.341   0.687   6.746
 1448SOL    HW2 5244   5.328   0.724   6.905
 1449SOL     OW 5245   4.223   5.840   1.195
 1449SOL    HW1 5246   4.125   5.848   1.178
 1449SOL    HW2 5247   4.240   5.844   1.294
 1450SOL     OW 5248   5.543   2.850   3.494
 1450SOL    HW1 5249   5.623   2.885   3.446
 1450SOL    HW2 5250   5.494   2.926   3.536
 1451SOL     OW 5251   1.676   6.845   3.000
 1451SOL    HW1 5252   1.647   6.939   3.020
 1451SOL    HW2 5253   1.612   6.781   3.041
 1452SOL     OW 5254   4.432   1.108   5.025
 1452SOL    HW1 5255   4.427   1.036   5.094
 1452SOL    HW2 5256   4.374   1.185   5.053
 1453SOL     OW 5257   5.320   4.542   5.086
 1453SOL    HW1 5258   5.228   4.568   5.057
 1453SOL    HW2 5259   5.386   4.572   5.018
 1454SOL     OW 5260   4.105   3.891   1.072
 1454SOL    HW1 5261   4.194   3.864   1.035
 1454SOL    HW2 5262   4.095   3.853   1.164
 1455SOL     OW 5263   2.002   2.698   1.860
 1455SOL    HW1 5264   1.988   2.604   1.891
 1455SOL    HW2 5265   1.924   2.755   1.889
 1456SOL     OW 5266   6.511   6.127   3.863
 1456SOL    HW1 5267   6.471   6.039   3.839
 1456SOL    HW2 5268   6.605   6.114   3.895
 1457SOL     OW 5269   1.510   0.483   2.926
 1457SOL    HW1 5270   1.478   0.555   2.988
 1457SOL    HW2 5271   1.465   0.494   2.837
 1458SOL     OW 5272   6.049   5.323   6.973
 1458SOL    HW1 5273   6.023   5.227   6.986
 1458SOL    HW2 5274   6.103   5.353   0.033
 1459SOL     OW 5275   2.249   0.305   0.596
 1459SOL    HW1 5276   2.207   0.275   0.682
 1459SOL    HW2 5277   2.280   0.225   0.545
 1460SOL     OW 5278   1.094   6.931   6.871
 1460SOL    HW1 5279   1.062   6.839   6.896
 1460SOL    HW2 5280   1.068   6.995   6.944
 1461SOL     OW 5281   5.439   5.145   1.635
 1461SOL    HW1 5282   5.401   5.187   1.552
 1461SOL    HW2 5283   5.424   5.047   1.632
 1462SOL     OW 5284   5.497   0.827   6.049
 1462SOL    HW1 5285   5.407   0.784   6.037
 1462SOL    HW2 5286   5.492   0.922   6.018
 1463SOL     OW 5287   0.506   1.314   4.861
 1463SOL    HW1 5288   0.553   1.228   4.842
 1463SOL    HW2 5289   0.571   1.389   4.857
 1464SOL     OW 5290   0.285   6.525   1.012
 1464SOL    HW1 5291   0.273   6.611   0.962
 1464SOL    HW2 5292   0.378   6.521   1.049
 1465SOL     OW 5293   0.378   6.953   4.930
 1465SOL    HW1 5294   0.331   6.882   4.878
 1465SOL    HW2 5295   0.453   6.991   4.876
 1466SOL     OW 5296   5.764   5.160   3.855
 1466SOL    HW1 5297   5.684   5.117   3.811
 1466SOL    HW2 5298   5.830   5.090   3.879
 1467SOL     OW 5299   0.204   2.906   3.320
 1467SOL    HW1 5300   0.284   2.937   3.371
 1467SOL    HW2 5301   0.219   2.922   3.222
 1468SOL     OW 5302   5.808   5.742   3.196
 1468SOL    HW1 5303   5.816   5.807   3.271
 1468SOL    HW2 5304   5.743   5.777   3.128
 1469SOL     OW 5305   0.267   1.297   2.945
 1469SOL    HW1 5306   0.224   1.285   3.034
 1469SOL    HW2 5307   0.367   1.295   2.956
 1470SOL     OW 5308   6.927   0.896   3.356
 1470SOL    HW1 5309   6.980   0.894   3.272
 1470SOL    HW2 5310   6.849   0.835   3.349
 1471SOL     OW 5311   7.002   0.633   6.815
 1471SOL    HW1 5312   6.973   0.543   6.784
 1471SOL    HW2 5313   6.922   0.694   6.817
 1472SOL     OW 5314   4.503   0.467   5.183
 1472SOL    HW1 5315   4.575   0.399   5.197
 1472SOL    HW2 5316   4.421   0.421   5.149
 1473SOL     OW 5317   6.133   4.273   3.777
 1473SOL    HW1 5318   6.036   4.287   3.759
 1473SOL    HW2 5319   6.149   4.274   3.876
 1474SOL     OW 5320   4.771   5.672   3.407
 1474SOL    HW1 5321   4.733   5.602   3.468
 1474SOL    HW2 5322   4.716   5.675   3.323
 1475SOL     OW 5323   0.491   0.999   2.775
 1475SOL    HW1 5324   0.467   1.048   2.859
 1475SOL    HW2 5325   0.520   1.065   2.706
 1476SOL     OW 5326   6.516   1.571   1.729
 1476SOL    HW1 5327   6.565   1.484   1.735
 1476SOL    HW2 5328   6.478   1.594   1.819
 1477SOL     OW 5329   2.573   6.160   3.461
 1477SOL    HW1 5330   2.500   6.150   3.528
 1477SOL    HW2 5331   2.638   6.085   3.470
 1478SOL     OW 5332   6.715   4.557   1.562
 1478SOL    HW1 5333   6.669   4.469   1.561
 1478SOL    HW2 5334   6.678   4.614   1.636
 1479SOL     OW 5335   1.645   5.411   0.689
 1479SOL    HW1 5336   1.662   5.410   0.787
 1479SOL    HW2 5337   1.594   5.493   0.664
 1480SOL     OW 5338   2.661   1.092   0.161
 1480SOL    HW1 5339   2.615   1.181   0.171
 1480SOL    HW2 5340   2.641   1.055   0.071
 1481SOL     OW 5341   6.340   2.137   6.345
 1481SOL    HW1 5342   6.286   2.186   6.277
 1481SOL    HW2 5343   6.384   2.058   6.302
 1482SOL     OW 5344   5.692   0.643   6.439
 1482SOL    HW1 5345   5.716   0.726   6.489
 1482SOL    HW2 5346   5.681   0.664   6.342
 1483SOL     OW 5347   6.002   2.082   6.353
 1483SOL    HW1 5348   5.985   2.054   6.258
 1483SOL    HW2 5349   6.080   2.031   6.389
 1484SOL     OW 5350   6.281   6.052   3.199
 1484SOL    HW1 5351   6.239   6.040   3.109
 1484SOL    HW2 5352   6.218   6.102   3.259
 1485SOL     OW 5353   5.172   3.159   3.773
 1485SOL    HW1 5354   5.176   3.063   3.747
 1485SOL    HW2 5355   5.098   3.204   3.723
 1486SOL     OW 5356   4.947   2.281   2.359
 1486SOL    HW1 5357   5.030   2.227   2.346
 1486SOL    HW2 5358   4.916   2.315   2.270
 1487SOL     OW 5359   6.263   1.371   5.309
 1487SOL    HW1 5360   6.252   1.300   5.240
 1487SOL    HW2 5361   6.322   1.336   5.382
 1488SOL     OW 5362   3.889   2.097   3.192
 1488SOL    HW1 5363   3.837   2.118   3.109
 1488SOL    HW2 5364   3.863   2.007   3.225
 1489SOL     OW 5365   4.103   5.906   4.993
 1489SOL    HW1 5366   4.193   5.916   4.949
 1489SOL    HW2 5367   4.031   5.916   4.924
 1490SOL     OW 5368   1.966   2.922   0.652
 1490SOL    HW1 5369   2.037   2.964   0.708
 1490SOL    HW2 5370   1.933   2.838   0.695
 1491SOL     OW 5371   0.638   2.877   4.848
 1491SOL    HW1 5372   0.679   2.915   4.766
 1491SOL    HW2 5373   0.620   2.951   4.914
 1492SOL     OW 5374   5.645   2.365   2.529
 1492SOL    HW1 5375   5.665   2.461   2.546
 1492SOL    HW2 5376   5.728   2.319   2.497
 1493SOL     OW 5377   4.865   0.775   4.911
 1493SOL    HW1 5378   4.850   0.848   4.978
 1493SOL    HW2 5379   4.783   0.720   4.902
 1494SOL     OW 5380   5.163   3.078   5.752
 1494SOL    HW1 5381   5.243   3.121   5.792
 1494SOL    HW2 5382   5.156   3.102   5.655
 1495SOL     OW 5383   1.993   3.166   2.770
 1495SOL    HW1 5384   2.053   3.090   2.746
 1495SOL    HW2 5385   2.033   3.218   2.846
 1496SOL     OW 5386   0.895   0.862   2.310
 1496SOL    HW1 5387   0.981   0.849   2.260
 1496SOL    HW2 5388   0.833   0.919   2.255
 1497SOL     OW 5389   5.525   5.445   5.491
 1497SOL    HW1 5390   5.500   5.449   5.588
 1497SOL    HW2 5391   5.442   5.458   5.436
 1498SOL     OW 5392   2.333   6.287   0.562
 1498SOL    HW1 5393   2.358   6.382   0.543
 1498SOL    HW2 5394   2.390   6.226   0.506
 1499SOL     OW 5395   0.250   4.373   5.512
 1499SOL    HW1 5396   0.293   4.365   5.422
 1499SOL    HW2 5397   0.236   4.281   5.550
 1500SOL     OW 5398   4.798   0.175   5.775
 1500SOL    HW1 5399   4.888   0.215   5.793
 1500SOL    HW2 5400   4.806   0.106   5.703
 1501SOL     OW 5401   3.852   6.865   6.131
 1501SOL    HW1 5402   3.931   6.856   6.191
 1501SOL    HW2 5403   3.774   6.817   6.171
 1502SOL     OW 5404   6.444   6.121   0.050
 1502SOL    HW1 5405   6.416   6.086   6.979
 1502SOL    HW2 5406   6.364   6.126   0.110
 1503SOL     OW 5407   3.127   3.272   5.911
 1503SOL    HW1 5408   3.211   3.220   5.899
 1503SOL    HW2 5409   3.130   3.323   5.997
 1504SOL     OW 5410   2.369   5.762   4.527
 1504SOL    HW1 5411   2.290   5.732   4.474
 1504SOL    HW2 5412   2.367   5.862   4.536
 1505SOL     OW 5413   4.883   5.297   0.652
 1505SOL    HW1 5414   4.975   5.258   0.642
 1505SOL    HW2 5415   4.875   5.378   0.595
 1506SOL     OW 5416   0.751   5.939   3.812
 1506SOL    HW1 5417   0.653   5.934   3.797
 1506SOL    HW2 5418   0.798   5.873   3.752
 1507SOL     OW 5419   1.790   1.570   6.739
 1507SOL    HW1 5420   1.857   1.571   6.664
 1507SOL    HW2 5421   1.743   1.658   6.743
 1508SOL     OW 5422   5.241   0.107   0.196
 1508SOL    HW1 5423   5.170   0.102   0.126
 1508SOL    HW2 5424   5.306   0.032   0.183
 1509SOL     OW 5425   4.917   2.277   0.446
 1509SOL    HW1 5426   4.968   2.196   0.419
 1509SOL    HW2 5427   4.931   2.350   0.379
 1510SOL     OW 5428   6.883   1.581   3.834
 1510SOL    HW1 5429   6.909   1.551   3.743
 1510SOL    HW2 5430   6.957   1.561   3.898
 1511SOL     OW 5431   1.918   2.531   0.946
 1511SOL    HW1 5432   1.984   2.553   1.017
 1511SOL    HW2 5433   1.883   2.615   0.905
 1512SOL     OW 5434   6.481   0.471   2.271
 1512SOL    HW1 5435   6.431   0.532   2.333
 1512SOL    HW2 5436   6.479   0.378   2.308
 1513SOL     OW 5437   3.402   1.280   2.255
 1513SOL    HW1 5438   3.442   1.217   2.189
 1513SOL    HW2 5439   3.396   1.371   2.214
 1514SOL     OW 5440   4.732   1.706   5.002
 1514SOL    HW1 5441   4.810   1.674   5.056
 1514SOL    HW2 5442   4.695   1.630   4.950
 1515SOL     OW 5443   0.008   4.393   4.321
 1515SOL    HW1 5444   0.010   4.458   4.397
 1515SOL    HW2 5445   0.102   4.372   4.293
 1516SOL     OW 5446   0.858   1.737   1.096
 1516SOL    HW1 5447   0.811   1.714   1.181
 1516SOL    HW2 5448   0.807   1.701   1.018
 1517SOL     OW 5449   3.817   5.716   3.399
 1517SOL    HW1 5450   3.719   5.722   3.416
 1517SOL    HW2 5451   3.833   5.652   3.324
 1518SOL     OW 5452   0.817   4.779   1.160
 1518SOL    HW1 5453   0.843   4.682   1.162
 1518SOL    HW2 5454   0.750   4.794   1.088
 1519SOL     OW 5455   6.821   4.887   0.601
 1519SOL    HW1 5456   6.763   4.847   0.529
 1519SOL    HW2 5457   6.791   4.854   0.690
 1520SOL     OW 5458   1.333   3.431   3.038
 1520SOL    HW1 5459   1.276   3.504   2.999
 1520SOL    HW2 5460   1.418   3.425   2.986
 1521SOL     OW 5461   2.480   4.156   6.189
 1521SOL    HW1 5462   2.567   4.195   6.222
 1521SOL    HW2 5463   2.491   4.058   6.176
 1522SOL     OW 5464   6.196   2.456   6.430
 1522SOL    HW1 5465   6.164   2.426   6.340
 1522SOL    HW2 5466   6.222   2.376   6.485
 1523SOL     OW 5467   0.283   1.812   0.660
 1523SOL    HW1 5468   0.309   1.834   0.754
 1523SOL    HW2 5469   0.332   1.731   0.629
 1524SOL     OW 5470   6.944   0.798   2.719
 1524SOL    HW1 5471   0.004   0.848   2.684
 1524SOL    HW2 5472   6.959   0.772   2.814
 1525SOL     OW 5473   4.375   2.062   6.004
 1525SOL    HW1 5474   4.368   1.968   6.039
 1525SOL    HW2 5475   4.403   2.122   6.078
 1526SOL     OW 5476   0.196   2.245   1.392
 1526SOL    HW1 5477   0.148   2.228   1.478
 1526SOL    HW2 5478   0.185   2.341   1.367
 1527SOL     OW 5479   2.946   1.443   5.528
 1527SOL    HW1 5480   2.908   1.401   5.445
 1527SOL    HW2 5481   2.925   1.540   5.529
 1528SOL     OW 5482   5.544   6.178   3.621
 1528SOL    HW1 5483   5.522   6.198   3.716
 1528SOL    HW2 5484   5.496   6.242   3.561
 1529SOL     OW 5485   3.007   0.518   6.147
 1529SOL    HW1 5486   2.946   0.471   6.210
 1529SOL    HW2 5487   3.002   0.475   6.057
 1530SOL     OW 5488   4.122   6.394   1.896
 1530SOL    HW1 5489   4.059   6.341   1.953
 1530SOL    HW2 5490   4.070   6.444   1.826
 1531SOL     OW 5491   0.119   0.132   4.822
 1531SOL    HW1 5492   0.194   0.074   4.854
 1531SOL    HW2 5493   0.153   0.195   4.752
 1532SOL     OW 5494   3.143   1.684   5.308
 1532SOL    HW1 5495   3.157   1.597   5.354
 1532SOL    HW2 5496   3.216   1.748   5.336
 1533SOL     OW 5497   5.842   2.883   0.010
 1533SOL    HW1 5498   5.904   2.850   6.958
 1533SOL    HW2 5499   5.805   2.806   0.061
 1534SOL     OW 5500   0.218   6.642   1.656
 1534SOL    HW1 5501   0.190   6.575   1.725
 1534SOL    HW2 5502   0.137   6.678   1.610
 1535SOL     OW 5503   4.897   5.162   4.490
 1535SOL    HW1 5504   4.815   5.180   4.436
 1535SOL    HW2 5505   4.959   5.105   4.438
 1536SOL     OW 5506   2.565   5.962   4.332
 1536SOL    HW1 5507   2.548   5.865   4.350
 1536SOL    HW2 5508   2.617   6.000   4.409
 1537SOL     OW 5509   1.614   5.328   4.246
 1537SOL    HW1 5510   1.653   5.274   4.172
 1537SOL    HW2 5511   1.549   5.394   4.208
 1538SOL     OW 5512   2.572   5.586   6.465
 1538SOL    HW1 5513   2.598   5.497   6.428
 1538SOL    HW2 5514   2.483   5.580   6.510
 1539SOL     OW 5515   3.365   4.732   1.701
 1539SOL    HW1 5516   3.300   4.757   1.772
 1539SOL    HW2 5517   3.451   4.702   1.743
 1540SOL     OW 5518   0.821   6.399   4.444
 1540SOL    HW1 5519   0.921   6.403   4.445
 1540SOL    HW2 5520   0.786   6.428   4.533
 1541SOL     OW 5521   5.261   2.362   1.316
 1541SOL    HW1 5522   5.300   2.382   1.226
 1541SOL    HW2 5523   5.334   2.342   1.381
 1542SOL     OW 5524   0.938   6.523   0.857
 1542SOL    HW1 5525   0.947   6.446   0.794
 1542SOL    HW2 5526   1.016   6.585   0.846
 1543SOL     OW 5527   3.090   3.945   4.116
 1543SOL    HW1 5528   3.043   3.885   4.051
 1543SOL    HW2 5529   3.147   4.010   4.066
 1544SOL     OW 5530   3.592   4.140   2.802
 1544SOL    HW1 5531   3.609   4.218   2.741
 1544SOL    HW2 5532   3.665   4.135   2.870
 1545SOL     OW 5533   5.726   0.446   4.835
 1545SOL    HW1 5534   5.704   0.426   4.930
 1545SOL    HW2 5535   5.822   0.473   4.828
 1546SOL     OW 5536   1.028   6.578   6.054
 1546SOL    HW1 5537   1.058   6.483   6.053
 1546SOL    HW2 5538   1.004   6.604   6.148
 1547SOL     OW 5539   3.452   5.964   6.904
 1547SOL    HW1 5540   3.536   5.910   6.895
 1547SOL    HW2 5541   3.415   5.982   6.813
 1548SOL     OW 5542   5.552   3.910   4.749
 1548SOL    HW1 5543   5.622   3.945   4.810
 1548SOL    HW2 5544   5.464   3.908   4.796
 1549SOL     OW 5545   6.747   1.602   1.202
 1549SOL    HW1 5546   6.813   1.539   1.161
 1549SOL    HW2 5547   6.735   1.580   1.299
 1550SOL     OW 5548   2.426   5.809   4.797
 1550SOL    HW1 5549   2.425   5.840   4.702
 1550SOL    HW2 5550   2.361   5.734   4.808
 1551SOL     OW 5551   1.871   2.569   0.352
 1551SOL    HW1 5552   1.816   2.497   0.309
 1551SOL    HW2 5553   1.884   2.548   0.449
 1552SOL     OW 5554   0.741   0.693   0.420
 1552SOL    HW1 5555   0.680   0.619   0.448
 1552SOL    HW2 5556   0.832   0.655   0.402
 1553SOL     OW 5557   6.132   1.197   6.308
 1553SOL    HW1 5558   6.161   1.184   6.403
 1553SOL    HW2 5559   6.055   1.136   6.288
 1554SOL     OW 5560   3.071   1.852   1.492
 1554SOL    HW1 5561   3.090   1.950   1.491
 1554SOL    HW2 5562   3.054   1.822   1.586
 1555SOL     OW 5563   3.968   1.087   5.341
 1555SOL    HW1 5564   3.888   1.029   5.358
 1555SOL    HW2 5565   4.038   1.034   5.293
 1556SOL     OW 5566   3.880   1.360   0.819
 1556SOL    HW1 5567   3.845   1.411   0.740
 1556SOL    HW2 5568   3.954   1.299   0.789
 1557SOL     OW 5569   1.887   2.500   0.638
 1557SOL    HW1 5570   1.799   2.454   0.624
 1557SOL    HW2 5571   1.906   2.507   0.736
 1558SOL     OW 5572   6.065   2.859   6.300
 1558SOL    HW1 5573   5.978   2.904   6.317
 1558SOL    HW2 5574   6.135   2.928   6.280
 1559SOL     OW 5575   1.909   4.476   3.497
 1559SOL    HW1 5576   1.878   4.400   3.554
 1559SOL    HW2 5577   1.944   4.549   3.555
 1560SOL     OW 5578   4.209   1.433   1.496
 1560SOL    HW1 5579   4.123   1.484   1.495
 1560SOL    HW2 5580   4.263   1.457   1.415
 1561SOL     OW 5581   6.216   5.901   1.131
 1561SOL    HW1 5582   6.168   5.879   1.216
 1561SOL    HW2 5583   6.150   5.906   1.056
 1562SOL     OW 5584   3.892   6.575   2.143
 1562SOL    HW1 5585   3.969   6.635   2.166
 1562SOL    HW2 5586   3.817   6.630   2.106
 1563SOL     OW 5587   3.877   2.109   4.043
 1563SOL    HW1 5588   3.931   2.158   4.111
 1563SOL    HW2 5589   3.909   2.132   3.952
 1564SOL     OW 5590   1.431   2.387   3.296
 1564SOL    HW1 5591   1.364   2.332   3.245
 1564SOL    HW2 5592   1.507   2.411   3.235
 1565SOL     OW 5593   3.789   1.095   4.298
 1565SOL    HW1 5594   3.880   1.084   4.337
 1565SOL    HW2 5595   3.796   1.137   4.208
 1566SOL     OW 5596   4.564   4.529   3.056
 1566SOL    HW1 5597   4.530   4.454   2.999
 1566SOL    HW2 5598   4.488   4.569   3.108
 1567SOL     OW 5599   4.892   0.172   5.138
 1567SOL    HW1 5600   4.794   0.182   5.123
 1567SOL    HW2 5601   4.938   0.153   5.051
 1568SOL     OW 5602   2.218   5.688   2.151
 1568SOL    HW1 5603   2.309   5.719   2.122
 1568SOL    HW2 5604   2.229   5.621   2.225
 1569SOL     OW 5605   3.318   0.265   3.378
 1569SOL    HW1 5606   3.322   0.292   3.474
 1569SOL    HW2 5607   3.226   0.232   3.357
 1570SOL     OW 5608   3.753   6.345   6.740
 1570SOL    HW1 5609   3.654   6.339   6.729
 1570SOL    HW2 5610   3.780   6.299   6.824
 1571SOL     OW 5611   1.043   2.124   4.628
 1571SOL    HW1 5612   1.072   2.102   4.535
 1571SOL    HW2 5613   0.950   2.160   4.627
 1572SOL     OW 5614   2.011   5.196   1.704
 1572SOL    HW1 5615   1.968   5.285   1.721
 1572SOL    HW2 5616   2.038   5.190   1.608
 1573SOL     OW 5617   5.251   5.523   0.774
 1573SOL    HW1 5618   5.282   5.528   0.869
 1573SOL    HW2 5619   5.315   5.573   0.716
 1574SOL     OW 5620   0.065   3.616   3.271
 1574SOL    HW1 5621   0.001   3.540   3.285
 1574SOL    HW2 5622   0.018   3.703   3.291
 1575SOL     OW 5623   0.076   1.106   0.504
 1575SOL    HW1 5624   0.173   1.108   0.482
 1575SOL    HW2 5625   0.025   1.161   0.437
 1576SOL     OW 5626   0.859   0.228   2.166
 1576SOL    HW1 5627   0.808   0.273   2.093
 1576SOL    HW2 5628   0.840   0.274   2.253
 1577SOL     OW 5629   4.252   5.941   5.376
 1577SOL    HW1 5630   4.199   6.019   5.411
 1577SOL    HW2 5631   4.295   5.966   5.289
 1578SOL     OW 5632   5.094   1.387   0.643
 1578SOL    HW1 5633   5.115   1.292   0.666
 1578SOL    HW2 5634   5.049   1.431   0.721
 1579SOL     OW 5635   1.518   2.712   1.424
 1579SOL    HW1 5636   1.565   2.688   1.339
 1579SOL    HW2 5637   1.577   2.691   1.502
 1580SOL     OW 5638   3.177   3.770   2.733
 1580SOL    HW1 5639   3.087   3.731   2.751
 1580SOL    HW2 5640   3.178   3.867   2.758
 1581SOL     OW 5641   6.259   4.103   5.563
 1581SOL    HW1 5642   6.289   4.171   5.629
 1581SOL    HW2 5643   6.160   4.113   5.548
 1582SOL     OW 5644   4.281   6.446   5.308
 1582SOL    HW1 5645   4.243   6.527   5.262
 1582SOL    HW2 5646   4.346   6.401   5.247
 1583SOL     OW 5647   1.304   6.235   5.067
 1583SOL    HW1 5648   1.339   6.264   5.156
 1583SOL    HW2 5649   1.268   6.142   5.073
 1584SOL     OW 5650   0.345   5.239   6.926
 1584SOL    HW1 5651   0.360   5.140   6.932
 1584SOL    HW2 5652   0.339   5.266   6.830
 1585SOL     OW 5653   4.214   6.367   3.023
 1585SOL    HW1 5654   4.147   6.386   3.094
 1585SOL    HW2 5655   4.208   6.271   2.996
 1586SOL     OW 5656   3.159   4.947   3.384
 1586SOL    HW1 5657   3.258   4.937   3.371
 1586SOL    HW2 5658   3.112   4.931   3.298
 1587SOL     OW 5659   2.196   6.035   5.984
 1587SOL    HW1 5660   2.114   6.091   5.981
 1587SOL    HW2 5661   2.235   6.027   5.892
 1588SOL     OW 5662   5.532   0.955   3.041
 1588SOL    HW1 5663   5.611   0.895   3.047
 1588SOL    HW2 5664   5.449   0.903   3.060
 1589SOL     OW 5665   5.910   4.664   3.851
 1589SOL    HW1 5666   6.000   4.684   3.888
 1589SOL    HW2 5667   5.851   4.626   3.922
 1590SOL     OW 5668   6.390   2.940   3.678
 1590SOL    HW1 5669   6.426   3.020   3.631
 1590SOL    HW2 5670   6.388   2.862   3.615
 1591SOL     OW 5671   1.095   6.642   2.077
 1591SOL    HW1 5672   1.143   6.568   2.125
 1591SOL    HW2 5673   1.071   6.714   2.142
 1592SOL     OW 5674   0.174   4.119   6.572
 1592SOL    HW1 5675   0.166   4.020   6.565
 1592SOL    HW2 5676   0.248   4.151   6.512
 1593SOL     OW 5677   2.896   0.360   0.300
 1593SOL    HW1 5678   2.911   0.294   0.374
 1593SOL    HW2 5679   2.862   0.446   0.339
 1594SOL     OW 5680   6.204   0.382   2.072
 1594SOL    HW1 5681   6.236   0.289   2.090
 1594SOL    HW2 5682   6.132   0.406   2.137
 1595SOL     OW 5683   0.031   4.016   6.923
 1595SOL    HW1 5684   0.102   4.079   6.955
 1595SOL    HW2 5685   0.074   3.935   6.883
 1596SOL     OW 5686   5.025   4.864   2.795
 1596SOL    HW1 5687   5.021   4.958   2.762
 1596SOL    HW2 5688   4.946   4.845   2.854
 1597SOL     OW 5689   3.921   6.459   6.488
 1597SOL    HW1 5690   3.979   6.536   6.463
 1597SOL    HW2 5691   3.908   6.457   6.587
 1598SOL     OW 5692   1.943   5.374   0.231
 1598SOL    HW1 5693   1.914   5.293   0.181
 1598SOL    HW2 5694   1.898   5.375   0.321
 1599SOL     OW 5695   4.742   5.026   3.563
 1599SOL    HW1 5696   4.804   5.069   3.498
 1599SOL    HW2 5697   4.648   5.036   3.530
 1600SOL     OW 5698   4.583   0.063   2.543
 1600SOL    HW1 5699   4.526   0.094   2.619
 1600SOL    HW2 5700   4.608   0.141   2.486
 1601SOL     OW 5701   6.507   6.631   4.554
 1601SOL    HW1 5702   6.579   6.620   4.622
 1601SOL    HW2 5703   6.542   6.683   4.476
 1602SOL     OW 5704   3.779   4.986   3.748
 1602SOL    HW1 5705   3.740   5.013   3.837
 1602SOL    HW2 5706   3.876   5.010   3.746
 1603SOL     OW 5707   3.051   5.596   2.692
 1603SOL    HW1 5708   2.973   5.539   2.666
 1603SOL    HW2 5709   3.131   5.539   2.708
 1604SOL     OW 5710   4.259   5.439   2.127
 1604SOL    HW1 5711   4.245   5.342   2.106
 1604SOL    HW2 5712   4.350   5.452   2.167
 1605SOL     OW 5713   4.490   5.565   1.101
 1605SOL    HW1 5714   4.483   5.478   1.150
 1605SOL    HW2 5715   4.526   5.635   1.161
 1606SOL     OW 5716   3.824   6.517   4.724
 1606SOL    HW1 5717   3.777   6.431   4.706
 1606SOL    HW2 5718   3.830   6.531   4.823
 1607SOL     OW 5719   4.622   6.032   2.855
 1607SOL    HW1 5720   4.607   5.981   2.940
 1607SOL    HW2 5721   4.719   6.054   2.847
 1608SOL     OW 5722   5.951   0.821   3.128
 1608SOL    HW1 5723   6.012   0.744   3.109
 1608SOL    HW2 5724   5.905   0.807   3.216
 1609SOL     OW 5725   3.764   6.379   0.076
 1609SOL    HW1 5726   3.810   6.316   0.013
 1609SOL    HW2 5727   3.822   6.458   0.093
 1610SOL     OW 5728   5.192   0.316   0.645
 1610SOL    HW1 5729   5.262   0.259   0.689
 1610SOL    HW2 5730   5.129   0.258   0.594
 1611SOL     OW 5731   1.125   3.994   1.586
 1611SOL    HW1 5732   1.072   3.974   1.669
 1611SOL    HW2 5733   1.149   3.908   1.541
 1612SOL     OW 5734   3.823   6.813   2.006
 1612SOL    HW1 5735   3.866   6.903   1.997
 1612SOL    HW2 5736   3.861   6.752   1.937
 1613SOL     OW 5737   6.886   5.344   2.344
 1613SOL    HW1 5738   6.880   5.394   2.430
 1613SOL    HW2 5739   6.835   5.392   2.273
 1614SOL     OW 5740   6.584   2.221   6.127
 1614SOL    HW1 5741   6.611   2.225   6.224
 1614SOL    HW2 5742   6.660   2.251   6.070
 1615SOL     OW 5743   1.331   4.996   6.219
 1615SOL    HW1 5744   1.326   4.934   6.140
 1615SOL    HW2 5745   1.304   5.088   6.191
 1616SOL     OW 5746   2.346   1.493   4.640
 1616SOL    HW1 5747   2.422   1.554   4.661
 1616SOL    HW2 5748   2.288   1.533   4.569
 1617SOL     OW 5749   5.576   5.949   3.240
 1617SOL    HW1 5750   5.627   5.929   3.324
 1617SOL    HW2 5751   5.508   6.020   3.258
 1618SOL     OW 5752   3.010   5.197   2.839
 1618SOL    HW1 5753   2.933   5.180   2.778
 1618SOL    HW2 5754   2.997   5.285   2.885
 1619SOL     OW 5755   1.213   5.340   6.485
 1619SOL    HW1 5756   1.222   5.385   6.574
 1619SOL    HW2 5757   1.302   5.340   6.438
 1620SOL     OW 5758   3.719   5.455   6.243
 1620SOL    HW1 5759   3.793   5.442   6.176
 1620SOL    HW2 5760   3.655   5.379   6.237
 1621SOL     OW 5761   5.173   6.385   0.869
 1621SOL    HW1 5762   5.148   6.346   0.958
 1621SOL    HW2 5763   5.092   6.389   0.810
 1622SOL     OW 5764   6.925   4.143   3.992
 1622SOL    HW1 5765   7.000   4.163   3.930
 1622SOL    HW2 5766   6.882   4.230   4.020
 1623SOL     OW 5767   0.820   1.832   3.657
 1623SOL    HW1 5768   0.878   1.800   3.582
 1623SOL    HW2 5769   0.724   1.821   3.632
 1624SOL     OW 5770   4.232   1.486   0.949
 1624SOL    HW1 5771   4.287   1.560   0.987
 1624SOL    HW2 5772   4.222   1.500   0.850
 1625SOL     OW 5773   1.090   5.596   0.890
 1625SOL    HW1 5774   1.063   5.502   0.910
 1625SOL    HW2 5775   1.145   5.632   0.965
 1626SOL     OW 5776   2.902   1.928   1.147
 1626SOL    HW1 5777   2.857   1.979   1.074
 1626SOL    HW2 5778   2.898   1.981   1.232
 1627SOL     OW 5779   4.440   1.661   4.142
 1627SOL    HW1 5780   4.470   1.717   4.219
 1627SOL    HW2 5781   4.365   1.601   4.171
 1628SOL     OW 5782   5.309   6.846   0.232
 1628SOL    HW1 5783   5.320   6.749   0.254
 1628SOL    HW2 5784   5.285   6.856   0.135
 1629SOL     OW 5785   1.961   0.922   3.531
 1629SOL    HW1 5786   1.891   0.852   3.541
 1629SOL    HW2 5787   1.976   0.941   3.434
 1630SOL     OW 5788   0.322   3.281   0.154
 1630SOL    HW1 5789   0.285   3.323   0.237
 1630SOL    HW2 5790   0.386   3.344   0.111
 1631SOL     OW 5791   6.834   2.953   0.310
 1631SOL    HW1 5792   6.807   3.029   0.370
 1631SOL    HW2 5793   6.893   2.890   0.360
 1632SOL     OW 5794   6.661   4.564   2.686
 1632SOL    HW1 5795   6.621   4.530   2.601
 1632SOL    HW2 5796   6.636   4.660   2.699
 1633SOL     OW 5797   5.063   3.176   4.024
 1633SOL    HW1 5798   5.146   3.168   4.080
 1633SOL    HW2 5799   5.086   3.156   3.928
 1634SOL     OW 5800   5.493   0.772   4.379
 1634SOL    HW1 5801   5.406   0.723   4.380
 1634SOL    HW2 5802   5.485   0.853   4.320
 1635SOL     OW 5803   3.348   5.581   3.977
 1635SOL    HW1 5804   3.281   5.509   3.962
 1635SOL    HW2 5805   3.422   5.572   3.910
 1636SOL     OW 5806   5.620   6.415   1.367
 1636SOL    HW1 5807   5.569   6.438   1.284
 1636SOL    HW2 5808   5.703   6.366   1.343
 1637SOL     OW 5809   0.479   0.254   2.200
 1637SOL    HW1 5810   0.509   0.254   2.295
 1637SOL    HW2 5811   0.385   0.289   2.195
 1638SOL     OW 5812   6.824   2.939   2.219
 1638SOL    HW1 5813   6.899   2.880   2.250
 1638SOL    HW2 5814   6.765   2.961   2.297
 1639SOL     OW 5815   5.061   2.503   2.482
 1639SOL    HW1 5816   5.148   2.461   2.508
 1639SOL    HW2 5817   5.002   2.434   2.438
 1640SOL     OW 5818   6.352   0.165   0.225
 1640SOL    HW1 5819   6.289   0.090   0.207
 1640SOL    HW2 5820   6.358   0.224   0.144
 1641SOL     OW 5821   6.313   2.508   2.961
 1641SOL    HW1 5822   6.408   2.489   2.934
 1641SOL    HW2 5823   6.296   2.470   3.052
 1642SOL     OW 5824   5.791   2.080   5.691
 1642SOL    HW1 5825   5.694   2.103   5.687
 1642SOL    HW2 5826   5.803   1.981   5.696
 1643SOL     OW 5827   2.612   5.688   3.713
 1643SOL    HW1 5828   2.579   5.727   3.799
 1643SOL    HW2 5829   2.671   5.609   3.733
 1644SOL     OW 5830   6.017   3.061   1.081
 1644SOL    HW1 5831   5.979   3.034   1.169
 1644SOL    HW2 5832   6.082   3.136   1.094
 1645SOL     OW 5833   1.934   1.068   5.615
 1645SOL    HW1 5834   1.859   1.026   5.665
 1645SOL    HW2 5835   2.014   1.009   5.619
 1646SOL     OW 5836   1.202   5.628   1.157
 1646SOL    HW1 5837   1.244   5.719   1.153
 1646SOL    HW2 5838   1.210   5.592   1.249
 1647SOL     OW 5839   5.924   2.804   4.106
 1647SOL    HW1 5840   5.945   2.792   4.203
 1647SOL    HW2 5841   5.829   2.836   4.097
 1648SOL     OW 5842   5.324   6.306   1.249
 1648SOL    HW1 5843   5.363   6.391   1.212
 1648SOL    HW2 5844   5.271   6.326   1.331
 1649SOL     OW 5845   3.088   6.873   3.589
 1649SOL    HW1 5846   3.086   6.964   3.630
 1649SOL    HW2 5847   3.104   6.805   3.660
 1650SOL     OW 5848   2.792   4.718   6.281
 1650SOL    HW1 5849   2.844   4.654   6.338
 1650SOL    HW2 5850   2.807   4.811   6.314
 1651SOL     OW 5851   1.228   2.988   3.809
 1651SOL    HW1 5852   1.194   2.953   3.896
 1651SOL    HW2 5853   1.306   2.932   3.779
 1652SOL     OW 5854   0.452   2.506   1.263
 1652SOL    HW1 5855   0.459   2.597   1.222
 1652SOL    HW2 5856   0.463   2.512   1.362
 1653SOL     OW 5857   6.836   4.685   3.745
 1653SOL    HW1 5858   6.927   4.650   3.723
 1653SOL    HW2 5859   6.770   4.610   3.741
 1654SOL     OW 5860   0.562   3.156   1.823
 1654SOL    HW1 5861   0.526   3.100   1.898
 1654SOL    HW2 5862   0.657   3.131   1.806
 1655SOL     OW 5863   0.028   6.695   4.648
 1655SOL    HW1 5864   0.063   6.603   4.665
 1655SOL    HW2 5865   6.976   6.690   4.577
 1656SOL     OW 5866   1.588   4.875   4.002
 1656SOL    HW1 5867   1.580   4.907   4.096
 1656SOL    HW2 5868   1.677   4.902   3.965
 1657SOL     OW 5869   1.267   0.102   4.948
 1657SOL    HW1 5870   1.204   0.172   4.913
 1657SOL    HW2 5871   1.235   0.070   5.037
 1658SOL     OW 5872   6.299   0.019   6.979
 1658SOL    HW1 5873   6.360   6.984   0.018
 1658SOL    HW2 5874   6.346   0.044   6.895
 1659SOL     OW 5875   4.931   6.791   6.346
 1659SOL    HW1 5876   4.934   6.819   6.250
 1659SOL    HW2 5877   4.934   6.872   6.404
 1660SOL     OW 5878   2.053   0.099   2.161
 1660SOL    HW1 5879   1.968   0.140   2.129
 1660SOL    HW2 5880   2.113   0.170   2.198
 1661SOL     OW 5881   4.189   4.671   3.003
 1661SOL    HW1 5882   4.135   4.755   2.993
 1661SOL    HW2 5883   4.196   4.626   2.914
 1662SOL     OW 5884   0.301   0.888   5.182
 1662SOL    HW1 5885   0.284   0.841   5.268
 1662SOL    HW2 5886   0.395   0.870   5.152
 1663SOL     OW 5887   4.425   4.984   1.227
 1663SOL    HW1 5888   4.420   5.015   1.322
 1663SOL    HW2 5889   4.419   5.063   1.166
 1664SOL     OW 5890   1.546   6.907   5.471
 1664SOL    HW1 5891   1.518   6.986   5.525
 1664SOL    HW2 5892   1.577   6.937   5.381
 1665SOL     OW 5893   2.013   3.651   0.260
 1665SOL    HW1 5894   2.017   3.569   0.317
 1665SOL    HW2 5895   2.104   3.673   0.226
 1666SOL     OW 5896   5.808   6.684   6.181
 1666SOL    HW1 5897   5.880   6.715   6.118
 1666SOL    HW2 5898   5.771   6.597   6.148
 1667SOL     OW 5899   1.088   6.340   1.043
 1667SOL    HW1 5900   1.038   6.404   0.985
 1667SOL    HW2 5901   1.161   6.296   0.991
 1668SOL     OW 5902   5.866   4.447   3.305
 1668SOL    HW1 5903   5.925   4.400   3.239
 1668SOL    HW2 5904   5.911   4.531   3.336
 1669SOL     OW 5905   6.294   3.601   5.444
 1669SOL    HW1 5906   6.365   3.630   5.509
 1669SOL    HW2 5907   6.219   3.667   5.445
 1670SOL     OW 5908   1.894   4.865   5.728
 1670SOL    HW1 5909   1.857   4.928   5.660
 1670SOL    HW2 5910   1.992   4.877   5.735
 1671SOL     OW 5911   5.964   2.097   1.094
 1671SOL    HW1 5912   5.957   2.132   1.187
 1671SOL    HW2 5913   6.060   2.073   1.074
 1672SOL     OW 5914   1.001   3.403   6.777
 1672SOL    HW1 5915   0.946   3.329   6.814
 1672SOL    HW2 5916   1.085   3.412   6.831
 1673SOL     OW 5917   2.658   1.540   4.634
 1673SOL    HW1 5918   2.599   1.595   4.693
 1673SOL    HW2 5919   2.750   1.577   4.634
 1674SOL     OW 5920   4.617   2.103   3.207
 1674SOL    HW1 5921   4.690   2.168   3.227
 1674SOL    HW2 5922   4.597   2.104   3.109
 1675SOL     OW 5923   5.198   0.703   0.997
 1675SOL    HW1 5924   5.098   0.695   1.000
 1675SOL    HW2 5925   5.231   0.666   0.910
 1676SOL     OW 5926   1.614   1.448   3.025
 1676SOL    HW1 5927   1.601   1.349   3.035
 1676SOL    HW2 5928   1.575   1.494   3.105
 1677SOL     OW 5929   3.801   4.052   3.651
 1677SOL    HW1 5930   3.887   4.032   3.697
 1677SOL    HW2 5931   3.742   4.106   3.711
 1678SOL     OW 5932   1.162   0.100   0.659
 1678SOL    HW1 5933   1.105   0.024   0.629
 1678SOL    HW2 5934   1.223   0.069   0.733
 1679SOL     OW 5935   1.555   2.120   5.485
 1679SOL    HW1 5936   1.475   2.067   5.514
 1679SOL    HW2 5937   1.634   2.060   5.476
 1680SOL     OW 5938   5.076   2.538   3.673
 1680SOL    HW1 5939   5.136   2.469   3.714
 1680SOL    HW2 5940   5.010   2.570   3.741
 1681SOL     OW 5941   1.879   6.079   3.802
 1681SOL    HW1 5942   1.815   6.125   3.863
 1681SOL    HW2 5943   1.956   6.141   3.783
 1682SOL     OW 5944   2.887   0.019   5.417
 1682SOL    HW1 5945   2.821   0.005   5.343
 1682SOL    HW2 5946   2.980   0.016   5.380
 1683SOL     OW 5947   6.100   4.977   2.394
 1683SOL    HW1 5948   6.082   4.879   2.381
 1683SOL    HW2 5949   6.025   5.017   2.447
 1684SOL     OW 5950   2.686   4.429   1.704
 1684SOL    HW1 5951   2.681   4.329   1.706
 1684SOL    HW2 5952   2.775   4.458   1.739
 1685SOL     OW 5953   0.636   0.769   5.412
 1685SOL    HW1 5954   0.710   0.709   5.443
 1685SOL    HW2 5955   0.631   0.850   5.470
 1686SOL     OW 5956   4.762   5.664   2.975
 1686SOL    HW1 5957   4.841   5.604   2.992
 1686SOL    HW2 5958   4.743   5.667   2.877
 1687SOL     OW 5959   6.074   3.732   2.708
 1687SOL    HW1 5960   6.072   3.803   2.779
 1687SOL    HW2 5961   5.983   3.691   2.700
 1688SOL     OW 5962   2.122   1.725   3.776
 1688SOL    HW1 5963   2.180   1.701   3.698
 1688SOL    HW2 5964   2.153   1.676   3.857
 1689SOL     OW 5965   5.138   0.648   1.571
 1689SOL    HW1 5966   5.091   0.655   1.659
 1689SOL    HW2 5967   5.203   0.723   1.561
 1690SOL     OW 5968   0.758   3.776   4.511
 1690SOL    HW1 5969   0.664   3.802   4.531
 1690SOL    HW2 5970   0.805   3.853   4.466
 1691SOL     OW 5971   4.688   2.924   5.267
 1691SOL    HW1 5972   4.726   2.856   5.330
 1691SOL    HW2 5973   4.597   2.952   5.299
 1692SOL     OW 5974   5.931   5.403   1.243
 1692SOL    HW1 5975   5.860   5.462   1.203
 1692SOL    HW2 5976   5.888   5.339   1.307
 1693SOL     OW 5977   5.518   6.927   5.041
 1693SOL    HW1 5978   5.498   6.892   5.132
 1693SOL    HW2 5979   5.442   6.983   5.009
 1694SOL     OW 5980   4.788   1.023   5.608
 1694SOL    HW1 5981   4.873   0.972   5.595
 1694SOL    HW2 5982   4.734   0.980   5.680
 1695SOL     OW 5983   3.850   0.902   6.416
 1695SOL    HW1 5984   3.878   0.806   6.410
 1695SOL    HW2 5985   3.863   0.946   6.328
 1696SOL     OW 5986   4.280   6.202   0.755
 1696SOL    HW1 5987   4.320   6.293   0.746
 1696SOL    HW2 5988   4.343   6.143   0.807
 1697SOL     OW 5989   5.907   2.562   1.474
 1697SOL    HW1 5990   5.858   2.475   1.469
 1697SOL    HW2 5991   5.969   2.562   1.552
 1698SOL     OW 5992   3.823   1.109   1.610
 1698SOL    HW1 5993   3.906   1.148   1.651
 1698SOL    HW2 5994   3.752   1.179   1.604
 1699SOL     OW 5995   2.404   0.283   0.091
 1699SOL    HW1 5996   2.488   0.260   0.041
 1699SOL    HW2 5997   2.352   0.351   0.039
 1700SOL     OW 5998   6.018   3.112   2.932
 1700SOL    HW1 5999   5.943   3.058   2.893
 1700SOL    HW2 6000   6.037   3.191   2.874
 1701SOL     OW 6001   6.996   5.559   4.488
 1701SOL    HW1 6002   0.040   5.508   4.430
 1701SOL    HW2 6003   0.017   5.570   4.580
 1702SOL     OW 6004   2.239   2.588   5.650
 1702SOL    HW1 6005   2.244   2.620   5.555
 1702SOL    HW2 6006   2.287   2.652   5.709
 1703SOL     OW 6007   3.268   2.222   0.560
 1703SOL    HW1 6008   3.328   2.168   0.619
 1703SOL    HW2 6009   3.323   2.267   0.490
 1704SOL     OW 6010   2.439   2.163   1.034
 1704SOL    HW1 6011   2.506   2.154   1.107
 1704SOL    HW2 6012   2.353   2.120   1.062
 1705SOL     OW 6013   4.283   1.807   0.829
 1705SOL    HW1 6014   4.191   1.832   0.857
 1705SOL    HW2 6015   4.282   1.719   0.781
 1706SOL     OW 6016   4.218   2.485   0.288
 1706SOL    HW1 6017   4.308   2.461   0.252
 1706SOL    HW2 6018   4.147   2.444   0.231
 1707SOL     OW 6019   4.576   2.091   2.169
 1707SOL    HW1 6020   4.485   2.054   2.187
 1707SOL    HW2 6021   4.637   2.066   2.245
 1708SOL     OW 6022   3.497   5.254   1.889
 1708SOL    HW1 6023   3.409   5.212   1.914
 1708SOL    HW2 6024   3.570   5.187   1.901
 1709SOL     OW 6025   4.722   5.589   0.702
 1709SOL    HW1 6026   4.822   5.599   0.701
 1709SOL    HW2 6027   4.680   5.664   0.652
 1710SOL     OW 6028   3.803   5.274   3.196
 1710SOL    HW1 6029   3.752   5.188   3.197
 1710SOL    HW2 6030   3.740   5.350   3.215
 1711SOL     OW 6031   3.755   4.731   6.278
 1711SOL    HW1 6032   3.810   4.648   6.290
 1711SOL    HW2 6033   3.734   4.770   6.367
 1712SOL     OW 6034   0.058   1.917   3.353
 1712SOL    HW1 6035   7.006   1.848   3.367
 1712SOL    HW2 6036   0.030   1.981   3.282
 1713SOL     OW 6037   3.885   0.749   3.103
 1713SOL    HW1 6038   3.967   0.700   3.073
 1713SOL    HW2 6039   3.864   0.821   3.038
 1714SOL     OW 6040   3.513   3.152   0.344
 1714SOL    HW1 6041   3.557   3.129   0.431
 1714SOL    HW2 6042   3.512   3.252   0.333
 1715SOL     OW 6043   1.494   6.736   2.778
 1715SOL    HW1 6044   1.528   6.660   2.724
 1715SOL    HW2 6045   1.562   6.809   2.778
 1716SOL     OW 6046   4.704   0.274   3.175
 1716SOL    HW1 6047   4.775   0.294   3.108
 1716SOL    HW2 6048   4.658   0.359   3.201
 1717SOL     OW 6049   3.832   6.303   5.414
 1717SOL    HW1 6050   3.781   6.233   5.464
 1717SOL    HW2 6051   3.896   6.259   5.351
 1718SOL     OW 6052   1.362   3.096   1.516
 1718SOL    HW1 6053   1.462   3.099   1.529
 1718SOL    HW2 6054   1.338   3.017   1.460
 1719SOL     OW 6055   1.185   5.145   2.013
 1719SOL    HW1 6056   1.172   5.156   1.914
 1719SOL    HW2 6057   1.267   5.092   2.030
 1720SOL     OW 6058   6.774   2.796   5.694
 1720SOL    HW1 6059   6.846   2.784   5.625
 1720SOL    HW2 6060   6.787   2.883   5.741
 1721SOL     OW 6061   2.234   1.865   1.047
 1721SOL    HW1 6062   2.332   1.856   1.065
 1721SOL    HW2 6063   2.189   1.777   1.062
 1722SOL     OW 6064   2.553   2.239   2.797
 1722SOL    HW1 6065   2.512   2.172   2.858
 1722SOL    HW2 6066   2.641   2.206   2.765
 1723SOL     OW 6067   5.340   2.874   0.077
 1723SOL    HW1 6068   5.269   2.859   0.146
 1723SOL    HW2 6069   5.308   2.940   0.010
 1724SOL     OW 6070   6.950   2.279   1.057
 1724SOL    HW1 6071   7.002   2.216   1.116
 1724SOL    HW2 6072   6.862   2.298   1.100
 1725SOL     OW 6073   1.505   5.749   0.314
 1725SOL    HW1 6074   1.427   5.809   0.296
 1725SOL    HW2 6075   1.483   5.656   0.286
 1726SOL     OW 6076   5.198   4.449   3.700
 1726SOL    HW1 6077   5.234   4.511   3.630
 1726SOL    HW2 6078   5.238   4.472   3.788
 1727SOL     OW 6079   3.374   2.928   3.180
 1727SOL    HW1 6080   3.322   2.998   3.131
 1727SOL    HW2 6081   3.331   2.911   3.269
 1728SOL     OW 6082   4.492   2.282   4.334
 1728SOL    HW1 6083   4.510   2.341   4.413
 1728SOL    HW2 6084   4.418   2.321   4.279
 1729SOL     OW 6085   1.764   3.832   2.256
 1729SOL    HW1 6086   1.765   3.769   2.334
 1729SOL    HW2 6087   1.798   3.785   2.175
 1730SOL     OW 6088   2.798   4.941   5.347
 1730SOL    HW1 6089   2.709   4.923   5.304
 1730SOL    HW2 6090   2.863   4.870   5.321
 1731SOL     OW 6091   5.892   4.314   3.939
 1731SOL    HW1 6092   5.960   4.270   3.998
 1731SOL    HW2 6093   5.892   4.413   3.956
 1732SOL     OW 6094   1.699   3.881   6.431
 1732SOL    HW1 6095   1.707   3.916   6.524
 1732SOL    HW2 6096   1.672   3.955   6.370
 1733SOL     OW 6097   2.668   4.084   6.831
 1733SOL    HW1 6098   2.719   4.067   6.746
 1733SOL    HW2 6099   2.570   4.075   6.813
 1734SOL     OW 6100   0.139   2.829   1.110
 1734SOL    HW1 6101   0.067   2.773   1.069
 1734SOL    HW2 6102   0.228   2.785   1.096
 1735SOL     OW 6103   3.726   5.129   5.729
 1735SOL    HW1 6104   3.715   5.030   5.722
 1735SOL    HW2 6105   3.780   5.162   5.651
 1736SOL     OW 6106   4.961   3.035   1.128
 1736SOL    HW1 6107   4.983   3.128   1.098
 1736SOL    HW2 6108   4.891   2.997   1.068
 1737SOL     OW 6109   4.482   1.550   5.459
 1737SOL    HW1 6110   4.462   1.455   5.482
 1737SOL    HW2 6111   4.533   1.592   5.534
 1738SOL     OW 6112   1.463   3.182   4.465
 1738SOL    HW1 6113   1.428   3.118   4.396
 1738SOL    HW2 6114   1.563   3.184   4.460
 1739SOL     OW 6115   5.562   0.149   4.340
 1739SOL    HW1 6116   5.563   0.176   4.244
 1739SOL    HW2 6117   5.644   0.182   4.386
 1740SOL     OW 6118   6.129   2.794   4.319
 1740SOL    HW1 6119   6.185   2.876   4.303
 1740SOL    HW2 6120   6.054   2.817   4.381
 1741SOL     OW 6121   1.143   2.071   4.382
 1741SOL    HW1 6122   1.243   2.067   4.372
 1741SOL    HW2 6123   1.104   1.984   4.353
 1742SOL     OW 6124   6.157   6.451   6.253
 1742SOL    HW1 6125   6.129   6.539   6.214
 1742SOL    HW2 6126   6.190   6.465   6.347
 1743SOL     OW 6127   1.370   0.936   3.000
 1743SOL    HW1 6128   1.322   0.998   3.062
 1743SOL    HW2 6129   1.433   0.879   3.052
 1744SOL     OW 6130   3.839   1.835   4.425
 1744SOL    HW1 6131   3.856   1.934   4.421
 1744SOL    HW2 6132   3.785   1.807   4.346
 1745SOL     OW 6133   6.635   6.887   1.480
 1745SOL    HW1 6134   6.625   6.796   1.519
 1745SOL    HW2 6135   6.719   6.929   1.514
 1746SOL     OW 6136   1.771   4.104   3.845
 1746SOL    HW1 6137   1.745   4.051   3.926
 1746SOL    HW2 6138   1.855   4.156   3.865
 1747SOL     OW 6139   3.980   6.970   2.638
 1747SOL    HW1 6140   4.018   6.889   2.682
 1747SOL    HW2 6141   3.920   7.018   2.702
 1748SOL     OW 6142   6.621   2.406   4.625
 1748SOL    HW1 6143   6.622   2.396   4.725
 1748SOL    HW2 6144   6.702   2.456   4.596
 1749SOL     OW 6145   1.659   4.881   0.991
 1749SOL    HW1 6146   1.755   4.850   0.993
 1749SOL    HW2 6147   1.603   4.818   1.045
 1750SOL     OW 6148   3.882   6.925   5.516
 1750SOL    HW1 6149   3.825   6.910   5.435
 1750SOL    HW2 6150   3.835   6.987   5.579
 1751SOL     OW 6151   5.345   2.988   5.222
 1751SOL    HW1 6152   5.398   2.930   5.284
 1751SOL    HW2 6153   5.248   2.981   5.245
 1752SOL     OW 6154   6.913   0.801   1.684
 1752SOL    HW1 6155   6.952   0.858   1.757
 1752SOL    HW2 6156   6.944   0.706   1.696
 1753SOL     OW 6157   6.374   1.476   1.510
 1753SOL    HW1 6158   6.412   1.516   1.593
 1753SOL    HW2 6159   6.430   1.503   1.432
 1754SOL     OW 6160   3.100   5.723   4.528
 1754SOL    HW1 6161   3.022   5.681   4.575
 1754SOL    HW2 6162   3.130   5.663   4.454
 1755SOL     OW 6163   6.729   6.587   4.766
 1755SOL    HW1 6164   6.677   6.631   4.839
 1755SOL    HW2 6165   6.824   6.617   4.770
 1756SOL     OW 6166   4.919   6.744   5.608
 1756SOL    HW1 6167   4.898   6.842   5.606
 1756SOL    HW2 6168   4.959   6.722   5.697
 1757SOL     OW 6169   2.222   4.703   5.233
 1757SOL    HW1 6170   2.197   4.779   5.293
 1757SOL    HW2 6171   2.147   4.636   5.232
 1758SOL     OW 6172   1.681   6.264   4.619
 1758SOL    HW1 6173   1.604   6.271   4.555
 1758SOL    HW2 6174   1.664   6.321   4.699
 1759SOL     OW 6175   1.588   6.878   7.019
 1759SOL    HW1 6176   1.604   6.815   0.075
 1759SOL    HW2 6177   1.514   6.941   0.024
 1760SOL     OW 6178   6.283   1.035   4.616
 1760SOL    HW1 6179   6.207   0.972   4.600
 1760SOL    HW2 6180   6.247   1.128   4.628
 1761SOL     OW 6181   6.090   1.562   2.070
 1761SOL    HW1 6182   6.138   1.625   2.130
 1761SOL    HW2 6183   5.992   1.563   2.091
 1762SOL     OW 6184   0.484   1.827   6.027
 1762SOL    HW1 6185   0.511   1.801   5.934
 1762SOL    HW2 6186   0.466   1.745   6.081
 1763SOL     OW 6187   0.924   3.464   4.319
 1763SOL    HW1 6188   0.963   3.549   4.357
 1763SOL    HW2 6189   0.997   3.403   4.291
 1764SOL     OW 6190   1.107   5.379   2.787
 1764SOL    HW1 6191   1.030   5.380   2.724
 1764SOL    HW2 6192   1.072   5.370   2.881
 1765SOL     OW 6193   5.494   3.126   2.450
 1765SOL    HW1 6194   5.429   3.117   2.374
 1765SOL    HW2 6195   5.536   3.217   2.446
 1766SOL     OW 6196   4.810   4.677   4.494
 1766SOL    HW1 6197   4.800   4.587   4.452
 1766SOL    HW2 6198   4.905   4.708   4.483
 1767SOL     OW 6199   1.010   4.619   2.477
 1767SOL    HW1 6200   1.013   4.705   2.426
 1767SOL    HW2 6201   1.018   4.543   2.413
 1768SOL     OW 6202   5.461   6.315   2.065
 1768SOL    HW1 6203   5.412   6.268   1.992
 1768SOL    HW2 6204   5.540   6.363   2.027
 1769SOL     OW 6205   4.871   0.303   6.839
 1769SOL    HW1 6206   4.872   0.345   6.748
 1769SOL    HW2 6207   4.923   0.359   6.902
 1770SOL     OW 6208   1.832   5.509   6.578
 1770SOL    HW1 6209   1.906   5.572   6.600
 1770SOL    HW2 6210   1.864   5.443   6.510
 1771SOL     OW 6211   1.096   3.621   5.882
 1771SOL    HW1 6212   1.183   3.669   5.871
 1771SOL    HW2 6213   1.022   3.679   5.845
 1772SOL     OW 6214   2.384   4.566   3.574
 1772SOL    HW1 6215   2.457   4.622   3.535
 1772SOL    HW2 6216   2.298   4.586   3.526
 1773SOL     OW 6217   0.927   6.668   5.402
 1773SOL    HW1 6218   0.844   6.687   5.454
 1773SOL    HW2 6219   1.007   6.681   5.462
 1774SOL     OW 6220   5.006   5.588   0.683
 1774SOL    HW1 6221   5.000   5.529   0.602
 1774SOL    HW2 6222   5.092   5.569   0.731
 1775SOL     OW 6223   2.260   5.450   6.234
 1775SOL    HW1 6224   2.290   5.495   6.149
 1775SOL    HW2 6225   2.302   5.360   6.240
 1776SOL     OW 6226   4.726   1.888   5.952
 1776SOL    HW1 6227   4.739   1.913   5.856
 1776SOL    HW2 6228   4.804   1.918   6.006
 1777SOL     OW 6229   4.993   6.270   6.477
 1777SOL    HW1 6230   5.082   6.303   6.507
 1777SOL    HW2 6231   4.952   6.337   6.415
 1778SOL     OW 6232   5.960   6.699   4.007
 1778SOL    HW1 6233   6.019   6.725   3.930
 1778SOL    HW2 6234   5.949   6.599   4.007
 1779SOL     OW 6235   6.014   5.812   4.191
 1779SOL    HW1 6236   6.023   5.884   4.122
 1779SOL    HW2 6237   5.968   5.849   4.272
 1780SOL     OW 6238   1.540   5.650   4.928
 1780SOL    HW1 6239   1.498   5.741   4.928
 1780SOL    HW2 6240   1.613   5.647   4.860
 1781SOL     OW 6241   4.123   0.918   4.130
 1781SOL    HW1 6242   4.038   0.968   4.117
 1781SOL    HW2 6243   4.103   0.821   4.146
 1782SOL     OW 6244   1.136   1.863   2.627
 1782SOL    HW1 6245   1.070   1.855   2.702
 1782SOL    HW2 6246   1.181   1.775   2.612
 1783SOL     OW 6247   2.404   4.056   6.738
 1783SOL    HW1 6248   2.362   4.084   6.652
 1783SOL    HW2 6249   2.336   4.056   6.811
 1784SOL     OW 6250   2.888   6.972   1.258
 1784SOL    HW1 6251   2.987   6.957   1.260
 1784SOL    HW2 6252   2.847   6.940   1.343
 1785SOL     OW 6253   1.347   6.663   4.564
 1785SOL    HW1 6254   1.264   6.610   4.584
 1785SOL    HW2 6255   1.397   6.619   4.490
 1786SOL     OW 6256   0.899   6.494   0.447
 1786SOL    HW1 6257   0.895   6.398   0.477
 1786SOL    HW2 6258   0.908   6.554   0.526
 1787SOL     OW 6259   2.648   3.653   6.170
 1787SOL    HW1 6260   2.601   3.687   6.251
 1787SOL    HW2 6261   2.643   3.553   6.167
 1788SOL     OW 6262   4.461   3.527   0.903
 1788SOL    HW1 6263   4.488   3.434   0.926
 1788SOL    HW2 6264   4.470   3.586   0.983
 1789SOL     OW 6265   6.244   4.222   2.164
 1789SOL    HW1 6266   6.264   4.125   2.160
 1789SOL    HW2 6267   6.214   4.255   2.075
 1790SOL     OW 6268   2.447   2.361   4.670
 1790SOL    HW1 6269   2.414   2.436   4.726
 1790SOL    HW2 6270   2.531   2.389   4.623
 1791SOL     OW 6271   5.261   6.682   3.148
 1791SOL    HW1 6272   5.278   6.759   3.086
 1791SOL    HW2 6273   5.341   6.669   3.207
 1792SOL     OW 6274   0.201   1.170   5.351
 1792SOL    HW1 6275   0.183   1.072   5.340
 1792SOL    HW2 6276   0.289   1.183   5.397
 1793SOL     OW 6277   0.114   1.443   6.315
 1793SOL    HW1 6278   0.044   1.413   6.380
 1793SOL    HW2 6279   0.162   1.523   6.351
 1794SOL     OW 6280   1.331   0.117   6.407
 1794SOL    HW1 6281   1.386   0.054   6.461
 1794SOL    HW2 6282   1.278   0.065   6.340
 1795SOL     OW 6283   6.280   4.144   1.453
 1795SOL    HW1 6284   6.339   4.077   1.498
 1795SOL    HW2 6285   6.185   4.131   1.483
 1796SOL     OW 6286   1.064   0.484   6.373
 1796SOL    HW1 6287   1.009   0.566   6.384
 1796SOL    HW2 6288   1.021   0.424   6.305
 1797SOL     OW 6289   2.233   5.103   5.935
 1797SOL    HW1 6290   2.197   5.095   6.028
 1797SOL    HW2 6291   2.240   5.200   5.911
 1798SOL     OW 6292   3.172   3.585   4.908
 1798SOL    HW1 6293   3.192   3.490   4.931
 1798SOL    HW2 6294   3.074   3.598   4.899
 1799SOL     OW 6295   3.495   1.798   0.677
 1799SOL    HW1 6296   3.400   1.814   0.703
 1799SOL    HW2 6297   3.550   1.785   0.760
 1800SOL     OW 6298   6.152   3.625   4.792
 1800SOL    HW1 6299   6.176   3.616   4.889
 1800SOL    HW2 6300   6.235   3.634   4.738
 1801SOL     OW 6301   1.325   1.400   2.386
 1801SOL    HW1 6302   1.309   1.496   2.362
 1801SOL    HW2 6303   1.412   1.391   2.434
 1802SOL     OW 6304   6.956   4.889   3.895
 1802SOL    HW1 6305   6.979   4.855   3.986
 1802SOL    HW2 6306   6.927   4.814   3.837
 1803SOL     OW 6307   0.907   6.501   3.315
 1803SOL    HW1 6308   0.940   6.573   3.376
 1803SOL    HW2 6309   0.864   6.542   3.235
 1804SOL     OW 6310   2.234   3.179   5.916
 1804SOL    HW1 6311   2.141   3.149   5.892
 1804SOL    HW2 6312   2.253   3.266   5.871
 1805SOL     OW 6313   6.849   5.702   6.393
 1805SOL    HW1 6314   6.889   5.730   6.305
 1805SOL    HW2 6315   6.788   5.773   6.427
 1806SOL     OW 6316   0.169   1.628   2.113
 1806SOL    HW1 6317   0.203   1.542   2.077
 1806SOL    HW2 6318   0.074   1.617   2.144
 1807SOL     OW 6319   0.203   2.903   2.624
 1807SOL    HW1 6320   0.164   2.995   2.628
 1807SOL    HW2 6321   0.243   2.887   2.534
 1808SOL     OW 6322   5.018   2.333   5.906
 1808SOL    HW1 6323   5.037   2.345   6.003
 1808SOL    HW2 6324   4.969   2.412   5.871
 1809SOL     OW 6325   4.398   0.606   5.486
 1809SOL    HW1 6326   4.314   0.590   5.538
 1809SOL    HW2 6327   4.454   0.523   5.488
 1810SOL     OW 6328   0.137   0.129   4.154
 1810SOL    HW1 6329   0.039   0.124   4.139
 1810SOL    HW2 6330   0.183   0.155   4.069
 1811SOL     OW 6331   3.939   5.625   1.626
 1811SOL    HW1 6332   3.976   5.583   1.543
 1811SOL    HW2 6333   4.014   5.649   1.688
 1812SOL     OW 6334   4.571   6.497   5.925
 1812SOL    HW1 6335   4.594   6.433   5.852
 1812SOL    HW2 6336   4.633   6.484   6.003
 1813SOL     OW 6337   4.560   4.402   2.778
 1813SOL    HW1 6338   4.621   4.479   2.764
 1813SOL    HW2 6339   4.577   4.332   2.708
 1814SOL     OW 6340   0.091   6.280   0.116
 1814SOL    HW1 6341   0.132   6.295   0.025
 1814SOL    HW2 6342   0.016   6.345   0.129
 1815SOL     OW 6343   5.556   6.254   1.564
 1815SOL    HW1 6344   5.556   6.317   1.487
 1815SOL    HW2 6345   5.626   6.184   1.550
 1816SOL     OW 6346   4.197   5.328   5.604
 1816SOL    HW1 6347   4.109   5.363   5.572
 1816SOL    HW2 6348   4.209   5.234   5.572
 1817SOL     OW 6349   0.654   1.730   3.376
 1817SOL    HW1 6350   0.600   1.791   3.434
 1817SOL    HW2 6351   0.749   1.760   3.376
 1818SOL     OW 6352   2.244   0.689   0.783
 1818SOL    HW1 6353   2.332   0.657   0.748
 1818SOL    HW2 6354   2.180   0.699   0.707
 1819SOL     OW 6355   1.965   4.726   3.629
 1819SOL    HW1 6356   1.872   4.747   3.662
 1819SOL    HW2 6357   2.030   4.742   3.703
 1820SOL     OW 6358   3.336   0.116   5.079
 1820SOL    HW1 6359   3.299   0.026   5.054
 1820SOL    HW2 6360   3.415   0.136   5.021
 1821SOL     OW 6361   2.794   2.137   2.728
 1821SOL    HW1 6362   2.768   2.159   2.634
 1821SOL    HW2 6363   2.886   2.172   2.747
 1822SOL     OW 6364   0.028   2.829   2.306
 1822SOL    HW1 6365   0.121   2.860   2.329
 1822SOL    HW2 6366   0.007   2.747   2.358
 1823SOL     OW 6367   3.787   5.971   2.077
 1823SOL    HW1 6368   3.854   6.020   2.021
 1823SOL    HW2 6369   3.751   5.893   2.025
 1824SOL     OW 6370   4.309   3.082   1.738
 1824SOL    HW1 6371   4.269   2.991   1.736
 1824SOL    HW2 6372   4.400   3.078   1.781
 1825SOL     OW 6373   1.977   1.604   5.298
 1825SOL    HW1 6374   1.891   1.552   5.296
 1825SOL    HW2 6375   1.972   1.677   5.230
 1826SOL     OW 6376   3.388   2.277   1.757
 1826SOL    HW1 6377   3.478   2.293   1.798
 1826SOL    HW2 6378   3.372   2.346   1.685
 1827SOL     OW 6379   5.859   4.992   0.963
 1827SOL    HW1 6380   5.922   4.954   0.895
 1827SOL    HW2 6381   5.911   5.033   1.038
 1828SOL     OW 6382   1.461   2.831   4.976
 1828SOL    HW1 6383   1.499   2.853   4.886
 1828SOL    HW2 6384   1.413   2.910   5.012
 1829SOL     OW 6385   4.027   0.397   3.154
 1829SOL    HW1 6386   4.094   0.334   3.115
 1829SOL    HW2 6387   4.056   0.491   3.138
 1830SOL     OW 6388   5.027   0.115   4.922
 1830SOL    HW1 6389   4.974   0.083   4.843
 1830SOL    HW2 6390   5.100   0.049   4.942
 1831SOL     OW 6391   4.039   5.260   1.339
 1831SOL    HW1 6392   4.115   5.319   1.313
 1831SOL    HW2 6393   3.963   5.275   1.276
 1832SOL     OW 6394   2.151   3.134   0.540
 1832SOL    HW1 6395   2.181   3.075   0.465
 1832SOL    HW2 6396   2.166   3.088   0.627
 1833SOL     OW 6397   5.439   0.533   0.674
 1833SOL    HW1 6398   5.339   0.534   0.673
 1833SOL    HW2 6399   5.472   0.527   0.769
 1834SOL     OW 6400   1.425   2.783   5.949
 1834SOL    HW1 6401   1.436   2.842   5.870
 1834SOL    HW2 6402   1.481   2.818   6.025
 1835SOL     OW 6403   6.965   6.301   1.603
 1835SOL    HW1 6404   6.976   6.210   1.563
 1835SOL    HW2 6405   6.987   6.370   1.534
 1836SOL     OW 6406   4.966   2.648   1.791
 1836SOL    HW1 6407   4.922   2.617   1.707
 1836SOL    HW2 6408   5.050   2.596   1.805
 1837SOL     OW 6409   3.399   2.654   6.276
 1837SOL    HW1 6410   3.469   2.589   6.244
 1837SOL    HW2 6411   3.311   2.632   6.234
 1838SOL     OW 6412   6.151   0.573   0.946
 1838SOL    HW1 6413   6.076   0.612   1.000
 1838SOL    HW2 6414   6.126   0.575   0.849
 1839SOL     OW 6415   0.055   1.039   7.007
 1839SOL    HW1 6416   0.049   1.118   0.049
 1839SOL    HW2 6417   0.033   1.068   6.914
 1840SOL     OW 6418   4.754   6.471   3.485
 1840SOL    HW1 6419   4.662   6.508   3.485
 1840SOL    HW2 6420   4.816   6.534   3.532
 1841SOL     OW 6421   2.015   0.455   2.044
 1841SOL    HW1 6422   1.927   0.491   2.013
 1841SOL    HW2 6423   2.028   0.479   2.140
 1842SOL     OW 6424   1.223   5.680   0.459
 1842SOL    HW1 6425   1.162   5.696   0.536
 1842SOL    HW2 6426   1.238   5.581   0.449
 1843SOL     OW 6427   2.620   1.521   5.016
 1843SOL    HW1 6428   2.649   1.601   4.963
 1843SOL    HW2 6429   2.688   1.448   5.006
 1844SOL     OW 6430   5.881   2.295   6.040
 1844SOL    HW1 6431   5.887   2.301   5.940
 1844SOL    HW2 6432   5.972   2.310   6.079
 1845SOL     OW 6433   1.490   1.564   3.284
 1845SOL    HW1 6434   1.455   1.601   3.369
 1845SOL    HW2 6435   1.414   1.534   3.226
 1846SOL     OW 6436   4.296   2.049   2.191
 1846SOL    HW1 6437   4.296   2.126   2.127
 1846SOL    HW2 6438   4.218   1.990   2.172
 1847SOL     OW 6439   1.755   5.617   5.408
 1847SOL    HW1 6440   1.781   5.521   5.411
 1847SOL    HW2 6441   1.836   5.674   5.393
 1848SOL     OW 6442   2.841   6.045   3.315
 1848SOL    HW1 6443   2.823   6.143   3.321
 1848SOL    HW2 6444   2.842   6.017   3.219
 1849SOL     OW 6445   4.971   2.895   1.968
 1849SOL    HW1 6446   4.935   2.808   1.933
 1849SOL    HW2 6447   4.897   2.961   1.974
 1850SOL     OW 6448   4.972   1.227   1.187
 1850SOL    HW1 6449   5.011   1.157   1.128
 1850SOL    HW2 6450   4.894   1.270   1.140
 1851SOL     OW 6451   0.405   4.346   5.293
 1851SOL    HW1 6452   0.317   4.379   5.258
 1851SOL    HW2 6453   0.459   4.309   5.217
 1852SOL     OW 6454   0.035   0.034   3.068
 1852SOL    HW1 6455   0.034   6.962   3.025
 1852SOL    HW2 6456   7.007   0.099   3.008
 1853SOL     OW 6457   0.216   2.699   5.118
 1853SOL    HW1 6458   0.314   2.679   5.121
 1853SOL    HW2 6459   0.169   2.625   5.069
 1854SOL     OW 6460   0.745   0.059   3.311
 1854SOL    HW1 6461   0.741   0.048   3.212
 1854SOL    HW2 6462   0.724   0.154   3.335
 1855SOL     OW 6463   4.743   2.780   4.288
 1855SOL    HW1 6464   4.669   2.735   4.238
 1855SOL    HW2 6465   4.750   2.741   4.380
 1856SOL     OW 6466   3.704   2.777   0.885
 1856SOL    HW1 6467   3.707   2.732   0.974
 1856SOL    HW2 6468   3.742   2.869   0.891
 1857SOL     OW 6469   4.256   1.552   0.680
 1857SOL    HW1 6470   4.332   1.535   0.618
 1857SOL    HW2 6471   4.171   1.557   0.628
 1858SOL     OW 6472   4.620   2.627   3.884
 1858SOL    HW1 6473   4.576   2.622   3.794
 1858SOL    HW2 6474   4.690   2.698   3.883
 1859SOL     OW 6475   6.490   1.914   4.100
 1859SOL    HW1 6476   6.465   1.957   4.187
 1859SOL    HW2 6477   6.424   1.940   4.030
 1860SOL     OW 6478   1.619   1.568   4.872
 1860SOL    HW1 6479   1.585   1.569   4.778
 1860SOL    HW2 6480   1.542   1.568   4.935
 1861SOL     OW 6481   6.579   6.808   3.848
 1861SOL    HW1 6482   6.628   6.825   3.933
 1861SOL    HW2 6483   6.624   6.857   3.773
 1862SOL     OW 6484   2.833   5.594   5.764
 1862SOL    HW1 6485   2.912   5.654   5.777
 1862SOL    HW2 6486   2.818   5.578   5.666
 1863SOL     OW 6487   6.984   2.757   0.436
 1863SOL    HW1 6488   0.013   2.722   0.356
 1863SOL    HW2 6489   0.028   2.766   0.513
 1864SOL     OW 6490   4.169   5.615   2.701
 1864SOL    HW1 6491   4.137   5.609   2.606
 1864SOL    HW2 6492   4.153   5.528   2.748
 1865SOL     OW 6493   5.977   1.284   5.563
 1865SOL    HW1 6494   6.071   1.318   5.563
 1865SOL    HW2 6495   5.935   1.302   5.651
 1866SOL     OW 6496   1.034   5.032   3.683
 1866SOL    HW1 6497   1.034   4.936   3.712
 1866SOL    HW2 6498   1.098   5.084   3.738
 1867SOL     OW 6499   1.728   2.646   1.648
 1867SOL    HW1 6500   1.666   2.606   1.715
 1867SOL    HW2 6501   1.798   2.580   1.623
 1868SOL     OW 6502   5.624   3.714   6.019
 1868SOL    HW1 6503   5.604   3.697   5.923
 1868SOL    HW2 6504   5.578   3.645   6.075
 1869SOL     OW 6505   4.162   1.320   3.689
 1869SOL    HW1 6506   4.072   1.355   3.664
 1869SOL    HW2 6507   4.186   1.352   3.781
 1870SOL     OW 6508   0.064   6.016   4.568
 1870SOL    HW1 6509   0.012   5.953   4.626
 1870SOL    HW2 6510   0.036   6.110   4.586
 1871SOL     OW 6511   0.563   6.310   0.101
 1871SOL    HW1 6512   0.517   6.382   0.051
 1871SOL    HW2 6513   0.643   6.279   0.050
 1872SOL     OW 6514   2.876   2.744   1.622
 1872SOL    HW1 6515   2.917   2.655   1.601
 1872SOL    HW2 6516   2.928   2.816   1.576
 1873SOL     OW 6517   6.962   1.384   0.992
 1873SOL    HW1 6518   6.933   1.423   0.905
 1873SOL    HW2 6519   6.882   1.354   1.044
 1874SOL     OW 6520   0.420   5.872   0.091
 1874SOL    HW1 6521   0.449   5.779   0.114
 1874SOL    HW2 6522   0.326   5.886   0.120
 1875SOL     OW 6523   6.689   5.032   0.042
 1875SOL    HW1 6524   6.627   4.958   0.067
 1875SOL    HW2 6525   6.640   5.119   0.044
 1876SOL     OW 6526   0.169   6.188   0.364
 1876SOL    HW1 6527   0.259   6.225   0.343
 1876SOL    HW2 6528   0.107   6.205   0.287
 1877SOL     OW 6529   1.269   1.458   3.134
 1877SOL    HW1 6530   1.258   1.394   3.058
 1877SOL    HW2 6531   1.204   1.436   3.207
 1878SOL     OW 6532   6.357   3.685   3.857
 1878SOL    HW1 6533   6.418   3.765   3.860
 1878SOL    HW2 6534   6.309   3.678   3.944
 1879SOL     OW 6535   4.574   6.035   4.850
 1879SOL    HW1 6536   4.665   6.059   4.817
 1879SOL    HW2 6537   4.577   6.022   4.950
 1880SOL     OW 6538   6.890   1.852   4.141
 1880SOL    HW1 6539   6.894   1.805   4.053
 1880SOL    HW2 6540   6.807   1.907   4.146
 1881SOL     OW 6541   1.494   1.442   4.239
 1881SOL    HW1 6542   1.449   1.518   4.191
 1881SOL    HW2 6543   1.552   1.392   4.174
 1882SOL     OW 6544   1.616   5.833   0.075
 1882SOL    HW1 6545   1.643   5.737   0.067
 1882SOL    HW2 6546   1.537   5.840   0.137
 1883SOL     OW 6547   1.741   3.162   2.366
 1883SOL    HW1 6548   1.768   3.153   2.270
 1883SOL    HW2 6549   1.816   3.201   2.419
 1884SOL     OW 6550   3.215   1.299   0.154
 1884SOL    HW1 6551   3.149   1.291   0.229
 1884SOL    HW2 6552   3.190   1.235   0.081
 1885SOL     OW 6553   0.507   2.271   1.118
 1885SOL    HW1 6554   0.466   2.361   1.130
 1885SOL    HW2 6555   0.598   2.271   1.160
 1886SOL     OW 6556   2.772   2.410   6.341
 1886SOL    HW1 6557   2.715   2.420   6.423
 1886SOL    HW2 6558   2.859   2.366   6.367
 1887SOL     OW 6559   0.339   6.808   5.904
 1887SOL    HW1 6560   0.240   6.806   5.892
 1887SOL    HW2 6561   0.362   6.856   5.989
 1888SOL     OW 6562   2.266   1.919   5.833
 1888SOL    HW1 6563   2.289   2.004   5.786
 1888SOL    HW2 6564   2.338   1.851   5.818
 1889SOL     OW 6565   3.386   2.746   0.525
 1889SOL    HW1 6566   3.423   2.742   0.618
 1889SOL    HW2 6567   3.345   2.836   0.510
 1890SOL     OW 6568   6.360   5.944   6.400
 1890SOL    HW1 6569   6.302   5.881   6.453
 1890SOL    HW2 6570   6.354   5.921   6.303
 1891SOL     OW 6571   5.984   4.154   5.592
 1891SOL    HW1 6572   5.978   4.076   5.654
 1891SOL    HW2 6573   5.966   4.239   5.643
 1892SOL     OW 6574   4.193   6.017   1.831
 1892SOL    HW1 6575   4.230   6.021   1.738
 1892SOL    HW2 6576   4.262   6.049   1.896
 1893SOL     OW 6577   3.158   1.643   5.002
 1893SOL    HW1 6578   3.169   1.710   4.928
 1893SOL    HW2 6579   3.101   1.682   5.074
 1894SOL     OW 6580   3.984   3.979   0.849
 1894SOL    HW1 6581   4.023   3.909   0.790
 1894SOL    HW2 6582   4.005   3.957   0.945
 1895SOL     OW 6583   5.246   0.531   2.917
 1895SOL    HW1 6584   5.280   0.494   2.830
 1895SOL    HW2 6585   5.321   0.540   2.981
 1896SOL     OW 6586   6.564   1.073   5.973
 1896SOL    HW1 6587   6.473   1.065   6.013
 1896SOL    HW2 6588   6.565   1.150   5.908
 1897SOL     OW 6589   6.119   4.959   3.525
 1897SOL    HW1 6590   6.102   4.962   3.427
 1897SOL    HW2 6591   6.218   4.964   3.541
 1898SOL     OW 6592   6.088   6.016   6.990
 1898SOL    HW1 6593   6.093   6.060   6.900
 1898SOL    HW2 6594   6.034   6.073   0.033
 1899SOL     OW 6595   0.756   3.034   3.132
 1899SOL    HW1 6596   0.846   2.992   3.147
 1899SOL    HW2 6597   0.762   3.132   3.148
 1900SOL     OW 6598   2.393   6.267   0.871
 1900SOL    HW1 6599   2.314   6.328   0.878
 1900SOL    HW2 6600   2.416   6.253   0.775
 1901SOL     OW 6601   1.384   1.672   7.000
 1901SOL    HW1 6602   1.324   1.696   0.057
 1901SOL    HW2 6603   1.328   1.651   6.919
 1902SOL     OW 6604   1.795   2.779   5.278
 1902SOL    HW1 6605   1.848   2.704   5.318
 1902SOL    HW2 6606   1.741   2.745   5.202
 1903SOL     OW 6607   6.454   3.426   3.767
 1903SOL    HW1 6608   6.359   3.395   3.771
 1903SOL    HW2 6609   6.461   3.517   3.808
 1904SOL     OW 6610   0.230   6.725   4.381
 1904SOL    HW1 6611   0.154   6.667   4.353
 1904SOL    HW2 6612   0.311   6.703   4.326
 1905SOL     OW 6613   6.445   2.668   4.447
 1905SOL    HW1 6614   6.371   2.601   4.460
 1905SOL    HW2 6615   6.420   2.732   4.374
 1906SOL     OW 6616   2.656   6.936   0.377
 1906SOL    HW1 6617   2.586   6.876   0.337
 1906SOL    HW2 6618   2.650   0.007   0.335
 1907SOL     OW 6619   3.300   6.283   3.118
 1907SOL    HW1 6620   3.284   6.254   3.212
 1907SOL    HW2 6621   3.294   6.383   3.113
 1908SOL     OW 6622   4.777   1.385   6.789
 1908SOL    HW1 6623   4.814   1.391   6.697
 1908SOL    HW2 6624   4.848   1.356   6.853
 1909SOL     OW 6625   3.866   5.264   4.456
 1909SOL    HW1 6626   3.956   5.293   4.487
 1909SOL    HW2 6627   3.862   5.164   4.451
 1910SOL     OW 6628   4.971   2.206   5.446
 1910SOL    HW1 6629   5.013   2.116   5.438
 1910SOL    HW2 6630   4.872   2.196   5.454
 1911SOL     OW 6631   6.528   3.771   6.064
 1911SOL    HW1 6632   6.598   3.842   6.073
 1911SOL    HW2 6633   6.450   3.808   6.013
 1912SOL     OW 6634   3.777   6.369   3.696
 1912SOL    HW1 6635   3.874   6.355   3.677
 1912SOL    HW2 6636   3.745   6.302   3.762
 1913SOL     OW 6637   1.506   4.242   5.418
 1913SOL    HW1 6638   1.474   4.178   5.487
 1913SOL    HW2 6639   1.527   4.193   5.334
 1914SOL     OW 6640   4.089   1.618   5.610
 1914SOL    HW1 6641   3.997   1.619   5.571
 1914SOL    HW2 6642   4.089   1.569   5.697
 1915SOL     OW 6643   3.067   0.240   5.177
 1915SOL    HW1 6644   3.067   0.278   5.270
 1915SOL    HW2 6645   3.153   0.191   5.161
 1916SOL     OW 6646   4.069   6.791   1.289
 1916SOL    HW1 6647   4.155   6.841   1.303
 1916SOL    HW2 6648   4.027   6.772   1.378
 1917SOL     OW 6649   3.268   2.948   3.714
 1917SOL    HW1 6650   3.215   2.865   3.732
 1917SOL    HW2 6651   3.206   3.025   3.700
 1918SOL     OW 6652   6.133   6.803   3.732
 1918SOL    HW1 6653   6.111   6.878   3.794
 1918SOL    HW2 6654   6.051   6.777   3.680
 1919SOL     OW 6655   6.546   6.780   1.893
 1919SOL    HW1 6656   6.575   6.857   1.837
 1919SOL    HW2 6657   6.457   6.747   1.861
 1920SOL     OW 6658   6.858   5.801   4.464
 1920SOL    HW1 6659   6.774   5.753   4.437
 1920SOL    HW2 6660   6.923   5.734   4.501
 1921SOL     OW 6661   1.018   6.503   6.645
 1921SOL    HW1 6662   1.012   6.602   6.653
 1921SOL    HW2 6663   0.928   6.465   6.622
 1922SOL     OW 6664   3.475   4.633   0.868
 1922SOL    HW1 6665   3.388   4.681   0.858
 1922SOL    HW2 6666   3.548   4.699   0.882
 1923SOL     OW 6667   1.771   1.945   0.902
 1923SOL    HW1 6668   1.835   1.972   0.974
 1923SOL    HW2 6669   1.744   2.026   0.850
 1924SOL     OW 6670   0.880   4.664   1.689
 1924SOL    HW1 6671   0.957   4.696   1.633
 1924SOL    HW2 6672   0.795   4.675   1.638
 1925SOL     OW 6673   3.029   4.470   0.767
 1925SOL    HW1 6674   3.016   4.382   0.812
 1925SOL    HW2 6675   2.941   4.513   0.749
 1926SOL     OW 6676   0.550   0.096   3.581
 1926SOL    HW1 6677   0.606   0.108   3.499
 1926SOL    HW2 6678   0.599   0.038   3.646
 1927SOL     OW 6679   4.155   3.350   6.901
 1927SOL    HW1 6680   4.089   3.406   6.952
 1927SOL    HW2 6681   4.132   3.254   6.913
 1928SOL     OW 6682   6.223   4.773   5.444
 1928SOL    HW1 6683   6.199   4.871   5.442
 1928SOL    HW2 6684   6.312   4.760   5.400
 1929SOL     OW 6685   1.228   6.790   2.673
 1929SOL    HW1 6686   1.311   6.746   2.708
 1929SOL    HW2 6687   1.246   6.886   2.653
 1930SOL     OW 6688   5.571   4.067   6.627
 1930SOL    HW1 6689   5.667   4.044   6.641
 1930SOL    HW2 6690   5.538   4.026   6.542
 1931SOL     OW 6691   0.765   2.281   5.138
 1931SOL    HW1 6692   0.819   2.231   5.206
 1931SOL    HW2 6693   0.669   2.279   5.164
 1932SOL     OW 6694   5.986   3.234   1.571
 1932SOL    HW1 6695   5.921   3.185   1.630
 1932SOL    HW2 6696   5.947   3.322   1.544
 1933SOL     OW 6697   2.994   3.996   1.360
 1933SOL    HW1 6698   2.896   4.014   1.365
 1933SOL    HW2 6699   3.028   3.970   1.451
 1934SOL     OW 6700   0.774   5.646   4.969
 1934SOL    HW1 6701   0.851   5.620   4.910
 1934SOL    HW2 6702   0.702   5.577   4.961
 1935SOL     OW 6703   2.455   0.889   3.622
 1935SOL    HW1 6704   2.385   0.928   3.562
 1935SOL    HW2 6705   2.446   0.789   3.623
 1936SOL     OW 6706   6.375   5.705   5.451
 1936SOL    HW1 6707   6.459   5.757   5.467
 1936SOL    HW2 6708   6.396   5.608   5.448
 1937SOL     OW 6709   4.183   0.110   2.058
 1937SOL    HW1 6710   4.092   0.087   2.022
 1937SOL    HW2 6711   4.203   0.052   2.136
 1938SOL     OW 6712   5.145   0.847   3.499
 1938SOL    HW1 6713   5.082   0.780   3.539
 1938SOL    HW2 6714   5.163   0.919   3.566
 1939SOL     OW 6715   2.051   0.367   3.446
 1939SOL    HW1 6716   2.123   0.423   3.486
 1939SOL    HW2 6717   2.050   0.277   3.490
 1940SOL     OW 6718   6.849   5.395   6.467
 1940SOL    HW1 6719   6.934   5.346   6.447
 1940SOL    HW2 6720   6.870   5.480   6.514
 1941SOL     OW 6721   5.192   4.097   2.530
 1941SOL    HW1 6722   5.147   4.029   2.586
 1941SOL    HW2 6723   5.124   4.162   2.494
 1942SOL     OW 6724   6.198   5.429   2.835
 1942SOL    HW1 6725   6.279   5.377   2.806
 1942SOL    HW2 6726   6.179   5.501   2.768
 1943SOL     OW 6727   2.504   5.237   2.267
 1943SOL    HW1 6728   2.414   5.200   2.244
 1943SOL    HW2 6729   2.575   5.175   2.233
 1944SOL     OW 6730   6.685   1.116   1.470
 1944SOL    HW1 6731   6.745   1.195   1.455
 1944SOL    HW2 6732   6.613   1.142   1.535
 1945SOL     OW 6733   3.788   5.398   3.974
 1945SOL    HW1 6734   3.720   5.328   3.953
 1945SOL    HW2 6735   3.813   5.392   4.071
 1946SOL     OW 6736   1.479   0.719   0.343
 1946SOL    HW1 6737   1.486   0.799   0.403
 1946SOL    HW2 6738   1.526   0.641   0.384
 1947SOL     OW 6739   5.478   5.680   4.672
 1947SOL    HW1 6740   5.561   5.633   4.700
 1947SOL    HW2 6741   5.398   5.625   4.697
 1948SOL     OW 6742   5.908   4.838   4.734
 1948SOL    HW1 6743   5.943   4.749   4.706
 1948SOL    HW2 6744   5.846   4.826   4.812
 1949SOL     OW 6745   4.622   3.977   6.851
 1949SOL    HW1 6746   4.580   4.041   6.787
 1949SOL    HW2 6747   4.668   4.027   6.923
 1950SOL     OW 6748   3.241   3.762   6.453
 1950SOL    HW1 6749   3.175   3.739   6.525
 1950SOL    HW2 6750   3.205   3.838   6.398
 1951SOL     OW 6751   6.217   2.073   6.785
 1951SOL    HW1 6752   6.132   2.098   6.832
 1951SOL    HW2 6753   6.278   2.027   6.849
 1952SOL     OW 6754   3.859   2.044   5.961
 1952SOL    HW1 6755   3.876   2.068   6.057
 1952SOL    HW2 6756   3.866   2.127   5.905
 1953SOL     OW 6757   0.200   2.890   6.276
 1953SOL    HW1 6758   0.262   2.884   6.354
 1953SOL    HW2 6759   0.142   2.809   6.272
 1954SOL     OW 6760   3.289   2.125   3.881
 1954SOL    HW1 6761   3.293   2.128   3.980
 1954SOL    HW2 6762   3.201   2.162   3.850
 1955SOL     OW 6763   6.929   6.788   2.916
 1955SOL    HW1 6764   6.946   6.725   2.991
 1955SOL    HW2 6765   6.830   6.800   2.904
 1956SOL     OW 6766   5.635   6.212   2.561
 1956SOL    HW1 6767   5.731   6.191   2.540
 1956SOL    HW2 6768   5.581   6.207   2.478
 1957SOL     OW 6769   0.717   6.672   5.576
 1957SOL    HW1 6770   0.712   6.645   5.672
 1957SOL    HW2 6771   0.625   6.689   5.542
 1958SOL     OW 6772   5.357   3.554   5.807
 1958SOL    HW1 6773   5.439   3.600   5.775
 1958SOL    HW2 6774   5.276   3.597   5.766
 1959SOL     OW 6775   1.655   2.085   6.724
 1959SOL    HW1 6776   1.663   1.988   6.698
 1959SOL    HW2 6777   1.560   2.114   6.716
 1960SOL     OW 6778   5.529   5.888   1.058
 1960SOL    HW1 6779   5.512   5.986   1.065
 1960SOL    HW2 6780   5.443   5.839   1.071
 1961SOL     OW 6781   5.564   4.158   3.971
 1961SOL    HW1 6782   5.574   4.213   3.889
 1961SOL    HW2 6783   5.472   4.119   3.974
 1962SOL     OW 6784   0.377   6.520   3.421
 1962SOL    HW1 6785   0.330   6.435   3.396
 1962SOL    HW2 6786   0.356   6.543   3.516
 1963SOL     OW 6787   1.250   0.676   3.203
 1963SOL    HW1 6788   1.271   0.579   3.217
 1963SOL    HW2 6789   1.154   0.692   3.225
 1964SOL     OW 6790   5.472   3.541   2.695
 1964SOL    HW1 6791   5.565   3.504   2.699
 1964SOL    HW2 6792   5.406   3.466   2.703
 1965SOL     OW 6793   1.512   4.081   3.710
 1965SOL    HW1 6794   1.608   4.100   3.727
 1965SOL    HW2 6795   1.485   3.998   3.759
 1966SOL     OW 6796   6.520   5.470   5.432
 1966SOL    HW1 6797   6.597   5.492   5.492
 1966SOL    HW2 6798   6.547   5.481   5.337
 1967SOL     OW 6799   4.766   2.364   5.078
 1967SOL    HW1 6800   4.796   2.293   5.014
 1967SOL    HW2 6801   4.711   2.322   5.150
 1968SOL     OW 6802   3.048   5.970   6.025
 1968SOL    HW1 6803   3.034   6.068   6.009
 1968SOL    HW2 6804   3.110   5.957   6.102
 1969SOL     OW 6805   0.019   2.673   0.883
 1969SOL    HW1 6806   6.944   2.645   0.901
 1969SOL    HW2 6807   0.083   2.607   0.923
 1970SOL     OW 6808   1.421   0.691   4.028
 1970SOL    HW1 6809   1.403   0.640   3.943
 1970SOL    HW2 6810   1.475   0.773   4.006
 1971SOL     OW 6811   0.260   6.254   6.582
 1971SOL    HW1 6812   0.329   6.187   6.553
 1971SOL    HW2 6813   0.306   6.333   6.621
 1972SOL     OW 6814   0.499   4.649   3.707
 1972SOL    HW1 6815   0.429   4.719   3.695
 1972SOL    HW2 6816   0.578   4.688   3.754
 1973SOL     OW 6817   3.065   3.312   1.310
 1973SOL    HW1 6818   3.094   3.281   1.220
 1973SOL    HW2 6819   2.979   3.363   1.301
 1974SOL     OW 6820   5.385   0.891   3.899
 1974SOL    HW1 6821   5.432   0.811   3.937
 1974SOL    HW2 6822   5.394   0.968   3.962
 1975SOL     OW 6823   3.320   0.064   3.831
 1975SOL    HW1 6824   3.250   0.091   3.764
 1975SOL    HW2 6825   3.404   0.115   3.813
 1976SOL     OW 6826   0.638   5.882   0.566
 1976SOL    HW1 6827   0.585   5.918   0.489
 1976SOL    HW2 6828   0.692   5.804   0.535
 1977SOL     OW 6829   0.835   2.554   5.041
 1977SOL    HW1 6830   0.807   2.459   5.059
 1977SOL    HW2 6831   0.758   2.615   5.059
 1978SOL     OW 6832   6.589   2.062   4.701
 1978SOL    HW1 6833   6.494   2.093   4.700
 1978SOL    HW2 6834   6.592   1.963   4.710
 1979SOL     OW 6835   6.210   4.590   3.522
 1979SOL    HW1 6836   6.213   4.491   3.517
 1979SOL    HW2 6837   6.123   4.623   3.486
 1980SOL     OW 6838   4.234   0.402   1.600
 1980SOL    HW1 6839   4.297   0.429   1.673
 1980SOL    HW2 6840   4.216   0.480   1.541
 1981SOL     OW 6841   4.854   3.114   1.736
 1981SOL    HW1 6842   4.805   3.097   1.650
 1981SOL    HW2 6843   4.805   3.070   1.812
 1982SOL     OW 6844   5.581   6.299   4.671
 1982SOL    HW1 6845   5.575   6.398   4.687
 1982SOL    HW2 6846   5.514   6.252   4.728
 1983SOL     OW 6847   1.130   3.532   3.430
 1983SOL    HW1 6848   1.078   3.591   3.368
 1983SOL    HW2 6849   1.101   3.550   3.524
 1984SOL     OW 6850   4.166   0.632   6.236
 1984SOL    HW1 6851   4.141   0.686   6.155
 1984SOL    HW2 6852   4.090   0.634   6.302
 1985SOL     OW 6853   0.903   0.818   1.353
 1985SOL    HW1 6854   0.978   0.770   1.310
 1985SOL    HW2 6855   0.917   0.917   1.345
 1986SOL     OW 6856   2.045   1.829   6.490
 1986SOL    HW1 6857   1.960   1.791   6.454
 1986SOL    HW2 6858   2.033   1.854   6.586
 1987SOL     OW 6859   2.263   3.263   0.264
 1987SOL    HW1 6860   2.273   3.279   0.165
 1987SOL    HW2 6861   2.298   3.171   0.285
 1988SOL     OW 6862   4.275   3.860   0.428
 1988SOL    HW1 6863   4.333   3.885   0.351
 1988SOL    HW2 6864   4.313   3.898   0.512
 1989SOL     OW 6865   2.115   0.264   4.198
 1989SOL    HW1 6866   2.066   0.348   4.179
 1989SOL    HW2 6867   2.068   0.187   4.155
 1990SOL     OW 6868   2.989   0.706   1.462
 1990SOL    HW1 6869   3.059   0.707   1.533
 1990SOL    HW2 6870   2.950   0.798   1.452
 1991SOL     OW 6871   3.170   5.815   4.198
 1991SOL    HW1 6872   3.216   5.734   4.234
 1991SOL    HW2 6873   3.096   5.841   4.260
 1992SOL     OW 6874   2.266   6.489   5.495
 1992SOL    HW1 6875   2.209   6.547   5.552
 1992SOL    HW2 6876   2.350   6.466   5.544
 1993SOL     OW 6877   4.257   3.378   5.653
 1993SOL    HW1 6878   4.159   3.358   5.642
 1993SOL    HW2 6879   4.305   3.295   5.681
 1994SOL     OW 6880   6.626   2.548   2.097
 1994SOL    HW1 6881   6.695   2.483   2.065
 1994SOL    HW2 6882   6.626   2.629   2.038
 1995SOL     OW 6883   5.804   2.190   1.847
 1995SOL    HW1 6884   5.704   2.187   1.858
 1995SOL    HW2 6885   5.847   2.199   1.937
 1996SOL     OW 6886   3.113   4.577   0.518
 1996SOL    HW1 6887   3.067   4.519   0.585
 1996SOL    HW2 6888   3.182   4.633   0.563
 1997SOL     OW 6889   5.345   0.632   3.446
 1997SOL    HW1 6890   5.255   0.670   3.468
 1997SOL    HW2 6891   5.334   0.536   3.417
 1998SOL     OW 6892   3.011   4.489   5.386
 1998SOL    HW1 6893   3.071   4.565   5.411
 1998SOL    HW2 6894   2.971   4.508   5.296
 1999SOL     OW 6895   2.441   0.311   2.293
 1999SOL    HW1 6896   2.464   0.214   2.298
 1999SOL    HW2 6897   2.397   0.331   2.205
 2000SOL     OW 6898   3.769   1.586   4.530
 2000SOL    HW1 6899   3.837   1.522   4.494
 2000SOL    HW2 6900   3.788   1.678   4.495
 2001SOL     OW 6901   2.934   1.657   1.085
 2001SOL    HW1 6902   3.030   1.632   1.089
 2001SOL    HW2 6903   2.926   1.753   1.057
 2002SOL     OW 6904   1.795   5.328   5.691
 2002SOL    HW1 6905   1.781   5.381   5.775
 2002SOL    HW2 6906   1.765   5.234   5.706
 2003SOL     OW 6907   5.802   5.854   3.880
 2003SOL    HW1 6908   5.835   5.912   3.954
 2003SOL    HW2 6909   5.842   5.884   3.793
 2004SOL     OW 6910   2.704   0.734   5.666
 2004SOL    HW1 6911   2.626   0.788   5.697
 2004SOL    HW2 6912   2.764   0.791   5.610
 2005SOL     OW 6913   2.091   5.926   5.639
 2005SOL    HW1 6914   2.094   5.877   5.726
 2005SOL    HW2 6915   1.999   5.963   5.625
 2006SOL     OW 6916   4.253   5.314   4.188
 2006SOL    HW1 6917   4.282   5.275   4.275
 2006SOL    HW2 6918   4.260   5.413   4.192
 2007SOL     OW 6919   5.526   5.829   0.786
 2007SOL    HW1 6920   5.432   5.805   0.763
 2007SOL    HW2 6921   5.532   5.852   0.883
 2008SOL     OW 6922   7.016   6.159   4.157
 2008SOL    HW1 6923   6.952   6.118   4.222
 2008SOL    HW2 6924   0.087   6.117   4.169
 2009SOL     OW 6925   0.159   0.087   2.201
 2009SOL    HW1 6926   0.196   0.171   2.241
 2009SOL    HW2 6927   0.224   0.012   2.214
 2010SOL     OW 6928   1.046   0.656   0.427
 2010SOL    HW1 6929   1.057   0.585   0.358
 2010SOL    HW2 6930   1.121   0.722   0.419
 2011SOL     OW 6931   0.215   1.956   4.920
 2011SOL    HW1 6932   0.219   2.039   4.864
 2011SOL    HW2 6933   0.227   1.980   5.016
 2012SOL     OW 6934   1.230   4.173   0.430
 2012SOL    HW1 6935   1.167   4.249   0.411
 2012SOL    HW2 6936   1.299   4.203   0.496
 2013SOL     OW 6937   5.314   1.192   1.944
 2013SOL    HW1 6938   5.378   1.141   2.003
 2013SOL    HW2 6939   5.348   1.192   1.850
 2014SOL     OW 6940   2.240   5.128   2.914
 2014SOL    HW1 6941   2.297   5.072   2.854
 2014SOL    HW2 6942   2.219   5.215   2.869
 2015SOL     OW 6943   3.241   0.730   6.726
 2015SOL    HW1 6944   3.334   0.732   6.763
 2015SOL    HW2 6945   3.175   0.730   6.801
 2016SOL     OW 6946   0.572   4.993   4.295
 2016SOL    HW1 6947   0.478   5.027   4.302
 2016SOL    HW2 6948   0.627   5.060   4.244
 2017SOL     OW 6949   2.540   6.035   2.581
 2017SOL    HW1 6950   2.619   6.000   2.532
 2017SOL    HW2 6951   2.459   5.982   2.557
 2018SOL     OW 6952   0.227   5.555   6.446
 2018SOL    HW1 6953   0.301   5.541   6.510
 2018SOL    HW2 6954   0.249   5.512   6.358
 2019SOL     OW 6955   6.313   1.664   1.933
 2019SOL    HW1 6956   6.292   1.660   2.030
 2019SOL    HW2 6957   6.233   1.638   1.879
 2020SOL     OW 6958   2.580   5.672   2.875
 2020SOL    HW1 6959   2.619   5.612   2.944
 2020SOL    HW2 6960   2.638   5.752   2.864
 2021SOL     OW 6961   1.309   0.792   2.779
 2021SOL    HW1 6962   1.332   0.814   2.873
 2021SOL    HW2 6963   1.246   0.860   2.743
 2022SOL     OW 6964   1.892   4.133   1.568
 2022SOL    HW1 6965   1.865   4.215   1.518
 2022SOL    HW2 6966   1.876   4.052   1.512
 2023SOL     OW 6967   6.676   0.696   5.825
 2023SOL    HW1 6968   6.622   0.671   5.744
 2023SOL    HW2 6969   6.718   0.785   5.810
 2024SOL     OW 6970   5.600   1.334   3.612
 2024SOL    HW1 6971   5.664   1.410   3.606
 2024SOL    HW2 6972   5.603   1.281   3.527
 2025SOL     OW 6973   0.143   1.424   1.831
 2025SOL    HW1 6974   0.214   1.404   1.764
 2025SOL    HW2 6975   0.055   1.435   1.785
 2026SOL     OW 6976   2.155   1.410   5.172
 2026SOL    HW1 6977   2.188   1.459   5.091
 2026SOL    HW2 6978   2.110   1.475   5.234
 2027SOL     OW 6979   1.166   1.520   2.764
 2027SOL    HW1 6980   1.246   1.568   2.799
 2027SOL    HW2 6981   1.098   1.510   2.837
 2028SOL     OW 6982   3.988   2.955   0.091
 2028SOL    HW1 6983   3.979   2.923   0.185
 2028SOL    HW2 6984   4.078   2.997   0.078
 2029SOL     OW 6985   0.804   1.061   6.656
 2029SOL    HW1 6986   0.854   1.024   6.578
 2029SOL    HW2 6987   0.826   1.008   6.738
 2030SOL     OW 6988   1.446   1.704   3.520
 2030SOL    HW1 6989   1.513   1.657   3.577
 2030SOL    HW2 6990   1.491   1.777   3.469
 2031SOL     OW 6991   5.782   6.859   1.720
 2031SOL    HW1 6992   5.847   6.898   1.655
 2031SOL    HW2 6993   5.786   6.911   1.805
 2032SOL     OW 6994   4.937   6.703   1.437
 2032SOL    HW1 6995   4.893   6.793   1.439
 2032SOL    HW2 6996   4.944   6.668   1.531
 2033SOL     OW 6997   5.400   5.041   6.941
 2033SOL    HW1 6998   5.406   5.138   6.964
 2033SOL    HW2 6999   5.468   4.990   6.994
 2034SOL     OW 7000   2.140   6.692   3.155
 2034SOL    HW1 7001   2.183   6.602   3.151
 2034SOL    HW2 7002   2.138   6.732   3.063
 2035SOL     OW 7003   0.871   2.422   2.654
 2035SOL    HW1 7004   0.837   2.497   2.711
 2035SOL    HW2 7005   0.794   2.366   2.624
 2036SOL     OW 7006   0.998   4.793   0.397
 2036SOL    HW1 7007   0.934   4.870   0.396
 2036SOL    HW2 7008   1.016   4.764   0.304
 2037SOL     OW 7009   0.131   1.718   5.749
 2037SOL    HW1 7010   0.160   1.623   5.751
 2037SOL    HW2 7011   0.186   1.768   5.681
 2038SOL     OW 7012   0.234   1.104   4.659
 2038SOL    HW1 7013   0.316   1.048   4.646
 2038SOL    HW2 7014   0.186   1.074   4.742
 2039SOL     OW 7015   6.895   5.831   2.766
 2039SOL    HW1 7016   6.949   5.818   2.682
 2039SOL    HW2 7017   6.808   5.875   2.742
 2040SOL     OW 7018   4.117   3.650   4.761
 2040SOL    HW1 7019   4.139   3.645   4.859
 2040SOL    HW2 7020   4.102   3.746   4.735
 2041SOL     OW 7021   5.923   4.397   5.373
 2041SOL    HW1 7022   6.018   4.386   5.403
 2041SOL    HW2 7023   5.907   4.340   5.292
 2042SOL     OW 7024   4.452   5.547   0.505
 2042SOL    HW1 7025   4.420   5.485   0.576
 2042SOL    HW2 7026   4.532   5.508   0.460
 2043SOL     OW 7027   5.642   4.220   2.020
 2043SOL    HW1 7028   5.632   4.139   2.078
 2043SOL    HW2 7029   5.642   4.302   2.077
 2044SOL     OW 7030   6.209   7.013   1.714
 2044SOL    HW1 7031   6.216   6.982   1.619
 2044SOL    HW2 7032   6.159   0.081   1.717
 2045SOL     OW 7033   2.018   4.854   6.051
 2045SOL    HW1 7034   1.996   4.884   5.958
 2045SOL    HW2 7035   1.986   4.923   6.116
 2046SOL     OW 7036   6.067   6.965   4.750
 2046SOL    HW1 7037   6.028   6.889   4.699
 2046SOL    HW2 7038   6.099   6.934   4.840
 2047SOL     OW 7039   4.874   2.758   0.696
 2047SOL    HW1 7040   4.878   2.795   0.603
 2047SOL    HW2 7041   4.837   2.666   0.694
 2048SOL     OW 7042   4.598   0.501   6.307
 2048SOL    HW1 7043   4.522   0.556   6.341
 2048SOL    HW2 7044   4.583   0.405   6.330
 2049SOL     OW 7045   4.597   1.154   0.245
 2049SOL    HW1 7046   4.574   1.251   0.258
 2049SOL    HW2 7047   4.591   1.106   0.332
 2050SOL     OW 7048   5.739   3.416   3.844
 2050SOL    HW1 7049   5.808   3.351   3.811
 2050SOL    HW2 7050   5.767   3.509   3.822
 2051SOL     OW 7051   1.548   5.677   0.617
 2051SOL    HW1 7052   1.638   5.721   0.607
 2051SOL    HW2 7053   1.487   5.709   0.546
 2052SOL     OW 7054   1.327   2.413   6.697
 2052SOL    HW1 7055   1.241   2.447   6.734
 2052SOL    HW2 7056   1.402   2.470   6.728
 2053SOL     OW 7057   6.092   0.416   0.311
 2053SOL    HW1 7058   6.176   0.366   0.333
 2053SOL    HW2 7059   6.111   0.482   0.239
 2054SOL     OW 7060   5.851   2.516   0.479
 2054SOL    HW1 7061   5.786   2.442   0.499
 2054SOL    HW2 7062   5.934   2.504   0.533
 2055SOL     OW 7063   5.407   3.016   3.938
 2055SOL    HW1 7064   5.337   2.990   3.872
 2055SOL    HW2 7065   5.480   3.066   3.891
 2056SOL     OW 7066   2.472   1.059   3.185
 2056SOL    HW1 7067   2.382   1.016   3.178
 2056SOL    HW2 7068   2.517   1.028   3.269
 2057SOL     OW 7069   0.203   2.961   4.465
 2057SOL    HW1 7070   0.222   2.898   4.541
 2057SOL    HW2 7071   0.104   2.974   4.456
 2058SOL     OW 7072   6.941   2.013   2.450
 2058SOL    HW1 7073   0.019   1.996   2.434
 2058SOL    HW2 7074   6.886   1.951   2.393
 2059SOL     OW 7075   1.977   1.239   0.124
 2059SOL    HW1 7076   1.933   1.232   0.214
 2059SOL    HW2 7077   1.942   1.319   0.076
 2060SOL     OW 7078   0.500   4.282   2.069
 2060SOL    HW1 7079   0.422   4.221   2.085
 2060SOL    HW2 7080   0.529   4.323   2.155
 2061SOL     OW 7081   6.928   1.651   2.413
 2061SOL    HW1 7082   6.892   1.583   2.478
 2061SOL    HW2 7083   7.013   1.689   2.449
 2062SOL     OW 7084   4.972   0.200   2.643
 2062SOL    HW1 7085   4.990   0.293   2.676
 2062SOL    HW2 7086   4.962   0.200   2.544
 2063SOL     OW 7087   1.625   3.060   6.397
 2063SOL    HW1 7088   1.710   3.028   6.439
 2063SOL    HW2 7089   1.599   2.999   6.323
 2064SOL     OW 7090   0.970   2.282   6.738
 2064SOL    HW1 7091   0.973   2.254   6.834
 2064SOL    HW2 7092   1.005   2.376   6.729
 2065SOL     OW 7093   6.199   3.603   1.910
 2065SOL    HW1 7094   6.231   3.524   1.858
 2065SOL    HW2 7095   6.177   3.678   1.848
 2066SOL     OW 7096   6.979   0.309   4.972
 2066SOL    HW1 7097   6.889   0.269   4.954
 2066SOL    HW2 7098   0.031   0.252   4.930
 2067SOL     OW 7099   6.626   6.382   1.616
 2067SOL    HW1 7100   6.629   6.340   1.525
 2067SOL    HW2 7101   6.657   6.476   1.610
 2068SOL     OW 7102   2.174   1.723   5.450
 2068SOL    HW1 7103   2.094   1.676   5.412
 2068SOL    HW2 7104   2.164   1.822   5.434
 2069SOL     OW 7105   1.224   2.435   2.317
 2069SOL    HW1 7106   1.141   2.439   2.374
 2069SOL    HW2 7107   1.280   2.357   2.345
 2070SOL     OW 7108   1.437   1.624   2.891
 2070SOL    HW1 7109   1.506   1.557   2.914
 2070SOL    HW2 7110   1.443   1.702   2.954
 2071SOL     OW 7111   0.718   0.081   4.309
 2071SOL    HW1 7112   0.691   7.004   4.298
 2071SOL    HW2 7113   0.643   0.140   4.279
 2072SOL     OW 7114   4.783   5.774   1.689
 2072SOL    HW1 7115   4.870   5.726   1.678
 2072SOL    HW2 7116   4.708   5.711   1.671
 2073SOL     OW 7117   2.962   6.618   5.582
 2073SOL    HW1 7118   3.016   6.565   5.517
 2073SOL    HW2 7119   3.023   6.657   5.651
 2074SOL     OW 7120   6.477   1.569   1.238
 2074SOL    HW1 7121   6.458   1.508   1.161
 2074SOL    HW2 7122   6.574   1.590   1.241
 2075SOL     OW 7123   4.318   3.214   0.432
 2075SOL    HW1 7124   4.390   3.254   0.376
 2075SOL    HW2 7125   4.251   3.285   0.456
 2076SOL     OW 7126   5.058   6.323   1.124
 2076SOL    HW1 7127   5.143   6.319   1.176
 2076SOL    HW2 7128   4.985   6.361   1.181
 2077SOL     OW 7129   5.448   1.663   2.533
 2077SOL    HW1 7130   5.484   1.689   2.444
 2077SOL    HW2 7131   5.349   1.673   2.533
 2078SOL     OW 7132   3.035   4.632   6.372
 2078SOL    HW1 7133   3.076   4.720   6.349
 2078SOL    HW2 7134   3.035   4.620   6.471
 2079SOL     OW 7135   5.488   1.308   3.864
 2079SOL    HW1 7136   5.491   1.223   3.916
 2079SOL    HW2 7137   5.559   1.307   3.794
 2080SOL     OW 7138   2.894   2.204   4.875
 2080SOL    HW1 7139   2.844   2.291   4.874
 2080SOL    HW2 7140   2.974   2.212   4.934
 2081SOL     OW 7141   1.055   6.215   5.272
 2081SOL    HW1 7142   1.056   6.201   5.173
 2081SOL    HW2 7143   1.031   6.130   5.317
 2082SOL     OW 7144   5.861   1.268   1.134
 2082SOL    HW1 7145   5.891   1.173   1.128
 2082SOL    HW2 7146   5.869   1.311   1.043
 2083SOL     OW 7147   3.595   4.567   6.621
 2083SOL    HW1 7148   3.691   4.579   6.597
 2083SOL    HW2 7149   3.542   4.553   6.537
 2084SOL     OW 7150   6.824   2.675   3.015
 2084SOL    HW1 7151   6.910   2.711   3.052
 2084SOL    HW2 7152   6.813   2.580   3.044
 2085SOL     OW 7153   4.528   0.538   5.845
 2085SOL    HW1 7154   4.563   0.551   5.752
 2085SOL    HW2 7155   4.605   0.521   5.907
 2086SOL     OW 7156   2.656   4.861   0.381
 2086SOL    HW1 7157   2.638   4.835   0.286
 2086SOL    HW2 7158   2.667   4.961   0.387
 2087SOL     OW 7159   5.880   6.979   2.711
 2087SOL    HW1 7160   5.979   6.994   2.712
 2087SOL    HW2 7161   5.847   6.963   2.804
 2088SOL     OW 7162   3.422   6.552   0.779
 2088SOL    HW1 7163   3.447   6.500   0.861
 2088SOL    HW2 7164   3.500   6.553   0.716
 2089SOL     OW 7165   5.209   1.492   6.929
 2089SOL    HW1 7166   5.304   1.461   6.927
 2089SOL    HW2 7167   5.206   1.588   6.955
 2090SOL     OW 7168   3.760   3.789   5.032
 2090SOL    HW1 7169   3.683   3.795   4.968
 2090SOL    HW2 7170   3.845   3.814   4.984
 2091SOL     OW 7171   1.033   5.514   0.619
 2091SOL    HW1 7172   1.084   5.431   0.595
 2091SOL    HW2 7173   1.063   5.546   0.709
 2092SOL     OW 7174   6.463   5.968   1.285
 2092SOL    HW1 7175   6.440   6.059   1.319
 2092SOL    HW2 7176   6.379   5.921   1.256
 2093SOL     OW 7177   1.179   2.992   1.732
 2093SOL    HW1 7178   1.188   3.059   1.806
 2093SOL    HW2 7179   1.238   3.019   1.656
 2094SOL     OW 7180   5.708   0.167   2.087
 2094SOL    HW1 7181   5.771   0.102   2.044
 2094SOL    HW2 7182   5.623   0.120   2.110
 2095SOL     OW 7183   5.700   5.517   4.726
 2095SOL    HW1 7184   5.687   5.429   4.773
 2095SOL    HW2 7185   5.747   5.502   4.639
 2096SOL     OW 7186   4.672   4.323   2.538
 2096SOL    HW1 7187   4.633   4.399   2.487
 2096SOL    HW2 7188   4.657   4.237   2.488
 2097SOL     OW 7189   0.131   2.832   6.776
 2097SOL    HW1 7190   0.108   2.821   6.679
 2097SOL    HW2 7191   0.107   2.749   6.826
 2098SOL     OW 7192   4.428   0.119   3.932
 2098SOL    HW1 7193   4.330   0.128   3.912
 2098SOL    HW2 7194   4.481   0.150   3.853
 2099SOL     OW 7195   2.794   0.713   4.213
 2099SOL    HW1 7196   2.795   0.642   4.284
 2099SOL    HW2 7197   2.742   0.792   4.246
 2100SOL     OW 7198   4.286   4.570   6.535
 2100SOL    HW1 7199   4.289   4.472   6.515
 2100SOL    HW2 7200   4.359   4.616   6.483
 2101SOL     OW 7201   0.385   0.266   3.165
 2101SOL    HW1 7202   0.326   0.204   3.218
 2101SOL    HW2 7203   0.359   0.360   3.183
 2102SOL     OW 7204   6.952   5.175   2.998
 2102SOL    HW1 7205   0.021   5.215   3.023
 2102SOL    HW2 7206   6.911   5.131   3.078
 2103SOL     OW 7207   3.480   2.909   0.053
 2103SOL    HW1 7208   3.563   2.963   0.069
 2103SOL    HW2 7209   3.488   2.821   0.098
 2104SOL     OW 7210   1.519   3.505   5.592
 2104SOL    HW1 7211   1.450   3.506   5.664
 2104SOL    HW2 7212   1.561   3.596   5.584
 2105SOL     OW 7213   5.849   5.223   2.358
 2105SOL    HW1 7214   5.828   5.125   2.352
 2105SOL    HW2 7215   5.854   5.261   2.266
 2106SOL     OW 7216   4.977   5.580   6.585
 2106SOL    HW1 7217   4.998   5.485   6.605
 2106SOL    HW2 7218   4.878   5.593   6.583
 2107SOL     OW 7219   4.013   4.308   5.288
 2107SOL    HW1 7220   4.031   4.265   5.377
 2107SOL    HW2 7221   3.996   4.238   5.219
 2108SOL     OW 7222   6.037   5.217   5.739
 2108SOL    HW1 7223   6.118   5.164   5.718
 2108SOL    HW2 7224   6.055   5.314   5.727
 2109SOL     OW 7225   5.420   6.314   2.676
 2109SOL    HW1 7226   5.376   6.363   2.601
 2109SOL    HW2 7227   5.506   6.275   2.644
 2110SOL     OW 7228   2.731   4.270   6.246
 2110SOL    HW1 7229   2.721   4.331   6.167
 2110SOL    HW2 7230   2.825   4.272   6.279
 2111SOL     OW 7231   1.337   2.424   6.194
 2111SOL    HW1 7232   1.329   2.441   6.096
 2111SOL    HW2 7233   1.250   2.445   6.239
 2112SOL     OW 7234   4.562   2.665   1.277
 2112SOL    HW1 7235   4.551   2.610   1.359
 2112SOL    HW2 7236   4.567   2.762   1.301
 2113SOL     OW 7237   1.597   1.041   2.711
 2113SOL    HW1 7238   1.503   1.017   2.686
 2113SOL    HW2 7239   1.655   0.959   2.706
 2114SOL     OW 7240   1.335   4.432   0.141
 2114SOL    HW1 7241   1.367   4.338   0.154
 2114SOL    HW2 7242   1.250   4.445   0.192
 2115SOL     OW 7243   1.878   4.456   2.294
 2115SOL    HW1 7244   1.975   4.480   2.301
 2115SOL    HW2 7245   1.853   4.446   2.198
 2116SOL     OW 7246   0.529   3.626   3.459
 2116SOL    HW1 7247   0.556   3.629   3.362
 2116SOL    HW2 7248   0.490   3.714   3.485
 2117SOL     OW 7249   0.907   5.097   1.599
 2117SOL    HW1 7250   0.870   5.172   1.544
 2117SOL    HW2 7251   0.903   5.012   1.546
 2118SOL     OW 7252   0.186   3.754   2.530
 2118SOL    HW1 7253   0.232   3.672   2.496
 2118SOL    HW2 7254   0.154   3.738   2.623
 2119SOL     OW 7255   2.537   5.842   0.969
 2119SOL    HW1 7256   2.453   5.820   1.018
 2119SOL    HW2 7257   2.611   5.783   1.001
 2120SOL     OW 7258   6.587   4.735   1.720
 2120SOL    HW1 7259   6.572   4.826   1.681
 2120SOL    HW2 7260   6.634   4.743   1.808
 2121SOL     OW 7261   0.540   5.132   5.257
 2121SOL    HW1 7262   0.537   5.156   5.354
 2121SOL    HW2 7263   0.618   5.072   5.240
 2122SOL     OW 7264   4.872   4.059   4.650
 2122SOL    HW1 7265   4.898   4.155   4.666
 2122SOL    HW2 7266   4.847   4.017   4.738
 2123SOL     OW 7267   6.817   4.839   2.616
 2123SOL    HW1 7268   6.890   4.865   2.679
 2123SOL    HW2 7269   6.767   4.921   2.587
 2124SOL     OW 7270   2.357   2.178   1.475
 2124SOL    HW1 7271   2.433   2.176   1.411
 2124SOL    HW2 7272   2.366   2.103   1.541
 2125SOL     OW 7273   2.840   0.608   0.420
 2125SOL    HW1 7274   2.881   0.699   0.432
 2125SOL    HW2 7275   2.806   0.575   0.508
 2126SOL     OW 7276   2.947   0.798   6.658
 2126SOL    HW1 7277   2.956   0.721   6.595
 2126SOL    HW2 7278   3.002   0.782   6.740
 2127SOL     OW 7279   5.546   3.039   4.592
 2127SOL    HW1 7280   5.489   3.026   4.673
 2127SOL    HW2 7281   5.521   3.125   4.547
 2128SOL     OW 7282   0.810   4.421   4.826
 2128SOL    HW1 7283   0.848   4.427   4.918
 2128SOL    HW2 7284   0.803   4.325   4.800
 2129SOL     OW 7285   4.616   2.638   5.185
 2129SOL    HW1 7286   4.601   2.735   5.166
 2129SOL    HW2 7287   4.581   2.584   5.109
 2130SOL     OW 7288   5.198   6.838   2.394
 2130SOL    HW1 7289   5.243   6.909   2.449
 2130SOL    HW2 7290   5.222   6.849   2.298
 2131SOL     OW 7291   6.874   0.741   0.731
 2131SOL    HW1 7292   6.781   0.762   0.701
 2131SOL    HW2 7293   6.879   0.748   0.830
 2132SOL     OW 7294   2.500   3.032   0.563
 2132SOL    HW1 7295   2.507   2.932   0.556
 2132SOL    HW2 7296   2.534   3.074   0.479
 2133SOL     OW 7297   3.015   2.359   6.128
 2133SOL    HW1 7298   3.076   2.299   6.180
 2133SOL    HW2 7299   3.019   2.333   6.031
 2134SOL     OW 7300   0.234   0.943   1.084
 2134SOL    HW1 7301   0.228   0.970   0.988
 2134SOL    HW2 7302   0.274   0.852   1.091
 2135SOL     OW 7303   0.977   3.664   4.724
 2135SOL    HW1 7304   1.038   3.586   4.712
 2135SOL    HW2 7305   0.921   3.676   4.643
 2136SOL     OW 7306   2.257   5.452   1.860
 2136SOL    HW1 7307   2.299   5.542   1.849
 2136SOL    HW2 7308   2.158   5.460   1.856
 2137SOL     OW 7309   3.203   5.402   4.631
 2137SOL    HW1 7310   3.190   5.487   4.682
 2137SOL    HW2 7311   3.298   5.373   4.637
 2138SOL     OW 7312   5.545   1.366   2.566
 2138SOL    HW1 7313   5.522   1.387   2.661
 2138SOL    HW2 7314   5.506   1.436   2.506
 2139SOL     OW 7315   2.997   0.773   5.221
 2139SOL    HW1 7316   3.082   0.737   5.260
 2139SOL    HW2 7317   3.013   0.800   5.126
 2140SOL     OW 7318   2.658   1.259   4.670
 2140SOL    HW1 7319   2.652   1.358   4.665
 2140SOL    HW2 7320   2.625   1.227   4.759
 2141SOL     OW 7321   5.653   4.626   2.375
 2141SOL    HW1 7322   5.746   4.637   2.339
 2141SOL    HW2 7323   5.594   4.588   2.305
 2142SOL     OW 7324   2.107   2.519   3.686
 2142SOL    HW1 7325   2.094   2.422   3.665
 2142SOL    HW2 7326   2.059   2.575   3.619
 2143SOL     OW 7327   2.411   4.898   0.832
 2143SOL    HW1 7328   2.369   4.809   0.813
 2143SOL    HW2 7329   2.413   4.914   0.930
 2144SOL     OW 7330   6.534   5.603   4.181
 2144SOL    HW1 7331   6.605   5.632   4.117
 2144SOL    HW2 7332   6.501   5.512   4.155
 2145SOL     OW 7333   4.192   6.815   4.062
 2145SOL    HW1 7334   4.154   6.905   4.081
 2145SOL    HW2 7335   4.161   6.750   4.132
 2146SOL     OW 7336   2.288   2.834   1.008
 2146SOL    HW1 7337   2.339   2.758   0.968
 2146SOL    HW2 7338   2.319   2.849   1.101
 2147SOL     OW 7339   6.428   0.905   5.318
 2147SOL    HW1 7340   6.468   0.836   5.258
 2147SOL    HW2 7341   6.328   0.898   5.315
 2148SOL     OW 7342   0.080   3.479   6.699
 2148SOL    HW1 7343   0.006   3.448   6.759
 2148SOL    HW2 7344   0.044   3.542   6.630
 2149SOL     OW 7345   0.792   0.491   6.525
 2149SOL    HW1 7346   0.705   0.510   6.480
 2149SOL    HW2 7347   0.850   0.572   6.520
 2150SOL     OW 7348   2.489   3.040   1.635
 2150SOL    HW1 7349   2.536   2.956   1.609
 2150SOL    HW2 7350   2.459   3.034   1.731
 2151SOL     OW 7351   1.275   5.679   6.966
 2151SOL    HW1 7352   1.293   5.748   0.017
 2151SOL    HW2 7353   1.310   5.710   6.878
 2152SOL     OW 7354   4.078   6.119   2.936
 2152SOL    HW1 7355   3.990   6.100   2.891
 2152SOL    HW2 7356   4.077   6.080   3.028
 2153SOL     OW 7357   4.894   1.457   3.033
 2153SOL    HW1 7358   4.829   1.385   3.060
 2153SOL    HW2 7359   4.967   1.463   3.101
 2154SOL     OW 7360   3.106   6.523   3.417
 2154SOL    HW1 7361   3.117   6.602   3.477
 2154SOL    HW2 7362   3.172   6.453   3.442
 2155SOL     OW 7363   4.395   6.490   0.760
 2155SOL    HW1 7364   4.442   6.562   0.708
 2155SOL    HW2 7365   4.455   6.456   0.832
 2156SOL     OW 7366   5.470   1.261   4.367
 2156SOL    HW1 7367   5.398   1.330   4.361
 2156SOL    HW2 7368   5.498   1.251   4.463
 2157SOL     OW 7369   4.015   5.284   3.850
 2157SOL    HW1 7370   4.090   5.350   3.847
 2157SOL    HW2 7371   3.929   5.332   3.867
 2158SOL     OW 7372   3.386   0.396   0.333
 2158SOL    HW1 7373   3.321   0.334   0.288
 2158SOL    HW2 7374   3.339   0.481   0.357
 2159SOL     OW 7375   1.300   0.258   5.853
 2159SOL    HW1 7376   1.338   0.175   5.895
 2159SOL    HW2 7377   1.202   0.246   5.838
 2160SOL     OW 7378   4.799   6.230   0.394
 2160SOL    HW1 7379   4.757   6.309   0.438
 2160SOL    HW2 7380   4.883   6.258   0.347
 2161SOL     OW 7381   1.381   3.818   2.417
 2161SOL    HW1 7382   1.314   3.855   2.353
 2161SOL    HW2 7383   1.387   3.876   2.498
 2162SOL     OW 7384   1.584   0.105   2.994
 2162SOL    HW1 7385   1.507   0.143   2.943
 2162SOL    HW2 7386   1.553   0.076   3.084
 2163SOL     OW 7387   1.291   3.356   1.575
 2163SOL    HW1 7388   1.384   3.390   1.557
 2163SOL    HW2 7389   1.286   3.259   1.549
 2164SOL     OW 7390   1.830   2.705   2.184
 2164SOL    HW1 7391   1.859   2.797   2.158
 2164SOL    HW2 7392   1.757   2.674   2.125
 2165SOL     OW 7393   0.153   1.963   4.134
 2165SOL    HW1 7394   0.054   1.952   4.133
 2165SOL    HW2 7395   0.194   1.896   4.197
 2166SOL     OW 7396   0.302   4.571   3.336
 2166SOL    HW1 7397   0.308   4.654   3.392
 2166SOL    HW2 7398   0.377   4.509   3.361
 2167SOL     OW 7399   1.926   2.456   4.117
 2167SOL    HW1 7400   2.009   2.400   4.108
 2167SOL    HW2 7401   1.916   2.484   4.213
 2168SOL     OW 7402   1.351   2.045   3.249
 2168SOL    HW1 7403   1.296   2.128   3.239
 2168SOL    HW2 7404   1.304   1.967   3.207
 2169SOL     OW 7405   0.321   0.572   1.729
 2169SOL    HW1 7406   0.387   0.509   1.770
 2169SOL    HW2 7407   0.306   0.547   1.633
 2170SOL     OW 7408   0.923   3.777   5.771
 2170SOL    HW1 7409   0.892   3.859   5.820
 2170SOL    HW2 7410   0.847   3.714   5.761
 2171SOL     OW 7411   0.194   5.317   1.222
 2171SOL    HW1 7412   0.157   5.342   1.133
 2171SOL    HW2 7413   0.294   5.314   1.217
 2172SOL     OW 7414   6.858   1.865   4.649
 2172SOL    HW1 7415   6.886   1.812   4.729
 2172SOL    HW2 7416   6.836   1.958   4.677
 2173SOL     OW 7417   5.595   0.353   5.081
 2173SOL    HW1 7418   5.502   0.367   5.046
 2173SOL    HW2 7419   5.598   0.270   5.136
 2174SOL     OW 7420   0.350   5.783   4.926
 2174SOL    HW1 7421   0.342   5.878   4.956
 2174SOL    HW2 7422   0.427   5.774   4.863
 2175SOL     OW 7423   3.246   3.093   5.618
 2175SOL    HW1 7424   3.272   3.126   5.528
 2175SOL    HW2 7425   3.146   3.089   5.625
 2176SOL     OW 7426   5.323   2.942   1.007
 2176SOL    HW1 7427   5.285   2.858   0.970
 2176SOL    HW2 7428   5.354   2.927   1.101
 2177SOL     OW 7429   6.937   0.809   3.707
 2177SOL    HW1 7430   0.001   0.805   3.763
 2177SOL    HW2 7431   6.914   0.904   3.689
 2178SOL     OW 7432   0.843   1.918   2.457
 2178SOL    HW1 7433   0.785   1.976   2.514
 2178SOL    HW2 7434   0.935   1.915   2.494
 2179SOL     OW 7435   1.840   4.568   6.632
 2179SOL    HW1 7436   1.849   4.501   6.705
 2179SOL    HW2 7437   1.883   4.532   6.549
 2180SOL     OW 7438   0.735   4.798   2.236
 2180SOL    HW1 7439   0.734   4.709   2.189
 2180SOL    HW2 7440   0.828   4.821   2.262
 2181SOL     OW 7441   4.746   5.059   4.031
 2181SOL    HW1 7442   4.664   5.019   3.990
 2181SOL    HW2 7443   4.756   5.027   4.125
 2182SOL     OW 7444   0.763   5.604   3.146
 2182SOL    HW1 7445   0.754   5.660   3.228
 2182SOL    HW2 7446   0.740   5.659   3.065
 2183SOL     OW 7447   3.614   3.045   0.581
 2183SOL    HW1 7448   3.683   2.981   0.549
 2183SOL    HW2 7449   3.606   3.039   0.681
 2184SOL     OW 7450   6.667   0.318   0.303
 2184SOL    HW1 7451   6.661   0.222   0.330
 2184SOL    HW2 7452   6.706   0.372   0.378
 2185SOL     OW 7453   0.093   1.818   0.012
 2185SOL    HW1 7454   0.174   1.821   0.070
 2185SOL    HW2 7455   0.013   1.793   0.068
 2186SOL     OW 7456   0.130   5.756   4.731
 2186SOL    HW1 7457   0.194   5.773   4.806
 2186SOL    HW2 7458   0.073   5.677   4.753
 2187SOL     OW 7459   0.656   5.727   2.920
 2187SOL    HW1 7460   0.646   5.731   2.820
 2187SOL    HW2 7461   0.565   5.731   2.962
 2188SOL     OW 7462   2.007   6.784   0.617
 2188SOL    HW1 7463   2.097   6.828   0.611
 2188SOL    HW2 7464   1.959   6.793   0.530
 2189SOL     OW 7465   2.821   1.674   2.120
 2189SOL    HW1 7466   2.819   1.766   2.159
 2189SOL    HW2 7467   2.869   1.612   2.183
 2190SOL     OW 7468   6.685   4.328   2.288
 2190SOL    HW1 7469   6.668   4.230   2.285
 2190SOL    HW2 7470   6.784   4.345   2.284
 2191SOL     OW 7471   2.024   0.711   5.898
 2191SOL    HW1 7472   2.007   0.715   5.799
 2191SOL    HW2 7473   2.025   0.803   5.935
 2192SOL     OW 7474   4.834   1.172   2.071
 2192SOL    HW1 7475   4.746   1.218   2.059
 2192SOL    HW2 7476   4.830   1.115   2.153
 2193SOL     OW 7477   6.992   0.029   6.220
 2193SOL    HW1 7478   0.070   0.031   6.194
 2193SOL    HW2 7479   6.963   0.120   6.247
 2194SOL     OW 7480   0.699   4.536   5.719
 2194SOL    HW1 7481   0.600   4.529   5.708
 2194SOL    HW2 7482   0.730   4.467   5.784
 2195SOL     OW 7483   0.808   4.400   6.543
 2195SOL    HW1 7484   0.751   4.331   6.587
 2195SOL    HW2 7485   0.854   4.455   6.613
 2196SOL     OW 7486   2.308   6.011   5.510
 2196SOL    HW1 7487   2.385   5.951   5.490
 2196SOL    HW2 7488   2.229   5.957   5.537
 2197SOL     OW 7489   3.064   4.221   5.476
 2197SOL    HW1 7490   3.030   4.311   5.450
 2197SOL    HW2 7491   3.150   4.202   5.429
 2198SOL     OW 7492   0.956   6.646   6.343
 2198SOL    HW1 7493   0.923   6.692   6.426
 2198SOL    HW2 7494   0.878   6.619   6.287
 2199SOL     OW 7495   4.831   6.636   4.572
 2199SOL    HW1 7496   4.917   6.685   4.587
 2199SOL    HW2 7497   4.843   6.540   4.597
 2200SOL     OW 7498   3.199   1.278   4.263
 2200SOL    HW1 7499   3.241   1.344   4.200
 2200SOL    HW2 7500   3.193   1.189   4.220
 2201SOL     OW 7501   6.359   2.595   3.862
 2201SOL    HW1 7502   6.264   2.568   3.848
 2201SOL    HW2 7503   6.379   2.677   3.809
 2202SOL     OW 7504   3.781   5.206   2.385
 2202SOL    HW1 7505   3.726   5.204   2.469
 2202SOL    HW2 7506   3.723   5.232   2.308
 2203SOL     OW 7507   2.107   3.869   0.913
 2203SOL    HW1 7508   2.051   3.798   0.955
 2203SOL    HW2 7509   2.197   3.831   0.891
 2204SOL     OW 7510   4.305   2.577   1.246
 2204SOL    HW1 7511   4.246   2.564   1.166
 2204SOL    HW2 7512   4.399   2.592   1.216
 2205SOL     OW 7513   1.206   6.259   0.511
 2205SOL    HW1 7514   1.252   6.171   0.503
 2205SOL    HW2 7515   1.265   6.324   0.560
 2206SOL     OW 7516   2.118   2.849   6.288
 2206SOL    HW1 7517   2.148   2.869   6.381
 2206SOL    HW2 7518   2.196   2.861   6.225
 2207SOL     OW 7519   4.446   5.986   1.128
 2207SOL    HW1 7520   4.439   6.075   1.175
 2207SOL    HW2 7521   4.359   5.938   1.135
 2208SOL     OW 7522   1.086   5.890   3.702
 2208SOL    HW1 7523   1.091   5.918   3.798
 2208SOL    HW2 7524   1.055   5.967   3.646
 2209SOL     OW 7525   2.473   5.311   5.085
 2209SOL    HW1 7526   2.444   5.337   5.177
 2209SOL    HW2 7527   2.535   5.379   5.048
 2210SOL     OW 7528   6.056   6.168   1.364
 2210SOL    HW1 7529   6.013   6.082   1.336
 2210SOL    HW2 7530   6.070   6.167   1.463
 2211SOL     OW 7531   6.148   0.495   0.651
 2211SOL    HW1 7532   6.096   0.571   0.612
 2211SOL    HW2 7533   6.119   0.409   0.607
 2212SOL     OW 7534   2.541   5.999   6.422
 2212SOL    HW1 7535   2.629   6.001   6.469
 2212SOL    HW2 7536   2.509   6.092   6.406
 2213SOL     OW 7537   4.005   2.175   3.806
 2213SOL    HW1 7538   4.086   2.116   3.806
 2213SOL    HW2 7539   4.002   2.227   3.720
 2214SOL     OW 7540   4.233   2.918   5.813
 2214SOL    HW1 7541   4.197   2.832   5.777
 2214SOL    HW2 7542   4.191   2.938   5.901
 2215SOL     OW 7543   4.796   0.848   6.578
 2215SOL    HW1 7544   4.801   0.910   6.656
 2215SOL    HW2 7545   4.702   0.844   6.545
 2216SOL     OW 7546   0.662   5.886   6.693
 2216SOL    HW1 7547   0.673   5.886   6.594
 2216SOL    HW2 7548   0.698   5.972   6.731
 2217SOL     OW 7549   4.269   0.997   2.720
 2217SOL    HW1 7550   4.315   0.908   2.723
 2217SOL    HW2 7551   4.212   1.003   2.638
 2218SOL     OW 7552   0.407   5.383   6.273
 2218SOL    HW1 7553   0.403   5.307   6.207
 2218SOL    HW2 7554   0.448   5.351   6.358
 2219SOL     OW 7555   5.345   1.231   0.440
 2219SOL    HW1 7556   5.341   1.296   0.515
 2219SOL    HW2 7557   5.397   1.270   0.364
 2220SOL     OW 7558   1.690   6.678   5.523
 2220SOL    HW1 7559   1.784   6.702   5.497
 2220SOL    HW2 7560   1.632   6.759   5.515
 2221SOL     OW 7561   6.504   0.985   4.805
 2221SOL    HW1 7562   6.584   1.034   4.771
 2221SOL    HW2 7563   6.432   0.986   4.736
 2222SOL     OW 7564   5.998   6.375   0.592
 2222SOL    HW1 7565   5.941   6.408   0.668
 2222SOL    HW2 7566   6.094   6.378   0.619
 2223SOL     OW 7567   6.628   0.335   5.582
 2223SOL    HW1 7568   6.563   0.336   5.506
 2223SOL    HW2 7569   6.588   0.287   5.660
 2224SOL     OW 7570   5.932   4.329   1.980
 2224SOL    HW1 7571   5.940   4.245   2.034
 2224SOL    HW2 7572   5.850   4.323   1.922
 2225SOL     OW 7573   0.643   6.654   3.537
 2225SOL    HW1 7574   0.552   6.695   3.542
 2225SOL    HW2 7575   0.635   6.554   3.547
 2226SOL     OW 7576   2.949   5.104   0.615
 2226SOL    HW1 7577   2.946   5.123   0.713
 2226SOL    HW2 7578   2.915   5.012   0.597
 2227SOL     OW 7579   4.094   2.364   1.783
 2227SOL    HW1 7580   4.061   2.405   1.698
 2227SOL    HW2 7581   4.193   2.379   1.791
 2228SOL     OW 7582   4.440   5.230   0.477
 2228SOL    HW1 7583   4.389   5.144   0.473
 2228SOL    HW2 7584   4.462   5.260   0.384
 2229SOL     OW 7585   3.283   3.507   4.565
 2229SOL    HW1 7586   3.360   3.508   4.629
 2229SOL    HW2 7587   3.275   3.415   4.525
 2230SOL     OW 7588   5.301   6.609   0.717
 2230SOL    HW1 7589   5.278   6.523   0.764
 2230SOL    HW2 7590   5.297   6.684   0.782
 2231SOL     OW 7591   0.020   1.115   6.745
 2231SOL    HW1 7592   0.119   1.112   6.758
 2231SOL    HW2 7593   7.013   1.202   6.703
 2232SOL     OW 7594   1.383   0.322   5.432
 2232SOL    HW1 7595   1.292   0.348   5.400
 2232SOL    HW2 7596   1.410   0.382   5.507
 2233SOL     OW 7597   3.152   3.572   1.075
 2233SOL    HW1 7598   3.154   3.476   1.048
 2233SOL    HW2 7599   3.198   3.628   1.005
 2234SOL     OW 7600   3.656   1.498   0.669
 2234SOL    HW1 7601   3.646   1.508   0.570
 2234SOL    HW2 7602   3.648   1.588   0.713
 2235SOL     OW 7603   2.748   0.624   2.143
 2235SOL    HW1 7604   2.761   0.723   2.139
 2235SOL    HW2 7605   2.790   0.588   2.227
 2236SOL     OW 7606   1.813   4.084   5.774
 2236SOL    HW1 7607   1.845   4.123   5.687
 2236SOL    HW2 7608   1.802   3.985   5.763
 2237SOL     OW 7609   5.735   5.304   5.356
 2237SOL    HW1 7610   5.643   5.323   5.390
 2237SOL    HW2 7611   5.775   5.389   5.321
 2238SOL     OW 7612   4.751   4.594   2.738
 2238SOL    HW1 7613   4.833   4.553   2.777
 2238SOL    HW2 7614   4.773   4.634   2.649
 2239SOL     OW 7615   3.435   6.271   3.959
 2239SOL    HW1 7616   3.450   6.233   4.051
 2239SOL    HW2 7617   3.434   6.197   3.892
 2240SOL     OW 7618   4.327   5.824   2.984
 2240SOL    HW1 7619   4.410   5.860   3.027
 2240SOL    HW2 7620   4.300   5.884   2.908
 2241SOL     OW 7621   0.287   6.922   1.751
 2241SOL    HW1 7622   0.335   6.883   1.672
 2241SOL    HW2 7623   0.294   6.858   1.828
 2242SOL     OW 7624   5.404   3.129   3.039
 2242SOL    HW1 7625   5.394   3.091   2.947
 2242SOL    HW2 7626   5.315   3.126   3.085
 2243SOL     OW 7627   2.541   6.546   0.145
 2243SOL    HW1 7628   2.480   6.468   0.133
 2243SOL    HW2 7629   2.635   6.517   0.130
 2244SOL     OW 7630   2.704   0.602   1.273
 2244SOL    HW1 7631   2.608   0.630   1.265
 2244SOL    HW2 7632   2.742   0.587   1.182
 2245SOL     OW 7633   0.693   1.254   0.677
 2245SOL    HW1 7634   0.787   1.236   0.708
 2245SOL    HW2 7635   0.664   1.180   0.616
 2246SOL     OW 7636   2.224   0.661   4.408
 2246SOL    HW1 7637   2.153   0.731   4.409
 2246SOL    HW2 7638   2.190   0.577   4.451
 2247SOL     OW 7639   3.313   3.990   2.427
 2247SOL    HW1 7640   3.329   4.048   2.347
 2247SOL    HW2 7641   3.267   3.906   2.398
 2248SOL     OW 7642   5.998   4.638   5.277
 2248SOL    HW1 7643   6.063   4.678   5.342
 2248SOL    HW2 7644   5.981   4.543   5.302
 2249SOL     OW 7645   2.795   6.541   3.528
 2249SOL    HW1 7646   2.854   6.461   3.534
 2249SOL    HW2 7647   2.699   6.513   3.531
 2250SOL     OW 7648   3.653   4.039   5.665
 2250SOL    HW1 7649   3.659   3.983   5.582
 2250SOL    HW2 7650   3.624   4.131   5.641
 2251SOL     OW 7651   5.179   6.458   6.576
 2251SOL    HW1 7652   5.128   6.507   6.505
 2251SOL    HW2 7653   5.220   6.524   6.639
 2252SOL     OW 7654   5.396   1.943   3.230
 2252SOL    HW1 7655   5.345   1.958   3.315
 2252SOL    HW2 7656   5.493   1.932   3.252
 2253SOL     OW 7657   0.710   2.918   0.523
 2253SOL    HW1 7658   0.751   2.970   0.598
 2253SOL    HW2 7659   0.783   2.877   0.467
 2254SOL     OW 7660   3.348   4.149   2.650
 2254SOL    HW1 7661   3.328   4.114   2.558
 2254SOL    HW2 7662   3.436   4.113   2.681
 2255SOL     OW 7663   2.911   4.023   5.172
 2255SOL    HW1 7664   3.009   4.035   5.188
 2255SOL    HW2 7665   2.864   4.111   5.181
 2256SOL     OW 7666   4.780   6.355   2.426
 2256SOL    HW1 7667   4.712   6.399   2.485
 2256SOL    HW2 7668   4.748   6.359   2.331
 2257SOL     OW 7669   0.778   1.490   4.014
 2257SOL    HW1 7670   0.844   1.415   4.020
 2257SOL    HW2 7671   0.742   1.510   4.105
 2258SOL     OW 7672   2.072   6.366   4.859
 2258SOL    HW1 7673   2.166   6.334   4.872
 2258SOL    HW2 7674   2.032   6.319   4.781
 2259SOL     OW 7675   6.217   2.491   4.442
 2259SOL    HW1 7676   6.167   2.447   4.517
 2259SOL    HW2 7677   6.155   2.503   4.364
 2260SOL     OW 7678   1.169   3.743   1.462
 2260SOL    HW1 7679   1.265   3.725   1.441
 2260SOL    HW2 7680   1.122   3.657   1.482
 2261SOL     OW 7681   6.411   4.103   0.608
 2261SOL    HW1 7682   6.499   4.144   0.632
 2261SOL    HW2 7683   6.400   4.103   0.509
 2262SOL     OW 7684   6.210   0.603   4.193
 2262SOL    HW1 7685   6.154   0.577   4.115
 2262SOL    HW2 7686   6.300   0.558   4.186
 2263SOL     OW 7687   1.074   5.089   0.489
 2263SOL    HW1 7688   1.084   5.093   0.588
 2263SOL    HW2 7689   0.983   5.054   0.466
 2264SOL     OW 7690   2.734   6.832   6.684
 2264SOL    HW1 7691   2.699   6.910   6.631
 2264SOL    HW2 7692   2.810   6.862   6.742
 2265SOL     OW 7693   1.684   0.228   4.169
 2265SOL    HW1 7694   1.764   0.272   4.129
 2265SOL    HW2 7695   1.601   0.273   4.135
 2266SOL     OW 7696   5.163   0.936   6.197
 2266SOL    HW1 7697   5.142   0.986   6.113
 2266SOL    HW2 7698   5.246   0.975   6.238
 2267SOL     OW 7699   4.490   2.579   4.743
 2267SOL    HW1 7700   4.542   2.663   4.726
 2267SOL    HW2 7701   4.482   2.565   4.841
 2268SOL     OW 7702   5.780   4.421   6.537
 2268SOL    HW1 7703   5.811   4.344   6.481
 2268SOL    HW2 7704   5.693   4.456   6.501
 2269SOL     OW 7705   0.511   3.171   5.663
 2269SOL    HW1 7706   0.501   3.083   5.618
 2269SOL    HW2 7707   0.500   3.159   5.762
 2270SOL     OW 7708   4.672   3.187   6.016
 2270SOL    HW1 7709   4.651   3.140   6.101
 2270SOL    HW2 7710   4.734   3.131   5.961
 2271SOL     OW 7711   5.630   4.326   0.193
 2271SOL    HW1 7712   5.572   4.245   0.187
 2271SOL    HW2 7713   5.574   4.408   0.185
 2272SOL     OW 7714   6.442   0.893   6.358
 2272SOL    HW1 7715   6.364   0.875   6.418
 2272SOL    HW2 7716   6.463   0.991   6.359
 2273SOL     OW 7717   1.958   2.475   2.182
 2273SOL    HW1 7718   2.023   2.470   2.258
 2273SOL    HW2 7719   1.904   2.559   2.190
 2274SOL     OW 7720   0.375   1.901   0.079
 2274SOL    HW1 7721   0.474   1.918   0.085
 2274SOL    HW2 7722   0.329   1.984   0.047
 2275SOL     OW 7723   5.887   5.178   2.078
 2275SOL    HW1 7724   5.964   5.233   2.044
 2275SOL    HW2 7725   5.920   5.087   2.103
 2276SOL     OW 7726   1.663   0.552   1.208
 2276SOL    HW1 7727   1.680   0.651   1.201
 2276SOL    HW2 7728   1.703   0.506   1.129
 2277SOL     OW 7729   3.129   3.654   3.606
 2277SOL    HW1 7730   3.149   3.667   3.509
 2277SOL    HW2 7731   3.036   3.684   3.626
 2278SOL     OW 7732   0.242   2.864   4.224
 2278SOL    HW1 7733   0.175   2.919   4.174
 2278SOL    HW2 7734   0.245   2.894   4.319
 2279SOL     OW 7735   6.570   5.985   6.022
 2279SOL    HW1 7736   6.557   5.969   5.924
 2279SOL    HW2 7737   6.573   5.897   6.069
 2280SOL     OW 7738   5.874   0.744   5.440
 2280SOL    HW1 7739   5.891   0.698   5.353
 2280SOL    HW2 7740   5.786   0.715   5.476
 2281SOL     OW 7741   4.452   6.812   2.436
 2281SOL    HW1 7742   4.513   6.879   2.478
 2281SOL    HW2 7743   4.418   6.749   2.506
 2282SOL     OW 7744   4.868   5.797   5.244
 2282SOL    HW1 7745   4.857   5.791   5.145
 2282SOL    HW2 7746   4.778   5.801   5.287
 2283SOL     OW 7747   1.809   0.546   2.942
 2283SOL    HW1 7748   1.745   0.518   2.871
 2283SOL    HW2 7749   1.779   0.510   3.030
 2284SOL     OW 7750   0.689   3.268   5.937
 2284SOL    HW1 7751   0.618   3.199   5.929
 2284SOL    HW2 7752   0.753   3.259   5.860
 2285SOL     OW 7753   1.157   3.814   6.731
 2285SOL    HW1 7754   1.123   3.800   6.824
 2285SOL    HW2 7755   1.081   3.843   6.672
 2286SOL     OW 7756   5.088   6.489   3.087
 2286SOL    HW1 7757   5.019   6.471   3.157
 2286SOL    HW2 7758   5.169   6.530   3.130
 2287SOL     OW 7759   2.650   1.226   3.530
 2287SOL    HW1 7760   2.645   1.137   3.485
 2287SOL    HW2 7761   2.597   1.293   3.478
 2288SOL     OW 7762   0.042   5.050   3.652
 2288SOL    HW1 7763   0.055   5.044   3.751
 2288SOL    HW2 7764   0.125   5.019   3.606
 2289SOL     OW 7765   0.133   4.946   1.527
 2289SOL    HW1 7766   0.068   5.020   1.544
 2289SOL    HW2 7767   0.192   4.934   1.606
 2290SOL     OW 7768   1.189   4.306   0.755
 2290SOL    HW1 7769   1.271   4.277   0.707
 2290SOL    HW2 7770   1.201   4.399   0.790
 2291SOL     OW 7771   3.095   1.772   5.616
 2291SOL    HW1 7772   3.016   1.788   5.556
 2291SOL    HW2 7773   3.179   1.789   5.564
 2292SOL     OW 7774   1.134   1.111   5.190
 2292SOL    HW1 7775   1.064   1.107   5.119
 2292SOL    HW2 7776   1.101   1.063   5.272
 2293SOL     OW 7777   5.442   6.000   1.383
 2293SOL    HW1 7778   5.460   6.067   1.310
 2293SOL    HW2 7779   5.352   6.016   1.422
 2294SOL     OW 7780   3.626   6.838   0.184
 2294SOL    HW1 7781   3.711   6.866   0.227
 2294SOL    HW2 7782   3.616   6.738   0.190
 2295SOL     OW 7783   0.109   1.891   2.245
 2295SOL    HW1 7784   0.110   1.835   2.162
 2295SOL    HW2 7785   0.176   1.855   2.310
 2296SOL     OW 7786   3.363   0.586   0.650
 2296SOL    HW1 7787   3.361   0.615   0.554
 2296SOL    HW2 7788   3.277   0.541   0.673
 2297SOL     OW 7789   4.125   4.081   5.698
 2297SOL    HW1 7790   4.175   4.164   5.675
 2297SOL    HW2 7791   4.089   4.038   5.615
 2298SOL     OW 7792   3.840   2.419   0.760
 2298SOL    HW1 7793   3.783   2.357   0.706
 2298SOL    HW2 7794   3.791   2.447   0.843
 2299SOL     OW 7795   5.073   6.304   6.963
 2299SOL    HW1 7796   5.039   6.280   6.873
 2299SOL    HW2 7797   5.086   6.403   6.968
 2300SOL     OW 7798   1.729   5.584   1.315
 2300SOL    HW1 7799   1.794   5.526   1.364
 2300SOL    HW2 7800   1.769   5.611   1.227
 2301SOL     OW 7801   3.302   3.245   3.006
 2301SOL    HW1 7802   3.235   3.172   3.023
 2301SOL    HW2 7803   3.297   3.273   2.910
 2302SOL     OW 7804   3.803   6.386   2.667
 2302SOL    HW1 7805   3.734   6.416   2.600
 2302SOL    HW2 7806   3.831   6.464   2.722
 2303SOL     OW 7807   1.133   3.390   5.521
 2303SOL    HW1 7808   1.199   3.396   5.595
 2303SOL    HW2 7809   1.076   3.472   5.520
 2304SOL     OW 7810   2.516   0.113   3.432
 2304SOL    HW1 7811   2.575   0.119   3.513
 2304SOL    HW2 7812   2.570   0.129   3.350
 2305SOL     OW 7813   4.012   5.508   3.046
 2305SOL    HW1 7814   4.076   5.503   2.970
 2305SOL    HW2 7815   4.049   5.457   3.124
 2306SOL     OW 7816   2.173   4.832   1.562
 2306SOL    HW1 7817   2.088   4.852   1.612
 2306SOL    HW2 7818   2.170   4.737   1.529
 2307SOL     OW 7819   1.864   4.035   2.928
 2307SOL    HW1 7820   1.962   4.030   2.947
 2307SOL    HW2 7821   1.849   4.049   2.831
 2308SOL     OW 7822   0.589   0.896   6.286
 2308SOL    HW1 7823   0.624   0.982   6.247
 2308SOL    HW2 7824   0.491   0.905   6.303
 2309SOL     OW 7825   3.186   5.859   6.949
 2309SOL    HW1 7826   3.280   5.890   6.933
 2309SOL    HW2 7827   3.183   5.759   6.945
 2310SOL     OW 7828   6.302   6.705   1.504
 2310SOL    HW1 7829   6.347   6.714   1.592
 2310SOL    HW2 7830   6.308   6.610   1.473
 2311SOL     OW 7831   2.580   6.811   2.541
 2311SOL    HW1 7832   2.629   6.736   2.497
 2311SOL    HW2 7833   2.482   6.793   2.538
 2312SOL     OW 7834   2.941   6.822   3.097
 2312SOL    HW1 7835   2.924   6.742   3.040
 2312SOL    HW2 7836   2.941   6.795   3.193
 2313SOL     OW 7837   4.781   4.597   1.980
 2313SOL    HW1 7838   4.744   4.689   1.998
 2313SOL    HW2 7839   4.728   4.554   1.906
 2314SOL     OW 7840   6.154   0.806   3.437
 2314SOL    HW1 7841   6.251   0.805   3.463
 2314SOL    HW2 7842   6.109   0.725   3.475
 2315SOL     OW 7843   4.846   3.745   5.727
 2315SOL    HW1 7844   4.817   3.672   5.665
 2315SOL    HW2 7845   4.919   3.798   5.685
 2316SOL     OW 7846   2.451   1.152   5.819
 2316SOL    HW1 7847   2.443   1.222   5.747
 2316SOL    HW2 7848   2.374   1.160   5.881
 2317SOL     OW 7849   6.411   6.455   4.103
 2317SOL    HW1 7850   6.393   6.510   4.184
 2317SOL    HW2 7851   6.324   6.433   4.058
 2318SOL     OW 7852   1.937   3.894   4.491
 2318SOL    HW1 7853   2.020   3.949   4.490
 2318SOL    HW2 7854   1.926   3.850   4.580
 2319SOL     OW 7855   3.420   5.229   4.644
 2319SOL    HW1 7856   3.518   5.240   4.662
 2319SOL    HW2 7857   3.387   5.145   4.685
 2320SOL     OW 7858   1.302   2.525   5.946
 2320SOL    HW1 7859   1.346   2.614   5.959
 2320SOL    HW2 7860   1.314   2.496   5.851
 2321SOL     OW 7861   2.652   5.345   6.321
 2321SOL    HW1 7862   2.750   5.360   6.325
 2321SOL    HW2 7863   2.626   5.312   6.230
 2322SOL     OW 7864   2.018   4.189   2.113
 2322SOL    HW1 7865   1.951   4.141   2.170
 2322SOL    HW2 7866   2.102   4.204   2.166
 2323SOL     OW 7867   3.340   4.967   2.027
 2323SOL    HW1 7868   3.430   4.927   2.046
 2323SOL    HW2 7869   3.288   4.905   1.967
 2324SOL     OW 7870   0.164   6.386   1.752
 2324SOL    HW1 7871   0.091   6.351   1.693
 2324SOL    HW2 7872   0.247   6.332   1.738
 2325SOL     OW 7873   6.878   4.886   1.772
 2325SOL    HW1 7874   6.955   4.830   1.800
 2325SOL    HW2 7875   6.844   4.938   1.850
 2326SOL     OW 7876   1.679   6.049   6.568
 2326SOL    HW1 7877   1.598   6.095   6.605
 2326SOL    HW2 7878   1.761   6.090   6.608
 2327SOL     OW 7879   0.067   0.921   3.160
 2327SOL    HW1 7880   0.164   0.939   3.177
 2327SOL    HW2 7881   0.042   0.957   3.070
 2328SOL     OW 7882   1.108   2.180   2.517
 2328SOL    HW1 7883   1.200   2.209   2.492
 2328SOL    HW2 7884   1.110   2.085   2.548
 2329SOL     OW 7885   0.789   4.562   4.511
 2329SOL    HW1 7886   0.753   4.655   4.518
 2329SOL    HW2 7887   0.807   4.526   4.602
 2330SOL     OW 7888   0.214   2.966   0.365
 2330SOL    HW1 7889   0.305   2.992   0.397
 2330SOL    HW2 7890   0.145   3.005   0.427
 2331SOL     OW 7891   2.758   5.178   6.584
 2331SOL    HW1 7892   2.753   5.232   6.500
 2331SOL    HW2 7893   2.740   5.237   6.663
 2332SOL     OW 7894   6.752   0.107   6.028
 2332SOL    HW1 7895   6.832   0.167   6.027
 2332SOL    HW2 7896   6.761   0.041   6.102
 2333SOL     OW 7897   0.062   4.691   2.860
 2333SOL    HW1 7898   0.118   4.685   2.943
 2333SOL    HW2 7899   0.013   4.778   2.859
 2334SOL     OW 7900   1.134   1.718   6.844
 2334SOL    HW1 7901   1.139   1.630   6.796
 2334SOL    HW2 7902   1.187   1.787   6.794
 2335SOL     OW 7903   6.026   0.601   3.978
 2335SOL    HW1 7904   5.931   0.580   3.954
 2335SOL    HW2 7905   6.065   0.661   3.908
 2336SOL     OW 7906   2.879   1.758   3.711
 2336SOL    HW1 7907   2.900   1.848   3.749
 2336SOL    HW2 7908   2.794   1.724   3.753
 2337SOL     OW 7909   4.379   1.396   2.036
 2337SOL    HW1 7910   4.295   1.343   2.022
 2337SOL    HW2 7911   4.379   1.435   2.128
 2338SOL     OW 7912   0.753   2.997   4.640
 2338SOL    HW1 7913   0.748   3.090   4.605
 2338SOL    HW2 7914   0.688   2.938   4.592
 2339SOL     OW 7915   3.150   3.024   3.024
 2339SOL    HW1 7916   3.095   3.042   3.106
 2339SOL    HW2 7917   3.090   2.993   2.950
 2340SOL     OW 7918   0.439   4.714   0.119
 2340SOL    HW1 7919   0.502   4.790   0.133
 2340SOL    HW2 7920   0.489   4.628   0.120
 2341SOL     OW 7921   2.993   4.915   2.089
 2341SOL    HW1 7922   2.969   4.897   1.994
 2341SOL    HW2 7923   2.951   5.001   2.118
 2342SOL     OW 7924   2.001   6.811   4.483
 2342SOL    HW1 7925   2.092   6.803   4.522
 2342SOL    HW2 7926   1.950   6.726   4.499
 2343SOL     OW 7927   1.885   5.726   2.946
 2343SOL    HW1 7928   1.884   5.802   2.881
 2343SOL    HW2 7929   1.881   5.762   3.039
 2344SOL     OW 7930   6.887   6.317   6.941
 2344SOL    HW1 7931   6.865   6.293   6.847
 2344SOL    HW2 7932   6.889   6.234   6.997
 2345SOL     OW 7933   2.699   5.398   4.743
 2345SOL    HW1 7934   2.775   5.362   4.689
 2345SOL    HW2 7935   2.653   5.470   4.691
 2346SOL     OW 7936   3.987   3.261   5.671
 2346SOL    HW1 7937   3.958   3.204   5.748
 2346SOL    HW2 7938   3.921   3.335   5.658
 2347SOL     OW 7939   2.159   1.909   1.501
 2347SOL    HW1 7940   2.237   1.878   1.446
 2347SOL    HW2 7941   2.156   1.859   1.587
 2348SOL     OW 7942   2.032   6.281   4.169
 2348SOL    HW1 7943   2.006   6.190   4.202
 2348SOL    HW2 7944   1.978   6.304   4.088
 2349SOL     OW 7945   0.523   4.554   6.211
 2349SOL    HW1 7946   0.498   4.626   6.275
 2349SOL    HW2 7947   0.525   4.591   6.118
 2350SOL     OW 7948   5.953   5.088   5.950
 2350SOL    HW1 7949   6.004   5.002   5.956
 2350SOL    HW2 7950   5.978   5.137   5.867
 2351SOL     OW 7951   3.547   5.193   3.924
 2351SOL    HW1 7952   3.470   5.140   3.887
 2351SOL    HW2 7953   3.605   5.134   3.979
 2352SOL     OW 7954   0.389   2.982   2.891
 2352SOL    HW1 7955   0.438   2.909   2.843
 2352SOL    HW2 7956   0.419   2.984   2.987
 2353SOL     OW 7957   3.653   4.955   4.655
 2353SOL    HW1 7958   3.657   5.041   4.706
 2353SOL    HW2 7959   3.736   4.944   4.600
 2354SOL     OW 7960   2.458   2.077   4.729
 2354SOL    HW1 7961   2.474   2.168   4.691
 2354SOL    HW2 7962   2.464   2.008   4.657
 2355SOL     OW 7963   2.146   6.508   6.050
 2355SOL    HW1 7964   2.146   6.510   5.950
 2355SOL    HW2 7965   2.234   6.539   6.085
 2356SOL     OW 7966   1.537   2.880   6.208
 2356SOL    HW1 7967   1.545   2.781   6.221
 2356SOL    HW2 7968   1.449   2.911   6.243
 2357SOL     OW 7969   4.180   0.973   1.804
 2357SOL    HW1 7970   4.189   1.066   1.768
 2357SOL    HW2 7971   4.264   0.949   1.854
 2358SOL     OW 7972   2.613   5.299   5.472
 2358SOL    HW1 7973   2.657   5.255   5.394
 2358SOL    HW2 7974   2.525   5.254   5.491
 2359SOL     OW 7975   0.363   0.676   6.086
 2359SOL    HW1 7976   0.331   0.652   6.178
 2359SOL    HW2 7977   0.448   0.627   6.067
 2360SOL     OW 7978   5.919   3.643   0.194
 2360SOL    HW1 7979   5.945   3.547   0.203
 2360SOL    HW2 7980   5.867   3.656   0.109
 2361SOL     OW 7981   2.713   0.660   6.499
 2361SOL    HW1 7982   2.657   0.725   6.549
 2361SOL    HW2 7983   2.806   0.660   6.538
 2362SOL     OW 7984   2.849   5.762   4.032
 2362SOL    HW1 7985   2.870   5.768   4.130
 2362SOL    HW2 7986   2.932   5.778   3.979
 2363SOL     OW 7987   3.646   1.922   4.697
 2363SOL    HW1 7988   3.719   1.976   4.653
 2363SOL    HW2 7989   3.640   1.833   4.652
 2364SOL     OW 7990   1.299   2.901   2.609
 2364SOL    HW1 7991   1.258   2.833   2.549
 2364SOL    HW2 7992   1.360   2.960   2.556
 2365SOL     OW 7993   6.658   2.085   6.670
 2365SOL    HW1 7994   6.604   2.092   6.754
 2365SOL    HW2 7995   6.628   2.005   6.618
 2366SOL     OW 7996   2.339   5.626   6.878
 2366SOL    HW1 7997   2.428   5.672   6.882
 2366SOL    HW2 7998   2.283   5.654   6.956
 2367SOL     OW 7999   2.302   3.628   0.966
 2367SOL    HW1 8000   2.305   3.593   1.060
 2367SOL    HW2 8001   2.368   3.702   0.956
 2368SOL     OW 8002   5.344   6.479   4.551
 2368SOL    HW1 8003   5.304   6.396   4.590
 2368SOL    HW2 8004   5.348   6.550   4.621
 2369SOL     OW 8005   1.893   0.031   4.560
 2369SOL    HW1 8006   1.803   0.025   4.518
 2369SOL    HW2 8007   1.943   6.965   4.542
 2370SOL     OW 8008   5.918   3.369   6.942
 2370SOL    HW1 8009   5.964   3.364   0.012
 2370SOL    HW2 8010   5.889   3.463   6.925
 2371SOL     OW 8011   1.989   0.164   1.594
 2371SOL    HW1 8012   1.939   0.233   1.645
 2371SOL    HW2 8013   1.958   0.073   1.622
 2372SOL     OW 8014   6.675   2.701   1.894
 2372SOL    HW1 8015   6.710   2.789   1.923
 2372SOL    HW2 8016   6.738   2.659   1.830
 2373SOL     OW 8017   1.130   3.470   6.090
 2373SOL    HW1 8018   1.122   3.530   6.011
 2373SOL    HW2 8019   1.135   3.525   6.173
 2374SOL     OW 8020   6.398   1.652   4.294
 2374SOL    HW1 8021   6.399   1.686   4.201
 2374SOL    HW2 8022   6.342   1.569   4.299
 2375SOL     OW 8023   3.355   6.183   5.368
 2375SOL    HW1 8024   3.312   6.188   5.458
 2375SOL    HW2 8025   3.325   6.100   5.322
 2376SOL     OW 8026   6.687   3.137   4.213
 2376SOL    HW1 8027   6.591   3.129   4.186
 2376SOL    HW2 8028   6.705   3.079   4.292
 2377SOL     OW 8029   3.604   3.772   3.848
 2377SOL    HW1 8030   3.677   3.731   3.793
 2377SOL    HW2 8031   3.628   3.767   3.945
 2378SOL     OW 8032   4.880   2.056   0.210
 2378SOL    HW1 8033   4.821   2.134   0.228
 2378SOL    HW2 8034   4.920   2.064   0.119
 2379SOL     OW 8035   6.679   0.890   0.619
 2379SOL    HW1 8036   6.590   0.848   0.600
 2379SOL    HW2 8037   6.718   0.923   0.533
 2380SOL     OW 8038   6.817   1.953   0.039
 2380SOL    HW1 8039   6.911   1.974   0.010
 2380SOL    HW2 8040   6.819   1.896   0.121
 2381SOL     OW 8041   2.422   5.741   3.510
 2381SOL    HW1 8042   2.394   5.834   3.484
 2381SOL    HW2 8043   2.499   5.747   3.574
 2382SOL     OW 8044   1.676   4.005   4.407
 2382SOL    HW1 8045   1.645   4.025   4.500
 2382SOL    HW2 8046   1.770   3.971   4.410
 2383SOL     OW 8047   5.663   6.877   0.758
 2383SOL    HW1 8048   5.736   6.931   0.717
 2383SOL    HW2 8049   5.621   6.818   0.689
 2384SOL     OW 8050   5.560   0.941   2.637
 2384SOL    HW1 8051   5.542   0.913   2.543
 2384SOL    HW2 8052   5.501   0.889   2.699
 2385SOL     OW 8053   0.158   0.646   0.544
 2385SOL    HW1 8054   0.242   0.687   0.509
 2385SOL    HW2 8055   0.181   0.582   0.618
 2386SOL     OW 8056   5.378   5.922   5.101
 2386SOL    HW1 8057   5.457   5.862   5.091
 2386SOL    HW2 8058   5.295   5.867   5.108
 2387SOL     OW 8059   2.069   1.976   3.938
 2387SOL    HW1 8060   2.141   1.992   4.006
 2387SOL    HW2 8061   2.108   1.927   3.859
 2388SOL     OW 8062   6.719   2.266   3.780
 2388SOL    HW1 8063   6.747   2.199   3.848
 2388SOL    HW2 8064   6.677   2.220   3.703
 2389SOL     OW 8065   4.494   4.666   3.527
 2389SOL    HW1 8066   4.489   4.568   3.547
 2389SOL    HW2 8067   4.576   4.685   3.473
 2390SOL     OW 8068   3.670   3.300   4.045
 2390SOL    HW1 8069   3.714   3.286   4.134
 2390SOL    HW2 8070   3.740   3.314   3.975
 2391SOL     OW 8071   5.154   4.024   6.252
 2391SOL    HW1 8072   5.250   4.000   6.260
 2391SOL    HW2 8073   5.103   3.948   6.212
 2392SOL     OW 8074   3.249   6.207   5.611
 2392SOL    HW1 8075   3.190   6.288   5.623
 2392SOL    HW2 8076   3.278   6.173   5.700
 2393SOL     OW 8077   5.031   3.764   6.166
 2393SOL    HW1 8078   5.017   3.703   6.244
 2393SOL    HW2 8079   5.059   3.711   6.086
 2394SOL     OW 8080   0.958   4.112   5.230
 2394SOL    HW1 8081   1.009   4.086   5.148
 2394SOL    HW2 8082   0.881   4.049   5.243
 2395SOL     OW 8083   5.032   0.300   5.849
 2395SOL    HW1 8084   5.119   0.252   5.843
 2395SOL    HW2 8085   5.035   0.381   5.791
 2396SOL     OW 8086   4.014   4.919   1.228
 2396SOL    HW1 8087   4.039   4.949   1.320
 2396SOL    HW2 8088   3.926   4.872   1.230
 2397SOL     OW 8089   0.085   3.753   5.194
 2397SOL    HW1 8090   0.135   3.696   5.260
 2397SOL    HW2 8091   0.138   3.759   5.109
 2398SOL     OW 8092   4.512   4.226   6.733
 2398SOL    HW1 8093   4.529   4.300   6.798
 2398SOL    HW2 8094   4.572   4.238   6.654
 2399SOL     OW 8095   4.935   0.642   1.005
 2399SOL    HW1 8096   4.853   0.592   0.978
 2399SOL    HW2 8097   4.939   0.648   1.105
 2400SOL     OW 8098   2.982   4.271   1.215
 2400SOL    HW1 8099   3.019   4.181   1.237
 2400SOL    HW2 8100   2.933   4.307   1.294
 2401SOL     OW 8101   5.298   6.301   0.377
 2401SOL    HW1 8102   5.307   6.216   0.428
 2401SOL    HW2 8103   5.203   6.312   0.347
 2402SOL     OW 8104   0.644   0.250   3.958
 2402SOL    HW1 8105   0.678   0.335   3.917
 2402SOL    HW2 8106   0.668   0.172   3.899
 2403SOL     OW 8107   2.098   2.114   6.458
 2403SOL    HW1 8108   2.058   2.023   6.462
 2403SOL    HW2 8109   2.059   2.171   6.531
 2404SOL     OW 8110   2.832   0.842   1.016
 2404SOL    HW1 8111   2.779   0.854   0.931
 2404SOL    HW2 8112   2.811   0.916   1.079
 2405SOL     OW 8113   3.527   3.515   2.277
 2405SOL    HW1 8114   3.590   3.580   2.320
 2405SOL    HW2 8115   3.462   3.565   2.220
 2406SOL     OW 8116   3.700   0.178   1.183
 2406SOL    HW1 8117   3.707   0.215   1.276
 2406SOL    HW2 8118   3.650   0.243   1.126
 2407SOL     OW 8119   5.948   2.025   3.299
 2407SOL    HW1 8120   6.028   2.045   3.243
 2407SOL    HW2 8121   5.964   2.053   3.393
 2408SOL     OW 8122   4.628   4.565   2.412
 2408SOL    HW1 8123   4.571   4.540   2.334
 2408SOL    HW2 8124   4.601   4.655   2.446
 2409SOL     OW 8125   2.218   4.648   2.096
 2409SOL    HW1 8126   2.303   4.617   2.139
 2409SOL    HW2 8127   2.235   4.666   1.999
 2410SOL     OW 8128   3.998   3.077   5.245
 2410SOL    HW1 8129   3.995   3.066   5.146
 2410SOL    HW2 8130   4.069   3.143   5.269
 2411SOL     OW 8131   5.100   6.088   4.247
 2411SOL    HW1 8132   5.020   6.127   4.201
 2411SOL    HW2 8133   5.167   6.060   4.178
 2412SOL     OW 8134   5.852   4.373   1.642
 2412SOL    HW1 8135   5.942   4.400   1.676
 2412SOL    HW2 8136   5.851   4.378   1.542
 2413SOL     OW 8137   6.601   0.805   1.039
 2413SOL    HW1 8138   6.563   0.787   1.129
 2413SOL    HW2 8139   6.700   0.817   1.045
 2414SOL     OW 8140   4.973   4.112   3.118
 2414SOL    HW1 8141   4.888   4.088   3.071
 2414SOL    HW2 8142   5.047   4.121   3.052
 2415SOL     OW 8143   5.825   1.706   3.137
 2415SOL    HW1 8144   5.745   1.720   3.197
 2415SOL    HW2 8145   5.803   1.739   3.045
 2416SOL     OW 8146   4.875   2.175   4.936
 2416SOL    HW1 8147   4.808   2.102   4.926
 2416SOL    HW2 8148   4.942   2.150   5.006
 2417SOL     OW 8149   3.416   4.018   4.646
 2417SOL    HW1 8150   3.317   4.032   4.642
 2417SOL    HW2 8151   3.440   3.937   4.592
 2418SOL     OW 8152   4.136   3.349   4.357
 2418SOL    HW1 8153   4.072   3.354   4.280
 2418SOL    HW2 8154   4.209   3.285   4.335
 2419SOL     OW 8155   0.365   6.483   3.723
 2419SOL    HW1 8156   0.417   6.494   3.808
 2419SOL    HW2 8157   0.351   6.386   3.705
 2420SOL     OW 8158   3.144   0.436   2.969
 2420SOL    HW1 8159   3.190   0.463   3.054
 2420SOL    HW2 8160   3.058   0.486   2.962
 2421SOL     OW 8161   2.061   2.511   4.809
 2421SOL    HW1 8162   2.122   2.505   4.888
 2421SOL    HW2 8163   1.983   2.570   4.831
 2422SOL     OW 8164   5.102   2.075   0.382
 2422SOL    HW1 8165   5.028   2.032   0.331
 2422SOL    HW2 8166   5.189   2.055   0.338
 2423SOL     OW 8167   1.747   6.255   2.002
 2423SOL    HW1 8168   1.809   6.207   1.940
 2423SOL    HW2 8169   1.756   6.353   1.989
 2424SOL     OW 8170   6.504   6.806   0.319
 2424SOL    HW1 8171   6.556   6.720   0.320
 2424SOL    HW2 8172   6.434   6.803   0.390
 2425SOL     OW 8173   5.806   0.451   3.918
 2425SOL    HW1 8174   5.747   0.514   3.868
 2425SOL    HW2 8175   5.765   0.359   3.917
 2426SOL     OW 8176   1.465   5.417   5.620
 2426SOL    HW1 8177   1.543   5.430   5.559
 2426SOL    HW2 8178   1.446   5.320   5.630
 2427SOL     OW 8179   5.521   6.096   5.823
 2427SOL    HW1 8180   5.511   6.012   5.877
 2427SOL    HW2 8181   5.557   6.074   5.733
 2428SOL     OW 8182   0.729   0.696   1.830
 2428SOL    HW1 8183   0.713   0.667   1.735
 2428SOL    HW2 8184   0.824   0.677   1.855
 2429SOL     OW 8185   5.175   5.733   1.937
 2429SOL    HW1 8186   5.190   5.750   1.839
 2429SOL    HW2 8187   5.155   5.820   1.983
 2430SOL     OW 8188   6.215   1.122   2.044
 2430SOL    HW1 8189   6.197   1.054   1.973
 2430SOL    HW2 8190   6.254   1.077   2.125
 2431SOL     OW 8191   4.213   1.122   2.202
 2431SOL    HW1 8192   4.298   1.092   2.245
 2431SOL    HW2 8193   4.168   1.190   2.260
 2432SOL     OW 8194   4.242   6.563   2.100
 2432SOL    HW1 8195   4.185   6.633   2.143
 2432SOL    HW2 8196   4.184   6.498   2.051
 2433SOL     OW 8197   4.502   1.474   0.140
 2433SOL    HW1 8198   4.456   1.426   0.215
 2433SOL    HW2 8199   4.590   1.510   0.173
 2434SOL     OW 8200   3.904   1.032   5.667
 2434SOL    HW1 8201   3.988   1.086   5.672
 2434SOL    HW2 8202   3.926   0.938   5.644
 2435SOL     OW 8203   5.050   5.605   5.256
 2435SOL    HW1 8204   5.012   5.692   5.287
 2435SOL    HW2 8205   5.082   5.615   5.161
 2436SOL     OW 8206   1.840   6.012   6.345
 2436SOL    HW1 8207   1.798   5.996   6.434
 2436SOL    HW2 8208   1.891   6.098   6.348
 2437SOL     OW 8209   5.842   6.958   5.920
 2437SOL    HW1 8210   5.816   6.979   5.826
 2437SOL    HW2 8211   5.900   6.877   5.921
 2438SOL     OW 8212   3.256   2.504   0.613
 2438SOL    HW1 8213   3.279   2.407   0.612
 2438SOL    HW2 8214   3.333   2.557   0.578
 2439SOL     OW 8215   6.895   4.253   6.163
 2439SOL    HW1 8216   6.928   4.191   6.091
 2439SOL    HW2 8217   6.822   4.310   6.127
 2440SOL     OW 8218   5.016   5.515   5.861
 2440SOL    HW1 8219   4.927   5.523   5.818
 2440SOL    HW2 8220   5.061   5.431   5.830
 2441SOL     OW 8221   6.942   2.031   0.766
 2441SOL    HW1 8222   6.862   1.975   0.742
 2441SOL    HW2 8223   6.915   2.127   0.772
 2442SOL     OW 8224   0.975   3.698   5.150
 2442SOL    HW1 8225   1.039   3.626   5.124
 2442SOL    HW2 8226   0.939   3.680   5.241
 2443SOL     OW 8227   2.865   3.714   6.430
 2443SOL    HW1 8228   2.840   3.806   6.401
 2443SOL    HW2 8229   2.950   3.718   6.483
 2444SOL     OW 8230   2.270   4.431   6.163
 2444SOL    HW1 8231   2.367   4.434   6.139
 2444SOL    HW2 8232   2.221   4.374   6.097
 2445SOL     OW 8233   0.192   1.156   0.835
 2445SOL    HW1 8234   0.196   1.252   0.807
 2445SOL    HW2 8235   0.097   1.127   0.839
 2446SOL     OW 8236   5.636   4.413   4.574
 2446SOL    HW1 8237   5.614   4.510   4.559
 2446SOL    HW2 8238   5.552   4.362   4.592
 2447SOL     OW 8239   1.463   2.097   0.311
 2447SOL    HW1 8240   1.439   2.175   0.368
 2447SOL    HW2 8241   1.387   2.075   0.250
 2448SOL     OW 8242   0.614   0.054   4.840
 2448SOL    HW1 8243   0.586   0.123   4.773
 2448SOL    HW2 8244   0.695   0.006   4.807
 2449SOL     OW 8245   0.135   3.804   6.781
 2449SOL    HW1 8246   0.145   3.731   6.848
 2449SOL    HW2 8247   0.110   3.765   6.692
 2450SOL     OW 8248   2.733   4.652   2.664
 2450SOL    HW1 8249   2.740   4.670   2.566
 2450SOL    HW2 8250   2.650   4.599   2.683
 2451SOL     OW 8251   2.137   6.177   3.846
 2451SOL    HW1 8252   2.126   6.079   3.860
 2451SOL    HW2 8253   2.220   6.209   3.892
 2452SOL     OW 8254   1.202   3.538   2.828
 2452SOL    HW1 8255   1.155   3.450   2.836
 2452SOL    HW2 8256   1.228   3.554   2.733
 2453SOL     OW 8257   6.553   4.965   1.609
 2453SOL    HW1 8258   6.634   4.959   1.550
 2453SOL    HW2 8259   6.478   5.008   1.559
 2454SOL     OW 8260   3.420   0.635   1.756
 2454SOL    HW1 8261   3.440   0.566   1.686
 2454SOL    HW2 8262   3.329   0.674   1.738
 2455SOL     OW 8263   5.017   5.868   0.664
 2455SOL    HW1 8264   5.008   5.781   0.712
 2455SOL    HW2 8265   5.065   5.934   0.722
 2456SOL     OW 8266   4.880   6.273   1.841
 2456SOL    HW1 8267   4.942   6.346   1.870
 2456SOL    HW2 8268   4.850   6.221   1.921
 2457SOL     OW 8269   5.212   6.730   1.477
 2457SOL    HW1 8270   5.261   6.708   1.392
 2457SOL    HW2 8271   5.114   6.719   1.463
 2458SOL     OW 8272   1.319   5.282   2.565
 2458SOL    HW1 8273   1.325   5.368   2.616
 2458SOL    HW2 8274   1.222   5.257   2.554
 2459SOL     OW 8275   2.459   0.586   0.593
 2459SOL    HW1 8276   2.430   0.578   0.497
 2459SOL    HW2 8277   2.550   0.545   0.602
 2460SOL     OW 8278   3.282   5.994   1.636
 2460SOL    HW1 8279   3.232   5.927   1.581
 2460SOL    HW2 8280   3.251   5.989   1.731
 2461SOL     OW 8281   5.471   0.569   1.839
 2461SOL    HW1 8282   5.411   0.552   1.761
 2461SOL    HW2 8283   5.557   0.609   1.808
 2462SOL     OW 8284   2.367   5.393   6.730
 2462SOL    HW1 8285   2.355   5.478   6.781
 2462SOL    HW2 8286   2.292   5.383   6.665
 2463SOL     OW 8287   6.230   1.754   3.289
 2463SOL    HW1 8288   6.209   1.849   3.267
 2463SOL    HW2 8289   6.167   1.693   3.239
 2464SOL     OW 8290   0.715   3.419   0.947
 2464SOL    HW1 8291   0.696   3.326   0.976
 2464SOL    HW2 8292   0.777   3.462   1.012
 2465SOL     OW 8293   6.859   5.966   3.438
 2465SOL    HW1 8294   6.924   6.034   3.403
 2465SOL    HW2 8295   6.909   5.884   3.465
 2466SOL     OW 8296   3.576   1.608   2.324
 2466SOL    HW1 8297   3.517   1.573   2.397
 2466SOL    HW2 8298   3.576   1.708   2.328
 2467SOL     OW 8299   6.824   1.022   6.049
 2467SOL    HW1 8300   6.738   1.054   6.011
 2467SOL    HW2 8301   6.900   1.055   5.993
 2468SOL     OW 8302   6.808   5.522   1.200
 2468SOL    HW1 8303   6.817   5.520   1.100
 2468SOL    HW2 8304   6.836   5.434   1.237
 2469SOL     OW 8305   2.421   3.070   5.579
 2469SOL    HW1 8306   2.333   3.061   5.626
 2469SOL    HW2 8307   2.413   3.141   5.508
 2470SOL     OW 8308   4.773   2.953   6.996
 2470SOL    HW1 8309   4.764   2.979   0.073
 2470SOL    HW2 8310   4.863   2.980   6.962
 2471SOL     OW 8311   1.054   0.017   2.807
 2471SOL    HW1 8312   0.989   0.081   2.847
 2471SOL    HW2 8313   1.006   6.952   2.779
 2472SOL     OW 8314   5.431   1.815   4.010
 2472SOL    HW1 8315   5.492   1.881   3.967
 2472SOL    HW2 8316   5.349   1.862   4.043
 2473SOL     OW 8317   0.934   6.084   4.316
 2473SOL    HW1 8318   0.889   6.090   4.405
 2473SOL    HW2 8319   0.998   6.161   4.306
 2474SOL     OW 8320   6.888   4.394   5.178
 2474SOL    HW1 8321   6.826   4.470   5.202
 2474SOL    HW2 8322   6.884   4.325   5.250
 2475SOL     OW 8323   4.713   2.291   0.196
 2475SOL    HW1 8324   4.695   2.329   0.105
 2475SOL    HW2 8325   4.626   2.284   0.246
 2476SOL     OW 8326   1.308   1.978   3.994
 2476SOL    HW1 8327   1.308   2.002   4.092
 2476SOL    HW2 8328   1.319   2.061   3.940
 2477SOL     OW 8329   4.709   5.161   1.183
 2477SOL    HW1 8330   4.675   5.160   1.089
 2477SOL    HW2 8331   4.778   5.089   1.194
 2478SOL     OW 8332   6.646   6.928   2.871
 2478SOL    HW1 8333   6.684   6.971   2.953
 2478SOL    HW2 8334   6.623   6.998   2.804
 2479SOL     OW 8335   0.006   3.132   0.503
 2479SOL    HW1 8336   0.030   3.132   0.600
 2479SOL    HW2 8337   6.980   3.218   0.481
 2480SOL     OW 8338   0.539   3.428   1.241
 2480SOL    HW1 8339   0.486   3.512   1.229
 2480SOL    HW2 8340   0.632   3.451   1.270
 2481SOL     OW 8341   4.293   5.000   2.197
 2481SOL    HW1 8342   4.387   5.031   2.179
 2481SOL    HW2 8343   4.283   4.905   2.165
 2482SOL     OW 8344   4.963   2.410   4.759
 2482SOL    HW1 8345   4.929   2.466   4.835
 2482SOL    HW2 8346   4.944   2.314   4.778
 2483SOL     OW 8347   0.877   2.116   6.539
 2483SOL    HW1 8348   0.879   2.169   6.624
 2483SOL    HW2 8349   0.840   2.025   6.557
 2484SOL     OW 8350   3.448   1.928   0.004
 2484SOL    HW1 8351   3.506   1.976   0.071
 2484SOL    HW2 8352   3.395   1.995   6.971
 2485SOL     OW 8353   0.210   5.824   2.027
 2485SOL    HW1 8354   0.209   5.794   2.123
 2485SOL    HW2 8355   0.128   5.878   2.008
 2486SOL     OW 8356   1.668   5.220   3.287
 2486SOL    HW1 8357   1.744   5.285   3.291
 2486SOL    HW2 8358   1.584   5.264   3.319
 2487SOL     OW 8359   3.770   1.034   1.024
 2487SOL    HW1 8360   3.708   1.088   0.967
 2487SOL    HW2 8361   3.753   1.053   1.121
 2488SOL     OW 8362   2.937   6.139   0.453
 2488SOL    HW1 8363   2.893   6.111   0.368
 2488SOL    HW2 8364   2.872   6.193   0.507
 2489SOL     OW 8365   0.745   5.381   4.741
 2489SOL    HW1 8366   0.817   5.450   4.737
 2489SOL    HW2 8367   0.691   5.385   4.656
 2490SOL     OW 8368   5.227   3.405   1.452
 2490SOL    HW1 8369   5.254   3.313   1.426
 2490SOL    HW2 8370   5.188   3.403   1.545
 2491SOL     OW 8371   2.380   4.852   2.160
 2491SOL    HW1 8372   2.460   4.836   2.102
 2491SOL    HW2 8373   2.310   4.784   2.139
 2492SOL     OW 8374   4.512   3.452   6.767
 2492SOL    HW1 8375   4.541   3.369   6.719
 2492SOL    HW2 8376   4.453   3.428   6.844
 2493SOL     OW 8377   6.499   1.760   3.321
 2493SOL    HW1 8378   6.406   1.752   3.285
 2493SOL    HW2 8379   6.553   1.682   3.290
 2494SOL     OW 8380   4.978   3.500   2.372
 2494SOL    HW1 8381   4.956   3.578   2.314
 2494SOL    HW2 8382   5.036   3.436   2.322
 2495SOL     OW 8383   5.821   1.174   4.655
 2495SOL    HW1 8384   5.777   1.154   4.743
 2495SOL    HW2 8385   5.827   1.274   4.644
 2496SOL     OW 8386   1.458   6.447   0.417
 2496SOL    HW1 8387   1.553   6.469   0.437
 2496SOL    HW2 8388   1.453   6.391   0.334
 2497SOL     OW 8389   5.650   1.617   5.945
 2497SOL    HW1 8390   5.713   1.689   5.973
 2497SOL    HW2 8391   5.600   1.646   5.863
 2498SOL     OW 8392   1.838   3.675   4.993
 2498SOL    HW1 8393   1.782   3.594   4.981
 2498SOL    HW2 8394   1.913   3.655   5.055
 2499SOL     OW 8395   5.943   6.969   5.135
 2499SOL    HW1 8396   6.041   6.969   5.117
 2499SOL    HW2 8397   5.910   0.044   5.143
 2500SOL     OW 8398   4.389   3.361   7.006
 2500SOL    HW1 8399   4.292   3.362   6.981
 2500SOL    HW2 8400   4.412   3.274   0.031
 2501SOL     OW 8401   6.965   4.378   6.970
 2501SOL    HW1 8402   6.990   4.345   6.879
 2501SOL    HW2 8403   0.024   4.370   0.012
 2502SOL     OW 8404   1.974   6.189   3.258
 2502SOL    HW1 8405   1.926   6.112   3.215
 2502SOL    HW2 8406   1.931   6.275   3.230
 2503SOL     OW 8407   4.472   5.097   5.072
 2503SOL    HW1 8408   4.478   5.028   5.144
 2503SOL    HW2 8409   4.551   5.158   5.077
 2504SOL     OW 8410   1.506   4.219   4.211
 2504SOL    HW1 8411   1.426   4.279   4.202
 2504SOL    HW2 8412   1.580   4.253   4.153
 2505SOL     OW 8413   4.755   5.625   3.905
 2505SOL    HW1 8414   4.796   5.623   3.814
 2505SOL    HW2 8415   4.701   5.542   3.919
 2506SOL     OW 8416   0.293   2.090   6.618
 2506SOL    HW1 8417   0.335   2.141   6.693
 2506SOL    HW2 8418   0.213   2.040   6.653
 2507SOL     OW 8419   6.761   6.244   0.264
 2507SOL    HW1 8420   6.792   6.203   0.350
 2507SOL    HW2 8421   6.817   6.324   0.243
 2508SOL     OW 8422   2.159   2.523   2.686
 2508SOL    HW1 8423   2.242   2.467   2.689
 2508SOL    HW2 8424   2.083   2.466   2.654
 2509SOL     OW 8425   5.104   2.756   3.540
 2509SOL    HW1 8426   5.113   2.675   3.597
 2509SOL    HW2 8427   5.053   2.733   3.457
 2510SOL     OW 8428   4.129   5.851   0.668
 2510SOL    HW1 8429   4.117   5.936   0.720
 2510SOL    HW2 8430   4.227   5.836   0.651
 2511SOL     OW 8431   1.696   0.117   4.865
 2511SOL    HW1 8432   1.624   0.055   4.897
 2511SOL    HW2 8433   1.665   0.161   4.781
 2512SOL     OW 8434   4.841   3.062   4.857
 2512SOL    HW1 8435   4.891   3.029   4.777
 2512SOL    HW2 8436   4.789   3.144   4.833
 2513SOL     OW 8437   0.725   3.619   0.625
 2513SOL    HW1 8438   0.816   3.599   0.662
 2513SOL    HW2 8439   0.732   3.637   0.527
 2514SOL     OW 8440   1.751   1.160   3.571
 2514SOL    HW1 8441   1.797   1.085   3.524
 2514SOL    HW2 8442   1.784   1.247   3.536
 2515SOL     OW 8443   0.849   5.031   0.368
 2515SOL    HW1 8444   0.755   5.009   0.342
 2515SOL    HW2 8445   0.905   5.038   0.285
 2516SOL     OW 8446   5.208   6.155   3.955
 2516SOL    HW1 8447   5.174   6.075   3.906
 2516SOL    HW2 8448   5.202   6.235   3.895
 2517SOL     OW 8449   2.137   4.701   0.207
 2517SOL    HW1 8450   2.217   4.674   0.153
 2517SOL    HW2 8451   2.055   4.658   0.169
 2518SOL     OW 8452   2.560   1.988   6.731
 2518SOL    HW1 8453   2.599   2.031   6.650
 2518SOL    HW2 8454   2.493   2.049   6.773
 2519SOL     OW 8455   4.868   3.997   4.390
 2519SOL    HW1 8456   4.855   3.898   4.377
 2519SOL    HW2 8457   4.876   4.016   4.488
 2520SOL     OW 8458   2.120   4.550   2.353
 2520SOL    HW1 8459   2.136   4.605   2.271
 2520SOL    HW2 8460   2.207   4.513   2.386
 2521SOL     OW 8461   5.814   6.476   5.156
 2521SOL    HW1 8462   5.852   6.567   5.139
 2521SOL    HW2 8463   5.841   6.445   5.248
 2522SOL     OW 8464   1.460   3.106   5.048
 2522SOL    HW1 8465   1.480   3.200   5.073
 2522SOL    HW2 8466   1.448   3.100   4.949
 2523SOL     OW 8467   0.570   3.096   6.739
 2523SOL    HW1 8468   0.524   3.174   6.782
 2523SOL    HW2 8469   0.519   3.013   6.760
 2524SOL     OW 8470   0.767   6.941   5.204
 2524SOL    HW1 8471   0.674   6.906   5.199
 2524SOL    HW2 8472   0.830   6.877   5.159
 2525SOL     OW 8473   1.510   3.781   3.155
 2525SOL    HW1 8474   1.429   3.797   3.099
 2525SOL    HW2 8475   1.592   3.788   3.098
 2526SOL     OW 8476   6.763   1.243   5.358
 2526SOL    HW1 8477   6.712   1.171   5.405
 2526SOL    HW2 8478   6.785   1.317   5.422
 2527SOL     OW 8479   5.893   6.423   4.042
 2527SOL    HW1 8480   5.881   6.358   4.117
 2527SOL    HW2 8481   5.861   6.382   3.957
 2528SOL     OW 8482   6.616   5.944   0.279
 2528SOL    HW1 8483   6.527   5.990   0.288
 2528SOL    HW2 8484   6.683   6.010   0.243
 2529SOL     OW 8485   4.987   3.642   4.567
 2529SOL    HW1 8486   4.966   3.681   4.656
 2529SOL    HW2 8487   5.077   3.599   4.569
 2530SOL     OW 8488   0.094   0.734   4.577
 2530SOL    HW1 8489   0.181   0.748   4.625
 2530SOL    HW2 8490   0.028   0.802   4.608
 2531SOL     OW 8491   4.452   1.531   6.371
 2531SOL    HW1 8492   4.420   1.482   6.291
 2531SOL    HW2 8493   4.374   1.554   6.430
 2532SOL     OW 8494   1.568   4.653   6.597
 2532SOL    HW1 8495   1.661   4.628   6.621
 2532SOL    HW2 8496   1.552   4.634   6.500
 2533SOL     OW 8497   5.984   6.861   5.487
 2533SOL    HW1 8498   5.998   6.948   5.439
 2533SOL    HW2 8499   6.053   6.795   5.457
 2534SOL     OW 8500   0.739   2.560   3.921
 2534SOL    HW1 8501   0.829   2.531   3.952
 2534SOL    HW2 8502   0.741   2.581   3.824
 2535SOL     OW 8503   2.104   1.151   2.994
 2535SOL    HW1 8504   2.103   1.250   3.008
 2535SOL    HW2 8505   2.012   1.120   2.971
 2536SOL     OW 8506   6.115   0.870   4.089
 2536SOL    HW1 8507   6.213   0.888   4.081
 2536SOL    HW2 8508   6.097   0.774   4.070
 2537SOL     OW 8509   4.540   5.367   1.345
 2537SOL    HW1 8510   4.594   5.306   1.287
 2537SOL    HW2 8511   4.550   5.339   1.441
 2538SOL     OW 8512   2.376   4.562   5.060
 2538SOL    HW1 8513   2.317   4.609   5.125
 2538SOL    HW2 8514   2.363   4.463   5.069
 2539SOL     OW 8515   2.639   0.032   5.216
 2539SOL    HW1 8516   2.626   6.952   5.221
 2539SOL    HW2 8517   2.565   0.073   5.162
 2540SOL     OW 8518   5.899   1.972   2.289
 2540SOL    HW1 8519   5.898   1.926   2.200
 2540SOL    HW2 8520   5.993   1.994   2.314
 2541SOL     OW 8521   1.442   6.438   6.085
 2541SOL    HW1 8522   1.461   6.376   6.009
 2541SOL    HW2 8523   1.501   6.518   6.079
 2542SOL     OW 8524   3.765   2.101   4.368
 2542SOL    HW1 8525   3.828   2.158   4.316
 2542SOL    HW2 8526   3.781   2.113   4.466
 2543SOL     OW 8527   0.536   1.877   4.397
 2543SOL    HW1 8528   0.440   1.856   4.381
 2543SOL    HW2 8529   0.543   1.950   4.466
 2544SOL     OW 8530   6.408   5.575   2.090
 2544SOL    HW1 8531   6.324   5.549   2.043
 2544SOL    HW2 8532   6.486   5.539   2.040
 2545SOL     OW 8533   7.018   1.621   1.292
 2545SOL    HW1 8534   0.078   1.597   1.235
 2545SOL    HW2 8535   0.025   1.696   1.353
 2546SOL     OW 8536   6.814   4.245   2.777
 2546SOL    HW1 8537   6.817   4.345   2.773
 2546SOL    HW2 8538   6.738   4.211   2.722
 2547SOL     OW 8539   6.166   3.304   1.137
 2547SOL    HW1 8540   6.228   3.343   1.069
 2547SOL    HW2 8541   6.208   3.312   1.228
 2548SOL     OW 8542   0.036   6.710   5.582
 2548SOL    HW1 8543   0.103   6.686   5.653
 2548SOL    HW2 8544   7.018   6.801   5.601
 2549SOL     OW 8545   2.496   2.468   0.532
 2549SOL    HW1 8546   2.495   2.483   0.433
 2549SOL    HW2 8547   2.557   2.535   0.575
 2550SOL     OW 8548   3.912   6.468   6.142
 2550SOL    HW1 8549   3.840   6.525   6.101
 2550SOL    HW2 8550   3.913   6.379   6.097
 2551SOL     OW 8551   3.516   5.239   0.516
 2551SOL    HW1 8552   3.571   5.318   0.541
 2551SOL    HW2 8553   3.548   5.159   0.567
 2552SOL     OW 8554   2.624   6.102   0.973
 2552SOL    HW1 8555   2.578   6.014   0.974
 2552SOL    HW2 8556   2.557   6.174   0.954
 2553SOL     OW 8557   4.509   1.399   6.899
 2553SOL    HW1 8558   4.604   1.406   6.868
 2553SOL    HW2 8559   4.502   1.435   6.992
 2554SOL     OW 8560   1.662   6.180   1.690
 2554SOL    HW1 8561   1.671   6.276   1.667
 2554SOL    HW2 8562   1.752   6.138   1.696
 2555SOL     OW 8563   5.689   6.498   4.911
 2555SOL    HW1 8564   5.739   6.465   4.991
 2555SOL    HW2 8565   5.595   6.464   4.913
 2556SOL     OW 8566   4.101   0.728   0.871
 2556SOL    HW1 8567   4.089   0.654   0.805
 2556SOL    HW2 8568   4.012   0.769   0.891
 2557SOL     OW 8569   3.457   0.157   6.929
 2557SOL    HW1 8570   3.455   0.069   6.977
 2557SOL    HW2 8571   3.550   0.177   6.900
 2558SOL     OW 8572   5.511   3.666   6.527
 2558SOL    HW1 8573   5.430   3.666   6.469
 2558SOL    HW2 8574   5.590   3.699   6.475
 2559SOL     OW 8575   1.135   4.601   4.885
 2559SOL    HW1 8576   1.113   4.566   4.794
 2559SOL    HW2 8577   1.113   4.532   4.954
 2560SOL     OW 8578   5.251   2.466   3.371
 2560SOL    HW1 8579   5.280   2.561   3.382
 2560SOL    HW2 8580   5.283   2.432   3.283
 2561SOL     OW 8581   3.252   0.277   4.150
 2561SOL    HW1 8582   3.340   0.303   4.112
 2561SOL    HW2 8583   3.179   0.315   4.094
 2562SOL     OW 8584   4.024   6.580   3.582
 2562SOL    HW1 8585   4.011   6.486   3.551
 2562SOL    HW2 8586   4.076   6.580   3.667
 2563SOL     OW 8587   3.528   1.594   0.426
 2563SOL    HW1 8588   3.451   1.602   0.362
 2563SOL    HW2 8589   3.537   1.679   0.478
 2564SOL     OW 8590   2.253   1.651   0.596
 2564SOL    HW1 8591   2.297   1.576   0.645
 2564SOL    HW2 8592   2.316   1.728   0.588
 2565SOL     OW 8593   1.269   1.811   0.172
 2565SOL    HW1 8594   1.265   1.895   0.119
 2565SOL    HW2 8595   1.223   1.824   0.260
 2566SOL     OW 8596   2.435   1.128   0.983
 2566SOL    HW1 8597   2.364   1.171   0.927
 2566SOL    HW2 8598   2.520   1.123   0.931
 2567SOL     OW 8599   1.884   0.245   0.360
 2567SOL    HW1 8600   1.825   0.311   0.313
 2567SOL    HW2 8601   1.829   0.170   0.396
 2568SOL     OW 8602   3.180   6.321   1.028
 2568SOL    HW1 8603   3.229   6.290   0.946
 2568SOL    HW2 8604   3.146   6.415   1.013
 2569SOL     OW 8605   1.208   0.308   1.238
 2569SOL    HW1 8606   1.148   0.297   1.317
 2569SOL    HW2 8607   1.234   0.218   1.203
 2570SOL     OW 8608   6.358   6.866   5.772
 2570SOL    HW1 8609   6.274   6.918   5.759
 2570SOL    HW2 8610   6.430   6.902   5.713
 2571SOL     OW 8611   3.684   3.216   4.338
 2571SOL    HW1 8612   3.611   3.149   4.342
 2571SOL    HW2 8613   3.772   3.170   4.335
 2572SOL     OW 8614   1.812   6.673   1.809
 2572SOL    HW1 8615   1.861   6.752   1.844
 2572SOL    HW2 8616   1.743   6.703   1.743
 2573SOL     OW 8617   6.916   2.229   4.433
 2573SOL    HW1 8618   6.871   2.199   4.349
 2573SOL    HW2 8619   6.963   2.316   4.415
 2574SOL     OW 8620   0.811   3.478   1.814
 2574SOL    HW1 8621   0.743   3.406   1.802
 2574SOL    HW2 8622   0.822   3.529   1.729
 2575SOL     OW 8623   6.169   3.705   0.410
 2575SOL    HW1 8624   6.166   3.639   0.485
 2575SOL    HW2 8625   6.125   3.666   0.330
 2576SOL     OW 8626   1.712   6.937   3.554
 2576SOL    HW1 8627   1.797   6.925   3.503
 2576SOL    HW2 8628   1.728   6.915   3.650
 2577SOL     OW 8629   2.619   6.159   1.706
 2577SOL    HW1 8630   2.547   6.216   1.744
 2577SOL    HW2 8631   2.705   6.178   1.753
 2578SOL     OW 8632   4.825   2.299   4.274
 2578SOL    HW1 8633   4.747   2.250   4.313
 2578SOL    HW2 8634   4.855   2.253   4.190
 2579SOL     OW 8635   6.993   2.438   6.558
 2579SOL    HW1 8636   7.014   2.409   6.465
 2579SOL    HW2 8637   6.945   2.526   6.556
 2580SOL     OW 8638   1.709   2.479   6.066
 2580SOL    HW1 8639   1.768   2.507   5.990
 2580SOL    HW2 8640   1.761   2.418   6.126
 2581SOL     OW 8641   6.406   6.580   3.846
 2581SOL    HW1 8642   6.421   6.562   3.943
 2581SOL    HW2 8643   6.459   6.660   3.818
 2582SOL     OW 8644   0.565   5.668   2.654
 2582SOL    HW1 8645   0.528   5.761   2.652
 2582SOL    HW2 8646   0.513   5.609   2.592
 2583SOL     OW 8647   1.646   0.365   0.543
 2583SOL    HW1 8648   1.658   0.413   0.456
 2583SOL    HW2 8649   1.646   0.267   0.527
 2584SOL     OW 8650   4.734   6.730   2.204
 2584SOL    HW1 8651   4.781   6.754   2.288
 2584SOL    HW2 8652   4.656   6.672   2.225
 2585SOL     OW 8653   3.754   0.867   1.453
 2585SOL    HW1 8654   3.786   0.944   1.509
 2585SOL    HW2 8655   3.711   0.799   1.512
 2586SOL     OW 8656   6.396   2.486   4.121
 2586SOL    HW1 8657   6.412   2.510   4.025
 2586SOL    HW2 8658   6.382   2.387   4.130
 2587SOL     OW 8659   5.710   6.395   3.302
 2587SOL    HW1 8660   5.757   6.386   3.214
 2587SOL    HW2 8661   5.774   6.376   3.376
 2588SOL     OW 8662   5.775   1.494   1.382
 2588SOL    HW1 8663   5.720   1.445   1.315
 2588SOL    HW2 8664   5.797   1.432   1.458
 2589SOL     OW 8665   6.779   6.876   6.819
 2589SOL    HW1 8666   6.732   6.802   6.770
 2589SOL    HW2 8667   6.731   6.894   6.906
 2590SOL     OW 8668   4.351   6.617   2.615
 2590SOL    HW1 8669   4.306   6.592   2.700
 2590SOL    HW2 8670   4.435   6.563   2.605
 2591SOL     OW 8671   5.748   6.828   1.264
 2591SOL    HW1 8672   5.699   6.828   1.176
 2591SOL    HW2 8673   5.841   6.793   1.250
 2592SOL     OW 8674   3.744   5.772   1.774
 2592SOL    HW1 8675   3.811   5.727   1.716
 2592SOL    HW2 8676   3.671   5.810   1.717
 2593SOL     OW 8677   2.818   6.274   2.297
 2593SOL    HW1 8678   2.726   6.275   2.259
 2593SOL    HW2 8679   2.817   6.314   2.388
 2594SOL     OW 8680   1.502   6.750   6.136
 2594SOL    HW1 8681   1.566   6.731   6.062
 2594SOL    HW2 8682   1.410   6.726   6.107
 2595SOL     OW 8683   6.187   3.423   4.073
 2595SOL    HW1 8684   6.165   3.398   4.167
 2595SOL    HW2 8685   6.229   3.513   4.071
 2596SOL     OW 8686   3.933   2.123   2.098
 2596SOL    HW1 8687   4.018   2.132   2.045
 2596SOL    HW2 8688   3.861   2.177   2.055
 2597SOL     OW 8689   2.331   2.789   0.072
 2597SOL    HW1 8690   2.401   2.816   0.006
 2597SOL    HW2 8691   2.284   2.707   0.038
 2598SOL     OW 8692   6.603   3.344   3.457
 2598SOL    HW1 8693   6.595   3.244   3.464
 2598SOL    HW2 8694   6.685   3.374   3.507
 2599SOL     OW 8695   4.106   5.476   6.890
 2599SOL    HW1 8696   4.020   5.434   6.860
 2599SOL    HW2 8697   4.090   5.572   6.913
 2600SOL     OW 8698   6.466   3.582   3.378
 2600SOL    HW1 8699   6.506   3.509   3.433
 2600SOL    HW2 8700   6.532   3.657   3.368
 2601SOL     OW 8701   4.045   2.950   5.985
 2601SOL    HW1 8702   4.023   3.027   6.045
 2601SOL    HW2 8703   3.979   2.946   5.910
 2602SOL     OW 8704   6.396   5.374   4.111
 2602SOL    HW1 8705   6.340   5.399   4.190
 2602SOL    HW2 8706   6.443   5.288   4.129
 2603SOL     OW 8707   3.423   2.847   1.194
 2603SOL    HW1 8708   3.469   2.759   1.177
 2603SOL    HW2 8709   3.336   2.831   1.240
 2604SOL     OW 8710   6.033   0.109   1.192
 2604SOL    HW1 8711   6.080   0.033   1.238
 2604SOL    HW2 8712   6.053   0.105   1.094
 2605SOL     OW 8713   4.757   4.918   4.255
 2605SOL    HW1 8714   4.784   4.918   4.352
 2605SOL    HW2 8715   4.803   4.843   4.208
 2606SOL     OW 8716   0.058   4.981   0.543
 2606SOL    HW1 8717   0.117   4.937   0.610
 2606SOL    HW2 8718   6.983   4.947   0.554
 2607SOL     OW 8719   0.289   0.874   4.090
 2607SOL    HW1 8720   0.257   0.867   4.185
 2607SOL    HW2 8721   0.388   0.859   4.087
 2608SOL     OW 8722   4.940   0.446   1.479
 2608SOL    HW1 8723   5.015   0.507   1.506
 2608SOL    HW2 8724   4.852   0.491   1.498
 2609SOL     OW 8725   0.914   2.385   2.978
 2609SOL    HW1 8726   0.925   2.471   2.928
 2609SOL    HW2 8727   0.965   2.313   2.933
 2610SOL     OW 8728   5.823   5.785   4.790
 2610SOL    HW1 8729   5.748   5.850   4.805
 2610SOL    HW2 8730   5.785   5.693   4.779
 2611SOL     OW 8731   4.282   6.402   1.494
 2611SOL    HW1 8732   4.270   6.491   1.538
 2611SOL    HW2 8733   4.217   6.337   1.532
 2612SOL     OW 8734   6.218   6.416   3.708
 2612SOL    HW1 8735   6.288   6.486   3.727
 2612SOL    HW2 8736   6.153   6.451   3.642
 2613SOL     OW 8737   4.033   0.458   1.787
 2613SOL    HW1 8738   3.970   0.535   1.782
 2613SOL    HW2 8739   4.062   0.432   1.695
 2614SOL     OW 8740   6.975   6.611   6.550
 2614SOL    HW1 8741   6.914   6.691   6.547
 2614SOL    HW2 8742   6.925   6.529   6.524
 2615SOL     OW 8743   5.117   5.223   2.062
 2615SOL    HW1 8744   5.154   5.241   2.153
 2615SOL    HW2 8745   5.186   5.177   2.006
 2616SOL     OW 8746   4.162   3.476   3.037
 2616SOL    HW1 8747   4.138   3.417   3.114
 2616SOL    HW2 8748   4.260   3.492   3.037
 2617SOL     OW 8749   4.164   0.001   1.044
 2617SOL    HW1 8750   4.222   7.015   1.125
 2617SOL    HW2 8751   4.087   0.062   1.061
 2618SOL     OW 8752   1.164   0.461   0.622
 2618SOL    HW1 8753   1.122   0.544   0.585
 2618SOL    HW2 8754   1.131   0.445   0.715
 2619SOL     OW 8755   4.573   2.491   1.498
 2619SOL    HW1 8756   4.545   2.493   1.594
 2619SOL    HW2 8757   4.557   2.400   1.460
 2620SOL     OW 8758   1.347   4.196   4.525
 2620SOL    HW1 8759   1.370   4.198   4.428
 2620SOL    HW2 8760   1.256   4.235   4.539
 2621SOL     OW 8761   0.716   5.307   3.728
 2621SOL    HW1 8762   0.688   5.224   3.679
 2621SOL    HW2 8763   0.813   5.301   3.751
 2622SOL     OW 8764   2.386   2.652   6.525
 2622SOL    HW1 8765   2.348   2.589   6.458
 2622SOL    HW2 8766   2.399   2.742   6.484
 2623SOL     OW 8767   2.809   0.891   5.448
 2623SOL    HW1 8768   2.867   0.844   5.382
 2623SOL    HW2 8769   2.756   0.962   5.402
 2624SOL     OW 8770   6.076   1.677   3.705
 2624SOL    HW1 8771   6.137   1.655   3.781
 2624SOL    HW2 8772   6.083   1.775   3.684
 2625SOL     OW 8773   3.107   1.824   5.911
 2625SOL    HW1 8774   3.082   1.753   5.977
 2625SOL    HW2 8775   3.132   1.781   5.824
 2626SOL     OW 8776   2.024   6.397   2.970
 2626SOL    HW1 8777   2.121   6.412   2.993
 2626SOL    HW2 8778   2.012   6.404   2.871
 2627SOL     OW 8779   6.694   0.158   4.708
 2627SOL    HW1 8780   6.763   0.086   4.714
 2627SOL    HW2 8781   6.629   0.148   4.784
 2628SOL     OW 8782   3.890   6.137   6.426
 2628SOL    HW1 8783   3.863   6.103   6.515
 2628SOL    HW2 8784   3.883   6.237   6.424
 2629SOL     OW 8785   3.399   4.074   1.274
 2629SOL    HW1 8786   3.392   4.050   1.371
 2629SOL    HW2 8787   3.321   4.036   1.225
 2630SOL     OW 8788   2.466   2.338   2.352
 2630SOL    HW1 8789   2.416   2.415   2.312
 2630SOL    HW2 8790   2.537   2.308   2.288
 2631SOL     OW 8791   4.561   6.226   4.206
 2631SOL    HW1 8792   4.497   6.293   4.170
 2631SOL    HW2 8793   4.551   6.220   4.306
 2632SOL     OW 8794   3.784   2.639   0.344
 2632SOL    HW1 8795   3.783   2.628   0.443
 2632SOL    HW2 8796   3.694   2.669   0.312
 2633SOL     OW 8797   5.382   2.076   6.701
 2633SOL    HW1 8798   5.386   2.090   6.602
 2633SOL    HW2 8799   5.407   2.161   6.747
 2634SOL     OW 8800   1.920   4.494   0.751
 2634SOL    HW1 8801   1.989   4.491   0.679
 2634SOL    HW2 8802   1.943   4.426   0.821
 2635SOL     OW 8803   5.541   4.623   4.897
 2635SOL    HW1 8804   5.568   4.534   4.934
 2635SOL    HW2 8805   5.615   4.689   4.911
 2636SOL     OW 8806   5.434   0.209   5.279
 2636SOL    HW1 8807   5.469   0.296   5.312
 2636SOL    HW2 8808   5.346   0.223   5.234
 2637SOL     OW 8809   5.711   6.677   2.943
 2637SOL    HW1 8810   5.633   6.615   2.947
 2637SOL    HW2 8811   5.787   6.633   2.895
 2638SOL     OW 8812   5.721   6.077   0.527
 2638SOL    HW1 8813   5.768   5.996   0.489
 2638SOL    HW2 8814   5.764   6.159   0.490
 2639SOL     OW 8815   6.127   6.077   0.460
 2639SOL    HW1 8816   6.181   6.037   0.533
 2639SOL    HW2 8817   6.114   6.175   0.478
 2640SOL     OW 8818   6.801   6.171   5.463
 2640SOL    HW1 8819   6.815   6.245   5.397
 2640SOL    HW2 8820   6.754   6.207   5.543
 2641SOL     OW 8821   4.992   4.404   0.342
 2641SOL    HW1 8822   5.070   4.458   0.375
 2641SOL    HW2 8823   5.025   4.315   0.310
 2642SOL     OW 8824   5.220   0.258   3.957
 2642SOL    HW1 8825   5.167   0.179   3.926
 2642SOL    HW2 8826   5.212   0.332   3.890
 2643SOL     OW 8827   0.480   0.506   2.535
 2643SOL    HW1 8828   0.535   0.474   2.457
 2643SOL    HW2 8829   0.476   0.606   2.533
 2644SOL     OW 8830   0.580   4.299   6.201
 2644SOL    HW1 8831   0.548   4.393   6.208
 2644SOL    HW2 8832   0.669   4.290   6.247
 2645SOL     OW 8833   5.766   6.077   6.410
 2645SOL    HW1 8834   5.730   6.113   6.496
 2645SOL    HW2 8835   5.743   6.139   6.335
 2646SOL     OW 8836   6.445   6.746   6.811
 2646SOL    HW1 8837   6.395   6.786   6.888
 2646SOL    HW2 8838   6.522   6.693   6.845
 2647SOL     OW 8839   3.862   2.283   1.471
 2647SOL    HW1 8840   3.827   2.255   1.560
 2647SOL    HW2 8841   3.924   2.361   1.483
 2648SOL     OW 8842   5.425   0.383   2.306
 2648SOL    HW1 8843   5.380   0.318   2.367
 2648SOL    HW2 8844   5.506   0.339   2.265
 2649SOL     OW 8845   3.551   1.909   6.113
 2649SOL    HW1 8846   3.634   1.857   6.132
 2649SOL    HW2 8847   3.530   1.968   6.191
 2650SOL     OW 8848   0.412   6.193   2.840
 2650SOL    HW1 8849   0.425   6.222   2.934
 2650SOL    HW2 8850   0.363   6.105   2.839
 2651SOL     OW 8851   6.307   1.258   2.493
 2651SOL    HW1 8852   6.217   1.224   2.465
 2651SOL    HW2 8853   6.375   1.230   2.425
 2652SOL     OW 8854   3.689   3.223   2.874
 2652SOL    HW1 8855   3.781   3.232   2.835
 2652SOL    HW2 8856   3.656   3.130   2.861
 2653SOL     OW 8857   6.526   6.872   5.972
 2653SOL    HW1 8858   6.466   6.865   5.892
 2653SOL    HW2 8859   6.590   6.947   5.959
 2654SOL     OW 8860   5.758   2.933   5.757
 2654SOL    HW1 8861   5.740   2.835   5.752
 2654SOL    HW2 8862   5.679   2.980   5.797
 2655SOL     OW 8863   5.031   6.391   4.269
 2655SOL    HW1 8864   5.000   6.396   4.364
 2655SOL    HW2 8865   4.973   6.327   4.219
 2656SOL     OW 8866   5.303   3.581   3.565
 2656SOL    HW1 8867   5.289   3.663   3.621
 2656SOL    HW2 8868   5.393   3.543   3.584
 2657SOL     OW 8869   1.706   3.986   6.677
 2657SOL    HW1 8870   1.687   4.084   6.665
 2657SOL    HW2 8871   1.629   3.942   6.724
 2658SOL     OW 8872   6.197   3.953   6.042
 2658SOL    HW1 8873   6.258   3.931   5.966
 2658SOL    HW2 8874   6.236   4.027   6.096
 2659SOL     OW 8875   6.944   2.522   4.357
 2659SOL    HW1 8876   0.004   2.543   4.299
 2659SOL    HW2 8877   6.861   2.524   4.301
 2660SOL     OW 8878   0.006   2.405   2.681
 2660SOL    HW1 8879   0.098   2.367   2.672
 2660SOL    HW2 8880   6.961   2.349   2.628
 2661SOL     OW 8881   3.894   6.566   1.173
 2661SOL    HW1 8882   3.983   6.549   1.132
 2661SOL    HW2 8883   3.906   6.613   1.261
 2662SOL     OW 8884   4.077   6.586   4.188
 2662SOL    HW1 8885   4.042   6.563   4.279
 2662SOL    HW2 8886   4.005   6.572   4.120
 2663SOL     OW 8887   1.612   4.169   2.487
 2663SOL    HW1 8888   1.695   4.178   2.543
 2663SOL    HW2 8889   1.552   4.247   2.503
 2664SOL     OW 8890   4.080   3.651   2.382
 2664SOL    HW1 8891   4.011   3.582   2.365
 2664SOL    HW2 8892   4.118   3.638   2.474
 2665SOL     OW 8893   3.677   1.244   4.485
 2665SOL    HW1 8894   3.638   1.325   4.440
 2665SOL    HW2 8895   3.704   1.177   4.416
 2666SOL     OW 8896   5.515   4.646   1.067
 2666SOL    HW1 8897   5.488   4.579   1.136
 2666SOL    HW2 8898   5.434   4.675   1.015
 2667SOL     OW 8899   2.529   5.665   4.263
 2667SOL    HW1 8900   2.450   5.616   4.226
 2667SOL    HW2 8901   2.537   5.647   4.361
 2668SOL     OW 8902   0.125   3.100   5.509
 2668SOL    HW1 8903   0.188   3.178   5.515
 2668SOL    HW2 8904   0.049   3.114   5.571
 2669SOL     OW 8905   4.522   4.914   5.411
 2669SOL    HW1 8906   4.616   4.920   5.376
 2669SOL    HW2 8907   4.517   4.960   5.499
 2670SOL     OW 8908   1.235   1.471   6.725
 2670SOL    HW1 8909   1.265   1.402   6.791
 2670SOL    HW2 8910   1.163   1.432   6.667
 2671SOL     OW 8911   2.415   3.227   6.294
 2671SOL    HW1 8912   2.487   3.169   6.257
 2671SOL    HW2 8913   2.331   3.215   6.241
 2672SOL     OW 8914   1.908   5.616   1.089
 2672SOL    HW1 8915   1.980   5.624   1.158
 2672SOL    HW2 8916   1.944   5.646   1.001
 2673SOL     OW 8917   3.746   2.136   2.951
 2673SOL    HW1 8918   3.762   2.223   2.904
 2673SOL    HW2 8919   3.740   2.062   2.884
 2674SOL     OW 8920   6.160   4.921   4.914
 2674SOL    HW1 8921   6.251   4.925   4.874
 2674SOL    HW2 8922   6.098   4.874   4.851
 2675SOL     OW 8923   0.161   4.577   5.642
 2675SOL    HW1 8924   0.196   4.502   5.586
 2675SOL    HW2 8925   0.192   4.664   5.605
 2676SOL     OW 8926   4.430   1.456   1.678
 2676SOL    HW1 8927   4.507   1.395   1.695
 2676SOL    HW2 8928   4.376   1.420   1.601
 2677SOL     OW 8929   2.402   4.977   1.564
 2677SOL    HW1 8930   2.359   5.063   1.592
 2677SOL    HW2 8931   2.331   4.907   1.552
 2678SOL     OW 8932   0.401   5.119   6.147
 2678SOL    HW1 8933   0.420   5.129   6.050
 2678SOL    HW2 8934   0.348   5.036   6.163
 2679SOL     OW 8935   3.375   4.873   0.928
 2679SOL    HW1 8936   3.474   4.883   0.933
 2679SOL    HW2 8937   3.333   4.913   1.010
 2680SOL     OW 8938   1.733   1.084   1.696
 2680SOL    HW1 8939   1.734   1.001   1.640
 2680SOL    HW2 8940   1.827   1.116   1.710
 2681SOL     OW 8941   1.540   2.770   3.197
 2681SOL    HW1 8942   1.506   2.725   3.115
 2681SOL    HW2 8943   1.639   2.762   3.202
 2682SOL     OW 8944   5.703   2.664   2.504
 2682SOL    HW1 8945   5.616   2.680   2.459
 2682SOL    HW2 8946   5.774   2.647   2.436
 2683SOL     OW 8947   0.957   5.707   1.313
 2683SOL    HW1 8948   1.015   5.660   1.245
 2683SOL    HW2 8949   1.010   5.779   1.358
 2684SOL     OW 8950   2.220   6.248   3.370
 2684SOL    HW1 8951   2.213   6.339   3.412
 2684SOL    HW2 8952   2.148   6.237   3.302
 2685SOL     OW 8953   5.094   6.084   5.071
 2685SOL    HW1 8954   5.053   6.057   5.158
 2685SOL    HW2 8955   5.192   6.066   5.073
 2686SOL     OW 8956   2.205   2.983   4.333
 2686SOL    HW1 8957   2.247   3.053   4.390
 2686SOL    HW2 8958   2.220   3.004   4.236
 2687SOL     OW 8959   4.039   5.542   2.440
 2687SOL    HW1 8960   3.941   5.558   2.433
 2687SOL    HW2 8961   4.065   5.467   2.379
 2688SOL     OW 8962   4.027   4.910   6.530
 2688SOL    HW1 8963   4.059   4.883   6.439
 2688SOL    HW2 8964   4.020   5.009   6.535
 2689SOL     OW 8965   0.466   3.116   4.339
 2689SOL    HW1 8966   0.549   3.146   4.387
 2689SOL    HW2 8967   0.467   3.151   4.246
 2690SOL     OW 8968   4.005   3.925   3.794
 2690SOL    HW1 8969   4.028   3.858   3.723
 2690SOL    HW2 8970   4.037   3.891   3.883
 2691SOL     OW 8971   1.589   5.664   2.256
 2691SOL    HW1 8972   1.526   5.588   2.242
 2691SOL    HW2 8973   1.550   5.747   2.218
 2692SOL     OW 8974   0.029   6.462   4.031
 2692SOL    HW1 8975   0.097   6.406   3.982
 2692SOL    HW2 8976   6.957   6.425   4.015
 2693SOL     OW 8977   1.664   3.709   3.585
 2693SOL    HW1 8978   1.717   3.788   3.614
 2693SOL    HW2 8979   1.704   3.626   3.626
 2694SOL     OW 8980   1.506   0.084   3.488
 2694SOL    HW1 8981   1.455   0.100   3.573
 2694SOL    HW2 8982   1.581   0.020   3.506
 2695SOL     OW 8983   4.356   2.364   2.583
 2695SOL    HW1 8984   4.292   2.310   2.528
 2695SOL    HW2 8985   4.321   2.373   2.676
 2696SOL     OW 8986   3.903   4.052   5.477
 2696SOL    HW1 8987   3.984   4.026   5.426
 2696SOL    HW2 8988   3.822   4.013   5.433
 2697SOL     OW 8989   2.903   2.001   3.878
 2697SOL    HW1 8990   2.963   1.968   3.950
 2697SOL    HW2 8991   2.951   2.069   3.823
 2698SOL     OW 8992   1.615   4.268   0.362
 2698SOL    HW1 8993   1.649   4.249   0.270
 2698SOL    HW2 8994   1.691   4.263   0.427
 2699SOL     OW 8995   3.667   6.302   1.562
 2699SOL    HW1 8996   3.580   6.265   1.593
 2699SOL    HW2 8997   3.654   6.398   1.534
 2700SOL     OW 8998   1.725   3.315   3.074
 2700SOL    HW1 8999   1.646   3.311   3.013
 2700SOL    HW2 9000   1.765   3.223   3.082
 2701SOL     OW 9001   3.732   0.027   6.588
 2701SOL    HW1 9002   3.796   0.011   6.663
 2701SOL    HW2 9003   3.780   0.070   6.512
 2702SOL     OW 9004   6.932   1.073   3.733
 2702SOL    HW1 9005   7.018   1.112   3.765
 2702SOL    HW2 9006   6.891   1.134   3.665
 2703SOL     OW 9007   1.679   1.993   2.419
 2703SOL    HW1 9008   1.684   1.910   2.364
 2703SOL    HW2 9009   1.615   1.980   2.494
 2704SOL     OW 9010   2.366   5.447   1.509
 2704SOL    HW1 9011   2.462   5.463   1.533
 2704SOL    HW2 9012   2.325   5.383   1.575
 2705SOL     OW 9013   6.397   5.406   3.196
 2705SOL    HW1 9014   6.340   5.473   3.243
 2705SOL    HW2 9015   6.466   5.452   3.141
 2706SOL     OW 9016   6.514   1.230   1.651
 2706SOL    HW1 9017   6.508   1.259   1.746
 2706SOL    HW2 9018   6.454   1.286   1.594
 2707SOL     OW 9019   2.137   1.559   6.374
 2707SOL    HW1 9020   2.110   1.629   6.308
 2707SOL    HW2 9021   2.231   1.576   6.403
 2708SOL     OW 9022   1.324   2.477   1.464
 2708SOL    HW1 9023   1.405   2.533   1.445
 2708SOL    HW2 9024   1.348   2.403   1.526
 2709SOL     OW 9025   4.691   5.871   0.548
 2709SOL    HW1 9026   4.600   5.892   0.514
 2709SOL    HW2 9027   4.717   5.938   0.618
 2710SOL     OW 9028   0.504   4.175   2.656
 2710SOL    HW1 9029   0.601   4.161   2.636
 2710SOL    HW2 9030   0.482   4.272   2.645
 2711SOL     OW 9031   1.144   0.447   2.185
 2711SOL    HW1 9032   1.088   0.522   2.220
 2711SOL    HW2 9033   1.102   0.360   2.210
 2712SOL     OW 9034   2.737   4.375   0.620
 2712SOL    HW1 9035   2.744   4.421   0.708
 2712SOL    HW2 9036   2.775   4.434   0.548
 2713SOL     OW 9037   2.455   3.238   5.319
 2713SOL    HW1 9038   2.479   3.150   5.277
 2713SOL    HW2 9039   2.537   3.280   5.358
 2714SOL     OW 9040   4.717   0.502   6.031
 2714SOL    HW1 9041   4.761   0.580   5.987
 2714SOL    HW2 9042   4.701   0.522   6.128
 2715SOL     OW 9043   5.743   1.066   6.754
 2715SOL    HW1 9044   5.753   1.129   6.677
 2715SOL    HW2 9045   5.679   0.993   6.730
 2716SOL     OW 9046   0.590   6.292   2.671
 2716SOL    HW1 9047   0.516   6.256   2.728
 2716SOL    HW2 9048   0.640   6.217   2.629
 2717SOL     OW 9049   0.899   0.447   3.234
 2717SOL    HW1 9050   0.963   0.376   3.265
 2717SOL    HW2 9051   0.894   0.519   3.303
 2718SOL     OW 9052   2.417   4.399   3.804
 2718SOL    HW1 9053   2.414   4.457   3.723
 2718SOL    HW2 9054   2.470   4.443   3.876
 2719SOL     OW 9055   4.342   5.128   1.837
 2719SOL    HW1 9056   4.380   5.174   1.917
 2719SOL    HW2 9057   4.411   5.067   1.798
 2720SOL     OW 9058   1.868   6.691   3.694
 2720SOL    HW1 9059   1.944   6.711   3.756
 2720SOL    HW2 9060   1.899   6.701   3.600
 2721SOL     OW 9061   3.628   0.249   4.480
 2721SOL    HW1 9062   3.559   0.193   4.435
 2721SOL    HW2 9063   3.593   0.343   4.489
 2722SOL     OW 9064   1.364   6.141   2.640
 2722SOL    HW1 9065   1.278   6.148   2.691
 2722SOL    HW2 9066   1.363   6.207   2.564
 2723SOL     OW 9067   1.654   1.302   5.840
 2723SOL    HW1 9068   1.671   1.356   5.922
 2723SOL    HW2 9069   1.601   1.355   5.774
 2724SOL     OW 9070   4.071   5.682   6.076
 2724SOL    HW1 9071   4.126   5.675   6.158
 2724SOL    HW2 9072   4.010   5.603   6.069
 2725SOL     OW 9073   4.210   5.062   4.015
 2725SOL    HW1 9074   4.193   5.160   4.014
 2725SOL    HW2 9075   4.160   5.019   3.940
 2726SOL     OW 9076   4.929   5.656   2.244
 2726SOL    HW1 9077   4.918   5.753   2.219
 2726SOL    HW2 9078   4.930   5.600   2.161
 2727SOL     OW 9079   0.904   5.431   2.567
 2727SOL    HW1 9080   0.902   5.529   2.546
 2727SOL    HW2 9081   0.987   5.390   2.528
 2728SOL     OW 9082   2.635   6.763   5.255
 2728SOL    HW1 9083   2.731   6.770   5.230
 2728SOL    HW2 9084   2.627   6.722   5.346
 2729SOL     OW 9085   5.802   5.410   2.554
 2729SOL    HW1 9086   5.810   5.340   2.484
 2729SOL    HW2 9087   5.758   5.491   2.516
 2730SOL     OW 9088   1.825   6.967   0.690
 2730SOL    HW1 9089   1.823   6.994   0.786
 2730SOL    HW2 9090   1.914   6.929   0.667
 2731SOL     OW 9091   3.021   3.823   1.921
 2731SOL    HW1 9092   3.102   3.876   1.945
 2731SOL    HW2 9093   3.044   3.726   1.919
 2732SOL     OW 9094   5.834   1.575   2.220
 2732SOL    HW1 9095   5.909   1.571   2.286
 2732SOL    HW2 9096   5.788   1.486   2.217
 2733SOL     OW 9097   1.148   6.684   5.849
 2733SOL    HW1 9098   1.232   6.630   5.837
 2733SOL    HW2 9099   1.109   6.664   5.939
 2734SOL     OW 9100   2.000   6.020   4.191
 2734SOL    HW1 9101   2.094   6.007   4.222
 2734SOL    HW2 9102   1.979   5.954   4.118
 2735SOL     OW 9103   1.714   5.101   2.659
 2735SOL    HW1 9104   1.784   5.067   2.722
 2735SOL    HW2 9105   1.730   5.198   2.640
 2736SOL     OW 9106   4.504   0.413   4.831
 2736SOL    HW1 9107   4.478   0.391   4.924
 2736SOL    HW2 9108   4.595   0.375   4.812
 2737SOL     OW 9109   4.572   3.715   6.663
 2737SOL    HW1 9110   4.554   3.629   6.711
 2737SOL    HW2 9111   4.651   3.760   6.706
 2738SOL     OW 9112   5.592   5.089   4.617
 2738SOL    HW1 9113   5.586   5.163   4.550
 2738SOL    HW2 9114   5.684   5.086   4.656
 2739SOL     OW 9115   5.847   3.622   1.260
 2739SOL    HW1 9116   5.787   3.634   1.181
 2739SOL    HW2 9117   5.857   3.524   1.279
 2740SOL     OW 9118   6.187   2.416   3.204
 2740SOL    HW1 9119   6.180   2.514   3.223
 2740SOL    HW2 9120   6.102   2.383   3.162
 2741SOL     OW 9121   0.965   2.332   5.899
 2741SOL    HW1 9122   1.044   2.330   5.837
 2741SOL    HW2 9123   0.935   2.427   5.911
 2742SOL     OW 9124   2.025   6.920   6.890
 2742SOL    HW1 9125   2.053   6.956   6.801
 2742SOL    HW2 9126   2.073   6.834   6.908
 2743SOL     OW 9127   5.453   5.158   1.346
 2743SOL    HW1 9128   5.542   5.141   1.388
 2743SOL    HW2 9129   5.440   5.256   1.335
 2744SOL     OW 9130   4.450   2.373   5.868
 2744SOL    HW1 9131   4.530   2.313   5.877
 2744SOL    HW2 9132   4.367   2.319   5.881
 2745SOL     OW 9133   2.885   7.003   0.987
 2745SOL    HW1 9134   2.916   6.981   1.079
 2745SOL    HW2 9135   2.786   6.992   0.982
 2746SOL     OW 9136   1.978   1.971   6.747
 2746SOL    HW1 9137   2.064   1.989   6.794
 2746SOL    HW2 9138   1.931   2.058   6.728
 2747SOL     OW 9139   5.058   6.472   3.919
 2747SOL    HW1 9140   4.970   6.432   3.891
 2747SOL    HW2 9141   5.042   6.540   3.991
 2748SOL     OW 9142   3.843   0.986   2.959
 2748SOL    HW1 9143   3.784   0.955   2.885
 2748SOL    HW2 9144   3.939   0.979   2.931
 2749SOL     OW 9145   4.961   5.124   3.857
 2749SOL    HW1 9146   4.868   5.088   3.867
 2749SOL    HW2 9147   4.957   5.216   3.818
 2750SOL     OW 9148   0.430   5.912   2.659
 2750SOL    HW1 9149   0.491   5.991   2.666
 2750SOL    HW2 9150   0.376   5.919   2.575
 2751SOL     OW 9151   1.550   0.451   6.625
 2751SOL    HW1 9152   1.605   0.534   6.623
 2751SOL    HW2 9153   1.498   0.442   6.540
 2752SOL     OW 9154   6.292   6.048   5.715
 2752SOL    HW1 9155   6.345   6.104   5.651
 2752SOL    HW2 9156   6.209   6.097   5.742
 2753SOL     OW 9157   3.114   5.481   6.095
 2753SOL    HW1 9158   3.134   5.394   6.052
 2753SOL    HW2 9159   3.025   5.515   6.063
 2754SOL     OW 9160   0.855   0.839   4.585
 2754SOL    HW1 9161   0.794   0.799   4.517
 2754SOL    HW2 9162   0.827   0.934   4.603
 2755SOL     OW 9163   3.034   6.525   2.252
 2755SOL    HW1 9164   3.127   6.508   2.285
 2755SOL    HW2 9165   2.980   6.441   2.259
 2756SOL     OW 9166   0.148   2.890   5.796
 2756SOL    HW1 9167   0.132   2.848   5.707
 2756SOL    HW2 9168   0.231   2.852   5.836
 2757SOL     OW 9169   4.733   3.095   6.619
 2757SOL    HW1 9170   4.662   3.033   6.585
 2757SOL    HW2 9171   4.728   3.182   6.571
 2758SOL     OW 9172   6.295   6.512   2.375
 2758SOL    HW1 9173   6.284   6.458   2.458
 2758SOL    HW2 9174   6.304   6.608   2.399
 2759SOL     OW 9175   3.113   4.280   5.973
 2759SOL    HW1 9176   3.209   4.253   5.965
 2759SOL    HW2 9177   3.057   4.222   5.914
 2760SOL     OW 9178   5.385   6.116   3.271
 2760SOL    HW1 9179   5.365   6.201   3.221
 2760SOL    HW2 9180   5.301   6.062   3.280
 2761SOL     OW 9181   1.859   3.070   3.045
 2761SOL    HW1 9182   1.905   3.096   2.960
 2761SOL    HW2 9183   1.911   2.997   3.089
 2762SOL     OW 9184   2.508   2.521   0.257
 2762SOL    HW1 9185   2.583   2.563   0.206
 2762SOL    HW2 9186   2.444   2.479   0.193
 2763SOL     OW 9187   5.228   2.098   4.770
 2763SOL    HW1 9188   5.254   2.097   4.673
 2763SOL    HW2 9189   5.201   2.191   4.795
 2764SOL     OW 9190   1.294   3.660   2.063
 2764SOL    HW1 9191   1.272   3.565   2.087
 2764SOL    HW2 9192   1.394   3.671   2.060
 2765SOL     OW 9193   6.653   0.231   6.644
 2765SOL    HW1 9194   6.652   0.142   6.599
 2765SOL    HW2 9195   6.619   0.222   6.737
 2766SOL     OW 9196   4.987   1.339   6.620
 2766SOL    HW1 9197   4.993   1.256   6.564
 2766SOL    HW2 9198   5.080   1.367   6.647
 2767SOL     OW 9199   0.053   5.056   6.246
 2767SOL    HW1 9200   6.980   5.043   6.284
 2767SOL    HW2 9201   0.078   4.976   6.191
 2768SOL     OW 9202   4.513   6.991   1.170
 2768SOL    HW1 9203   4.559   6.919   1.222
 2768SOL    HW2 9204   4.420   7.005   1.206
 2769SOL     OW 9205   1.103   4.318   5.757
 2769SOL    HW1 9206   1.145   4.344   5.671
 2769SOL    HW2 9207   1.052   4.395   5.795
 2770SOL     OW 9208   3.011   6.841   0.825
 2770SOL    HW1 9209   3.110   6.828   0.817
 2770SOL    HW2 9210   2.991   6.903   0.901
 2771SOL     OW 9211   4.779   7.000   4.473
 2771SOL    HW1 9212   4.831   0.002   4.390
 2771SOL    HW2 9213   4.702   0.045   4.480
 2772SOL     OW 9214   4.094   0.197   3.601
 2772SOL    HW1 9215   4.057   0.175   3.511
 2772SOL    HW2 9216   4.172   0.138   3.620
 2773SOL     OW 9217   5.708   2.693   4.338
 2773SOL    HW1 9218   5.647   2.617   4.362
 2773SOL    HW2 9219   5.706   2.707   4.239
 2774SOL     OW 9220   5.092   1.710   4.319
 2774SOL    HW1 9221   5.062   1.615   4.315
 2774SOL    HW2 9222   5.018   1.770   4.288
 2775SOL     OW 9223   0.857   3.440   4.021
 2775SOL    HW1 9224   0.874   3.430   4.119
 2775SOL    HW2 9225   0.774   3.389   3.996
 2776SOL     OW 9226   5.000   4.207   6.391
 2776SOL    HW1 9227   4.910   4.167   6.410
 2776SOL    HW2 9228   5.044   4.156   6.317
 2777SOL     OW 9229   3.207   2.217   6.291
 2777SOL    HW1 9230   3.271   2.286   6.258
 2777SOL    HW2 9231   3.253   2.128   6.297
 2778SOL     OW 9232   3.019   6.261   6.006
 2778SOL    HW1 9233   2.951   6.295   5.941
 2778SOL    HW2 9234   3.047   6.336   6.067
 2779SOL     OW 9235   5.781   0.203   1.212
 2779SOL    HW1 9236   5.772   0.219   1.310
 2779SOL    HW2 9237   5.873   0.169   1.192
 2780SOL     OW 9238   6.904   1.274   4.864
 2780SOL    HW1 9239   6.868   1.257   4.955
 2780SOL    HW2 9240   7.003   1.286   4.869
 2781SOL     OW 9241   5.717   0.775   2.978
 2781SOL    HW1 9242   5.801   0.787   3.030
 2781SOL    HW2 9243   5.733   0.712   2.902
 2782SOL     OW 9244   4.402   0.698   6.365
 2782SOL    HW1 9245   4.337   0.700   6.289
 2782SOL    HW2 9246   4.354   0.673   6.449
 2783SOL     OW 9247   5.699   4.442   1.845
 2783SOL    HW1 9248   5.748   4.416   1.762
 2783SOL    HW2 9249   5.600   4.441   1.827
 2784SOL     OW 9250   1.361   1.735   1.255
 2784SOL    HW1 9251   1.436   1.782   1.209
 2784SOL    HW2 9252   1.285   1.723   1.192
 2785SOL     OW 9253   5.614   2.615   1.556
 2785SOL    HW1 9254   5.523   2.576   1.543
 2785SOL    HW2 9255   5.653   2.639   1.467
 2786SOL     OW 9256   0.012   6.878   0.113
 2786SOL    HW1 9257   0.097   6.825   0.116
 2786SOL    HW2 9258   6.956   6.819   0.080
 2787SOL     OW 9259   6.587   4.832   6.172
 2787SOL    HW1 9260   6.519   4.904   6.182
 2787SOL    HW2 9261   6.550   4.759   6.115
 2788SOL     OW 9262   2.962   5.876   5.581
 2788SOL    HW1 9263   3.045   5.868   5.637
 2788SOL    HW2 9264   2.939   5.973   5.572
 2789SOL     OW 9265   0.919   2.186   5.346
 2789SOL    HW1 9266   0.994   2.123   5.370
 2789SOL    HW2 9267   0.942   2.278   5.377
 2790SOL     OW 9268   2.001   5.459   1.891
 2790SOL    HW1 9269   1.974   5.538   1.945
 2790SOL    HW2 9270   1.971   5.375   1.937
 2791SOL     OW 9271   0.503   3.688   2.805
 2791SOL    HW1 9272   0.532   3.784   2.809
 2791SOL    HW2 9273   0.407   3.681   2.831
 2792SOL     OW 9274   3.209   1.397   5.374
 2792SOL    HW1 9275   3.192   1.401   5.275
 2792SOL    HW2 9276   3.125   1.370   5.421
 2793SOL     OW 9277   3.430   4.228   1.037
 2793SOL    HW1 9278   3.436   4.197   1.132
 2793SOL    HW2 9279   3.342   4.199   0.998
 2794SOL     OW 9280   1.070   2.554   6.782
 2794SOL    HW1 9281   1.052   2.579   6.877
 2794SOL    HW2 9282   1.080   2.636   6.727
 2795SOL     OW 9283   1.078   4.789   1.564
 2795SOL    HW1 9284   1.065   4.863   1.498
 2795SOL    HW2 9285   1.174   4.783   1.590
 2796SOL     OW 9286   2.058   6.312   6.222
 2796SOL    HW1 9287   1.992   6.350   6.287
 2796SOL    HW2 9288   2.088   6.384   6.159
 2797SOL     OW 9289   5.417   0.001   3.716
 2797SOL    HW1 9290   5.411   6.978   3.626
 2797SOL    HW2 9291   5.392   6.953   3.786
 2798SOL     OW 9292   5.446   0.308   1.959
 2798SOL    HW1 9293   5.457   0.386   1.897
 2798SOL    HW2 9294   5.534   0.261   1.967
 2799SOL     OW 9295   3.168   5.930   5.266
 2799SOL    HW1 9296   3.177   5.916   5.168
 2799SOL    HW2 9297   3.206   5.851   5.315
 2800SOL     OW 9298   5.895   0.211   6.769
 2800SOL    HW1 9299   5.976   0.251   6.726
 2800SOL    HW2 9300   5.892   0.113   6.750
 2801SOL     OW 9301   0.619   4.612   5.094
 2801SOL    HW1 9302   0.684   4.659   5.153
 2801SOL    HW2 9303   0.607   4.518   5.127
 2802SOL     OW 9304   0.708   5.177   5.729
 2802SOL    HW1 9305   0.738   5.129   5.647
 2802SOL    HW2 9306   0.761   5.262   5.740
 2803SOL     OW 9307   3.941   2.623   6.452
 2803SOL    HW1 9308   3.972   2.676   6.531
 2803SOL    HW2 9309   3.914   2.531   6.482
 2804SOL     OW 9310   0.344   2.742   3.881
 2804SOL    HW1 9311   0.345   2.678   3.804
 2804SOL    HW2 9312   0.257   2.792   3.881
 2805SOL     OW 9313   4.438   3.394   1.270
 2805SOL    HW1 9314   4.502   3.379   1.346
 2805SOL    HW2 9315   4.431   3.310   1.216
 2806SOL     OW 9316   0.336   3.811   5.744
 2806SOL    HW1 9317   0.314   3.837   5.838
 2806SOL    HW2 9318   0.392   3.882   5.702
 2807SOL     OW 9319   3.571   0.181   3.797
 2807SOL    HW1 9320   3.621   0.214   3.877
 2807SOL    HW2 9321   3.597   0.086   3.777
 2808SOL     OW 9322   6.911   5.482   6.211
 2808SOL    HW1 9323   6.990   5.423   6.192
 2808SOL    HW2 9324   6.905   5.500   6.309
 2809SOL     OW 9325   6.896   5.217   1.979
 2809SOL    HW1 9326   6.978   5.261   1.941
 2809SOL    HW2 9327   6.840   5.286   2.025
 2810SOL     OW 9328   2.690   5.957   3.052
 2810SOL    HW1 9329   2.662   5.977   2.959
 2810SOL    HW2 9330   2.613   5.919   3.103
 2811SOL     OW 9331   0.714   0.708   1.520
 2811SOL    HW1 9332   0.791   0.736   1.463
 2811SOL    HW2 9333   0.657   0.787   1.541
 2812SOL     OW 9334   0.798   2.261   1.163
 2812SOL    HW1 9335   0.822   2.353   1.133
 2812SOL    HW2 9336   0.795   2.199   1.084
 2813SOL     OW 9337   1.161   2.176   1.863
 2813SOL    HW1 9338   1.195   2.233   1.938
 2813SOL    HW2 9339   1.135   2.086   1.897
 2814SOL     OW 9340   2.106   4.446   0.103
 2814SOL    HW1 9341   2.195   4.399   0.101
 2814SOL    HW2 9342   2.053   4.411   0.180
 2815SOL     OW 9343   0.469   5.169   5.540
 2815SOL    HW1 9344   0.502   5.075   5.547
 2815SOL    HW2 9345   0.505   5.223   5.616
 2816SOL     OW 9346   0.798   5.723   6.476
 2816SOL    HW1 9347   0.864   5.794   6.500
 2816SOL    HW2 9348   0.740   5.755   6.402
 2817SOL     OW 9349   4.466   0.760   1.604
 2817SOL    HW1 9350   4.564   0.776   1.599
 2817SOL    HW2 9351   4.422   0.801   1.524
 2818SOL     OW 9352   1.668   0.478   0.304
 2818SOL    HW1 9353   1.728   0.552   0.274
 2818SOL    HW2 9354   1.597   0.464   0.235
 2819SOL     OW 9355   0.749   0.986   0.370
 2819SOL    HW1 9356   0.791   0.899   0.398
 2819SOL    HW2 9357   0.805   1.029   0.300
 2820SOL     OW 9358   1.377   2.354   0.960
 2820SOL    HW1 9359   1.474   2.346   0.981
 2820SOL    HW2 9360   1.337   2.263   0.954
 2821SOL     OW 9361   2.687   3.401   6.100
 2821SOL    HW1 9362   2.781   3.431   6.114
 2821SOL    HW2 9363   2.666   3.399   6.002
 2822SOL     OW 9364   4.543   2.468   1.005
 2822SOL    HW1 9365   4.589   2.468   1.093
 2822SOL    HW2 9366   4.589   2.404   0.943
 2823SOL     OW 9367   5.753   2.112   1.355
 2823SOL    HW1 9368   5.758   2.064   1.442
 2823SOL    HW2 9369   5.845   2.137   1.325
 2824SOL     OW 9370   1.337   3.146   4.762
 2824SOL    HW1 9371   1.364   3.171   4.669
 2824SOL    HW2 9372   1.260   3.202   4.791
 2825SOL     OW 9373   5.169   1.396   5.933
 2825SOL    HW1 9374   5.220   1.330   5.877
 2825SOL    HW2 9375   5.204   1.489   5.915
 2826SOL     OW 9376   2.505   2.900   6.889
 2826SOL    HW1 9377   2.502   2.938   6.796
 2826SOL    HW2 9378   2.591   2.851   6.902
 2827SOL     OW 9379   6.243   0.930   6.541
 2827SOL    HW1 9380   6.160   0.890   6.580
 2827SOL    HW2 9381   6.245   1.028   6.561
 2828SOL     OW 9382   1.705   3.857   0.695
 2828SOL    HW1 9383   1.710   3.757   0.696
 2828SOL    HW2 9384   1.797   3.894   0.680
 2829SOL     OW 9385   3.149   3.876   3.029
 2829SOL    HW1 9386   3.189   3.856   3.119
 2829SOL    HW2 9387   3.069   3.817   3.015
 2830SOL     OW 9388   3.180   4.680   5.462
 2830SOL    HW1 9389   3.221   4.730   5.538
 2830SOL    HW2 9390   3.145   4.746   5.395
 2831SOL     OW 9391   5.838   1.787   1.375
 2831SOL    HW1 9392   5.904   1.847   1.419
 2831SOL    HW2 9393   5.847   1.694   1.413
 2832SOL     OW 9394   0.445   3.902   1.699
 2832SOL    HW1 9395   0.413   3.808   1.691
 2832SOL    HW2 9396   0.511   3.921   1.626
 2833SOL     OW 9397   2.165   2.455   2.352
 2833SOL    HW1 9398   2.157   2.438   2.450
 2833SOL    HW2 9399   2.230   2.529   2.336
 2834SOL     OW 9400   3.116   5.645   5.525
 2834SOL    HW1 9401   3.055   5.724   5.529
 2834SOL    HW2 9402   3.186   5.661   5.455
 2835SOL     OW 9403   6.924   0.290   0.533
 2835SOL    HW1 9404   6.963   0.252   0.617
 2835SOL    HW2 9405   6.984   0.270   0.456
 2836SOL     OW 9406   3.922   5.791   2.341
 2836SOL    HW1 9407   3.907   5.792   2.242
 2836SOL    HW2 9408   3.881   5.873   2.381
 2837SOL     OW 9409   5.218   4.408   1.883
 2837SOL    HW1 9410   5.181   4.455   1.963
 2837SOL    HW2 9411   5.254   4.318   1.910
 2838SOL     OW 9412   5.465   4.274   6.034
 2838SOL    HW1 9413   5.409   4.283   6.116
 2838SOL    HW2 9414   5.405   4.264   5.954
 2839SOL     OW 9415   5.537   2.832   4.967
 2839SOL    HW1 9416   5.521   2.736   4.989
 2839SOL    HW2 9417   5.613   2.867   5.022
 2840SOL     OW 9418   6.994   6.272   4.485
 2840SOL    HW1 9419   6.937   6.195   4.456
 2840SOL    HW2 9420   0.059   6.273   4.430
 2841SOL     OW 9421   6.520   3.507   2.336
 2841SOL    HW1 9422   6.610   3.468   2.317
 2841SOL    HW2 9423   6.530   3.588   2.395
 2842SOL     OW 9424   1.242   7.017   3.040
 2842SOL    HW1 9425   1.223   0.096   3.040
 2842SOL    HW2 9426   1.229   6.981   2.948
 2843SOL     OW 9427   1.797   2.984   3.611
 2843SOL    HW1 9428   1.785   3.083   3.602
 2843SOL    HW2 9429   1.868   2.964   3.677
 2844SOL     OW 9430   4.665   4.503   0.639
 2844SOL    HW1 9431   4.648   4.553   0.723
 2844SOL    HW2 9432   4.739   4.437   0.653
 2845SOL     OW 9433   3.596   2.120   3.238
 2845SOL    HW1 9434   3.653   2.075   3.170
 2845SOL    HW2 9435   3.586   2.217   3.214
 2846SOL     OW 9436   5.973   0.047   0.375
 2846SOL    HW1 9437   5.892   0.070   0.320
 2846SOL    HW2 9438   6.034   7.008   0.321
 2847SOL     OW 9439   4.450   4.876   1.764
 2847SOL    HW1 9440   4.547   4.853   1.769
 2847SOL    HW2 9441   4.404   4.810   1.703
 2848SOL     OW 9442   0.229   4.094   5.573
 2848SOL    HW1 9443   0.169   4.017   5.594
 2848SOL    HW2 9444   0.323   4.071   5.599
 2849SOL     OW 9445   5.044   0.220   2.381
 2849SOL    HW1 9446   4.984   0.296   2.360
 2849SOL    HW2 9447   5.013   0.138   2.332
 2850SOL     OW 9448   1.906   0.059   2.539
 2850SOL    HW1 9449   1.912   0.142   2.594
 2850SOL    HW2 9450   1.996   0.015   2.535
 2851SOL     OW 9451   3.604   3.417   0.871
 2851SOL    HW1 9452   3.678   3.389   0.932
 2851SOL    HW2 9453   3.616   3.375   0.781
 2852SOL     OW 9454   6.421   4.782   6.840
 2852SOL    HW1 9455   6.503   4.750   6.793
 2852SOL    HW2 9456   6.373   4.848   6.782
 2853SOL     OW 9457   6.855   4.125   6.400
 2853SOL    HW1 9458   6.953   4.133   6.422
 2853SOL    HW2 9459   6.836   4.170   6.313
 2854SOL     OW 9460   3.645   1.528   5.721
 2854SOL    HW1 9461   3.692   1.451   5.764
 2854SOL    HW2 9462   3.621   1.595   5.791
 2855SOL     OW 9463   2.014   1.455   5.571
 2855SOL    HW1 9464   2.110   1.477   5.589
 2855SOL    HW2 9465   2.004   1.355   5.564
 2856SOL     OW 9466   0.999   5.355   3.745
 2856SOL    HW1 9467   1.035   5.445   3.766
 2856SOL    HW2 9468   1.038   5.287   3.806
 2857SOL     OW 9469   0.355   3.644   0.062
 2857SOL    HW1 9470   0.336   3.634   6.983
 2857SOL    HW2 9471   0.417   3.572   0.092
 2858SOL     OW 9472   4.591   4.745   2.902
 2858SOL    HW1 9473   4.544   4.686   2.967
 2858SOL    HW2 9474   4.643   4.689   2.837
 2859SOL     OW 9475   5.245   4.613   0.999
 2859SOL    HW1 9476   5.210   4.676   1.068
 2859SOL    HW2 9477   5.216   4.520   1.022
 2860SOL     OW 9478   0.667   0.221   2.435
 2860SOL    HW1 9479   0.608   0.182   2.506
 2860SOL    HW2 9480   0.712   0.147   2.385
 2861SOL     OW 9481   4.661   5.300   6.320
 2861SOL    HW1 9482   4.732   5.235   6.292
 2861SOL    HW2 9483   4.688   5.344   6.405
 2862SOL     OW 9484   4.020   2.855   0.347
 2862SOL    HW1 9485   4.055   2.927   0.408
 2862SOL    HW2 9486   4.035   2.766   0.389
 2863SOL     OW 9487   5.397   6.543   5.184
 2863SOL    HW1 9488   5.357   6.617   5.130
 2863SOL    HW2 9489   5.447   6.582   5.262
 2864SOL     OW 9490   3.064   4.116   0.182
 2864SOL    HW1 9491   3.157   4.091   0.207
 2864SOL    HW2 9492   3.003   4.038   0.197
 2865SOL     OW 9493   5.540   5.530   3.980
 2865SOL    HW1 9494   5.447   5.496   3.987
 2865SOL    HW2 9495   5.552   5.608   4.041
 2866SOL     OW 9496   4.425   4.941   0.748
 2866SOL    HW1 9497   4.508   4.992   0.726
 2866SOL    HW2 9498   4.450   4.855   0.794
 2867SOL     OW 9499   5.479   6.438   1.767
 2867SOL    HW1 9500   5.560   6.467   1.818
 2867SOL    HW2 9501   5.494   6.345   1.732
 2868SOL     OW 9502   0.995   1.228   5.570
 2868SOL    HW1 9503   1.092   1.242   5.546
 2868SOL    HW2 9504   0.943   1.311   5.547
 2869SOL     OW 9505   6.078   5.253   4.700
 2869SOL    HW1 9506   6.171   5.219   4.709
 2869SOL    HW2 9507   6.074   5.348   4.729
 2870SOL     OW 9508   6.788   2.036   1.444
 2870SOL    HW1 9509   6.771   1.976   1.522
 2870SOL    HW2 9510   6.800   1.980   1.362
 2871SOL     OW 9511   5.347   1.510   1.435
 2871SOL    HW1 9512   5.334   1.415   1.405
 2871SOL    HW2 9513   5.298   1.571   1.373
 2872SOL     OW 9514   2.627   2.323   2.082
 2872SOL    HW1 9515   2.718   2.329   2.040
 2872SOL    HW2 9516   2.563   2.382   2.032
 2873SOL     OW 9517   1.310   6.270   1.209
 2873SOL    HW1 9518   1.325   6.192   1.148
 2873SOL    HW2 9519   1.227   6.318   1.181
 2874SOL     OW 9520   2.741   0.594   2.671
 2874SOL    HW1 9521   2.667   0.576   2.605
 2874SOL    HW2 9522   2.737   0.526   2.744
 2875SOL     OW 9523   2.744   6.717   2.876
 2875SOL    HW1 9524   2.799   6.800   2.867
 2875SOL    HW2 9525   2.797   6.638   2.848
 2876SOL     OW 9526   1.484   6.657   2.186
 2876SOL    HW1 9527   1.400   6.641   2.237
 2876SOL    HW2 9528   1.464   6.707   2.102
 2877SOL     OW 9529   1.324   1.864   6.639
 2877SOL    HW1 9530   1.349   1.958   6.662
 2877SOL    HW2 9531   1.353   1.844   6.546
 2878SOL     OW 9532   4.139   3.585   3.873
 2878SOL    HW1 9533   4.175   3.594   3.966
 2878SOL    HW2 9534   4.125   3.488   3.853
 2879SOL     OW 9535   4.119   3.395   0.458
 2879SOL    HW1 9536   4.058   3.392   0.379
 2879SOL    HW2 9537   4.196   3.456   0.439
 2880SOL     OW 9538   2.143   1.395   4.329
 2880SOL    HW1 9539   2.071   1.447   4.282
 2880SOL    HW2 9540   2.117   1.299   4.334
 2881SOL     OW 9541   4.751   6.154   6.505
 2881SOL    HW1 9542   4.711   6.112   6.423
 2881SOL    HW2 9543   4.838   6.196   6.482
 2882SOL     OW 9544   4.682   6.412   0.596
 2882SOL    HW1 9545   4.642   6.473   0.665
 2882SOL    HW2 9546   4.623   6.409   0.516
 2883SOL     OW 9547   6.036   6.022   4.012
 2883SOL    HW1 9548   5.979   6.104   4.013
 2883SOL    HW2 9549   6.132   6.049   4.022
 2884SOL     OW 9550   6.621   4.864   3.685
 2884SOL    HW1 9551   6.690   4.816   3.738
 2884SOL    HW2 9552   6.588   4.805   3.611
 2885SOL     OW 9553   1.050   2.984   3.111
 2885SOL    HW1 9554   1.103   2.987   3.027
 2885SOL    HW2 9555   1.073   3.063   3.168
 2886SOL     OW 9556   1.663   4.477   6.184
 2886SOL    HW1 9557   1.749   4.528   6.194
 2886SOL    HW2 9558   1.682   4.388   6.142
 2887SOL     OW 9559   0.482   5.871   3.898
 2887SOL    HW1 9560   0.471   5.804   3.824
 2887SOL    HW2 9561   0.399   5.871   3.954
 2888SOL     OW 9562   6.265   6.549   7.016
 2888SOL    HW1 9563   6.204   6.627   7.005
 2888SOL    HW2 9564   6.354   6.580   0.030
 2889SOL     OW 9565   3.330   6.404   2.725
 2889SOL    HW1 9566   3.232   6.418   2.742
 2889SOL    HW2 9567   3.372   6.491   2.699
 2890SOL     OW 9568   2.286   0.913   1.289
 2890SOL    HW1 9569   2.340   0.937   1.370
 2890SOL    HW2 9570   2.256   0.818   1.295
 2891SOL     OW 9571   0.787   1.844   4.621
 2891SOL    HW1 9572   0.823   1.774   4.683
 2891SOL    HW2 9573   0.813   1.821   4.527
 2892SOL     OW 9574   6.788   4.043   2.943
 2892SOL    HW1 9575   6.821   4.112   2.879
 2892SOL    HW2 9576   6.695   4.067   2.973
 2893SOL     OW 9577   6.719   5.227   4.670
 2893SOL    HW1 9578   6.795   5.268   4.720
 2893SOL    HW2 9579   6.754   5.161   4.604
 2894SOL     OW 9580   1.569   5.649   2.543
 2894SOL    HW1 9581   1.472   5.666   2.560
 2894SOL    HW2 9582   1.587   5.657   2.445
 2895SOL     OW 9583   4.036   6.862   6.338
 2895SOL    HW1 9584   4.054   6.767   6.365
 2895SOL    HW2 9585   4.096   6.923   6.389
 2896SOL     OW 9586   5.044   6.077   4.817
 2896SOL    HW1 9587   5.051   6.093   4.915
 2896SOL    HW2 9588   5.084   5.988   4.795
 2897SOL     OW 9589   3.684   4.895   3.290
 2897SOL    HW1 9590   3.749   4.824   3.263
 2897SOL    HW2 9591   3.725   4.952   3.361
 2898SOL     OW 9592   5.772   3.004   2.856
 2898SOL    HW1 9593   5.742   3.085   2.907
 2898SOL    HW2 9594   5.743   2.922   2.905
 2899SOL     OW 9595   6.916   3.577   1.235
 2899SOL    HW1 9596   6.974   3.637   1.291
 2899SOL    HW2 9597   6.957   3.485   1.232
 2900SOL     OW 9598   2.734   3.204   6.380
 2900SOL    HW1 9599   2.699   3.114   6.355
 2900SOL    HW2 9600   2.685   3.274   6.329
 2901SOL     OW 9601   0.802   3.919   3.691
 2901SOL    HW1 9602   0.855   3.891   3.771
 2901SOL    HW2 9603   0.845   3.883   3.608
 2902SOL     OW 9604   6.883   6.253   3.731
 2902SOL    HW1 9605   6.830   6.225   3.651
 2902SOL    HW2 9606   6.933   6.337   3.710
 2903SOL     OW 9607   4.306   5.309   0.701
 2903SOL    HW1 9608   4.363   5.369   0.757
 2903SOL    HW2 9609   4.365   5.252   0.643
 2904SOL     OW 9610   2.487   4.188   5.321
 2904SOL    HW1 9611   2.583   4.168   5.344
 2904SOL    HW2 9612   2.445   4.107   5.281
 2905SOL     OW 9613   0.692   5.692   1.624
 2905SOL    HW1 9614   0.788   5.672   1.603
 2905SOL    HW2 9615   0.677   5.791   1.621
 2906SOL     OW 9616   6.277   6.391   3.294
 2906SOL    HW1 9617   6.253   6.303   3.335
 2906SOL    HW2 9618   6.302   6.455   3.366
 2907SOL     OW 9619   0.248   1.089   3.912
 2907SOL    HW1 9620   0.264   1.017   3.980
 2907SOL    HW2 9621   0.327   1.150   3.908
 2908SOL     OW 9622   4.025   6.334   2.499
 2908SOL    HW1 9623   3.938   6.349   2.545
 2908SOL    HW2 9624   4.095   6.310   2.566
 2909SOL     OW 9625   0.729   6.068   2.587
 2909SOL    HW1 9626   0.718   5.993   2.522
 2909SOL    HW2 9627   0.774   6.035   2.670
 2910SOL     OW 9628   6.607   0.657   4.352
 2910SOL    HW1 9629   6.668   0.736   4.361
 2910SOL    HW2 9630   6.532   0.680   4.290
 2911SOL     OW 9631   6.353   4.094   5.006
 2911SOL    HW1 9632   6.411   4.026   5.052
 2911SOL    HW2 9633   6.310   4.053   4.926
 2912SOL     OW 9634   0.657   0.066   1.283
 2912SOL    HW1 9635   0.603   0.147   1.261
 2912SOL    HW2 9636   0.702   0.079   1.372
 2913SOL     OW 9637   2.623   0.019   1.175
 2913SOL    HW1 9638   2.688   6.977   1.221
 2913SOL    HW2 9639   2.594   0.091   1.239
 2914SOL     OW 9640   4.491   5.456   0.847
 2914SOL    HW1 9641   4.568   5.457   0.783
 2914SOL    HW2 9642   4.513   5.513   0.926
 2915SOL     OW 9643   2.732   0.310   2.492
 2915SOL    HW1 9644   2.643   0.355   2.488
 2915SOL    HW2 9645   2.723   0.216   2.460
 2916SOL     OW 9646   1.945   5.945   1.103
 2916SOL    HW1 9647   1.872   5.991   1.154
 2916SOL    HW2 9648   1.980   5.868   1.158
 2917SOL     OW 9649   2.388   6.032   4.594
 2917SOL    HW1 9650   2.326   6.083   4.534
 2917SOL    HW2 9651   2.479   6.074   4.592
 2918SOL     OW 9652   5.189   2.930   1.796
 2918SOL    HW1 9653   5.128   2.965   1.867
 2918SOL    HW2 9654   5.143   2.938   1.707
 2919SOL     OW 9655   0.814   5.714   4.448
 2919SOL    HW1 9656   0.874   5.645   4.489
 2919SOL    HW2 9657   0.719   5.688   4.465
 2920SOL     OW 9658   1.051   2.619   2.578
 2920SOL    HW1 9659   1.107   2.630   2.661
 2920SOL    HW2 9660   1.003   2.531   2.583
 2921SOL     OW 9661   1.180   0.216   4.304
 2921SOL    HW1 9662   1.121   0.171   4.371
 2921SOL    HW2 9663   1.183   0.162   4.220
 2922SOL     OW 9664   4.038   6.701   3.313
 2922SOL    HW1 9665   4.002   6.656   3.395
 2922SOL    HW2 9666   4.040   6.635   3.238
 2923SOL     OW 9667   6.672   5.963   4.918
 2923SOL    HW1 9668   6.732   6.041   4.939
 2923SOL    HW2 9669   6.650   5.964   4.820
 2924SOL     OW 9670   6.042   2.391   4.768
 2924SOL    HW1 9671   6.014   2.487   4.758
 2924SOL    HW2 9672   5.989   2.348   4.840
 2925SOL     OW 9673   4.865   6.832   6.064
 2925SOL    HW1 9674   4.899   6.807   5.973
 2925SOL    HW2 9675   4.768   6.808   6.071
 2926SOL     OW 9676   6.872   2.246   4.149
 2926SOL    HW1 9677   6.824   2.195   4.078
 2926SOL    HW2 9678   6.963   2.272   4.116
 2927SOL     OW 9679   1.309   2.381   2.040
 2927SOL    HW1 9680   1.273   2.394   2.132
 2927SOL    HW2 9681   1.330   2.470   1.999
 2928SOL     OW 9682   6.464   2.943   6.896
 2928SOL    HW1 9683   6.529   2.929   6.970
 2928SOL    HW2 9684   6.419   2.856   6.875
 2929SOL     OW 9685   2.692   2.396   4.835
 2929SOL    HW1 9686   2.665   2.493   4.835
 2929SOL    HW2 9687   2.709   2.367   4.740
 2930SOL     OW 9688   6.452   4.377   5.020
 2930SOL    HW1 9689   6.516   4.413   4.952
 2930SOL    HW2 9690   6.424   4.285   4.994
 2931SOL     OW 9691   5.150   4.444   5.447
 2931SOL    HW1 9692   5.194   4.517   5.395
 2931SOL    HW2 9693   5.075   4.405   5.393
 2932SOL     OW 9694   6.809   5.508   0.935
 2932SOL    HW1 9695   6.822   5.603   0.905
 2932SOL    HW2 9696   6.737   5.466   0.880
 2933SOL     OW 9697   1.407   0.553   0.945
 2933SOL    HW1 9698   1.403   0.513   0.854
 2933SOL    HW2 9699   1.470   0.631   0.945
 2934SOL     OW 9700   3.987   4.498   0.473
 2934SOL    HW1 9701   3.963   4.440   0.395
 2934SOL    HW2 9702   3.904   4.524   0.521
 2935SOL     OW 9703   6.922   2.269   6.298
 2935SOL    HW1 9704   6.892   2.178   6.269
 2935SOL    HW2 9705   7.018   2.282   6.272
 2936SOL     OW 9706   3.989   6.168   0.799
 2936SOL    HW1 9707   4.078   6.210   0.819
 2936SOL    HW2 9708   3.934   6.164   0.882
 2937SOL     OW 9709   4.247   5.287   2.436
 2937SOL    HW1 9710   4.182   5.228   2.387
 2937SOL    HW2 9711   4.268   5.246   2.525
 2938SOL     OW 9712   6.302   5.856   6.901
 2938SOL    HW1 9713   6.206   5.884   6.902
 2938SOL    HW2 9714   6.315   5.782   6.967
 2939SOL     OW 9715   0.579   5.571   1.883
 2939SOL    HW1 9716   0.677   5.588   1.877
 2939SOL    HW2 9717   0.529   5.657   1.868
 2940SOL     OW 9718   4.444   6.629   3.642
 2940SOL    HW1 9719   4.383   6.689   3.590
 2940SOL    HW2 9720   4.501   6.683   3.703
 2941SOL     OW 9721   1.507   3.823   3.807
 2941SOL    HW1 9722   1.597   3.803   3.844
 2941SOL    HW2 9723   1.467   3.741   3.767
 2942SOL     OW 9724   3.394   1.780   1.627
 2942SOL    HW1 9725   3.298   1.766   1.653
 2942SOL    HW2 9726   3.420   1.874   1.648
 2943SOL     OW 9727   6.122   3.937   3.199
 2943SOL    HW1 9728   6.181   3.857   3.204
 2943SOL    HW2 9729   6.100   3.956   3.103
 2944SOL     OW 9730   1.726   5.549   2.777
 2944SOL    HW1 9731   1.790   5.617   2.812
 2944SOL    HW2 9732   1.657   5.593   2.719
 2945SOL     OW 9733   4.976   4.327   1.757
 2945SOL    HW1 9734   4.903   4.308   1.822
 2945SOL    HW2 9735   5.053   4.369   1.805
 2946SOL     OW 9736   3.620   3.881   5.431
 2946SOL    HW1 9737   3.682   3.807   5.406
 2946SOL    HW2 9738   3.572   3.913   5.350
 2947SOL     OW 9739   6.510   6.670   0.671
 2947SOL    HW1 9740   6.542   6.751   0.719
 2947SOL    HW2 9741   6.444   6.697   0.600
 2948SOL     OW 9742   6.228   4.083   1.767
 2948SOL    HW1 9743   6.278   4.167   1.790
 2948SOL    HW2 9744   6.132   4.105   1.747
 2949SOL     OW 9745   1.322   0.197   0.457
 2949SOL    HW1 9746   1.327   0.114   0.402
 2949SOL    HW2 9747   1.271   0.179   0.540
 2950SOL     OW 9748   5.805   4.626   2.974
 2950SOL    HW1 9749   5.788   4.704   3.034
 2950SOL    HW2 9750   5.721   4.602   2.926
 2951SOL     OW 9751   6.831   1.189   1.808
 2951SOL    HW1 9752   6.894   1.113   1.823
 2951SOL    HW2 9753   6.740   1.153   1.785
 2952SOL     OW 9754   5.804   1.809   3.837
 2952SOL    HW1 9755   5.719   1.762   3.857
 2952SOL    HW2 9756   5.870   1.792   3.910
 2953SOL     OW 9757   1.007   5.423   4.248
 2953SOL    HW1 9758   0.967   5.475   4.172
 2953SOL    HW2 9759   1.007   5.326   4.226
 2954SOL     OW 9760   0.082   4.328   6.363
 2954SOL    HW1 9761   7.019   4.285   6.326
 2954SOL    HW2 9762   0.057   4.401   6.426
 2955SOL     OW 9763   2.022   4.481   6.451
 2955SOL    HW1 9764   1.980   4.413   6.391
 2955SOL    HW2 9765   2.081   4.541   6.396
 2956SOL     OW 9766   6.237   4.787   3.187
 2956SOL    HW1 9767   6.217   4.842   3.106
 2956SOL    HW2 9768   6.306   4.718   3.165
 2957SOL     OW 9769   2.599   5.149   0.995
 2957SOL    HW1 9770   2.691   5.160   0.957
 2957SOL    HW2 9771   2.566   5.237   1.027
 2958SOL     OW 9772   1.953   5.683   2.066
 2958SOL    HW1 9773   1.906   5.674   2.154
 2958SOL    HW2 9774   2.052   5.676   2.079
 2959SOL     OW 9775   0.251   3.558   2.932
 2959SOL    HW1 9776   0.310   3.601   3.001
 2959SOL    HW2 9777   0.224   3.467   2.963
 2960SOL     OW 9778   5.104   0.346   0.319
 2960SOL    HW1 9779   5.150   0.432   0.343
 2960SOL    HW2 9780   5.172   0.280   0.289
 2961SOL     OW 9781   5.375   4.187   1.959
 2961SOL    HW1 9782   5.341   4.150   2.045
 2961SOL    HW2 9783   5.473   4.204   1.967
 2962SOL     OW 9784   6.849   0.204   2.932
 2962SOL    HW1 9785   6.895   0.182   2.846
 2962SOL    HW2 9786   6.783   0.277   2.918
 2963SOL     OW 9787   2.181   1.178   4.899
 2963SOL    HW1 9788   2.235   1.201   4.818
 2963SOL    HW2 9789   2.172   1.259   4.957
 2964SOL     OW 9790   1.396   1.560   0.355
 2964SOL    HW1 9791   1.376   1.550   0.257
 2964SOL    HW2 9792   1.474   1.622   0.367
 2965SOL     OW 9793   0.510   6.845   5.210
 2965SOL    HW1 9794   0.472   6.930   5.175
 2965SOL    HW2 9795   0.481   6.832   5.305
 2966SOL     OW 9796   3.349   6.144   2.657
 2966SOL    HW1 9797   3.330   6.242   2.669
 2966SOL    HW2 9798   3.267   6.098   2.625
 2967SOL     OW 9799   5.395   6.857   5.260
 2967SOL    HW1 9800   5.329   6.915   5.307
 2967SOL    HW2 9801   5.441   6.798   5.327
 2968SOL     OW 9802   2.201   3.088   1.134
 2968SOL    HW1 9803   2.237   3.025   1.202
 2968SOL    HW2 9804   2.155   3.164   1.180
 2969SOL     OW 9805   5.005   3.307   4.458
 2969SOL    HW1 9806   5.082   3.364   4.430
 2969SOL    HW2 9807   5.036   3.212   4.468
 2970SOL     OW 9808   2.497   2.124   4.318
 2970SOL    HW1 9809   2.415   2.153   4.366
 2970SOL    HW2 9810   2.578   2.146   4.374
 2971SOL     OW 9811   5.293   2.655   6.422
 2971SOL    HW1 9812   5.357   2.622   6.353
 2971SOL    HW2 9813   5.224   2.584   6.440
 2972SOL     OW 9814   5.731   5.654   0.194
 2972SOL    HW1 9815   5.666   5.712   0.243
 2972SOL    HW2 9816   5.730   5.677   0.097
 2973SOL     OW 9817   4.924   1.528   2.729
 2973SOL    HW1 9818   4.890   1.525   2.823
 2973SOL    HW2 9819   4.972   1.615   2.714
 2974SOL     OW 9820   5.102   6.305   2.887
 2974SOL    HW1 9821   5.165   6.231   2.912
 2974SOL    HW2 9822   5.089   6.365   2.966
 2975SOL     OW 9823   4.864   4.032   3.638
 2975SOL    HW1 9824   4.840   3.989   3.725
 2975SOL    HW2 9825   4.928   4.106   3.654
 2976SOL     OW 9826   4.196   2.216   2.006
 2976SOL    HW1 9827   4.199   2.315   1.993
 2976SOL    HW2 9828   4.234   2.171   1.924
 2977SOL     OW 9829   1.441   0.972   1.439
 2977SOL    HW1 9830   1.498   1.049   1.410
 2977SOL    HW2 9831   1.479   0.887   1.403
 2978SOL     OW 9832   4.608   5.057   6.078
 2978SOL    HW1 9833   4.700   5.054   6.117
 2978SOL    HW2 9834   4.603   5.131   6.011
 2979SOL     OW 9835   3.429   0.531   3.845
 2979SOL    HW1 9836   3.471   0.512   3.933
 2979SOL    HW2 9837   3.381   0.619   3.849
 2980SOL     OW 9838   3.986   3.437   5.152
 2980SOL    HW1 9839   4.057   3.367   5.141
 2980SOL    HW2 9840   3.927   3.412   5.230
 2981SOL     OW 9841   1.858   1.266   1.469
 2981SOL    HW1 9842   1.921   1.210   1.415
 2981SOL    HW2 9843   1.871   1.246   1.566
 2982SOL     OW 9844   0.630   0.444   1.573
 2982SOL    HW1 9845   0.567   0.405   1.507
 2982SOL    HW2 9846   0.635   0.544   1.561
 2983SOL     OW 9847   6.280   3.327   5.747
 2983SOL    HW1 9848   6.195   3.315   5.696
 2983SOL    HW2 9849   6.291   3.423   5.772
 2984SOL     OW 9850   0.897   4.943   1.367
 2984SOL    HW1 9851   0.811   4.991   1.354
 2984SOL    HW2 9852   0.918   4.890   1.285
 2985SOL     OW 9853   6.991   6.966   5.648
 2985SOL    HW1 9854   0.035   6.987   5.574
 2985SOL    HW2 9855   6.986   0.024   5.711
 2986SOL     OW 9856   3.869   3.521   2.340
 2986SOL    HW1 9857   3.861   3.515   2.240
 2986SOL    HW2 9858   3.802   3.586   2.375
 2987SOL     OW 9859   1.941   0.029   4.829
 2987SOL    HW1 9860   1.944   0.010   4.731
 2987SOL    HW2 9861   1.848   0.054   4.856
 2988SOL     OW 9862   0.155   1.528   6.878
 2988SOL    HW1 9863   0.146   1.625   6.897
 2988SOL    HW2 9864   0.237   1.512   6.822
 2989SOL     OW 9865   4.845   3.728   4.347
 2989SOL    HW1 9866   4.892   3.654   4.395
 2989SOL    HW2 9867   4.751   3.700   4.326
 2990SOL     OW 9868   5.350   1.015   4.338
 2990SOL    HW1 9869   5.396   1.104   4.344
 2990SOL    HW2 9870   5.302   0.996   4.424
 2991SOL     OW 9871   0.270   4.094   1.421
 2991SOL    HW1 9872   0.334   4.153   1.470
 2991SOL    HW2 9873   0.293   4.092   1.324
 2992SOL     OW 9874   0.316   3.309   5.501
 2992SOL    HW1 9875   0.388   3.253   5.543
 2992SOL    HW2 9876   0.339   3.327   5.406
 2993SOL     OW 9877   1.150   4.437   0.345
 2993SOL    HW1 9878   1.228   4.488   0.383
 2993SOL    HW2 9879   1.081   4.425   0.416
 2994SOL     OW 9880   4.167   6.306   6.367
 2994SOL    HW1 9881   4.095   6.330   6.432
 2994SOL    HW2 9882   4.126   6.276   6.281
 2995SOL     OW 9883   5.185   0.586   1.251
 2995SOL    HW1 9884   5.149   0.655   1.313
 2995SOL    HW2 9885   5.189   0.622   1.159
 2996SOL     OW 9886   6.811   0.391   4.707
 2996SOL    HW1 9887   6.779   0.296   4.708
 2996SOL    HW2 9888   6.901   0.395   4.664
 2997SOL     OW 9889   5.454   6.935   4.101
 2997SOL    HW1 9890   5.447   0.012   4.127
 2997SOL    HW2 9891   5.543   6.918   4.060
 2998SOL     OW 9892   2.534   1.516   2.911
 2998SOL    HW1 9893   2.618   1.479   2.951
 2998SOL    HW2 9894   2.539   1.512   2.811
 2999SOL     OW 9895   2.178   4.218   0.594
 2999SOL    HW1 9896   2.193   4.190   0.689
 2999SOL    HW2 9897   2.259   4.267   0.560
 3000SOL     OW 9898   2.904   3.629   4.918
 3000SOL    HW1 9899   2.872   3.655   5.009
 3000SOL    HW2 9900   2.825   3.606   4.861
 3001SOL     OW 9901   5.486   0.737   5.748
 3001SOL    HW1 9902   5.426   0.809   5.782
 3001SOL    HW2 9903   5.499   0.668   5.820
 3002SOL     OW 9904   1.792   1.975   1.727
 3002SOL    HW1 9905   1.727   1.917   1.678
 3002SOL    HW2 9906   1.743   2.051   1.771
 3003SOL     OW 9907   1.489   6.225   0.751
 3003SOL    HW1 9908   1.516   6.309   0.704
 3003SOL    HW2 9909   1.570   6.173   0.778
 3004SOL     OW 9910   2.378   6.244   3.997
 3004SOL    HW1 9911   2.372   6.145   4.011
 3004SOL    HW2 9912   2.430   6.285   4.071
 3005SOL     OW 9913   1.106   2.238   6.138
 3005SOL    HW1 9914   1.100   2.318   6.198
 3005SOL    HW2 9915   1.083   2.265   6.045
 3006SOL     OW 9916   5.248   1.356   5.490
 3006SOL    HW1 9917   5.190   1.436   5.476
 3006SOL    HW2 9918   5.195   1.282   5.531
 3007SOL     OW 9919   5.238   5.528   6.998
 3007SOL    HW1 9920   5.320   5.585   7.002
 3007SOL    HW2 9921   5.157   5.586   6.986
 3008SOL     OW 9922   5.116   2.947   6.216
 3008SOL    HW1 9923   5.210   2.936   6.246
 3008SOL    HW2 9924   5.087   2.865   6.166
 3009SOL     OW 9925   0.094   3.469   2.273
 3009SOL    HW1 9926   0.123   3.378   2.245
 3009SOL    HW2 9927   0.164   3.511   2.330
 3010SOL     OW 9928   3.704   5.797   6.862
 3010SOL    HW1 9929   3.651   5.777   6.944
 3010SOL    HW2 9930   3.708   5.716   6.804
 3011SOL     OW 9931   6.402   6.992   1.151
 3011SOL    HW1 9932   6.428   0.029   1.229
 3011SOL    HW2 9933   6.421   0.022   1.066
 3012SOL     OW 9934   2.356   2.414   5.366
 3012SOL    HW1 9935   2.265   2.431   5.331
 3012SOL    HW2 9936   2.392   2.329   5.326
 3013SOL     OW 9937   0.960   4.371   5.325
 3013SOL    HW1 9938   0.968   4.285   5.274
 3013SOL    HW2 9939   1.034   4.378   5.391
 3014SOL     OW 9940   5.050   6.710   5.846
 3014SOL    HW1 9941   5.079   6.638   5.783
 3014SOL    HW2 9942   5.131   6.756   5.883
 3015SOL     OW 9943   1.292   0.810   6.976
 3015SOL    HW1 9944   1.348   0.737   7.016
 3015SOL    HW2 9945   1.241   0.773   6.898
 3016SOL     OW 9946   1.887   6.369   4.377
 3016SOL    HW1 9947   1.940   6.358   4.293
 3016SOL    HW2 9948   1.937   6.329   4.453
 3017SOL     OW 9949   0.366   5.339   0.963
 3017SOL    HW1 9950   0.393   5.423   1.010
 3017SOL    HW2 9951   0.443   5.302   0.912
 3018SOL     OW 9952   3.443   6.910   0.592
 3018SOL    HW1 9953   3.422   7.005   0.614
 3018SOL    HW2 9954   3.541   6.901   0.573
 3019SOL     OW 9955   2.142   0.886   5.636
 3019SOL    HW1 9956   2.206   0.958   5.610
 3019SOL    HW2 9957   2.192   0.800   5.646
 3020SOL     OW 9958   6.180   4.179   6.746
 3020SOL    HW1 9959   6.252   4.111   6.757
 3020SOL    HW2 9960   6.117   4.174   6.824
 3021SOL     OW 9961   4.498   0.020   4.682
 3021SOL    HW1 9962   4.551   6.958   4.657
 3021SOL    HW2 9963   4.471   0.069   4.599
 3022SOL     OW 9964   3.558   5.666   3.760
 3022SOL    HW1 9965   3.642   5.682   3.812
 3022SOL    HW2 9966   3.542   5.567   3.752
 3023SOL     OW 9967   4.929   6.176   3.457
 3023SOL    HW1 9968   5.026   6.170   3.481
 3023SOL    HW2 9969   4.902   6.272   3.449
 3024SOL     OW 9970   0.069   6.656   6.794
 3024SOL    HW1 9971   0.121   6.738   6.818
 3024SOL    HW2 9972   0.028   6.669   6.704
 3025SOL     OW 9973   3.479   5.364   0.068
 3025SOL    HW1 9974   3.448   5.354   0.163
 3025SOL    HW2 9975   3.434   5.295   0.011
 3026SOL     OW 9976   6.676   0.852   1.545
 3026SOL    HW1 9977   6.703   0.944   1.516
 3026SOL    HW2 9978   6.753   0.806   1.588
 3027SOL     OW 9979   5.041   1.132   1.442
 3027SOL    HW1 9980   4.990   1.169   1.364
 3027SOL    HW2 9981   5.072   1.207   1.501
 3028SOL     OW 9982   3.141   3.602   5.559
 3028SOL    HW1 9983   3.098   3.520   5.596
 3028SOL    HW2 9984   3.090   3.683   5.587
 3029SOL     OW 9985   0.244   3.095   4.769
 3029SOL    HW1 9986   0.189   3.081   4.687
 3029SOL    HW2 9987   0.225   3.022   4.835
 3030SOL     OW 9988   2.404   3.201   0.747
 3030SOL    HW1 9989   2.416   3.116   0.695
 3030SOL    HW2 9990   2.308   3.230   0.741
 3031SOL     OW 9991   1.184   6.691   0.824
 3031SOL    HW1 9992   1.239   6.741   0.891
 3031SOL    HW2 9993   1.232   6.607   0.799
 3032SOL     OW 9994   2.250   0.210   2.763
 3032SOL    HW1 9995   2.303   0.125   2.766
 3032SOL    HW2 9996   2.258   0.257   2.851
 3033SOL     OW 9997   6.818   2.107   4.958
 3033SOL    HW1 9998   6.913   2.127   4.979
 3033SOL    HW2 9999   6.805   2.103   4.859
 3034SOL     OW10000   6.597   4.991   3.174
 3034SOL    HW110001   6.554   5.067   3.222
 3034SOL    HW210002   6.587   4.907   3.228
 3035SOL     OW10003   1.578   2.983   6.791
 3035SOL    HW110004   1.545   3.020   6.879
 3035SOL    HW210005   1.567   3.053   6.720
 3036SOL     OW10006   3.517   2.341   6.440
 3036SOL    HW110007   3.542   2.414   6.504
 3036SOL    HW210008   3.574   2.349   6.357
 3037SOL     OW10009   0.421   5.686   6.877
 3037SOL    HW110010   0.414   5.775   6.922
 3037SOL    HW210011   0.333   5.639   6.883
 3038SOL     OW10012   5.755   4.497   6.791
 3038SOL    HW110013   5.777   4.463   6.699
 3038SOL    HW210014   5.840   4.517   6.840
 3039SOL     OW10015   7.004   3.608   6.224
 3039SOL    HW110016   0.080   3.579   6.208
 3039SOL    HW210017   6.947   3.579   6.147
 3040SOL     OW10018   4.870   4.481   6.133
 3040SOL    HW110019   4.864   4.483   6.033
 3040SOL    HW210020   4.962   4.507   6.161
 3041SOL     OW10021   1.574   4.626   5.747
 3041SOL    HW110022   1.538   4.629   5.654
 3041SOL    HW210023   1.673   4.611   5.743
 3042SOL     OW10024   6.886   5.045   3.260
 3042SOL    HW110025   6.873   5.037   3.358
 3042SOL    HW210026   6.804   5.014   3.213
 3043SOL     OW10027   2.846   4.858   0.586
 3043SOL    HW110028   2.790   4.865   0.669
 3043SOL    HW210029   2.790   4.827   0.510
 3044SOL     OW10030   3.787   3.508   4.983
 3044SOL    HW110031   3.863   3.470   5.036
 3044SOL    HW210032   3.784   3.607   4.996
 3045SOL     OW10033   4.774   1.749   2.030
 3045SOL    HW110034   4.757   1.832   2.084
 3045SOL    HW210035   4.807   1.775   1.939
 3046SOL     OW10036   5.345   6.170   0.778
 3046SOL    HW110037   5.302   6.260   0.772
 3046SOL    HW210038   5.363   6.135   0.686
 3047SOL     OW10039   5.801   1.385   4.876
 3047SOL    HW110040   5.810   1.484   4.880
 3047SOL    HW210041   5.808   1.347   4.968
 3048SOL     OW10042   3.632   4.415   0.869
 3048SOL    HW110043   3.561   4.485   0.879
 3048SOL    HW210044   3.682   4.429   0.784
 3049SOL     OW10045   1.472   1.227   3.374
 3049SOL    HW110046   1.425   1.264   3.454
 3049SOL    HW210047   1.569   1.217   3.394
 3050SOL     OW10048   3.005   2.386   1.144
 3050SOL    HW110049   2.912   2.406   1.174
 3050SOL    HW210050   3.007   2.296   1.099
 3051SOL     OW10051   2.093   5.395   5.459
 3051SOL    HW110052   2.078   5.416   5.363
 3051SOL    HW210053   2.079   5.298   5.476
 3052SOL     OW10054   0.109   6.726   2.232
 3052SOL    HW110055   0.111   6.677   2.146
 3052SOL    HW210056   0.014   6.745   2.258
 3053SOL     OW10057   0.849   4.305   6.958
 3053SOL    HW110058   0.900   4.279   0.021
 3053SOL    HW210059   0.836   4.224   6.900
 3054SOL     OW10060   5.521   0.896   2.363
 3054SOL    HW110061   5.530   0.824   2.294
 3054SOL    HW210062   5.446   0.958   2.337
 3055SOL     OW10063   5.813   5.987   6.831
 3055SOL    HW110064   5.898   5.984   6.778
 3055SOL    HW210065   5.811   6.071   6.886
 3056SOL     OW10066   4.865   1.497   5.398
 3056SOL    HW110067   4.934   1.526   5.465
 3056SOL    HW210068   4.822   1.412   5.430
 3057SOL     OW10069   5.607   4.361   3.440
 3057SOL    HW110070   5.656   4.420   3.376
 3057SOL    HW210071   5.627   4.265   3.419
 3058SOL     OW10072   0.307   4.474   6.791
 3058SOL    HW110073   0.248   4.400   6.758
 3058SOL    HW210074   0.297   4.554   6.731
 3059SOL     OW10075   2.046   2.222   3.730
 3059SOL    HW110076   1.963   2.251   3.778
 3059SOL    HW210077   2.031   2.131   3.691
 3060SOL     OW10078   5.453   5.169   5.121
 3060SOL    HW110079   5.408   5.181   5.210
 3060SOL    HW210080   5.481   5.074   5.110
 3061SOL     OW10081   5.564   5.915   4.804
 3061SOL    HW110082   5.518   5.845   4.750
 3061SOL    HW210083   5.510   5.999   4.804
 3062SOL     OW10084   4.162   4.525   1.194
 3062SOL    HW110085   4.240   4.464   1.182
 3062SOL    HW210086   4.192   4.620   1.181
 3063SOL     OW10087   0.245   4.304   1.749
 3063SOL    HW110088   0.331   4.266   1.713
 3063SOL    HW210089   0.249   4.404   1.745
 3064SOL     OW10090   4.929   2.033   6.484
 3064SOL    HW110091   5.023   2.001   6.483
 3064SOL    HW210092   4.871   1.967   6.436
 3065SOL     OW10093   6.414   1.385   6.654
 3065SOL    HW110094   6.426   1.484   6.660
 3065SOL    HW210095   6.498   1.340   6.686
 3066SOL     OW10096   5.030   6.265   5.980
 3066SOL    HW110097   5.044   6.350   6.030
 3066SOL    HW210098   5.094   6.260   5.903
 3067SOL     OW10099   1.621   2.001   6.027
 3067SOL    HW110100   1.565   2.066   5.975
 3067SOL    HW210101   1.563   1.948   6.089
 3068SOL     OW10102   0.594   0.975   0.603
 3068SOL    HW110103   0.653   0.972   0.521
 3068SOL    HW210104   0.625   0.907   0.669
 3069SOL     OW10105   5.352   6.971   2.586
 3069SOL    HW110106   5.421   6.915   2.631
 3069SOL    HW210107   5.273   6.983   2.647
 3070SOL     OW10108   2.407   0.807   1.017
 3070SOL    HW110109   2.353   0.774   0.939
 3070SOL    HW210110   2.422   0.905   1.008
 3071SOL     OW10111   6.401   3.988   4.239
 3071SOL    HW110112   6.309   3.991   4.200
 3071SOL    HW210113   6.403   4.039   4.325
 3072SOL     OW10114   2.001   0.441   6.770
 3072SOL    HW110115   1.995   0.429   6.671
 3072SOL    HW210116   2.030   0.356   6.813
 3073SOL     OW10117   6.364   4.896   1.119
 3073SOL    HW110118   6.433   4.932   1.181
 3073SOL    HW210119   6.334   4.968   1.057
 3074SOL     OW10120   2.212   3.187   1.794
 3074SOL    HW110121   2.226   3.122   1.719
 3074SOL    HW210122   2.278   3.262   1.786
 3075SOL     OW10123   3.502   5.435   2.179
 3075SOL    HW110124   3.558   5.362   2.139
 3075SOL    HW210125   3.410   5.431   2.141
 3076SOL     OW10126   0.762   0.394   5.180
 3076SOL    HW110127   0.729   0.304   5.153
 3076SOL    HW210128   0.809   0.388   5.268
 3077SOL     OW10129   6.792   3.966   2.450
 3077SOL    HW110130   6.802   4.011   2.538
 3077SOL    HW210131   6.756   3.873   2.463
 3078SOL     OW10132   6.932   3.504   1.944
 3078SOL    HW110133   6.944   3.418   1.893
 3078SOL    HW210134   6.960   3.581   1.887
 3079SOL     OW10135   2.223   3.383   5.314
 3079SOL    HW110136   2.145   3.321   5.327
 3079SOL    HW210137   2.308   3.331   5.324
 3080SOL     OW10138   3.948   5.037   0.521
 3080SOL    HW110139   3.938   4.949   0.567
 3080SOL    HW210140   3.906   5.032   0.431
 3081SOL     OW10141   1.342   3.866   0.214
 3081SOL    HW110142   1.439   3.885   0.227
 3081SOL    HW210143   1.303   3.932   0.150
 3082SOL     OW10144   4.412   4.940   4.409
 3082SOL    HW110145   4.487   4.875   4.417
 3082SOL    HW210146   4.335   4.897   4.362
 3083SOL     OW10147   3.438   6.260   1.714
 3083SOL    HW110148   3.386   6.207   1.648
 3083SOL    HW210149   3.505   6.201   1.759
 3084SOL     OW10150   0.582   3.384   4.249
 3084SOL    HW110151   0.519   3.392   4.325
 3084SOL    HW210152   0.557   3.449   4.177
 3085SOL     OW10153   5.196   4.514   0.462
 3085SOL    HW110154   5.286   4.473   0.447
 3085SOL    HW210155   5.202   4.583   0.534
 3086SOL     OW10156   6.072   6.963   6.194
 3086SOL    HW110157   6.117   6.977   6.282
 3086SOL    HW210158   6.124   6.898   6.139
 3087SOL     OW10159   3.463   6.690   1.699
 3087SOL    HW110160   3.489   6.655   1.789
 3087SOL    HW210161   3.444   6.788   1.706
 3088SOL     OW10162   1.878   2.800   5.728
 3088SOL    HW110163   1.831   2.885   5.749
 3088SOL    HW210164   1.825   2.749   5.659
 3089SOL     OW10165   3.802   6.455   4.989
 3089SOL    HW110166   3.778   6.462   5.085
 3089SOL    HW210167   3.771   6.367   4.953
 3090SOL     OW10168   1.355   2.202   2.374
 3090SOL    HW110169   1.382   2.156   2.289
 3090SOL    HW210170   1.430   2.196   2.440
 3091SOL     OW10171   1.084   2.083   1.312
 3091SOL    HW110172   1.072   2.174   1.351
 3091SOL    HW210173   1.154   2.086   1.240
 3092SOL     OW10174   5.778   1.089   2.684
 3092SOL    HW110175   5.686   1.048   2.685
 3092SOL    HW210176   5.779   1.168   2.623
 3093SOL     OW10177   5.749   5.420   0.329
 3093SOL    HW110178   5.770   5.511   0.294
 3093SOL    HW210179   5.786   5.410   0.422
 3094SOL     OW10180   2.800   1.964   6.855
 3094SOL    HW110181   2.827   2.055   6.825
 3094SOL    HW210182   2.714   1.939   6.810
 3095SOL     OW10183   1.476   3.700   5.068
 3095SOL    HW110184   1.419   3.720   4.988
 3095SOL    HW210185   1.565   3.666   5.037
 3096SOL     OW10186   0.792   3.228   4.517
 3096SOL    HW110187   0.744   3.315   4.503
 3096SOL    HW210188   0.844   3.205   4.436
 3097SOL     OW10189   5.423   2.756   5.390
 3097SOL    HW110190   5.418   2.810   5.474
 3097SOL    HW210191   5.340   2.700   5.381
 3098SOL     OW10192   1.923   2.949   2.096
 3098SOL    HW110193   1.853   2.959   2.025
 3098SOL    HW210194   1.970   3.036   2.109
 3099SOL     OW10195   0.579   5.991   4.255
 3099SOL    HW110196   0.632   6.053   4.197
 3099SOL    HW210197   0.508   6.042   4.303
 3100SOL     OW10198   6.179   4.986   2.120
 3100SOL    HW110199   6.168   4.976   2.219
 3100SOL    HW210200   6.191   4.895   2.079
 3101SOL     OW10201   3.115   6.448   5.437
 3101SOL    HW110202   3.041   6.440   5.371
 3101SOL    HW210203   3.201   6.463   5.388
 3102SOL     OW10204   6.977   5.063   0.906
 3102SOL    HW110205   6.914   5.120   0.853
 3102SOL    HW210206   0.048   5.106   0.909
 3103SOL     OW10207   3.405   1.221   1.163
 3103SOL    HW110208   3.341   1.161   1.115
 3103SOL    HW210209   3.480   1.167   1.201
 3104SOL     OW10210   5.030   0.912   5.559
 3104SOL    HW110211   5.080   0.900   5.644
 3104SOL    HW210212   5.078   0.864   5.485
 3105SOL     OW10213   6.256   3.877   0.599
 3105SOL    HW110214   6.285   3.970   0.576
 3105SOL    HW210215   6.241   3.825   0.514
 3106SOL     OW10216   6.329   0.310   6.374
 3106SOL    HW110217   6.389   0.313   6.293
 3106SOL    HW210218   6.352   0.386   6.434
 3107SOL     OW10219   3.798   1.366   5.913
 3107SOL    HW110220   3.795   1.267   5.931
 3107SOL    HW210221   3.789   1.416   6.000
 3108SOL     OW10222   2.330   4.316   4.055
 3108SOL    HW110223   2.355   4.336   3.960
 3108SOL    HW210224   2.297   4.221   4.061
 3109SOL     OW10225   6.389   5.835   4.217
 3109SOL    HW110226   6.411   5.743   4.187
 3109SOL    HW210227   6.347   5.886   4.142
 3110SOL     OW10228   0.723   4.459   3.061
 3110SOL    HW110229   0.647   4.409   3.019
 3110SOL    HW210230   0.695   4.553   3.079
 3111SOL     OW10231   5.787   4.543   4.107
 3111SOL    HW110232   5.833   4.520   4.193
 3111SOL    HW210233   5.697   4.501   4.105
 3112SOL     OW10234   4.163   2.060   6.272
 3112SOL    HW110235   4.065   2.078   6.260
 3112SOL    HW210236   4.207   2.058   6.183
 3113SOL     OW10237   2.422   5.831   3.058
 3113SOL    HW110238   2.467   5.750   3.096
 3113SOL    HW210239   2.387   5.810   2.967
 3114SOL     OW10240   4.749   1.099   6.028
 3114SOL    HW110241   4.754   1.062   6.120
 3114SOL    HW210242   4.812   1.176   6.019
 3115SOL     OW10243   5.015   5.312   4.993
 3115SOL    HW110244   5.021   5.256   4.910
 3115SOL    HW210245   5.014   5.409   4.968
 3116SOL     OW10246   0.862   1.271   1.070
 3116SOL    HW110247   0.800   1.255   1.147
 3116SOL    HW210248   0.813   1.323   0.999
 3117SOL     OW10249   5.240   1.174   5.789
 3117SOL    HW110250   5.183   1.188   5.708
 3117SOL    HW210251   5.334   1.154   5.760
 3118SOL     OW10252   1.304   0.918   3.405
 3118SOL    HW110253   1.310   1.001   3.349
 3118SOL    HW210254   1.244   0.852   3.359
 3119SOL     OW10255   4.307   4.919   5.228
 3119SOL    HW110256   4.374   4.939   5.299
 3119SOL    HW210257   4.342   4.846   5.169
 3120SOL     OW10258   1.588   6.029   5.283
 3120SOL    HW110259   1.616   5.974   5.362
 3120SOL    HW210260   1.653   6.014   5.208
 3121SOL     OW10261   4.468   1.470   4.437
 3121SOL    HW110262   4.553   1.505   4.398
 3121SOL    HW210263   4.433   1.396   4.379
 3122SOL     OW10264   4.486   5.529   4.490
 3122SOL    HW110265   4.505   5.626   4.502
 3122SOL    HW210266   4.569   5.476   4.510
 3123SOL     OW10267   2.406   1.521   3.749
 3123SOL    HW110268   2.437   1.427   3.740
 3123SOL    HW210269   2.338   1.527   3.823
 3124SOL     OW10270   4.846   6.738   3.572
 3124SOL    HW110271   4.754   6.779   3.571
 3124SOL    HW210272   4.881   6.739   3.665
 3125SOL     OW10273   1.181   1.390   5.250
 3125SOL    HW110274   1.110   1.433   5.194
 3125SOL    HW210275   1.202   1.300   5.213
 3126SOL     OW10276   5.326   5.531   5.314
 3126SOL    HW110277   5.229   5.533   5.336
 3126SOL    HW210278   5.342   5.467   5.239
 3127SOL     OW10279   0.572   0.813   5.153
 3127SOL    HW110280   0.577   0.912   5.142
 3127SOL    HW210281   0.596   0.788   5.246
 3128SOL     OW10282   4.518   0.712   0.384
 3128SOL    HW110283   4.434   0.679   0.340
 3128SOL    HW210284   4.596   0.692   0.326
 3129SOL     OW10285   4.336   3.578   0.433
 3129SOL    HW110286   4.320   3.676   0.441
 3129SOL    HW210287   4.374   3.543   0.519
 3130SOL     OW10288   0.764   4.032   2.115
 3130SOL    HW110289   0.673   4.028   2.075
 3130SOL    HW210290   0.824   4.088   2.058
 3131SOL     OW10291   6.523   4.098   3.092
 3131SOL    HW110292   6.531   4.047   3.177
 3131SOL    HW210293   6.436   4.147   3.089
 3132SOL     OW10294   4.349   4.891   6.696
 3132SOL    HW110295   4.438   4.846   6.707
 3132SOL    HW210296   4.309   4.907   6.786
 3133SOL     OW10297   4.064   0.306   4.146
 3133SOL    HW110298   3.983   0.342   4.193
 3133SOL    HW210299   4.089   0.218   4.185
 3134SOL     OW10300   4.722   4.976   2.961
 3134SOL    HW110301   4.656   5.051   2.965
 3134SOL    HW210302   4.684   4.902   2.906
 3135SOL     OW10303   4.699   6.194   6.767
 3135SOL    HW110304   4.719   6.189   6.669
 3135SOL    HW210305   4.611   6.239   6.781
 3136SOL     OW10306   6.537   1.959   2.539
 3136SOL    HW110307   6.445   1.921   2.532
 3136SOL    HW210308   6.532   2.059   2.541
 3137SOL     OW10309   6.036   6.890   6.627
 3137SOL    HW110310   5.998   6.837   6.703
 3137SOL    HW210311   5.968   6.896   6.553
 3138SOL     OW10312   5.399   5.652   3.438
 3138SOL    HW110313   5.368   5.747   3.447
 3138SOL    HW210314   5.444   5.625   3.523
 3139SOL     OW10315   2.617   4.910   1.715
 3139SOL    HW110316   2.646   5.006   1.718
 3139SOL    HW210317   2.537   4.901   1.656
 3140SOL     OW10318   0.141   0.198   6.405
 3140SOL    HW110319   0.194   0.247   6.336
 3140SOL    HW210320   0.043   0.209   6.385
 3141SOL     OW10321   6.434   2.442   6.018
 3141SOL    HW110322   6.482   2.363   6.056
 3141SOL    HW210323   6.426   2.513   6.088
 3142SOL     OW10324   4.853   1.291   2.633
 3142SOL    HW110325   4.762   1.275   2.671
 3142SOL    HW210326   4.883   1.384   2.657
 3143SOL     OW10327   5.858   1.198   0.435
 3143SOL    HW110328   5.876   1.127   0.503
 3143SOL    HW210329   5.913   1.181   0.354
 3144SOL     OW10330   3.994   3.714   6.238
 3144SOL    HW110331   4.007   3.726   6.336
 3144SOL    HW210332   3.994   3.803   6.192
 3145SOL     OW10333   0.586   6.104   1.163
 3145SOL    HW110334   0.559   6.009   1.178
 3145SOL    HW210335   0.536   6.164   1.227
 3146SOL     OW10336   0.438   0.161   5.310
 3146SOL    HW110337   0.346   0.185   5.281
 3146SOL    HW210338   0.504   0.192   5.241
 3147SOL     OW10339   3.936   5.213   0.111
 3147SOL    HW110340   3.896   5.130   0.072
 3147SOL    HW210341   3.871   5.288   0.101
 3148SOL     OW10342   6.706   5.089   2.549
 3148SOL    HW110343   6.643   5.115   2.623
 3148SOL    HW210344   6.704   5.159   2.478
 3149SOL     OW10345   3.156   1.591   0.481
 3149SOL    HW110346   3.181   1.594   0.384
 3149SOL    HW210347   3.185   1.676   0.526
 3150SOL     OW10348   6.993   5.819   5.015
 3150SOL    HW110349   6.985   5.919   5.014
 3150SOL    HW210350   6.991   5.784   4.922
 3151SOL     OW10351   6.724   1.538   5.624
 3151SOL    HW110352   6.813   1.515   5.585
 3151SOL    HW210353   6.654   1.534   5.553
 3152SOL     OW10354   1.249   3.154   6.224
 3152SOL    HW110355   1.280   3.241   6.185
 3152SOL    HW210356   1.150   3.157   6.239
 3153SOL     OW10357   6.476   5.260   1.045
 3153SOL    HW110358   6.397   5.310   1.081
 3153SOL    HW210359   6.535   5.232   1.120
 3154SOL     OW10360   4.800   1.698   0.067
 3154SOL    HW110361   4.774   1.602   0.078
 3154SOL    HW210362   4.866   1.723   0.137
 3155SOL     OW10363   0.685   5.028   1.054
 3155SOL    HW110364   0.713   4.995   1.144
 3155SOL    HW210365   0.657   5.124   1.061
 3156SOL     OW10366   3.641   4.162   1.789
 3156SOL    HW110367   3.621   4.255   1.760
 3156SOL    HW210368   3.722   4.162   1.847
 3157SOL     OW10369   0.765   1.627   5.229
 3157SOL    HW110370   0.674   1.666   5.219
 3157SOL    HW210371   0.828   1.696   5.265
 3158SOL     OW10372   1.929   1.291   5.819
 3158SOL    HW110373   1.954   1.206   5.773
 3158SOL    HW210374   1.830   1.299   5.824
 3159SOL     OW10375   6.304   6.780   0.515
 3159SOL    HW110376   6.281   6.853   0.579
 3159SOL    HW210377   6.222   6.726   0.496
 3160SOL     OW10378   1.863   0.862   6.418
 3160SOL    HW110379   1.952   0.827   6.449
 3160SOL    HW210380   1.849   0.954   6.455
 3161SOL     OW10381   1.702   2.510   2.745
 3161SOL    HW110382   1.644   2.507   2.663
 3161SOL    HW210383   1.761   2.430   2.746
 3162SOL     OW10384   1.668   5.397   0.946
 3162SOL    HW110385   1.592   5.438   0.997
 3162SOL    HW210386   1.754   5.417   0.992
 3163SOL     OW10387   3.998   3.754   0.323
 3163SOL    HW110388   4.080   3.730   0.375
 3163SOL    HW210389   4.024   3.795   0.236
 3164SOL     OW10390   2.923   6.183   2.758
 3164SOL    HW110391   2.849   6.218   2.816
 3164SOL    HW210392   2.996   6.146   2.817
 3165SOL     OW10393   1.219   6.462   6.460
 3165SOL    HW110394   1.193   6.442   6.554
 3165SOL    HW210395   1.149   6.519   6.417
 3166SOL     OW10396   4.391   0.907   5.208
 3166SOL    HW110397   4.472   0.851   5.192
 3166SOL    HW210398   4.309   0.854   5.184
 3167SOL     OW10399   5.757   3.480   0.756
 3167SOL    HW110400   5.831   3.540   0.787
 3167SOL    HW210401   5.720   3.429   0.834
 3168SOL     OW10402   5.132   2.106   0.646
 3168SOL    HW110403   5.037   2.087   0.669
 3168SOL    HW210404   5.144   2.099   0.547
 3169SOL     OW10405   1.699   4.474   1.729
 3169SOL    HW110406   1.701   4.380   1.762
 3169SOL    HW210407   1.615   4.490   1.677
 3170SOL     OW10408   2.751   4.995   3.417
 3170SOL    HW110409   2.798   5.082   3.404
 3170SOL    HW210410   2.735   4.951   3.329
 3171SOL     OW10411   5.168   3.129   3.138
 3171SOL    HW110412   5.110   3.137   3.057
 3171SOL    HW210413   5.154   3.039   3.180
 3172SOL     OW10414   0.278   4.523   1.476
 3172SOL    HW110415   0.205   4.463   1.441
 3172SOL    HW210416   0.282   4.516   1.576
 3173SOL     OW10417   4.075   2.406   0.616
 3173SOL    HW110418   4.044   2.374   0.527
 3173SOL    HW210419   3.996   2.422   0.675
 3174SOL     OW10420   3.039   3.848   5.502
 3174SOL    HW110421   2.983   3.930   5.508
 3174SOL    HW210422   3.113   3.862   5.437
 3175SOL     OW10423   6.400   0.400   4.249
 3175SOL    HW110424   6.360   0.314   4.219
 3175SOL    HW210425   6.436   0.390   4.342
 3176SOL     OW10426   1.215   4.738   5.117
 3176SOL    HW110427   1.213   4.675   5.039
 3176SOL    HW210428   1.177   4.826   5.088
 3177SOL     OW10429   5.550   3.478   3.631
 3177SOL    HW110430   5.508   3.431   3.709
 3177SOL    HW210431   5.642   3.508   3.656
 3178SOL     OW10432   6.784   0.195   1.337
 3178SOL    HW110433   6.829   0.267   1.285
 3178SOL    HW210434   6.697   0.229   1.373
 3179SOL     OW10435   1.080   2.016   2.254
 3179SOL    HW110436   0.989   2.042   2.287
 3179SOL    HW210437   1.075   1.993   2.157
 3180SOL     OW10438   6.753   6.057   0.005
 3180SOL    HW110439   6.667   6.106   0.018
 3180SOL    HW210440   6.748   6.005   6.938
 3181SOL     OW10441   0.859   0.429   4.718
 3181SOL    HW110442   0.926   0.485   4.767
 3181SOL    HW210443   0.894   0.405   4.628
 3182SOL     OW10444   2.996   0.787   0.792
 3182SOL    HW110445   3.064   0.715   0.775
 3182SOL    HW210446   2.991   0.804   0.891
 3183SOL     OW10447   4.410   4.357   1.616
 3183SOL    HW110448   4.469   4.326   1.541
 3183SOL    HW210449   4.430   4.303   1.698
 3184SOL     OW10450   0.223   2.019   5.202
 3184SOL    HW110451   0.198   2.094   5.263
 3184SOL    HW210452   0.201   1.932   5.246
 3185SOL     OW10453   0.580   5.561   6.120
 3185SOL    HW110454   0.653   5.513   6.070
 3185SOL    HW210455   0.525   5.494   6.170
 3186SOL     OW10456   0.254   1.656   6.432
 3186SOL    HW110457   0.195   1.736   6.424
 3186SOL    HW210458   0.296   1.654   6.523
 3187SOL     OW10459   3.805   6.017   2.448
 3187SOL    HW110460   3.807   6.045   2.544
 3187SOL    HW210461   3.750   6.082   2.396
 3188SOL     OW10462   2.129   4.496   5.721
 3188SOL    HW110463   2.188   4.439   5.663
 3188SOL    HW210464   2.175   4.513   5.808
 3189SOL     OW10465   3.537   1.834   6.769
 3189SOL    HW110466   3.514   1.858   6.863
 3189SOL    HW210467   3.635   1.849   6.753
 3190SOL     OW10468   6.457   5.329   4.591
 3190SOL    HW110469   6.531   5.290   4.646
 3190SOL    HW210470   6.408   5.397   4.645
 3191SOL     OW10471   4.625   5.760   2.220
 3191SOL    HW110472   4.593   5.838   2.273
 3191SOL    HW210473   4.725   5.761   2.217
 3192SOL     OW10474   6.039   2.476   2.242
 3192SOL    HW110475   5.998   2.567   2.243
 3192SOL    HW210476   6.123   2.479   2.188
 3193SOL     OW10477   4.168   0.363   5.372
 3193SOL    HW110478   4.114   0.292   5.418
 3193SOL    HW210479   4.262   0.329   5.359
 3194SOL     OW10480   0.996   1.216   6.278
 3194SOL    HW110481   1.024   1.306   6.244
 3194SOL    HW210482   1.044   1.197   6.364
 3195SOL     OW10483   0.441   1.904   1.727
 3195SOL    HW110484   0.407   1.844   1.654
 3195SOL    HW210485   0.533   1.876   1.753
 3196SOL     OW10486   6.337   6.808   4.818
 3196SOL    HW110487   6.406   6.766   4.759
 3196SOL    HW210488   6.341   6.907   4.809
 3197SOL     OW10489   1.756   1.189   6.181
 3197SOL    HW110490   1.783   1.254   6.110
 3197SOL    HW210491   1.736   1.239   6.266
 3198SOL     OW10492   6.558   3.075   3.493
 3198SOL    HW110493   6.498   3.015   3.440
 3198SOL    HW210494   6.638   3.025   3.523
 3199SOL     OW10495   5.501   4.067   2.975
 3199SOL    HW110496   5.487   4.130   2.898
 3199SOL    HW210497   5.579   4.008   2.957
 3200SOL     OW10498   5.420   3.391   4.230
 3200SOL    HW110499   5.477   3.356   4.155
 3200SOL    HW210500   5.443   3.487   4.247
 3201SOL     OW10501   5.980   4.325   2.646
 3201SOL    HW110502   6.032   4.326   2.561
 3201SOL    HW210503   5.893   4.375   2.633
 3202SOL     OW10504   1.347   4.769   0.162
 3202SOL    HW110505   1.370   4.835   0.090
 3202SOL    HW210506   1.297   4.692   0.123
 3203SOL     OW10507   3.864   6.903   1.118
 3203SOL    HW110508   3.931   6.857   1.177
 3203SOL    HW210509   3.900   6.990   1.088
 3204SOL     OW10510   2.683   1.361   3.941
 3204SOL    HW110511   2.753   1.289   3.939
 3204SOL    HW210512   2.605   1.333   3.886
 3205SOL     OW10513   5.456   2.959   5.565
 3205SOL    HW110514   5.525   2.971   5.493
 3205SOL    HW210515   5.452   3.041   5.622
 3206SOL     OW10516   2.587   3.039   1.353
 3206SOL    HW110517   2.571   3.129   1.392
 3206SOL    HW210518   2.640   2.984   1.418
 3207SOL     OW10519   1.202   6.282   5.486
 3207SOL    HW110520   1.158   6.338   5.557
 3207SOL    HW210521   1.138   6.270   5.410
 3208SOL     OW10522   6.257   5.427   5.911
 3208SOL    HW110523   6.210   5.465   5.831
 3208SOL    HW210524   6.260   5.496   5.983
 3209SOL     OW10525   5.083   5.716   6.393
 3209SOL    HW110526   5.030   5.656   6.453
 3209SOL    HW210527   5.099   5.671   6.305
 3210SOL     OW10528   6.835   5.339   1.674
 3210SOL    HW110529   6.884   5.419   1.640
 3210SOL    HW210530   6.818   5.349   1.772
 3211SOL     OW10531   0.765   5.443   6.486
 3211SOL    HW110532   0.753   5.541   6.467
 3211SOL    HW210533   0.862   5.419   6.480
 3212SOL     OW10534   2.107   6.812   2.895
 3212SOL    HW110535   2.077   6.757   2.817
 3212SOL    HW210536   2.028   6.856   2.937
 3213SOL     OW10537   1.519   0.559   6.137
 3213SOL    HW110538   1.607   0.606   6.143
 3213SOL    HW210539   1.522   0.476   6.192
 3214SOL     OW10540   3.502   1.138   2.812
 3214SOL    HW110541   3.406   1.125   2.787
 3214SOL    HW210542   3.508   1.201   2.890
 3215SOL     OW10543   1.607   2.975   0.749
 3215SOL    HW110544   1.605   3.014   0.657
 3215SOL    HW210545   1.649   3.040   0.812
 3216SOL     OW10546   5.526   4.396   0.616
 3216SOL    HW110547   5.440   4.379   0.568
 3216SOL    HW210548   5.602   4.397   0.550
 3217SOL     OW10549   0.932   5.403   3.031
 3217SOL    HW110550   0.859   5.468   3.010
 3217SOL    HW210551   1.003   5.448   3.085
 3218SOL     OW10552   5.974   1.100   3.144
 3218SOL    HW110553   5.910   1.157   3.092
 3218SOL    HW210554   5.956   1.004   3.124
 3219SOL     OW10555   6.044   0.547   5.613
 3219SOL    HW110556   5.984   0.492   5.670
 3219SOL    HW210557   6.060   0.636   5.656
 3220SOL     OW10558   6.617   4.960   6.597
 3220SOL    HW110559   6.536   5.015   6.621
 3220SOL    HW210560   6.615   4.874   6.649
 3221SOL     OW10561   3.754   0.347   1.783
 3221SOL    HW110562   3.850   0.362   1.807
 3221SOL    HW210563   3.702   0.323   1.866
 3222SOL     OW10564   2.935   1.446   2.741
 3222SOL    HW110565   2.865   1.375   2.737
 3222SOL    HW210566   2.976   1.448   2.832
 3223SOL     OW10567   1.510   0.303   1.059
 3223SOL    HW110568   1.591   0.305   1.000
 3223SOL    HW210569   1.460   0.388   1.050
 3224SOL     OW10570   4.237   2.101   4.139
 3224SOL    HW110571   4.301   2.141   4.073
 3224SOL    HW210572   4.283   2.028   4.190
 3225SOL     OW10573   4.192   0.533   4.336
 3225SOL    HW110574   4.168   0.450   4.386
 3225SOL    HW210575   4.270   0.513   4.276
 3226SOL     OW10576   0.321   6.980   1.213
 3226SOL    HW110577   0.255   6.974   1.288
 3226SOL    HW210578   0.383   0.038   1.229
 3227SOL     OW10579   4.793   3.608   5.406
 3227SOL    HW110580   4.810   3.526   5.460
 3227SOL    HW210581   4.752   3.582   5.318
 3228SOL     OW10582   1.936   4.307   0.320
 3228SOL    HW110583   1.936   4.267   0.411
 3228SOL    HW210584   1.855   4.364   0.308
 3229SOL     OW10585   1.904   1.259   0.710
 3229SOL    HW110586   1.929   1.276   0.615
 3229SOL    HW210587   1.867   1.342   0.750
 3230SOL     OW10588   2.218   5.376   5.896
 3230SOL    HW110589   2.259   5.456   5.940
 3230SOL    HW210590   2.122   5.369   5.925
 3231SOL     OW10591   2.683   0.805   1.587
 3231SOL    HW110592   2.706   0.709   1.605
 3231SOL    HW210593   2.764   0.853   1.553
 3232SOL     OW10594   4.371   6.018   4.360
 3232SOL    HW110595   4.340   5.994   4.268
 3232SOL    HW210596   4.438   6.091   4.354
 3233SOL     OW10597   0.509   2.633   0.307
 3233SOL    HW110598   0.432   2.569   0.296
 3233SOL    HW210599   0.504   2.703   0.236
 3234SOL     OW10600   2.714   2.884   0.818
 3234SOL    HW110601   2.729   2.889   0.917
 3234SOL    HW210602   2.694   2.975   0.782
 3235SOL     OW10603   0.360   6.859   2.269
 3235SOL    HW110604   0.271   6.821   2.246
 3235SOL    HW210605   0.388   6.826   2.359
 3236SOL     OW10606   3.001   3.715   0.621
 3236SOL    HW110607   2.909   3.725   0.658
 3236SOL    HW210608   2.996   3.695   0.523
 3237SOL     OW10609   6.092   1.053   5.412
 3237SOL    HW110610   6.116   0.959   5.434
 3237SOL    HW210611   6.050   1.097   5.492
 3238SOL     OW10612   6.757   5.618   1.578
 3238SOL    HW110613   6.760   5.691   1.509
 3238SOL    HW210614   6.845   5.570   1.579
 3239SOL     OW10615   6.676   0.088   4.384
 3239SOL    HW110616   6.737   0.027   4.335
 3239SOL    HW210617   6.678   0.179   4.342
 3240SOL     OW10618   0.324   1.175   6.759
 3240SOL    HW110619   0.369   1.089   6.735
 3240SOL    HW210620   0.393   1.241   6.791
 3241SOL     OW10621   6.051   1.520   5.909
 3241SOL    HW110622   6.085   1.456   5.978
 3241SOL    HW210623   6.097   1.608   5.919
 3242SOL     OW10624   5.236   4.871   5.268
 3242SOL    HW110625   5.208   4.901   5.359
 3242SOL    HW210626   5.335   4.857   5.267
 3243SOL     OW10627   5.274   5.233   5.337
 3243SOL    HW110628   5.227   5.148   5.357
 3243SOL    HW210629   5.260   5.298   5.412
 3244SOL     OW10630   5.481   6.096   0.250
 3244SOL    HW110631   5.563   6.145   0.222
 3244SOL    HW210632   5.403   6.126   0.195
 3245SOL     OW10633   4.047   1.325   4.243
 3245SOL    HW110634   4.025   1.416   4.209
 3245SOL    HW210635   4.065   1.264   4.166
 3246SOL     OW10636   0.175   0.977   2.684
 3246SOL    HW110637   0.192   1.029   2.600
 3246SOL    HW210638   0.253   0.916   2.701
 3247SOL     OW10639   0.438   4.169   3.205
 3247SOL    HW110640   0.476   4.087   3.164
 3247SOL    HW210641   0.428   4.240   3.135
 3248SOL     OW10642   5.279   2.006   3.491
 3248SOL    HW110643   5.346   2.059   3.543
 3248SOL    HW210644   5.244   1.931   3.547
 3249SOL     OW10645   3.392   3.574   3.669
 3249SOL    HW110646   3.293   3.588   3.665
 3249SOL    HW210647   3.417   3.503   3.603
 3250SOL     OW10648   5.159   5.279   2.325
 3250SOL    HW110649   5.138   5.194   2.373
 3250SOL    HW210650   5.258   5.286   2.312
 3251SOL     OW10651   2.864   1.355   3.622
 3251SOL    HW110652   2.779   1.304   3.609
 3251SOL    HW210653   2.881   1.367   3.720
 3252SOL     OW10654   2.272   1.342   4.105
 3252SOL    HW110655   2.225   1.351   4.192
 3252SOL    HW210656   2.350   1.280   4.115
 3253SOL     OW10657   6.672   3.651   0.748
 3253SOL    HW110658   6.619   3.735   0.739
 3253SOL    HW210659   6.770   3.674   0.748
 3254SOL     OW10660   5.825   0.656   0.555
 3254SOL    HW110661   5.850   0.606   0.472
 3254SOL    HW210662   5.835   0.597   0.635
 3255SOL     OW10663   5.457   4.940   1.068
 3255SOL    HW110664   5.388   4.895   1.126
 3255SOL    HW210665   5.526   4.874   1.041
 3256SOL     OW10666   4.994   2.215   0.984
 3256SOL    HW110667   5.078   2.256   1.019
 3256SOL    HW210668   5.012   2.121   0.956
 3257SOL     OW10669   2.675   1.932   2.865
 3257SOL    HW110670   2.728   2.005   2.822
 3257SOL    HW210671   2.703   1.844   2.827
 3258SOL     OW10672   2.204   5.882   3.225
 3258SOL    HW110673   2.296   5.862   3.189
 3258SOL    HW210674   2.160   5.948   3.165
 3259SOL     OW10675   4.433   4.592   3.964
 3259SOL    HW110676   4.471   4.502   3.989
 3259SOL    HW210677   4.444   4.655   4.041
 3260SOL     OW10678   1.253   4.379   1.718
 3260SOL    HW110679   1.222   4.289   1.750
 3260SOL    HW210680   1.201   4.450   1.765
 3261SOL     OW10681   4.720   0.014   3.035
 3261SOL    HW110682   4.686   6.951   2.989
 3261SOL    HW210683   4.679   0.020   3.126
 3262SOL     OW10684   3.275   2.013   2.219
 3262SOL    HW110685   3.318   2.048   2.302
 3262SOL    HW210686   3.293   2.075   2.143
 3263SOL     OW10687   1.302   1.300   2.694
 3263SOL    HW110688   1.249   1.382   2.715
 3263SOL    HW210689   1.394   1.327   2.664
 3264SOL     OW10690   2.375   5.464   0.307
 3264SOL    HW110691   2.449   5.474   0.373
 3264SOL    HW210692   2.316   5.388   0.334
 3265SOL     OW10693   5.607   5.271   5.768
 3265SOL    HW110694   5.642   5.237   5.681
 3265SOL    HW210695   5.621   5.202   5.839
 3266SOL     OW10696   3.055   4.819   6.881
 3266SOL    HW110697   3.072   4.783   6.789
 3266SOL    HW210698   2.976   4.880   6.880
 3267SOL     OW10699   4.071   0.209   0.441
 3267SOL    HW110700   4.082   0.144   0.367
 3267SOL    HW210701   4.138   0.283   0.431
 3268SOL     OW10702   6.785   4.962   2.016
 3268SOL    HW110703   6.826   5.053   2.030
 3268SOL    HW210704   6.811   4.902   2.092
 3269SOL     OW10705   1.916   4.859   2.396
 3269SOL    HW110706   2.006   4.885   2.429
 3269SOL    HW210707   1.924   4.819   2.304
 3270SOL     OW10708   0.683   2.171   5.489
 3270SOL    HW110709   0.664   2.258   5.533
 3270SOL    HW210710   0.763   2.180   5.430
 3271SOL     OW10711   0.595   3.760   2.460
 3271SOL    HW110712   0.535   3.760   2.541
 3271SOL    HW210713   0.603   3.667   2.425
 3272SOL     OW10714   4.441   6.579   0.295
 3272SOL    HW110715   4.471   6.555   0.203
 3272SOL    HW210716   4.440   6.496   0.352
 3273SOL     OW10717   4.526   2.922   6.834
 3273SOL    HW110718   4.523   2.838   6.888
 3273SOL    HW210719   4.582   2.990   6.882
 3274SOL     OW10720   5.366   0.856   7.000
 3274SOL    HW110721   5.384   0.771   0.029
 3274SOL    HW210722   5.300   0.910   0.033
 3275SOL     OW10723   4.855   6.993   1.477
 3275SOL    HW110724   4.787   0.045   1.495
 3275SOL    HW210725   4.914   6.982   1.557
 3276SOL     OW10726   4.844   6.805   0.030
 3276SOL    HW110727   4.764   6.751   0.003
 3276SOL    HW210728   4.899   6.825   6.969
 3277SOL     OW10729   3.351   1.779   2.110
 3277SOL    HW110730   3.334   1.874   2.134
 3277SOL    HW210731   3.449   1.765   2.095
 3278SOL     OW10732   6.633   0.444   6.854
 3278SOL    HW110733   6.554   0.501   6.833
 3278SOL    HW210734   6.704   0.458   6.785
 3279SOL     OW10735   3.897   6.788   0.765
 3279SOL    HW110736   3.824   6.811   0.829
 3279SOL    HW210737   3.895   6.690   0.745
 3280SOL     OW10738   5.372   3.467   4.738
 3280SOL    HW110739   5.458   3.438   4.780
 3280SOL    HW210740   5.304   3.395   4.748
 3281SOL     OW10741   6.159   3.803   1.739
 3281SOL    HW110742   6.241   3.829   1.689
 3281SOL    HW210743   6.100   3.882   1.751
 3282SOL     OW10744   0.333   4.308   4.872
 3282SOL    HW110745   0.353   4.294   4.775
 3282SOL    HW210746   0.238   4.336   4.882
 3283SOL     OW10747   3.766   1.424   1.203
 3283SOL    HW110748   3.707   1.401   1.125
 3283SOL    HW210749   3.860   1.437   1.171
 3284SOL     OW10750   1.392   5.449   5.020
 3284SOL    HW110751   1.319   5.410   4.964
 3284SOL    HW210752   1.427   5.532   4.977
 3285SOL     OW10753   4.810   1.284   4.833
 3285SOL    HW110754   4.839   1.311   4.741
 3285SOL    HW210755   4.853   1.197   4.857
 3286SOL     OW10756   2.932   1.658   1.366
 3286SOL    HW110757   2.921   1.687   1.271
 3286SOL    HW210758   2.977   1.731   1.418
 3287SOL     OW10759   2.291   0.213   6.675
 3287SOL    HW110760   2.315   0.310   6.664
 3287SOL    HW210761   2.238   0.201   6.758
 3288SOL     OW10762   1.782   6.529   1.237
 3288SOL    HW110763   1.692   6.519   1.196
 3288SOL    HW210764   1.844   6.573   1.172
 3289SOL     OW10765   3.955   1.717   6.757
 3289SOL    HW110766   3.913   1.633   6.793
 3289SOL    HW210767   3.889   1.792   6.764
 3290SOL     OW10768   6.599   4.738   0.450
 3290SOL    HW110769   6.534   4.717   0.377
 3290SOL    HW210770   6.549   4.772   0.530
 3291SOL     OW10771   4.781   6.998   5.290
 3291SOL    HW110772   4.810   0.037   5.214
 3291SOL    HW210773   4.712   6.933   5.259
 3292SOL     OW10774   0.275   1.989   1.422
 3292SOL    HW110775   0.374   1.982   1.427
 3292SOL    HW210776   0.247   2.085   1.431
 3293SOL     OW10777   6.541   5.210   3.302
 3293SOL    HW110778   6.498   5.281   3.245
 3293SOL    HW210779   6.616   5.249   3.354
 3294SOL     OW10780   4.899   2.579   4.989
 3294SOL    HW110781   4.852   2.666   5.000
 3294SOL    HW210782   4.842   2.505   5.026
 3295SOL     OW10783   1.571   2.926   2.095
 3295SOL    HW110784   1.577   2.865   2.173
 3295SOL    HW210785   1.481   2.917   2.052
 3296SOL     OW10786   1.226   6.740   6.267
 3296SOL    HW110787   1.290   6.721   6.341
 3296SOL    HW210788   1.132   6.724   6.298
 3297SOL     OW10789   3.129   1.856   4.805
 3297SOL    HW110790   3.034   1.889   4.805
 3297SOL    HW210791   3.160   1.845   4.711
 3298SOL     OW10792   5.755   4.424   5.572
 3298SOL    HW110793   5.823   4.416   5.499
 3298SOL    HW210794   5.800   4.412   5.661
 3299SOL     OW10795   3.102   4.966   4.727
 3299SOL    HW110796   3.051   4.919   4.799
 3299SOL    HW210797   3.070   5.060   4.719
 3300SOL     OW10798   1.979   6.826   4.962
 3300SOL    HW110799   1.971   6.911   4.910
 3300SOL    HW210800   2.007   6.847   5.055
 3301SOL     OW10801   2.130   2.576   3.237
 3301SOL    HW110802   2.093   2.590   3.328
 3301SOL    HW210803   2.192   2.651   3.214
 3302SOL     OW10804   2.240   4.678   6.015
 3302SOL    HW110805   2.248   4.605   6.084
 3302SOL    HW210806   2.147   4.715   6.016
 3303SOL     OW10807   3.339   3.340   0.643
 3303SOL    HW110808   3.402   3.265   0.662
 3303SOL    HW210809   3.260   3.305   0.593
 3304SOL     OW10810   2.416   4.918   6.093
 3304SOL    HW110811   2.421   4.818   6.090
 3304SOL    HW210812   2.334   4.948   6.046
 3305SOL     OW10813   3.539   1.167   0.857
 3305SOL    HW110814   3.505   1.229   0.786
 3305SOL    HW210815   3.473   1.094   0.872
 3306SOL     OW10816   1.800   0.689   0.165
 3306SOL    HW110817   1.805   0.596   0.127
 3306SOL    HW210818   1.871   0.746   0.123
 3307SOL     OW10819   1.403   0.072   4.464
 3307SOL    HW110820   1.391   0.100   4.560
 3307SOL    HW210821   1.348   0.132   4.405
 3308SOL     OW10822   3.629   4.275   1.271
 3308SOL    HW110823   3.624   4.354   1.210
 3308SOL    HW210824   3.655   4.304   1.363
 3309SOL     OW10825   5.568   3.873   3.550
 3309SOL    HW110826   5.493   3.855   3.613
 3309SOL    HW210827   5.555   3.820   3.466
 3310SOL     OW10828   6.637   5.450   5.199
 3310SOL    HW110829   6.678   5.538   5.174
 3310SOL    HW210830   6.705   5.393   5.246
 3311SOL     OW10831   3.448   3.674   0.335
 3311SOL    HW110832   3.356   3.713   0.335
 3311SOL    HW210833   3.515   3.746   0.317
 3312SOL     OW10834   4.947   2.592   5.821
 3312SOL    HW110835   5.023   2.639   5.775
 3312SOL    HW210836   4.861   2.639   5.799
 3313SOL     OW10837   1.179   0.571   3.486
 3313SOL    HW110838   1.143   0.646   3.431
 3313SOL    HW210839   1.184   0.599   3.581
 3314SOL     OW10840   1.972   5.875   2.522
 3314SOL    HW110841   1.939   5.964   2.489
 3314SOL    HW210842   1.952   5.805   2.453
 3315SOL     OW10843   7.007   4.711   5.364
 3315SOL    HW110844   6.962   4.664   5.440
 3315SOL    HW210845   0.078   4.671   5.348
 3316SOL     OW10846   3.504   2.024   6.375
 3316SOL    HW110847   3.463   1.936   6.398
 3316SOL    HW210848   3.578   2.045   6.439
 3317SOL     OW10849   5.539   2.246   2.856
 3317SOL    HW110850   5.538   2.222   2.759
 3317SOL    HW210851   5.491   2.176   2.909
 3318SOL     OW10852   2.967   2.222   0.263
 3318SOL    HW110853   2.989   2.315   0.294
 3318SOL    HW210854   3.034   2.158   0.301
 3319SOL     OW10855   6.907   6.477   3.492
 3319SOL    HW110856   6.861   6.561   3.523
 3319SOL    HW210857   7.005   6.483   3.512
 3320SOL     OW10858   6.114   0.151   0.934
 3320SOL    HW110859   6.203   0.188   0.905
 3320SOL    HW210860   6.047   0.164   0.861
 3321SOL     OW10861   5.205   1.760   6.987
 3321SOL    HW110862   5.269   1.811   6.929
 3321SOL    HW210863   5.139   1.823   0.008
 3322SOL     OW10864   6.755   3.860   1.275
 3322SOL    HW110865   6.757   3.959   1.264
 3322SOL    HW210866   6.797   3.836   1.363
 3323SOL     OW10867   1.788   1.300   2.036
 3323SOL    HW110868   1.767   1.244   2.115
 3323SOL    HW210869   1.886   1.293   2.014
 3324SOL     OW10870   5.237   5.613   5.688
 3324SOL    HW110871   5.282   5.701   5.671
 3324SOL    HW210872   5.149   5.629   5.733
 3325SOL     OW10873   1.594   3.607   6.932
 3325SOL    HW110874   1.540   3.542   6.878
 3325SOL    HW210875   1.690   3.577   6.934
 3326SOL     OW10876   5.207   1.481   2.768
 3326SOL    HW110877   5.170   1.574   2.759
 3326SOL    HW210878   5.190   1.430   2.684
 3327SOL     OW10879   1.823   5.919   1.376
 3327SOL    HW110880   1.786   5.940   1.467
 3327SOL    HW210881   1.923   5.914   1.382
 3328SOL     OW10882   4.487   2.242   0.662
 3328SOL    HW110883   4.427   2.279   0.733
 3328SOL    HW210884   4.445   2.258   0.572
 3329SOL     OW10885   6.066   5.507   5.726
 3329SOL    HW110886   6.102   5.595   5.759
 3329SOL    HW210887   5.970   5.500   5.752
 3330SOL     OW10888   6.141   3.128   2.343
 3330SOL    HW110889   6.178   3.082   2.262
 3330SOL    HW210890   6.199   3.206   2.366
 3331SOL     OW10891   1.728   2.422   1.368
 3331SOL    HW110892   1.794   2.496   1.358
 3331SOL    HW210893   1.746   2.372   1.453
 3332SOL     OW10894   6.099   4.503   0.599
 3332SOL    HW110895   6.018   4.555   0.624
 3332SOL    HW210896   6.098   4.485   0.500
 3333SOL     OW10897   3.870   5.017   5.945
 3333SOL    HW110898   3.947   5.064   5.988
 3333SOL    HW210899   3.833   5.074   5.872
 3334SOL     OW10900   2.663   4.163   1.703
 3334SOL    HW110901   2.729   4.095   1.734
 3334SOL    HW210902   2.572   4.139   1.738
 3335SOL     OW10903   5.122   4.544   5.693
 3335SOL    HW110904   5.177   4.506   5.767
 3335SOL    HW210905   5.142   4.495   5.608
 3336SOL     OW10906   3.477   4.940   6.207
 3336SOL    HW110907   3.551   4.889   6.251
 3336SOL    HW210908   3.400   4.947   6.270
 3337SOL     OW10909   3.612   2.921   1.449
 3337SOL    HW110910   3.596   2.857   1.524
 3337SOL    HW210911   3.558   2.893   1.370
 3338SOL     OW10912   0.279   4.174   0.741
 3338SOL    HW110913   0.194   4.151   0.787
 3338SOL    HW210914   0.325   4.090   0.712
 3339SOL     OW10915   6.449   5.728   6.590
 3339SOL    HW110916   6.507   5.726   6.671
 3339SOL    HW210917   6.467   5.646   6.535
 3340SOL     OW10918   3.368   6.486   1.890
 3340SOL    HW110919   3.368   6.396   1.846
 3340SOL    HW210920   3.277   6.505   1.927
 3341SOL     OW10921   0.909   1.284   2.659
 3341SOL    HW110922   0.905   1.375   2.617
 3341SOL    HW210923   0.973   1.226   2.607
 3342SOL     OW10924   2.107   6.766   3.830
 3342SOL    HW110925   2.179   6.770   3.761
 3342SOL    HW210926   2.148   6.750   3.920
 3343SOL     OW10927   5.283   3.229   0.966
 3343SOL    HW110928   5.366   3.261   0.920
 3343SOL    HW210929   5.297   3.137   1.001
 3344SOL     OW10930   6.135   3.464   6.292
 3344SOL    HW110931   6.165   3.406   6.216
 3344SOL    HW210932   6.036   3.452   6.305
 3345SOL     OW10933   3.032   3.395   5.693
 3345SOL    HW110934   3.071   3.332   5.627
 3345SOL    HW210935   3.050   3.362   5.786
 3346SOL     OW10936   0.253   0.251   1.551
 3346SOL    HW110937   0.202   0.193   1.615
 3346SOL    HW210938   0.340   0.206   1.528
 3347SOL     OW10939   5.961   3.873   4.831
 3347SOL    HW110940   5.971   3.775   4.845
 3347SOL    HW210941   5.904   3.890   4.751
 3348SOL     OW10942   3.906   3.026   4.023
 3348SOL    HW110943   3.878   2.967   4.099
 3348SOL    HW210944   3.960   3.103   4.058
 3349SOL     OW10945   6.220   3.694   4.119
 3349SOL    HW110946   6.170   3.749   4.186
 3349SOL    HW210947   6.318   3.707   4.132
 3350SOL     OW10948   1.573   1.083   1.012
 3350SOL    HW110949   1.496   1.079   1.075
 3350SOL    HW210950   1.633   1.158   1.038
 3351SOL     OW10951   5.203   2.023   1.211
 3351SOL    HW110952   5.113   2.047   1.249
 3351SOL    HW210953   5.274   2.049   1.276
 3352SOL     OW10954   0.772   3.306   0.691
 3352SOL    HW110955   0.777   3.360   0.775
 3352SOL    HW210956   0.681   3.314   0.652
 3353SOL     OW10957   2.098   0.007   6.650
 3353SOL    HW110958   2.066   6.981   6.566
 3353SOL    HW210959   2.157   0.085   6.625
 3354SOL     OW10960   6.988   2.675   3.986
 3354SOL    HW110961   6.927   2.601   3.958
 3354SOL    HW210962   7.013   2.731   3.906
 3355SOL     OW10963   6.571   1.021   1.939
 3355SOL    HW110964   6.612   1.069   2.017
 3355SOL    HW210965   6.472   1.018   1.950
 3356SOL     OW10966   2.940   3.689   0.031
 3356SOL    HW110967   2.856   3.731   7.016
 3356SOL    HW210968   2.921   3.597   0.064
 3357SOL     OW10969   2.873   5.147   2.030
 3357SOL    HW110970   2.890   5.150   1.931
 3357SOL    HW210971   2.884   5.240   2.067
 3358SOL     OW10972   5.100   5.974   2.543
 3358SOL    HW110973   5.155   5.909   2.490
 3358SOL    HW210974   5.100   6.062   2.496
 3359SOL     OW10975   1.668   0.320   2.778
 3359SOL    HW110976   1.734   0.249   2.802
 3359SOL    HW210977   1.641   0.370   2.860
 3360SOL     OW10978   0.745   0.600   0.041
 3360SOL    HW110979   0.768   0.549   0.123
 3360SOL    HW210980   0.695   0.683   0.066
 3361SOL     OW10981   5.960   6.326   3.091
 3361SOL    HW110982   6.004   6.415   3.079
 3361SOL    HW210983   5.917   6.298   3.005
 3362SOL     OW10984   2.366   1.416   4.986
 3362SOL    HW110985   2.329   1.449   4.899
 3362SOL    HW210986   2.446   1.471   5.011
 3363SOL     OW10987   6.910   1.751   0.195
 3363SOL    HW110988   6.876   1.812   0.267
 3363SOL    HW210989   6.860   1.665   0.198
 3364SOL     OW10990   2.106   5.131   6.192
 3364SOL    HW110991   2.052   5.082   6.260
 3364SOL    HW210992   2.060   5.218   6.170
 3365SOL     OW10993   5.922   2.675   4.734
 3365SOL    HW110994   5.971   2.761   4.723
 3365SOL    HW210995   5.915   2.629   4.645
 3366SOL     OW10996   5.340   0.499   5.629
 3366SOL    HW110997   5.244   0.485   5.606
 3366SOL    HW210998   5.362   0.596   5.624
 3367SOL     OW10999   1.431   1.861   2.992
 3367SOL    HW111000   1.502   1.914   3.037
 3367SOL    HW211001   1.352   1.919   2.973
 3368SOL     OW11002   6.270   5.638   6.102
 3368SOL    HW111003   6.317   5.726   6.092
 3368SOL    HW211004   6.176   5.654   6.133
 3369SOL     OW11005   4.091   0.454   6.737
 3369SOL    HW111006   4.145   0.502   6.806
 3369SOL    HW211007   4.015   0.408   6.781
 3370SOL     OW11008   6.164   6.658   5.380
 3370SOL    HW111009   6.256   6.668   5.417
 3370SOL    HW211010   6.162   6.582   5.315
 3371SOL     OW11011   0.723   5.304   2.278
 3371SOL    HW111012   0.703   5.382   2.219
 3371SOL    HW211013   0.719   5.331   2.374
 3372SOL     OW11014   1.108   0.501   2.819
 3372SOL    HW111015   1.084   0.473   2.726
 3372SOL    HW211016   1.191   0.556   2.817
 3373SOL     OW11017   6.603   2.325   5.161
 3373SOL    HW111018   6.602   2.225   5.167
 3373SOL    HW211019   6.660   2.362   5.235
 3374SOL     OW11020   2.761   5.265   5.994
 3374SOL    HW111021   2.743   5.355   6.032
 3374SOL    HW211022   2.714   5.255   5.906
 3375SOL     OW11023   4.693   4.573   5.429
 3375SOL    HW111024   4.724   4.668   5.435
 3375SOL    HW211025   4.619   4.558   5.494
 3376SOL     OW11026   3.135   3.419   2.378
 3376SOL    HW111027   3.096   3.507   2.404
 3376SOL    HW211028   3.235   3.424   2.385
 3377SOL     OW11029   1.407   6.615   5.262
 3377SOL    HW111030   1.404   6.634   5.360
 3377SOL    HW211031   1.458   6.687   5.216
 3378SOL     OW11032   0.196   1.287   1.138
 3378SOL    HW111033   0.114   1.274   1.082
 3378SOL    HW211034   0.217   1.385   1.144
 3379SOL     OW11035   0.426   4.532   5.729
 3379SOL    HW111036   0.365   4.501   5.656
 3379SOL    HW211037   0.423   4.468   5.806
 3380SOL     OW11038   6.631   4.281   6.729
 3380SOL    HW111039   6.699   4.208   6.730
 3380SOL    HW211040   6.667   4.361   6.777
 3381SOL     OW11041   3.032   2.468   0.438
 3381SOL    HW111042   3.061   2.557   0.402
 3381SOL    HW211043   3.085   2.447   0.520
 3382SOL     OW11044   0.275   1.547   1.150
 3382SOL    HW111045   0.316   1.556   1.059
 3382SOL    HW211046   0.259   1.638   1.188
 3383SOL     OW11047   5.933   4.752   2.608
 3383SOL    HW111048   5.952   4.845   2.577
 3383SOL    HW211049   5.835   4.734   2.601
 3384SOL     OW11050   3.888   3.002   4.321
 3384SOL    HW111051   3.818   2.945   4.363
 3384SOL    HW211052   3.967   3.008   4.382
 3385SOL     OW11053   6.626   3.871   3.597
 3385SOL    HW111054   6.648   3.805   3.669
 3385SOL    HW211055   6.556   3.934   3.630
 3386SOL     OW11056   6.236   4.552   5.066
 3386SOL    HW111057   6.199   4.528   5.156
 3386SOL    HW211058   6.312   4.491   5.044
 3387SOL     OW11059   2.188   2.075   3.063
 3387SOL    HW111060   2.272   2.060   3.011
 3387SOL    HW211061   2.176   2.173   3.081
 3388SOL     OW11062   5.483   2.034   1.308
 3388SOL    HW111063   5.578   2.064   1.314
 3388SOL    HW211064   5.480   1.935   1.295
 3389SOL     OW11065   4.803   4.540   3.573
 3389SOL    HW111066   4.780   4.619   3.517
 3389SOL    HW211067   4.757   4.459   3.536
 3390SOL     OW11068   4.845   3.181   5.503
 3390SOL    HW111069   4.847   3.275   5.536
 3390SOL    HW211070   4.753   3.159   5.469
 3391SOL     OW11071   3.623   1.907   5.149
 3391SOL    HW111072   3.532   1.947   5.145
 3391SOL    HW211073   3.674   1.932   5.067
 3392SOL     OW11074   2.789   0.772   3.865
 3392SOL    HW111075   2.724   0.832   3.912
 3392SOL    HW211076   2.811   0.811   3.775
 3393SOL     OW11077   6.250   6.555   6.490
 3393SOL    HW111078   6.274   6.514   6.578
 3393SOL    HW211079   6.333   6.573   6.437
 3394SOL     OW11080   6.254   2.243   1.654
 3394SOL    HW111081   6.295   2.327   1.690
 3394SOL    HW211082   6.326   2.176   1.635
 3395SOL     OW11083   1.157   3.050   4.486
 3395SOL    HW111084   1.090   2.977   4.499
 3395SOL    HW211085   1.210   3.033   4.402
 3396SOL     OW11086   0.278   3.792   3.772
 3396SOL    HW111087   0.217   3.768   3.848
 3396SOL    HW211088   0.357   3.841   3.807
 3397SOL     OW11089   3.442   6.383   5.818
 3397SOL    HW111090   3.407   6.325   5.891
 3397SOL    HW211091   3.495   6.328   5.753
 3398SOL     OW11092   1.166   0.091   4.033
 3398SOL    HW111093   1.225   0.157   3.986
 3398SOL    HW211094   1.200   7.017   4.016
 3399SOL     OW11095   5.201   5.019   3.712
 3399SOL    HW111096   5.271   5.084   3.742
 3399SOL    HW211097   5.114   5.042   3.755
 3400SOL     OW11098   4.748   2.362   6.955
 3400SOL    HW111099   4.684   2.396   6.886
 3400SOL    HW211100   4.772   2.267   6.935
 3401SOL     OW11101   5.956   3.830   0.593
 3401SOL    HW111102   6.050   3.836   0.561
 3401SOL    HW211103   5.932   3.914   0.642
 3402SOL     OW11104   5.138   5.768   1.301
 3402SOL    HW111105   5.086   5.853   1.315
 3402SOL    HW211106   5.076   5.690   1.309
 3403SOL     OW11107   3.489   0.407   5.014
 3403SOL    HW111108   3.572   0.438   4.969
 3403SOL    HW211109   3.409   0.438   4.962
 3404SOL     OW11110   4.806   1.390   1.020
 3404SOL    HW111111   4.874   1.424   0.955
 3404SOL    HW211112   4.770   1.466   1.074
 3405SOL     OW11113   6.329   3.784   6.813
 3405SOL    HW111114   6.348   3.881   6.827
 3405SOL    HW211115   6.389   3.729   6.872
 3406SOL     OW11116   2.189   3.964   2.259
 3406SOL    HW111117   2.263   4.021   2.224
 3406SOL    HW211118   2.156   3.904   2.186
 3407SOL     OW11119   1.235   5.478   1.994
 3407SOL    HW111120   1.246   5.538   2.073
 3407SOL    HW211121   1.154   5.422   2.006
 3408SOL     OW11122   5.138   4.534   2.107
 3408SOL    HW111123   5.048   4.553   2.148
 3408SOL    HW211124   5.207   4.530   2.178
 3409SOL     OW11125   3.671   0.005   5.644
 3409SOL    HW111126   3.620   6.998   5.725
 3409SOL    HW211127   3.630   6.982   5.563
 3410SOL     OW11128   6.388   6.364   0.362
 3410SOL    HW111129   6.321   6.300   0.324
 3410SOL    HW211130   6.434   6.413   0.287
 3411SOL     OW11131   4.347   1.811   2.746
 3411SOL    HW111132   4.445   1.830   2.746
 3411SOL    HW211133   4.328   1.735   2.809
 3412SOL     OW11134   3.659   3.792   6.999
 3412SOL    HW111135   3.607   3.876   6.983
 3412SOL    HW211136   3.665   3.774   0.078
 3413SOL     OW11137   3.883   1.406   3.098
 3413SOL    HW111138   3.840   1.326   3.141
 3413SOL    HW211139   3.970   1.379   3.057
 3414SOL     OW11140   2.869   2.352   5.332
 3414SOL    HW111141   2.795   2.295   5.297
 3414SOL    HW211142   2.946   2.350   5.268
 3415SOL     OW11143   0.443   4.622   4.589
 3415SOL    HW111144   0.503   4.609   4.668
 3415SOL    HW211145   0.472   4.562   4.515
 3416SOL     OW11146   0.492   4.613   5.413
 3416SOL    HW111147   0.574   4.558   5.427
 3416SOL    HW211148   0.414   4.553   5.398
 3417SOL     OW11149   0.125   6.576   2.522
 3417SOL    HW111150   0.147   6.519   2.601
 3417SOL    HW211151   0.036   6.620   2.537
 3418SOL     OW11152   2.367   0.817   5.109
 3418SOL    HW111153   2.289   0.803   5.170
 3418SOL    HW211154   2.336   0.862   5.025
 3419SOL     OW11155   4.171   4.799   0.135
 3419SOL    HW111156   4.072   4.785   0.135
 3419SOL    HW211157   4.198   4.850   0.053
 3420SOL     OW11158   4.574   2.195   4.071
 3420SOL    HW111159   4.521   2.208   4.155
 3420SOL    HW211160   4.512   2.179   3.994
 3421SOL     OW11161   6.988   6.291   5.718
 3421SOL    HW111162   0.000   6.206   5.676
 3421SOL    HW211163   7.012   6.291   5.815
 3422SOL     OW11164   3.645   0.789   1.811
 3422SOL    HW111165   3.569   0.728   1.786
 3422SOL    HW211166   3.731   0.741   1.798
 3423SOL     OW11167   2.588   1.209   0.751
 3423SOL    HW111168   2.554   1.290   0.704
 3423SOL    HW211169   2.639   1.237   0.833
 3424SOL     OW11170   4.091   1.305   2.370
 3424SOL    HW111171   4.094   1.341   2.463
 3424SOL    HW211172   3.996   1.297   2.340
 3425SOL     OW11173   4.754   4.221   2.083
 3425SOL    HW111174   4.671   4.252   2.038
 3425SOL    HW211175   4.791   4.295   2.140
 3426SOL     OW11176   3.954   3.252   0.610
 3426SOL    HW111177   4.015   3.313   0.560
 3426SOL    HW211178   3.956   3.275   0.708
 3427SOL     OW11179   6.916   0.560   0.133
 3427SOL    HW111180   6.943   0.647   0.091
 3427SOL    HW211181   6.903   0.573   0.232
 3428SOL     OW11182   4.170   4.792   2.654
 3428SOL    HW111183   4.208   4.702   2.677
 3428SOL    HW211184   4.151   4.795   2.556
 3429SOL     OW11185   1.089   3.335   0.126
 3429SOL    HW111186   1.145   3.382   0.059
 3429SOL    HW211187   1.148   3.283   0.189
 3430SOL     OW11188   1.616   6.862   0.408
 3430SOL    HW111189   1.539   6.862   0.472
 3430SOL    HW211190   1.601   6.792   0.338
 3431SOL     OW11191   1.750   6.208   1.355
 3431SOL    HW111192   1.721   6.116   1.379
 3431SOL    HW211193   1.670   6.268   1.349
 3432SOL     OW11194   3.296   1.579   5.739
 3432SOL    HW111195   3.348   1.583   5.654
 3432SOL    HW211196   3.202   1.611   5.721
 3433SOL     OW11197   3.461   1.055   5.514
 3433SOL    HW111198   3.469   1.144   5.469
 3433SOL    HW211199   3.452   0.983   5.444
 3434SOL     OW11200   4.045   2.529   1.491
 3434SOL    HW111201   4.099   2.612   1.504
 3434SOL    HW211202   3.993   2.536   1.406
 3435SOL     OW11203   0.038   2.413   2.057
 3435SOL    HW111204   6.978   2.379   2.006
 3435SOL    HW211205   0.064   2.347   2.127
 3436SOL     OW11206   4.674   0.040   4.884
 3436SOL    HW111207   4.603   0.038   4.814
 3436SOL    HW211208   4.756   7.013   4.849
 3437SOL     OW11209   4.283   0.331   5.071
 3437SOL    HW111210   4.283   0.232   5.085
 3437SOL    HW211211   4.189   0.363   5.056
 3438SOL     OW11212   1.682   2.413   6.651
 3438SOL    HW111213   1.611   2.375   6.591
 3438SOL    HW211214   1.753   2.454   6.594
 3439SOL     OW11215   2.732   6.483   4.854
 3439SOL    HW111216   2.825   6.505   4.822
 3439SOL    HW211217   2.665   6.527   4.794
 3440SOL     OW11218   4.614   2.968   1.296
 3440SOL    HW111219   4.639   2.980   1.199
 3440SOL    HW211220   4.515   2.958   1.304
 3441SOL     OW11221   3.818   6.793   4.375
 3441SOL    HW111222   3.881   6.852   4.425
 3441SOL    HW211223   3.853   6.699   4.376
 3442SOL     OW11224   2.147   5.095   3.564
 3442SOL    HW111225   2.134   5.185   3.606
 3442SOL    HW211226   2.201   5.037   3.626
 3443SOL     OW11227   5.950   1.876   2.838
 3443SOL    HW111228   6.005   1.805   2.794
 3443SOL    HW211229   5.861   1.838   2.864
 3444SOL     OW11230   4.994   5.319   6.656
 3444SOL    HW111231   4.953   5.293   6.743
 3444SOL    HW211232   5.094   5.323   6.666
 3445SOL     OW11233   6.122   4.248   4.086
 3445SOL    HW111234   6.214   4.285   4.098
 3445SOL    HW211235   6.076   4.243   4.175
 3446SOL     OW11236   4.310   0.095   3.403
 3446SOL    HW111237   4.311   0.192   3.426
 3446SOL    HW211238   4.221   0.070   3.364
 3447SOL     OW11239   5.925   5.863   0.435
 3447SOL    HW111240   5.951   5.791   0.371
 3447SOL    HW211241   5.995   5.934   0.435
 3448SOL     OW11242   3.261   0.949   1.083
 3448SOL    HW111243   3.356   0.916   1.091
 3448SOL    HW211244   3.199   0.881   1.123
 3449SOL     OW11245   6.949   0.041   2.005
 3449SOL    HW111246   0.012   0.038   2.063
 3449SOL    HW211247   6.897   0.124   2.026
 3450SOL     OW11248   1.226   1.630   1.723
 3450SOL    HW111249   1.251   1.537   1.697
 3450SOL    HW211250   1.219   1.636   1.823
 3451SOL     OW11251   1.500   5.752   4.133
 3451SOL    HW111252   1.485   5.822   4.063
 3451SOL    HW211253   1.424   5.753   4.198
 3452SOL     OW11254   6.575   1.101   6.765
 3452SOL    HW111255   6.623   1.017   6.788
 3452SOL    HW211256   6.500   1.116   6.830
 3453SOL     OW11257   5.247   5.544   4.758
 3453SOL    HW111258   5.234   5.472   4.690
 3453SOL    HW211259   5.278   5.504   4.844
 3454SOL     OW11260   1.494   1.337   1.207
 3454SOL    HW111261   1.437   1.270   1.160
 3454SOL    HW211262   1.498   1.421   1.153
 3455SOL     OW11263   1.593   3.007   4.218
 3455SOL    HW111264   1.593   3.032   4.122
 3455SOL    HW211265   1.612   2.909   4.227
 3456SOL     OW11266   5.868   6.671   1.490
 3456SOL    HW111267   5.827   6.654   1.400
 3456SOL    HW211268   5.889   6.768   1.499
 3457SOL     OW11269   2.601   4.901   3.651
 3457SOL    HW111270   2.594   4.984   3.595
 3457SOL    HW211271   2.626   4.824   3.593
 3458SOL     OW11272   5.669   6.678   0.077
 3458SOL    HW111273   5.701   6.766   0.041
 3458SOL    HW211274   5.593   6.645   0.022
 3459SOL     OW11275   0.459   3.889   3.518
 3459SOL    HW111276   0.444   3.874   3.616
 3459SOL    HW211277   0.401   3.965   3.487
 3460SOL     OW11278   3.104   2.839   0.128
 3460SOL    HW111279   3.165   2.916   0.109
 3460SOL    HW211280   3.142   2.756   0.088
 3461SOL     OW11281   3.792   5.660   3.915
 3461SOL    HW111282   3.822   5.565   3.912
 3461SOL    HW211283   3.734   5.675   3.995
 3462SOL     OW11284   5.580   2.956   3.160
 3462SOL    HW111285   5.520   3.029   3.127
 3462SOL    HW211286   5.547   2.868   3.126
 3463SOL     OW11287   1.687   3.139   2.003
 3463SOL    HW111288   1.607   3.198   1.996
 3463SOL    HW211289   1.659   3.048   2.033
 3464SOL     OW11290   5.366   2.843   6.624
 3464SOL    HW111291   5.350   2.789   6.541
 3464SOL    HW211292   5.421   2.923   6.601
 3465SOL     OW11293   2.219   3.786   1.778
 3465SOL    HW111294   2.229   3.687   1.789
 3465SOL    HW211295   2.170   3.824   1.856
 3466SOL     OW11296   5.525   4.570   5.585
 3466SOL    HW111297   5.487   4.529   5.502
 3466SOL    HW211298   5.608   4.521   5.611
 3467SOL     OW11299   3.111   2.236   0.919
 3467SOL    HW111300   3.179   2.310   0.917
 3467SOL    HW211301   3.037   2.256   0.855
 3468SOL     OW11302   4.691   1.098   1.410
 3468SOL    HW111303   4.605   1.085   1.460
 3468SOL    HW211304   4.677   1.074   1.314
 3469SOL     OW11305   4.417   0.066   6.158
 3469SOL    HW111306   4.345   0.010   6.118
 3469SOL    HW211307   4.487   0.085   6.088
 3470SOL     OW11308   0.343   2.704   1.017
 3470SOL    HW111309   0.442   2.694   1.020
 3470SOL    HW211310   0.302   2.622   0.977
 3471SOL     OW11311   4.572   4.415   3.447
 3471SOL    HW111312   4.498   4.431   3.382
 3471SOL    HW211313   4.609   4.323   3.434
 3472SOL     OW11314   4.442   2.380   3.114
 3472SOL    HW111315   4.478   2.457   3.167
 3472SOL    HW211316   4.412   2.308   3.177
 3473SOL     OW11317   0.166   3.400   4.058
 3473SOL    HW111318   0.147   3.337   4.134
 3473SOL    HW211319   0.225   3.355   3.991
 3474SOL     OW11320   0.311   3.914   4.365
 3474SOL    HW111321   0.334   3.923   4.269
 3474SOL    HW211322   0.216   3.883   4.374
 3475SOL     OW11323   6.537   4.594   4.588
 3475SOL    HW111324   6.543   4.521   4.521
 3475SOL    HW211325   6.550   4.682   4.543
 3476SOL     OW11326   2.017   1.967   3.619
 3476SOL    HW111327   2.076   1.889   3.641
 3476SOL    HW211328   2.007   1.974   3.519
 3477SOL     OW11329   0.214   3.780   1.551
 3477SOL    HW111330   0.166   3.812   1.470
 3477SOL    HW211331   0.217   3.680   1.552
 3478SOL     OW11332   2.194   0.105   0.193
 3478SOL    HW111333   2.105   0.108   0.148
 3478SOL    HW211334   2.250   0.182   0.160
 3479SOL     OW11335   0.519   3.201   3.693
 3479SOL    HW111336   0.532   3.103   3.676
 3479SOL    HW211337   0.564   3.226   3.779
 3480SOL     OW11338   1.137   5.948   6.735
 3480SOL    HW111339   1.073   5.898   6.793
 3480SOL    HW211340   1.201   5.884   6.694
 3481SOL     OW11341   5.431   0.626   0.158
 3481SOL    HW111342   5.429   0.530   0.130
 3481SOL    HW211343   5.525   0.659   0.160
 3482SOL     OW11344   5.853   2.510   4.095
 3482SOL    HW111345   5.931   2.475   4.147
 3482SOL    HW211346   5.845   2.609   4.110
 3483SOL     OW11347   4.761   2.347   3.268
 3483SOL    HW111348   4.841   2.343   3.328
 3483SOL    HW211349   4.702   2.423   3.297
 3484SOL     OW11350   1.903   3.710   6.434
 3484SOL    HW111351   1.863   3.640   6.493
 3484SOL    HW211352   1.839   3.786   6.423
 3485SOL     OW11353   6.865   1.616   5.108
 3485SOL    HW111354   6.800   1.691   5.102
 3485SOL    HW211355   6.932   1.623   5.034
 3486SOL     OW11356   1.831   6.601   4.529
 3486SOL    HW111357   1.756   6.598   4.595
 3486SOL    HW211358   1.833   6.515   4.477
 3487SOL     OW11359   5.793   1.466   6.626
 3487SOL    HW111360   5.724   1.398   6.601
 3487SOL    HW211361   5.854   1.481   6.548
 3488SOL     OW11362   5.266   0.744   4.742
 3488SOL    HW111363   5.178   0.728   4.697
 3488SOL    HW211364   5.282   0.842   4.751
 3489SOL     OW11365   3.136   6.623   1.062
 3489SOL    HW111366   3.160   6.684   0.987
 3489SOL    HW211367   3.196   6.641   1.140
 3490SOL     OW11368   3.915   4.529   1.118
 3490SOL    HW111369   4.009   4.526   1.152
 3490SOL    HW211370   3.889   4.440   1.083
 3491SOL     OW11371   5.326   3.746   0.297
 3491SOL    HW111372   5.242   3.800   0.305
 3491SOL    HW211373   5.331   3.706   0.206
 3492SOL     OW11374   6.607   4.050   2.264
 3492SOL    HW111375   6.516   4.054   2.306
 3492SOL    HW211376   6.673   4.015   2.330
 3493SOL     OW11377   6.490   3.704   4.147
 3493SOL    HW111378   6.524   3.785   4.098
 3493SOL    HW211379   6.566   3.663   4.198
 3494SOL     OW11380   3.047   2.193   2.558
 3494SOL    HW111381   3.025   2.096   2.548
 3494SOL    HW211382   3.000   2.245   2.486
 3495SOL     OW11383   1.164   4.213   2.382
 3495SOL    HW111384   1.113   4.127   2.378
 3495SOL    HW211385   1.163   4.247   2.477
 3496SOL     OW11386   5.822   4.674   0.429
 3496SOL    HW111387   5.873   4.750   0.387
 3496SOL    HW211388   5.850   4.664   0.524
 3497SOL     OW11389   3.410   0.884   3.469
 3497SOL    HW111390   3.436   0.905   3.375
 3497SOL    HW211391   3.489   0.849   3.519
 3498SOL     OW11392   2.364   1.640   2.196
 3498SOL    HW111393   2.389   1.552   2.156
 3498SOL    HW211394   2.275   1.669   2.160
 3499SOL     OW11395   5.922   6.186   5.451
 3499SOL    HW111396   5.956   6.207   5.542
 3499SOL    HW211397   5.871   6.100   5.453
 3500SOL     OW11398   1.569   1.767   3.955
 3500SOL    HW111399   1.645   1.828   3.938
 3500SOL    HW211400   1.595   1.673   3.930
 3501SOL     OW11401   2.502   6.997   6.793
 3501SOL    HW111402   2.413   0.017   6.768
 3501SOL    HW211403   2.568   7.016   6.721
 3502SOL     OW11404   5.834   3.037   1.738
 3502SOL    HW111405   5.742   3.032   1.701
 3502SOL    HW211406   5.860   2.948   1.776
 3503SOL     OW11407   0.041   5.810   5.815
 3503SOL    HW111408   7.004   5.872   5.760
 3503SOL    HW211409   0.125   5.788   5.764
 3504SOL     OW11410   1.779   0.598   2.057
 3504SOL    HW111411   1.828   0.644   2.131
 3504SOL    HW211412   1.745   0.666   1.992
 3505SOL     OW11413   5.875   5.693   5.943
 3505SOL    HW111414   5.848   5.630   5.871
 3505SOL    HW211415   5.942   5.758   5.907
 3506SOL     OW11416   5.695   4.432   5.044
 3506SOL    HW111417   5.692   4.506   5.111
 3506SOL    HW211418   5.743   4.353   5.084
 3507SOL     OW11419   2.318   0.425   0.896
 3507SOL    HW111420   2.407   0.463   0.918
 3507SOL    HW211421   2.279   0.472   0.817
 3508SOL     OW11422   2.872   2.474   5.849
 3508SOL    HW111423   2.787   2.487   5.798
 3508SOL    HW211424   2.950   2.498   5.791
 3509SOL     OW11425   4.688   6.733   0.399
 3509SOL    HW111426   4.692   6.832   0.418
 3509SOL    HW211427   4.594   6.708   0.376
 3510SOL     OW11428   2.332   1.159   1.525
 3510SOL    HW111429   2.362   1.192   1.436
 3510SOL    HW211430   2.356   1.063   1.535
 3511SOL     OW11431   2.162   4.315   1.169
 3511SOL    HW111432   2.174   4.414   1.179
 3511SOL    HW211433   2.234   4.278   1.111
 3512SOL     OW11434   0.586   3.861   6.963
 3512SOL    HW111435   0.515   3.852   6.892
 3512SOL    HW211436   0.554   3.926   0.014
 3513SOL     OW11437   6.545   2.198   1.113
 3513SOL    HW111438   6.556   2.098   1.112
 3513SOL    HW211439   6.511   2.226   1.202
 3514SOL     OW11440   5.204   0.703   2.630
 3514SOL    HW111441   5.303   0.705   2.648
 3514SOL    HW211442   5.187   0.652   2.545
 3515SOL     OW11443   5.494   5.892   3.962
 3515SOL    HW111444   5.580   5.871   3.914
 3515SOL    HW211445   5.493   5.989   3.985
 3516SOL     OW11446   5.002   0.064   1.246
 3516SOL    HW111447   4.956   0.152   1.247
 3516SOL    HW211448   4.985   0.015   1.331
 3517SOL     OW11449   6.936   0.732   1.373
 3517SOL    HW111450   0.011   0.697   1.374
 3517SOL    HW211451   6.910   0.758   1.466
 3518SOL     OW11452   5.693   1.881   4.736
 3518SOL    HW111453   5.668   1.978   4.735
 3518SOL    HW211454   5.635   1.831   4.671
 3519SOL     OW11455   2.771   0.994   6.713
 3519SOL    HW111456   2.795   1.090   6.697
 3519SOL    HW211457   2.850   0.937   6.690
 3520SOL     OW11458   3.439   5.503   6.073
 3520SOL    HW111459   3.483   5.414   6.061
 3520SOL    HW211460   3.351   5.490   6.121
 3521SOL     OW11461   3.422   2.834   6.813
 3521SOL    HW111462   3.495   2.810   6.749
 3521SOL    HW211463   3.463   2.867   6.898
 3522SOL     OW11464   6.584   5.223   6.363
 3522SOL    HW111465   6.560   5.169   6.444
 3522SOL    HW211466   6.503   5.233   6.304
 3523SOL     OW11467   1.092   4.728   5.378
 3523SOL    HW111468   1.152   4.699   5.304
 3523SOL    HW211469   1.090   4.828   5.383
 3524SOL     OW11470   5.802   1.779   2.504
 3524SOL    HW111471   5.818   1.860   2.447
 3524SOL    HW211472   5.872   1.711   2.485
 3525SOL     OW11473   5.978   3.860   3.840
 3525SOL    HW111474   6.059   3.909   3.808
 3525SOL    HW211475   5.906   3.926   3.862
 3526SOL     OW11476   1.491   5.859   3.228
 3526SOL    HW111477   1.529   5.777   3.270
 3526SOL    HW211478   1.564   5.926   3.214
 3527SOL     OW11479   6.058   2.778   5.928
 3527SOL    HW111480   6.047   2.746   5.833
 3527SOL    HW211481   5.972   2.818   5.960
 3528SOL     OW11482   2.568   6.125   4.911
 3528SOL    HW111483   2.661   6.148   4.939
 3528SOL    HW211484   2.569   6.040   4.857
 3529SOL     OW11485   4.434   6.319   6.398
 3529SOL    HW111486   4.471   6.239   6.351
 3529SOL    HW211487   4.335   6.323   6.384
 3530SOL     OW11488   0.100   5.063   2.007
 3530SOL    HW111489   0.136   5.119   1.932
 3530SOL    HW211490   0.004   5.040   1.988
 3531SOL     OW11491   5.166   2.201   1.765
 3531SOL    HW111492   5.072   2.218   1.735
 3531SOL    HW211493   5.210   2.137   1.702
 3532SOL     OW11494   2.488   1.043   2.200
 3532SOL    HW111495   2.576   0.997   2.210
 3532SOL    HW211496   2.493   1.132   2.246
 3533SOL     OW11497   0.129   1.827   2.760
 3533SOL    HW111498   0.173   1.869   2.839
 3533SOL    HW211499   0.177   1.855   2.676
 3534SOL     OW11500   0.659   2.644   2.338
 3534SOL    HW111501   0.719   2.714   2.377
 3534SOL    HW211502   0.586   2.687   2.286
 3535SOL     OW11503   2.812   5.183   5.241
 3535SOL    HW111504   2.768   5.150   5.157
 3535SOL    HW211505   2.832   5.106   5.301
 3536SOL     OW11506   3.676   1.813   3.154
 3536SOL    HW111507   3.624   1.882   3.104
 3536SOL    HW211508   3.668   1.725   3.107
 3537SOL     OW11509   1.260   5.901   2.631
 3537SOL    HW111510   1.315   5.983   2.613
 3537SOL    HW211511   1.168   5.915   2.595
 3538SOL     OW11512   3.159   5.511   5.128
 3538SOL    HW111513   3.060   5.501   5.136
 3538SOL    HW211514   3.205   5.434   5.172
 3539SOL     OW11515   3.699   3.715   4.481
 3539SOL    HW111516   3.708   3.619   4.507
 3539SOL    HW211517   3.608   3.730   4.441
 3540SOL     OW11518   2.119   2.269   4.022
 3540SOL    HW111519   2.094   2.195   4.084
 3540SOL    HW211520   2.103   2.240   3.927
 3541SOL     OW11521   3.001   2.938   5.378
 3541SOL    HW111522   2.904   2.933   5.353
 3541SOL    HW211523   3.010   2.927   5.477
 3542SOL     OW11524   1.887   4.969   3.136
 3542SOL    HW111525   1.950   4.999   3.207
 3542SOL    HW211526   1.809   5.032   3.131
 3543SOL     OW11527   5.431   2.732   3.992
 3543SOL    HW111528   5.374   2.815   3.990
 3543SOL    HW211529   5.386   2.662   4.046
 3544SOL     OW11530   1.903   4.360   6.828
 3544SOL    HW111531   1.806   4.359   6.854
 3544SOL    HW211532   1.923   4.277   6.775
 3545SOL     OW11533   3.649   6.263   6.055
 3545SOL    HW111534   3.746   6.271   6.076
 3545SOL    HW211535   3.635   6.193   5.985
 3546SOL     OW11536   0.291   5.770   3.438
 3546SOL    HW111537   0.333   5.798   3.351
 3546SOL    HW211538   0.362   5.763   3.509
 3547SOL     OW11539   4.158   5.587   4.468
 3547SOL    HW111540   4.116   5.677   4.465
 3547SOL    HW211541   4.215   5.574   4.386
 3548SOL     OW11542   5.229   2.229   5.563
 3548SOL    HW111543   5.135   2.199   5.548
 3548SOL    HW211544   5.268   2.262   5.477
 3549SOL     OW11545   6.752   4.742   4.296
 3549SOL    HW111546   6.824   4.765   4.231
 3549SOL    HW211547   6.723   4.647   4.281
 3550SOL     OW11548   5.331   2.375   3.126
 3550SOL    HW111549   5.232   2.373   3.114
 3550SOL    HW211550   5.370   2.451   3.073
 3551SOL     OW11551   3.743   6.405   3.270
 3551SOL    HW111552   3.781   6.324   3.314
 3551SOL    HW211553   3.646   6.413   3.290
 3552SOL     OW11554   5.448   5.369   3.149
 3552SOL    HW111555   5.527   5.423   3.121
 3552SOL    HW211556   5.479   5.291   3.204
 3553SOL     OW11557   5.562   2.657   2.207
 3553SOL    HW111558   5.526   2.689   2.295
 3553SOL    HW211559   5.546   2.726   2.137
 3554SOL     OW11560   4.080   4.106   7.001
 3554SOL    HW111561   4.129   4.121   6.915
 3554SOL    HW211562   4.140   4.125   0.059
 3555SOL     OW11563   0.846   3.637   2.714
 3555SOL    HW111564   0.856   3.716   2.775
 3555SOL    HW211565   0.768   3.582   2.744
 3556SOL     OW11566   3.349   0.356   5.528
 3556SOL    HW111567   3.339   0.442   5.579
 3556SOL    HW211568   3.364   0.376   5.431
 3557SOL     OW11569   1.051   0.581   4.846
 3557SOL    HW111570   1.135   0.536   4.817
 3557SOL    HW211571   1.055   0.678   4.821
 3558SOL     OW11572   0.205   5.664   1.779
 3558SOL    HW111573   0.191   5.696   1.873
 3558SOL    HW211574   0.294   5.695   1.746
 3559SOL     OW11575   0.231   0.348   5.234
 3559SOL    HW111576   0.248   0.278   5.164
 3559SOL    HW211577   0.289   0.428   5.216
 3560SOL     OW11578   1.542   5.887   1.363
 3560SOL    HW111579   1.640   5.871   1.357
 3560SOL    HW211580   1.520   5.935   1.448
 3561SOL     OW11581   5.013   4.943   6.069
 3561SOL    HW111582   4.988   5.032   6.030
 3561SOL    HW211583   4.931   4.885   6.073
 3562SOL     OW11584   5.476   0.230   4.088
 3562SOL    HW111585   5.390   0.229   4.036
 3562SOL    HW211586   5.499   0.324   4.112
 3563SOL     OW11587   5.560   1.738   1.377
 3563SOL    HW111588   5.656   1.763   1.391
 3563SOL    HW211589   5.551   1.639   1.386
 3564SOL     OW11590   0.833   4.159   4.820
 3564SOL    HW111591   0.929   4.157   4.848
 3564SOL    HW211592   0.779   4.104   4.884
 3565SOL     OW11593   3.015   6.796   4.429
 3565SOL    HW111594   3.001   6.861   4.503
 3565SOL    HW211595   2.946   6.723   4.435
 3566SOL     OW11596   6.876   3.149   5.555
 3566SOL    HW111597   6.845   3.243   5.570
 3566SOL    HW211598   6.865   3.126   5.458
 3567SOL     OW11599   0.810   2.783   0.799
 3567SOL    HW111600   0.760   2.697   0.785
 3567SOL    HW211601   0.746   2.860   0.797
 3568SOL     OW11602   4.733   4.878   2.598
 3568SOL    HW111603   4.759   4.954   2.658
 3568SOL    HW211604   4.750   4.903   2.503
 3569SOL     OW11605   3.159   2.998   4.623
 3569SOL    HW111606   3.062   2.983   4.602
 3569SOL    HW211607   3.173   2.993   4.722
 3570SOL     OW11608   6.096   1.860   5.414
 3570SOL    HW111609   6.020   1.798   5.434
 3570SOL    HW211610   6.126   1.846   5.320
 3571SOL     OW11611   1.706   0.598   5.018
 3571SOL    HW111612   1.670   0.683   4.978
 3571SOL    HW211613   1.633   0.551   5.067
 3572SOL     OW11614   5.257   4.087   2.242
 3572SOL    HW111615   5.237   4.070   2.338
 3572SOL    HW211616   5.178   4.131   2.198
 3573SOL     OW11617   6.460   4.377   2.134
 3573SOL    HW111618   6.554   4.364   2.167
 3573SOL    HW211619   6.396   4.334   2.198
 3574SOL     OW11620   2.708   3.047   6.111
 3574SOL    HW111621   2.767   2.984   6.161
 3574SOL    HW211622   2.743   3.059   6.018
 3575SOL     OW11623   4.898   5.975   1.053
 3575SOL    HW111624   4.841   6.057   1.045
 3575SOL    HW211625   4.971   5.979   0.985
 3576SOL     OW11626   0.156   3.081   6.907
 3576SOL    HW111627   0.170   2.987   6.877
 3576SOL    HW211628   0.163   3.086   7.007
 3577SOL     OW11629   2.265   2.494   5.023
 3577SOL    HW111630   2.337   2.429   4.997
 3577SOL    HW211631   2.307   2.580   5.052
 3578SOL     OW11632   3.282   2.987   0.454
 3578SOL    HW111633   3.203   3.047   0.450
 3578SOL    HW211634   3.360   3.031   0.408
 3579SOL     OW11635   0.315   3.529   2.448
 3579SOL    HW111636   0.282   3.485   2.531
 3579SOL    HW211637   0.387   3.473   2.407
 3580SOL     OW11638   0.630   3.177   1.046
 3580SOL    HW111639   0.682   3.099   1.082
 3580SOL    HW211640   0.578   3.219   1.120
 3581SOL     OW11641   0.707   0.420   3.050
 3581SOL    HW111642   0.642   0.375   3.111
 3581SOL    HW211643   0.793   0.436   3.098
 3582SOL     OW11644   3.313   4.228   5.639
 3582SOL    HW111645   3.222   4.257   5.668
 3582SOL    HW211646   3.382   4.279   5.691
 3583SOL     OW11647   0.549   4.852   0.498
 3583SOL    HW111648   0.515   4.765   0.462
 3583SOL    HW211649   0.584   4.839   0.590
 3584SOL     OW11650   5.676   4.611   5.261
 3584SOL    HW111651   5.746   4.640   5.326
 3584SOL    HW211652   5.617   4.543   5.304
 3585SOL     OW11653   2.690   2.433   4.538
 3585SOL    HW111654   2.681   2.455   4.441
 3585SOL    HW211655   2.773   2.380   4.553
 3586SOL     OW11656   6.425   2.940   4.202
 3586SOL    HW111657   6.509   2.889   4.182
 3586SOL    HW211658   6.381   2.968   4.117
 3587SOL     OW11659   3.683   6.571   5.992
 3587SOL    HW111660   3.726   6.579   5.903
 3587SOL    HW211661   3.638   6.482   6.001
 3588SOL     OW11662   6.232   4.369   4.456
 3588SOL    HW111663   6.313   4.355   4.513
 3588SOL    HW211664   6.177   4.444   4.493
 3589SOL     OW11665   0.061   0.136   5.846
 3589SOL    HW111666   0.136   0.084   5.887
 3589SOL    HW211667   0.099   0.212   5.793
 3590SOL     OW11668   0.142   4.401   0.132
 3590SOL    HW111669   0.148   4.496   0.102
 3590SOL    HW211670   0.090   4.396   0.217
 3591SOL     OW11671   5.426   2.133   6.449
 3591SOL    HW111672   5.495   2.080   6.400
 3591SOL    HW211673   5.419   2.224   6.409
 3592SOL     OW11674   0.991   0.636   1.872
 3592SOL    HW111675   1.005   0.687   1.957
 3592SOL    HW211676   0.968   0.541   1.893
 3593SOL     OW11677   6.141   3.660   6.052
 3593SOL    HW111678   6.112   3.597   6.124
 3593SOL    HW211679   6.113   3.753   6.076
 3594SOL     OW11680   4.034   5.607   5.093
 3594SOL    HW111681   4.045   5.621   4.995
 3594SOL    HW211682   4.031   5.695   5.140
 3595SOL     OW11683   5.623   5.850   6.716
 3595SOL    HW111684   5.594   5.858   6.621
 3595SOL    HW211685   5.705   5.906   6.731
 3596SOL     OW11686   3.522   1.324   3.032
 3596SOL    HW111687   3.604   1.380   3.021
 3596SOL    HW211688   3.442   1.376   3.004
 3597SOL     OW11689   1.862   3.242   4.897
 3597SOL    HW111690   1.855   3.197   4.807
 3597SOL    HW211691   1.956   3.269   4.913
 3598SOL     OW11692   1.360   5.514   5.306
 3598SOL    HW111693   1.344   5.458   5.225
 3598SOL    HW211694   1.398   5.602   5.279
 3599SOL     OW11695   4.623   1.628   5.827
 3599SOL    HW111696   4.550   1.618   5.895
 3599SOL    HW211697   4.671   1.715   5.843
 3600SOL     OW11698   3.540   3.804   0.778
 3600SOL    HW111699   3.508   3.839   0.866
 3600SOL    HW211700   3.492   3.718   0.758
 3601SOL     OW11701   4.922   1.164   5.196
 3601SOL    HW111702   5.020   1.147   5.200
 3601SOL    HW211703   4.898   1.235   5.262
 3602SOL     OW11704   1.881   2.368   1.698
 3602SOL    HW111705   1.938   2.394   1.775
 3602SOL    HW211706   1.930   2.305   1.639
 3603SOL     OW11707   3.256   0.905   5.623
 3603SOL    HW111708   3.319   0.951   5.561
 3603SOL    HW211709   3.172   0.959   5.631
 3604SOL     OW11710   6.648   0.508   3.700
 3604SOL    HW111711   6.558   0.491   3.660
 3604SOL    HW211712   6.638   0.525   3.798
 3605SOL     OW11713   0.863   5.241   3.377
 3605SOL    HW111714   0.813   5.174   3.432
 3605SOL    HW211715   0.939   5.197   3.330
 3606SOL     OW11716   2.087   6.653   1.604
 3606SOL    HW111717   2.185   6.639   1.598
 3606SOL    HW211718   2.039   6.576   1.564
 3607SOL     OW11719   5.260   2.843   2.612
 3607SOL    HW111720   5.300   2.889   2.691
 3607SOL    HW211721   5.200   2.769   2.642
 3608SOL     OW11722   4.022   2.201   4.259
 3608SOL    HW111723   4.060   2.250   4.338
 3608SOL    HW211724   4.097   2.164   4.204
 3609SOL     OW11725   2.538   6.745   4.477
 3609SOL    HW111726   2.602   6.702   4.413
 3609SOL    HW211727   2.544   6.845   4.469
 3610SOL     OW11728   2.222   0.172   5.358
 3610SOL    HW111729   2.243   0.269   5.343
 3610SOL    HW211730   2.246   0.120   5.277
 3611SOL     OW11731   4.498   4.806   3.771
 3611SOL    HW111732   4.486   4.762   3.682
 3611SOL    HW211733   4.479   4.739   3.844
 3612SOL     OW11734   5.567   1.333   6.526
 3612SOL    HW111735   5.534   1.394   6.597
 3612SOL    HW211736   5.505   1.338   6.447
 3613SOL     OW11737   3.464   5.092   1.211
 3613SOL    HW111738   3.412   5.175   1.234
 3613SOL    HW211739   3.521   5.066   1.289
 3614SOL     OW11740   3.360   4.181   6.472
 3614SOL    HW111741   3.340   4.102   6.529
 3614SOL    HW211742   3.432   4.236   6.514
 3615SOL     OW11743   6.517   2.902   5.375
 3615SOL    HW111744   6.524   2.886   5.474
 3615SOL    HW211745   6.516   2.814   5.328
 3616SOL     OW11746   1.892   1.799   7.008
 3616SOL    HW111747   1.919   1.852   6.927
 3616SOL    HW211748   1.797   1.770   6.999
 3617SOL     OW11749   3.922   0.203   5.882
 3617SOL    HW111750   3.977   0.123   5.858
 3617SOL    HW211751   3.825   0.178   5.885
 3618SOL     OW11752   1.491   4.029   4.956
 3618SOL    HW111753   1.584   3.995   4.946
 3618SOL    HW211754   1.460   4.013   5.049
 3619SOL     OW11755   6.271   2.751   0.994
 3619SOL    HW111756   6.176   2.775   1.011
 3619SOL    HW211757   6.286   2.740   0.896
 3620SOL     OW11758   6.386   6.597   4.974
 3620SOL    HW111759   6.482   6.595   5.004
 3620SOL    HW211760   6.361   6.691   4.950
 3621SOL     OW11761   3.849   3.001   3.764
 3621SOL    HW111762   3.875   3.006   3.860
 3621SOL    HW211763   3.781   2.929   3.751
 3622SOL     OW11764   0.976   6.894   0.306
 3622SOL    HW111765   0.895   6.925   0.256
 3622SOL    HW211766   1.053   6.954   0.283
 3623SOL     OW11767   1.259   5.471   6.119
 3623SOL    HW111768   1.358   5.472   6.112
 3623SOL    HW211769   1.230   5.526   6.197
 3624SOL     OW11770   3.157   0.737   1.731
 3624SOL    HW111771   3.187   0.828   1.759
 3624SOL    HW211772   3.101   0.697   1.805
 3625SOL     OW11773   6.352   2.880   6.504
 3625SOL    HW111774   6.352   2.955   6.570
 3625SOL    HW211775   6.329   2.795   6.551
 3626SOL     OW11776   0.438   2.517   5.258
 3626SOL    HW111777   0.484   2.574   5.326
 3626SOL    HW211778   0.493   2.513   5.175
 3627SOL     OW11779   4.247   2.713   1.457
 3627SOL    HW111780   4.251   2.652   1.377
 3627SOL    HW211781   4.282   2.803   1.432
 3628SOL     OW11782   0.448   1.269   2.281
 3628SOL    HW111783   0.546   1.250   2.271
 3628SOL    HW211784   0.409   1.286   2.191
 3629SOL     OW11785   1.036   1.227   4.529
 3629SOL    HW111786   1.108   1.219   4.461
 3629SOL    HW211787   1.048   1.313   4.580
 3630SOL     OW11788   6.849   2.718   3.492
 3630SOL    HW111789   6.820   2.623   3.481
 3630SOL    HW211790   6.780   2.779   3.453
 3631SOL     OW11791   1.805   6.514   2.500
 3631SOL    HW111792   1.715   6.536   2.538
 3631SOL    HW211793   1.797   6.499   2.402
 3632SOL     OW11794   4.539   3.276   0.965
 3632SOL    HW111795   4.621   3.247   1.015
 3632SOL    HW211796   4.459   3.227   1.001
 3633SOL     OW11797   3.864   2.823   6.211
 3633SOL    HW111798   3.922   2.822   6.130
 3633SOL    HW211799   3.907   2.769   6.283
 3634SOL     OW11800   3.046   5.285   5.902
 3634SOL    HW111801   2.951   5.315   5.903
 3634SOL    HW211802   3.090   5.317   5.818
 3635SOL     OW11803   2.915   0.960   1.506
 3635SOL    HW111804   2.907   1.044   1.452
 3635SOL    HW211805   2.951   0.982   1.597
 3636SOL     OW11806   0.997   5.530   6.947
 3636SOL    HW111807   0.929   5.482   7.002
 3636SOL    HW211808   0.985   5.628   6.957
 3637SOL     OW11809   6.981   3.103   6.715
 3637SOL    HW111810   0.040   3.069   6.767
 3637SOL    HW211811   6.956   3.036   6.645
 3638SOL     OW11812   6.017   4.731   2.238
 3638SOL    HW111813   5.970   4.811   2.201
 3638SOL    HW211814   6.100   4.712   2.185
 3639SOL     OW11815   3.687   4.055   4.305
 3639SOL    HW111816   3.711   3.987   4.236
 3639SOL    HW211817   3.592   4.083   4.294
 3640SOL     OW11818   5.475   2.213   0.407
 3640SOL    HW111819   5.437   2.233   0.317
 3640SOL    HW211820   5.520   2.124   0.405
 3641SOL     OW11821   0.019   4.160   1.668
 3641SOL    HW111822   0.087   4.229   1.688
 3641SOL    HW211823   6.962   4.201   1.618
 3642SOL     OW11824   5.841   2.282   6.544
 3642SOL    HW111825   5.767   2.291   6.478
 3642SOL    HW211826   5.929   2.295   6.498
 3643SOL     OW11827   3.845   5.572   5.619
 3643SOL    HW111828   3.876   5.562   5.525
 3643SOL    HW211829   3.796   5.659   5.629
 3644SOL     OW11830   3.240   1.010   1.850
 3644SOL    HW111831   3.331   1.037   1.818
 3644SOL    HW211832   3.239   1.008   1.950
 3645SOL     OW11833   1.372   3.962   4.205
 3645SOL    HW111834   1.435   4.037   4.227
 3645SOL    HW211835   1.407   3.876   4.243
 3646SOL     OW11836   2.537   4.658   4.879
 3646SOL    HW111837   2.615   4.693   4.930
 3646SOL    HW211838   2.463   4.635   4.943
 3647SOL     OW11839   2.546   0.507   0.224
 3647SOL    HW111840   2.482   0.432   0.211
 3647SOL    HW211841   2.622   0.477   0.281
 3648SOL     OW11842   4.694   5.429   3.568
 3648SOL    HW111843   4.764   5.387   3.509
 3648SOL    HW211844   4.628   5.360   3.597
 3649SOL     OW11845   5.693   3.185   0.505
 3649SOL    HW111846   5.656   3.264   0.554
 3649SOL    HW211847   5.691   3.203   0.407
 3650SOL     OW11848   5.493   5.040   0.322
 3650SOL    HW111849   5.412   4.996   0.361
 3650SOL    HW211850   5.498   5.134   0.355
 3651SOL     OW11851   1.486   2.238   5.982
 3651SOL    HW111852   1.498   2.318   6.041
 3651SOL    HW211853   1.400   2.246   5.931
 3652SOL     OW11854   5.136   1.709   2.060
 3652SOL    HW111855   5.185   1.754   2.134
 3652SOL    HW211856   5.059   1.657   2.097
 3653SOL     OW11857   0.593   1.421   1.485
 3653SOL    HW111858   0.551   1.365   1.557
 3653SOL    HW211859   0.586   1.373   1.397
 3654SOL     OW11860   5.858   6.970   0.601
 3654SOL    HW111861   5.888   7.014   0.516
 3654SOL    HW211862   5.876   6.872   0.596
 3655SOL     OW11863   1.991   2.062   4.553
 3655SOL    HW111864   1.950   2.133   4.611
 3655SOL    HW211865   1.982   1.973   4.597
 3656SOL     OW11866   0.280   5.816   1.319
 3656SOL    HW111867   0.237   5.810   1.230
 3656SOL    HW211868   0.318   5.727   1.345
 3657SOL     OW11869   4.799   6.113   4.695
 3657SOL    HW111870   4.792   6.025   4.646
 3657SOL    HW211871   4.885   6.115   4.746
 3658SOL     OW11872   1.456   5.375   6.347
 3658SOL    HW111873   1.452   5.428   6.262
 3658SOL    HW211874   1.548   5.337   6.357
 3659SOL     OW11875   6.831   1.962   6.264
 3659SOL    HW111876   6.848   1.864   6.254
 3659SOL    HW211877   6.874   1.994   6.349
 3660SOL     OW11878   5.651   5.267   6.251
 3660SOL    HW111879   5.599   5.232   6.329
 3660SOL    HW211880   5.612   5.354   6.222
 3661SOL     OW11881   0.035   1.547   4.725
 3661SOL    HW111882   6.955   1.537   4.736
 3661SOL    HW211883   0.080   1.461   4.750
 3662SOL     OW11884   3.393   0.856   5.340
 3662SOL    HW111885   3.484   0.817   5.322
 3662SOL    HW211886   3.324   0.784   5.328
 3663SOL     OW11887   2.265   2.451   6.364
 3663SOL    HW111888   2.342   2.444   6.300
 3663SOL    HW211889   2.186   2.490   6.317
 3664SOL     OW11890   4.048   1.893   2.176
 3664SOL    HW111891   4.000   1.979   2.159
 3664SOL    HW211892   4.062   1.844   2.090
 3665SOL     OW11893   1.365   5.934   5.723
 3665SOL    HW111894   1.368   5.979   5.633
 3665SOL    HW211895   1.421   5.985   5.788
 3666SOL     OW11896   2.420   1.793   5.032
 3666SOL    HW111897   2.450   1.769   5.124
 3666SOL    HW211898   2.399   1.891   5.028
 3667SOL     OW11899   2.405   0.798   2.742
 3667SOL    HW111900   2.366   0.890   2.736
 3667SOL    HW211901   2.502   0.804   2.764
 3668SOL     OW11902   0.475   0.493   1.223
 3668SOL    HW111903   0.457   0.573   1.166
 3668SOL    HW211904   0.568   0.497   1.258
 3669SOL     OW11905   0.072   1.286   3.849
 3669SOL    HW111906   0.064   1.366   3.908
 3669SOL    HW211907   0.129   1.216   3.894
 3670SOL     OW11908   3.647   5.451   1.797
 3670SOL    HW111909   3.583   5.378   1.823
 3670SOL    HW211910   3.596   5.525   1.753
 3671SOL     OW11911   0.071   0.432   3.408
 3671SOL    HW111912   0.005   0.466   3.475
 3671SOL    HW211913   0.022   0.394   3.330
 3672SOL     OW11914   4.311   7.008   2.745
 3672SOL    HW111915   4.342   0.078   2.778
 3672SOL    HW211916   4.244   0.002   2.672
 3673SOL     OW11917   4.885   6.253   1.455
 3673SOL    HW111918   4.848   6.340   1.421
 3673SOL    HW211919   4.891   6.257   1.555
 3674SOL     OW11920   1.437   5.270   5.975
 3674SOL    HW111921   1.423   5.205   5.899
 3674SOL    HW211922   1.382   5.352   5.959
 3675SOL     OW11923   0.463   1.280   3.941
 3675SOL    HW111924   0.517   1.340   3.882
 3675SOL    HW211925   0.525   1.230   4.002
 3676SOL     OW11926   4.179   1.773   3.423
 3676SOL    HW111927   4.112   1.704   3.397
 3676SOL    HW211928   4.169   1.853   3.363
 3677SOL     OW11929   2.032   0.394   3.852
 3677SOL    HW111930   1.955   0.457   3.864
 3677SOL    HW211931   2.117   0.447   3.845
 3678SOL     OW11932   1.327   0.619   3.757
 3678SOL    HW111933   1.323   0.718   3.750
 3678SOL    HW211934   1.410   0.585   3.712
 3679SOL     OW11935   4.702   0.800   2.086
 3679SOL    HW111936   4.774   0.755   2.139
 3679SOL    HW211937   4.739   0.882   2.042
 3680SOL     OW11938   4.250   1.246   4.000
 3680SOL    HW111939   4.256   1.154   4.041
 3680SOL    HW211940   4.341   1.276   3.973
 3681SOL     OW11941   1.448   6.717   4.826
 3681SOL    HW111942   1.413   6.700   4.734
 3681SOL    HW211943   1.413   6.648   4.889
 3682SOL     OW11944   5.617   2.388   1.322
 3682SOL    HW111945   5.637   2.293   1.298
 3682SOL    HW211946   5.585   2.392   1.417
 3683SOL     OW11947   6.523   0.511   6.005
 3683SOL    HW111948   6.581   0.565   5.944
 3683SOL    HW211949   6.460   0.455   5.951
 3684SOL     OW11950   2.026   6.599   5.308
 3684SOL    HW111951   2.029   6.674   5.374
 3684SOL    HW211952   1.964   6.624   5.233
 3685SOL     OW11953   2.062   6.293   5.744
 3685SOL    HW111954   2.147   6.241   5.741
 3685SOL    HW211955   1.995   6.244   5.800
 3686SOL     OW11956   0.355   3.989   4.046
 3686SOL    HW111957   0.423   3.972   3.974
 3686SOL    HW211958   0.300   4.069   4.022
 3687SOL     OW11959   5.136   5.883   3.507
 3687SOL    HW111960   5.149   5.973   3.547
 3687SOL    HW211961   5.148   5.888   3.408
 3688SOL     OW11962   5.652   3.137   0.775
 3688SOL    HW111963   5.651   3.122   0.676
 3688SOL    HW211964   5.695   3.058   0.820
 3689SOL     OW11965   1.634   0.471   5.873
 3689SOL    HW111966   1.711   0.415   5.904
 3689SOL    HW211967   1.580   0.501   5.952
 3690SOL     OW11968   4.821   4.948   0.922
 3690SOL    HW111969   4.867   4.877   0.974
 3690SOL    HW211970   4.825   4.926   0.824
 3691SOL     OW11971   2.354   2.428   0.082
 3691SOL    HW111972   2.328   2.393   7.011
 3691SOL    HW211973   2.328   2.361   0.152
 3692SOL     OW11974   0.981   3.235   6.255
 3692SOL    HW111975   0.919   3.175   6.205
 3692SOL    HW211976   0.995   3.319   6.203
 3693SOL     OW11977   0.579   1.717   2.467
 3693SOL    HW111978   0.587   1.794   2.529
 3693SOL    HW211979   0.483   1.706   2.440
 3694SOL     OW11980   6.915   0.208   1.576
 3694SOL    HW111981   6.868   0.189   1.490
 3694SOL    HW211982   6.973   0.130   1.599
 3695SOL     OW11983   6.885   2.830   2.687
 3695SOL    HW111984   6.918   2.763   2.620
 3695SOL    HW211985   6.797   2.802   2.723
 3696SOL     OW11986   4.699   1.039   4.632
 3696SOL    HW111987   4.690   1.134   4.603
 3696SOL    HW211988   4.634   1.021   4.706
 3697SOL     OW11989   6.711   6.690   3.514
 3697SOL    HW111990   6.659   6.638   3.581
 3697SOL    HW211991   6.665   6.777   3.495
 3698SOL     OW11992   2.303   0.718   2.991
 3698SOL    HW111993   2.350   0.734   2.904
 3698SOL    HW211994   2.269   0.804   3.028
 3699SOL     OW11995   2.518   2.449   3.524
 3699SOL    HW111996   2.452   2.460   3.599
 3699SOL    HW211997   2.482   2.383   3.458
 3700SOL     OW11998   0.785   4.983   5.210
 3700SOL    HW111999   0.802   4.892   5.249
 3700SOL    HW212000   0.851   5.001   5.137
 3701SOL     OW12001   1.691   0.511   2.573
 3701SOL    HW112002   1.680   0.429   2.629
 3701SOL    HW212003   1.666   0.491   2.479
 3702SOL     OW12004   5.266   4.449   3.975
 3702SOL    HW112005   5.244   4.408   4.064
 3702SOL    HW212006   5.365   4.451   3.963
 3703SOL     OW12007   1.562   2.075   4.037
 3703SOL    HW112008   1.496   2.000   4.028
 3703SOL    HW212009   1.655   2.038   4.034
 3704SOL     OW12010   0.173   2.053   0.626
 3704SOL    HW112011   0.227   1.969   0.635
 3704SOL    HW212012   0.091   2.046   0.682
 3705SOL     OW12013   4.836   4.655   3.141
 3705SOL    HW112014   4.778   4.732   3.167
 3705SOL    HW212015   4.784   4.595   3.080
 3706SOL     OW12016   0.713   3.682   0.344
 3706SOL    HW112017   0.716   3.666   0.246
 3706SOL    HW212018   0.762   3.767   0.366
 3707SOL     OW12019   1.559   5.175   3.650
 3707SOL    HW112020   1.657   5.178   3.634
 3707SOL    HW212021   1.519   5.096   3.603
 3708SOL     OW12022   3.659   0.096   0.760
 3708SOL    HW112023   3.744   0.120   0.713
 3708SOL    HW212024   3.676   0.019   0.821
 3709SOL     OW12025   1.742   0.822   2.654
 3709SOL    HW112026   1.732   0.725   2.631
 3709SOL    HW212027   1.838   0.848   2.648
 3710SOL     OW12028   6.745   5.155   5.627
 3710SOL    HW112029   6.718   5.069   5.583
 3710SOL    HW212030   6.814   5.136   5.697
 3711SOL     OW12031   1.608   5.426   4.722
 3711SOL    HW112032   1.567   5.466   4.640
 3711SOL    HW212033   1.554   5.451   4.802
 3712SOL     OW12034   1.805   5.297   5.052
 3712SOL    HW112035   1.843   5.325   4.964
 3712SOL    HW212036   1.737   5.365   5.081
 3713SOL     OW12037   6.411   6.214   4.783
 3713SOL    HW112038   6.419   6.188   4.879
 3713SOL    HW212039   6.473   6.289   4.763
 3714SOL     OW12040   0.679   4.609   0.023
 3714SOL    HW112041   0.647   4.586   6.951
 3714SOL    HW212042   0.779   4.602   0.026
 3715SOL     OW12043   6.373   5.670   3.927
 3715SOL    HW112044   6.407   5.578   3.905
 3715SOL    HW212045   6.287   5.662   3.978
 3716SOL     OW12046   5.172   5.584   3.627
 3716SOL    HW112047   5.229   5.628   3.695
 3716SOL    HW212048   5.214   5.593   3.537
 3717SOL     OW12049   4.312   1.169   1.412
 3717SOL    HW112050   4.380   1.152   1.485
 3717SOL    HW212051   4.244   1.234   1.445
 3718SOL     OW12052   6.926   6.793   6.131
 3718SOL    HW112053   6.924   6.877   6.185
 3718SOL    HW212054   6.975   6.722   6.181
 3719SOL     OW12055   4.103   3.945   6.373
 3719SOL    HW112056   4.041   3.966   6.298
 3719SOL    HW212057   4.051   3.929   6.457
 3720SOL     OW12058   7.016   2.787   1.410
 3720SOL    HW112059   7.007   2.715   1.479
 3720SOL    HW212060   6.994   2.749   1.320
 3721SOL     OW12061   6.173   4.901   6.161
 3721SOL    HW112062   6.252   4.959   6.143
 3721SOL    HW212063   6.159   4.840   6.083
 3722SOL     OW12064   4.639   6.720   3.154
 3722SOL    HW112065   4.606   6.807   3.191
 3722SOL    HW212066   4.564   6.654   3.154
 3723SOL     OW12067   4.643   4.729   0.100
 3723SOL    HW112068   4.730   4.692   0.134
 3723SOL    HW212069   4.657   4.824   0.071
 3724SOL     OW12070   1.566   5.028   5.475
 3724SOL    HW112071   1.518   4.940   5.472
 3724SOL    HW212072   1.529   5.088   5.404
 3725SOL     OW12073   0.925   5.959   6.524
 3725SOL    HW112074   0.865   5.997   6.594
 3725SOL    HW212075   1.020   5.961   6.556
 3726SOL     OW12076   5.836   3.674   3.683
 3726SOL    HW112077   5.847   3.681   3.583
 3726SOL    HW212078   5.901   3.735   3.728
 3727SOL     OW12079   7.012   3.369   4.459
 3727SOL    HW112080   6.996   3.312   4.539
 3727SOL    HW212081   0.080   3.344   4.416
 3728SOL     OW12082   2.844   3.432   0.153
 3728SOL    HW112083   2.932   3.438   0.199
 3728SOL    HW212084   2.840   3.347   0.099
 3729SOL     OW12085   0.794   6.937   5.663
 3729SOL    HW112086   0.888   6.953   5.693
 3729SOL    HW212087   0.783   6.841   5.637
 3730SOL     OW12088   3.556   5.602   5.345
 3730SOL    HW112089   3.648   5.639   5.334
 3730SOL    HW212090   3.561   5.503   5.355
 3731SOL     OW12091   0.475   2.563   6.511
 3731SOL    HW112092   0.536   2.628   6.465
 3731SOL    HW212093   0.520   2.474   6.517
 3732SOL     OW12094   2.964   1.868   0.037
 3732SOL    HW112095   2.899   1.867   6.980
 3732SOL    HW212096   2.916   1.849   0.122
 3733SOL     OW12097   1.862   1.692   3.703
 3733SOL    HW112098   1.844   1.789   3.718
 3733SOL    HW212099   1.957   1.671   3.727
 3734SOL     OW12100   4.162   6.840   0.841
 3734SOL    HW112101   4.066   6.819   0.820
 3734SOL    HW212102   4.166   6.913   0.909
 3735SOL     OW12103   4.094   6.772   2.208
 3735SOL    HW112104   4.044   6.858   2.215
 3735SOL    HW212105   4.121   6.741   2.299
 3736SOL     OW12106   0.105   1.221   1.404
 3736SOL    HW112107   0.115   1.122   1.416
 3736SOL    HW212108   0.124   1.245   1.309
 3737SOL     OW12109   0.161   2.405   3.360
 3737SOL    HW112110   0.121   2.353   3.434
 3737SOL    HW212111   0.136   2.502   3.370
 3738SOL     OW12112   7.006   6.678   1.004
 3738SOL    HW112113   6.958   6.684   1.092
 3738SOL    HW212114   0.064   6.742   1.003
 3739SOL     OW12115   2.857   4.559   1.094
 3739SOL    HW112116   2.948   4.601   1.095
 3739SOL    HW212117   2.850   4.492   1.167
 3740SOL     OW12118   5.250   5.344   6.732
 3740SOL    HW112119   5.221   5.383   6.819
 3740SOL    HW212120   5.291   5.415   6.675
 3741SOL     OW12121   5.296   3.214   0.359
 3741SOL    HW112122   5.221   3.154   0.332
 3741SOL    HW212123   5.382   3.177   0.324
 3742SOL     OW12124   3.566   5.650   0.028
 3742SOL    HW112125   3.604   5.557   0.033
 3742SOL    HW212126   3.549   5.683   0.121
 3743SOL     OW12127   4.330   3.363   1.782
 3743SOL    HW112128   4.245   3.412   1.799
 3743SOL    HW212129   4.311   3.265   1.772
 3744SOL     OW12130   0.422   6.714   2.493
 3744SOL    HW112131   0.334   6.668   2.499
 3744SOL    HW212132   0.471   6.704   2.581
 3745SOL     OW12133   4.709   4.108   2.345
 3745SOL    HW112134   4.710   4.154   2.256
 3745SOL    HW212135   4.769   4.029   2.343
 3746SOL     OW12136   6.197   0.129   4.365
 3746SOL    HW112137   6.244   0.179   4.437
 3746SOL    HW212138   6.216   0.031   4.373
 3747SOL     OW12139   3.704   6.677   5.582
 3747SOL    HW112140   3.738   6.771   5.585
 3747SOL    HW212141   3.773   6.618   5.539
 3748SOL     OW12142   5.583   1.864   2.655
 3748SOL    HW112143   5.676   1.853   2.621
 3748SOL    HW212144   5.528   1.785   2.628
 3749SOL     OW12145   0.536   6.408   3.128
 3749SOL    HW112146   0.529   6.507   3.137
 3749SOL    HW212147   0.600   6.385   3.055
 3750SOL     OW12148   5.721   3.982   0.514
 3750SOL    HW112149   5.795   4.049   0.511
 3750SOL    HW212150   5.753   3.895   0.477
 3751SOL     OW12151   1.751   3.852   1.724
 3751SOL    HW112152   1.703   3.773   1.763
 3751SOL    HW212153   1.821   3.883   1.788
 3752SOL     OW12154   1.330   6.611   0.126
 3752SOL    HW112155   1.243   6.610   0.175
 3752SOL    HW212156   1.313   6.610   0.027
 3753SOL     OW12157   0.142   6.451   4.660
 3753SOL    HW112158   0.121   6.386   4.587
 3753SOL    HW212159   0.242   6.463   4.666
 3754SOL     OW12160   6.416   5.825   1.984
 3754SOL    HW112161   6.403   5.733   2.022
 3754SOL    HW212162   6.328   5.862   1.954
 3755SOL     OW12163   5.095   3.876   3.572
 3755SOL    HW112164   5.131   3.905   3.483
 3755SOL    HW212165   5.011   3.926   3.592
 3756SOL     OW12166   2.397   1.306   6.534
 3756SOL    HW112167   2.489   1.276   6.558
 3756SOL    HW212168   2.340   1.226   6.514
 3757SOL     OW12169   2.707   5.770   6.223
 3757SOL    HW112170   2.787   5.803   6.274
 3757SOL    HW212171   2.648   5.718   6.283
 3758SOL     OW12172   2.049   1.126   4.292
 3758SOL    HW112173   2.066   1.044   4.348
 3758SOL    HW212174   1.950   1.134   4.275
 3759SOL     OW12175   4.749   4.744   6.065
 3759SOL    HW112176   4.774   4.648   6.077
 3759SOL    HW212177   4.660   4.760   6.107
 3760SOL     OW12178   1.478   2.445   4.866
 3760SOL    HW112179   1.383   2.477   4.870
 3760SOL    HW212180   1.520   2.476   4.780
 3761SOL     OW12181   0.853   6.689   4.611
 3761SOL    HW112182   0.925   6.739   4.659
 3761SOL    HW212183   0.887   6.657   4.522
 3762SOL     OW12184   0.560   3.958   0.382
 3762SOL    HW112185   0.619   3.981   0.460
 3762SOL    HW212186   0.490   3.893   0.412
 3763SOL     OW12187   6.646   2.830   6.449
 3763SOL    HW112188   6.563   2.791   6.490
 3763SOL    HW212189   6.628   2.854   6.353
 3764SOL     OW12190   2.539   6.440   3.469
 3764SOL    HW112191   2.467   6.475   3.528
 3764SOL    HW212192   2.547   6.341   3.482
 3765SOL     OW12193   5.476   0.859   3.408
 3765SOL    HW112194   5.417   0.779   3.404
 3765SOL    HW212195   5.497   0.881   3.503
 3766SOL     OW12196   0.424   0.674   4.461
 3766SOL    HW112197   0.431   0.577   4.481
 3766SOL    HW212198   0.368   0.687   4.379
 3767SOL     OW12199   1.619   5.320   0.022
 3767SOL    HW112200   1.552   5.249   0.047
 3767SOL    HW212201   1.699   5.276   6.999
 3768SOL     OW12202   5.040   6.304   0.272
 3768SOL    HW112203   5.005   6.398   0.280
 3768SOL    HW212204   5.061   6.284   0.177
 3769SOL     OW12205   4.570   6.545   5.547
 3769SOL    HW112206   4.558   6.625   5.606
 3769SOL    HW212207   4.655   6.554   5.496
 3770SOL     OW12208   2.214   1.363   6.933
 3770SOL    HW112209   2.203   1.399   6.841
 3770SOL    HW212210   2.187   1.433   6.999
 3771SOL     OW12211   5.849   1.835   6.007
 3771SOL    HW112212   5.898   1.920   5.988
 3771SOL    HW212213   5.884   1.794   6.091
 3772SOL     OW12214   5.496   0.960   1.657
 3772SOL    HW112215   5.458   1.053   1.663
 3772SOL    HW212216   5.583   0.957   1.707
 3773SOL     OW12217   6.579   2.265   6.440
 3773SOL    HW112218   6.600   2.213   6.523
 3773SOL    HW212219   6.489   2.238   6.405
 3774SOL     OW12220   0.219   0.880   0.275
 3774SOL    HW112221   0.208   0.857   0.178
 3774SOL    HW212222   0.135   0.858   0.324
 3775SOL     OW12223   6.210   3.618   3.483
 3775SOL    HW112224   6.297   3.587   3.445
 3775SOL    HW212225   6.170   3.544   3.538
 3776SOL     OW12226   2.362   2.902   1.261
 3776SOL    HW112227   2.338   2.820   1.315
 3776SOL    HW212228   2.447   2.941   1.296
 3777SOL     OW12229   2.516   4.887   4.384
 3777SOL    HW112230   2.577   4.808   4.375
 3777SOL    HW212231   2.434   4.861   4.436
 3778SOL     OW12232   2.994   5.667   1.749
 3778SOL    HW112233   3.065   5.660   1.819
 3778SOL    HW212234   3.019   5.611   1.670
 3779SOL     OW12235   2.624   4.771   6.806
 3779SOL    HW112236   2.669   4.696   6.854
 3779SOL    HW212237   2.555   4.734   6.744
 3780SOL     OW12238   3.257   6.399   5.049
 3780SOL    HW112239   3.180   6.337   5.063
 3780SOL    HW212240   3.299   6.381   4.961
 3781SOL     OW12241   3.168   6.311   4.420
 3781SOL    HW112242   3.146   6.280   4.328
 3781SOL    HW212243   3.222   6.240   4.467
 3782SOL     OW12244   2.247   1.596   3.980
 3782SOL    HW112245   2.313   1.650   4.031
 3782SOL    HW212246   2.235   1.507   4.024
 3783SOL     OW12247   5.224   6.328   4.746
 3783SOL    HW112248   5.202   6.235   4.715
 3783SOL    HW212249   5.147   6.364   4.799
 3784SOL     OW12250   5.463   1.409   2.801
 3784SOL    HW112251   5.463   1.329   2.861
 3784SOL    HW212252   5.369   1.442   2.789
 3785SOL     OW12253   2.291   2.457   1.140
 3785SOL    HW112254   2.216   2.521   1.124
 3785SOL    HW212255   2.339   2.439   1.054
 3786SOL     OW12256   3.304   5.131   2.721
 3786SOL    HW112257   3.266   5.204   2.777
 3786SOL    HW212258   3.253   5.126   2.635
 3787SOL     OW12259   4.290   1.538   3.156
 3787SOL    HW112260   4.366   1.588   3.198
 3787SOL    HW212261   4.211   1.541   3.217
 3788SOL     OW12262   5.743   3.025   2.563
 3788SOL    HW112263   5.736   3.032   2.662
 3788SOL    HW212264   5.651   3.014   2.524
 3789SOL     OW12265   1.725   5.135   4.047
 3789SOL    HW112266   1.772   5.117   4.133
 3789SOL    HW212267   1.772   5.087   3.972
 3790SOL     OW12268   2.165   3.270   4.169
 3790SOL    HW112269   2.219   3.188   4.150
 3790SOL    HW212270   2.200   3.316   4.251
 3791SOL     OW12271   5.009   6.703   1.731
 3791SOL    HW112272   4.927   6.660   1.767
 3791SOL    HW212273   5.087   6.640   1.741
 3792SOL     OW12274   6.419   6.670   5.476
 3792SOL    HW112275   6.443   6.739   5.544
 3792SOL    HW212276   6.502   6.636   5.433
 3793SOL     OW12277   2.093   1.423   3.047
 3793SOL    HW112278   2.186   1.406   3.079
 3793SOL    HW212279   2.032   1.434   3.125
 3794SOL     OW12280   4.325   5.847   2.139
 3794SOL    HW112281   4.235   5.804   2.127
 3794SOL    HW212282   4.393   5.777   2.162
 3795SOL     OW12283   5.173   0.468   6.512
 3795SOL    HW112284   5.177   0.422   6.423
 3795SOL    HW212285   5.258   0.519   6.527
 3796SOL     OW12286   1.342   1.997   1.621
 3796SOL    HW112287   1.263   2.056   1.604
 3796SOL    HW212288   1.341   1.921   1.556
 3797SOL     OW12289   1.365   4.968   2.967
 3797SOL    HW112290   1.415   4.977   2.881
 3797SOL    HW212291   1.298   4.895   2.959
 3798SOL     OW12292   2.501   5.135   2.531
 3798SOL    HW112293   2.476   5.199   2.458
 3798SOL    HW212294   2.519   5.045   2.492
 3799SOL     OW12295   1.605   1.274   5.427
 3799SOL    HW112296   1.577   1.325   5.508
 3799SOL    HW212297   1.567   1.182   5.430
 3800SOL     OW12298   4.582   2.422   4.551
 3800SOL    HW112299   4.666   2.470   4.526
 3800SOL    HW212300   4.528   2.478   4.613
 3801SOL     OW12301   0.124   6.398   6.021
 3801SOL    HW112302   0.155   6.306   6.048
 3801SOL    HW212303   0.025   6.405   6.036
 3802SOL     OW12304   1.288   1.974   5.186
 3802SOL    HW112305   1.351   1.901   5.211
 3802SOL    HW212306   1.267   1.967   5.088
 3803SOL     OW12307   3.558   0.335   1.021
 3803SOL    HW112308   3.562   0.400   1.097
 3803SOL    HW212309   3.596   0.377   0.939
 3804SOL     OW12310   4.404   1.775   4.450
 3804SOL    HW112311   4.308   1.789   4.428
 3804SOL    HW212312   4.427   1.678   4.440
 3805SOL     OW12313   2.959   4.229   1.690
 3805SOL    HW112314   2.906   4.289   1.750
 3805SOL    HW212315   2.934   4.134   1.708
 3806SOL     OW12316   2.755   2.359   0.172
 3806SOL    HW112317   2.721   2.321   0.086
 3806SOL    HW212318   2.829   2.301   0.207
 3807SOL     OW12319   0.932   6.940   3.699
 3807SOL    HW112320   0.920   6.862   3.759
 3807SOL    HW212321   1.020   6.935   3.653
 3808SOL     OW12322   3.792   6.828   1.633
 3808SOL    HW112323   3.733   6.782   1.567
 3808SOL    HW212324   3.762   6.923   1.645
 3809SOL     OW12325   5.638   1.052   7.012
 3809SOL    HW112326   5.626   0.955   0.015
 3809SOL    HW212327   5.693   1.061   6.929
 3810SOL     OW12328   3.127   2.930   5.121
 3810SOL    HW112329   3.096   2.963   5.210
 3810SOL    HW212330   3.196   2.858   5.134
 3811SOL     OW12331   0.292   4.765   4.847
 3811SOL    HW112332   0.317   4.757   4.750
 3811SOL    HW212333   0.255   4.856   4.865
 3812SOL     OW12334   5.853   1.707   5.396
 3812SOL    HW112335   5.892   1.664   5.477
 3812SOL    HW212336   5.756   1.683   5.389
 3813SOL     OW12337   3.063   5.434   0.110
 3813SOL    HW112338   2.965   5.452   0.109
 3813SOL    HW212339   3.079   5.336   0.098
 3814SOL     OW12340   6.898   6.303   2.237
 3814SOL    HW112341   6.918   6.388   2.286
 3814SOL    HW212342   6.870   6.233   2.302
 3815SOL     OW12343   5.278   1.952   1.674
 3815SOL    HW112344   5.373   1.982   1.682
 3815SOL    HW212345   5.274   1.852   1.681
 3816SOL     OW12346   0.550   0.096   1.830
 3816SOL    HW112347   0.529   0.040   1.910
 3816SOL    HW212348   0.558   0.037   1.749
 3817SOL     OW12349   4.581   1.888   4.635
 3817SOL    HW112350   4.502   1.844   4.592
 3817SOL    HW212351   4.576   1.987   4.620
 3818SOL     OW12352   5.016   6.452   2.517
 3818SOL    HW112353   4.989   6.522   2.584
 3818SOL    HW212354   4.936   6.400   2.488
 3819SOL     OW12355   5.178   5.144   0.164
 3819SOL    HW112356   5.192   5.187   0.253
 3819SOL    HW212357   5.186   5.044   0.174
 3820SOL     OW12358   5.089   5.955   3.816
 3820SOL    HW112359   4.991   5.951   3.835
 3820SOL    HW212360   5.110   5.895   3.739
 3821SOL     OW12361   1.552   3.420   1.521
 3821SOL    HW112362   1.555   3.511   1.561
 3821SOL    HW212363   1.637   3.371   1.542
 3822SOL     OW12364   2.598   5.437   1.073
 3822SOL    HW112365   2.571   5.451   0.978
 3822SOL    HW212366   2.668   5.503   1.099
 3823SOL     OW12367   3.423   2.764   5.824
 3823SOL    HW112368   3.445   2.788   5.729
 3823SOL    HW212369   3.324   2.767   5.837
 3824SOL     OW12370   6.130   2.005   5.644
 3824SOL    HW112371   6.227   2.001   5.667
 3824SOL    HW212372   6.117   1.973   5.550
 3825SOL     OW12373   7.006   6.584   6.271
 3825SOL    HW112374   0.060   6.519   6.249
 3825SOL    HW212375   0.008   6.628   6.359
 3826SOL     OW12376   0.061   3.312   1.498
 3826SOL    HW112377   0.032   3.217   1.502
 3826SOL    HW212378   0.100   3.331   1.408
 3827SOL     OW12379   3.974   3.272   0.859
 3827SOL    HW112380   3.962   3.350   0.920
 3827SOL    HW212381   3.926   3.192   0.896
 3828SOL     OW12382   5.083   2.108   2.752
 3828SOL    HW112383   5.122   2.059   2.829
 3828SOL    HW212384   5.138   2.189   2.732
 3829SOL     OW12385   2.687   4.826   3.895
 3829SOL    HW112386   2.643   4.857   3.811
 3829SOL    HW212387   2.635   4.750   3.934
 3830SOL     OW12388   2.347   0.517   5.086
 3830SOL    HW112389   2.335   0.614   5.066
 3830SOL    HW212390   2.444   0.494   5.085
 3831SOL     OW12391   3.846   1.666   2.549
 3831SOL    HW112392   3.807   1.680   2.640
 3831SOL    HW212393   3.813   1.578   2.512
 3832SOL     OW12394   6.665   0.739   1.965
 3832SOL    HW112395   6.624   0.758   2.054
 3832SOL    HW212396   6.628   0.803   1.897
 3833SOL     OW12397   0.661   4.903   6.919
 3833SOL    HW112398   0.588   4.937   6.977
 3833SOL    HW212399   0.700   4.820   6.959
 3834SOL     OW12400   3.237   1.798   0.755
 3834SOL    HW112401   3.232   1.698   0.765
 3834SOL    HW212402   3.228   1.840   0.845
 3835SOL     OW12403   3.553   5.340   5.448
 3835SOL    HW112404   3.648   5.320   5.472
 3835SOL    HW212405   3.500   5.355   5.531
 3836SOL     OW12406   1.273   3.884   6.242
 3836SOL    HW112407   1.296   3.811   6.178
 3836SOL    HW212408   1.257   3.845   6.333
 3837SOL     OW12409   4.025   3.741   0.714
 3837SOL    HW112410   4.123   3.742   0.695
 3837SOL    HW212411   4.003   3.667   0.777
 3838SOL     OW12412   6.748   2.657   4.826
 3838SOL    HW112413   6.687   2.582   4.853
 3838SOL    HW212414   6.802   2.686   4.904
 3839SOL     OW12415   5.879   5.924   5.582
 3839SOL    HW112416   5.978   5.918   5.569
 3839SOL    HW212417   5.840   5.831   5.579
 3840SOL     OW12418   1.963   0.996   4.020
 3840SOL    HW112419   2.012   0.964   3.939
 3840SOL    HW212420   2.029   1.026   4.089
 3841SOL     OW12421   0.607   3.406   5.574
 3841SOL    HW112422   0.568   3.320   5.606
 3841SOL    HW212423   0.659   3.390   5.490
 3842SOL     OW12424   0.790   5.195   6.944
 3842SOL    HW112425   0.769   5.270   6.881
 3842SOL    HW212426   0.750   5.110   6.908
 3843SOL     OW12427   6.328   3.080   0.712
 3843SOL    HW112428   6.228   3.086   0.712
 3843SOL    HW212429   6.363   3.112   0.800
 3844SOL     OW12430   1.712   5.059   6.561
 3844SOL    HW112431   1.788   5.007   6.599
 3844SOL    HW212432   1.656   4.999   6.504
 3845SOL     OW12433   3.406   3.838   3.596
 3845SOL    HW112434   3.420   3.916   3.656
 3845SOL    HW212435   3.418   3.753   3.649
 3846SOL     OW12436   0.060   4.662   4.953
 3846SOL    HW112437   0.088   4.569   4.933
 3846SOL    HW212438   0.130   4.726   4.920
 3847SOL     OW12439   0.416   6.753   6.770
 3847SOL    HW112440   0.462   6.841   6.756
 3847SOL    HW212441   0.318   6.767   6.781
 3848SOL     OW12442   2.538   5.060   1.359
 3848SOL    HW112443   2.482   5.034   1.437
 3848SOL    HW212444   2.524   5.157   1.339
 3849SOL     OW12445   1.127   2.019   5.375
 3849SOL    HW112446   1.066   1.941   5.359
 3849SOL    HW212447   1.186   2.031   5.295
 3850SOL     OW12448   3.408   4.124   1.946
 3850SOL    HW112449   3.368   4.206   1.905
 3850SOL    HW212450   3.500   4.110   1.908
 3851SOL     OW12451   2.178   2.971   2.764
 3851SOL    HW112452   2.263   3.022   2.776
 3851SOL    HW212453   2.198   2.874   2.752
 3852SOL     OW12454   3.886   0.928   4.745
 3852SOL    HW112455   3.902   0.836   4.708
 3852SOL    HW212456   3.938   0.994   4.692
 3853SOL     OW12457   1.057   3.467   1.517
 3853SOL    HW112458   1.007   3.380   1.510
 3853SOL    HW212459   1.154   3.448   1.528
 3854SOL     OW12460   1.369   3.421   4.505
 3854SOL    HW112461   1.396   3.325   4.495
 3854SOL    HW212462   1.378   3.468   4.417
 3855SOL     OW12463   6.493   3.157   5.798
 3855SOL    HW112464   6.418   3.223   5.789
 3855SOL    HW212465   6.469   3.073   5.750
 3856SOL     OW12466   0.426   6.094   6.214
 3856SOL    HW112467   0.414   5.997   6.196
 3856SOL    HW212468   0.398   6.147   6.134
 3857SOL     OW12469   0.601   6.642   5.045
 3857SOL    HW112470   0.533   6.569   5.046
 3857SOL    HW212471   0.572   6.716   5.105
 3858SOL     OW12472   2.542   5.985   6.854
 3858SOL    HW112473   2.622   5.995   6.795
 3858SOL    HW212474   2.543   5.895   6.897
 3859SOL     OW12475   0.491   3.024   2.358
 3859SOL    HW112476   0.529   2.969   2.284
 3859SOL    HW212477   0.564   3.052   2.420
 3860SOL     OW12478   2.345   0.035   5.822
 3860SOL    HW112479   2.359   7.013   5.911
 3860SOL    HW212480   2.428   0.026   5.767
 3861SOL     OW12481   4.643   4.673   0.907
 3861SOL    HW112482   4.543   4.666   0.903
 3861SOL    HW212483   4.669   4.768   0.924
 3862SOL     OW12484   1.353   6.095   6.104
 3862SOL    HW112485   1.312   6.184   6.127
 3862SOL    HW212486   1.288   6.041   6.051
 3863SOL     OW12487   3.294   3.671   1.259
 3863SOL    HW112488   3.338   3.611   1.326
 3863SOL    HW212489   3.240   3.616   1.195
 3864SOL     OW12490   3.088   2.093   0.056
 3864SOL    HW112491   3.053   2.000   0.046
 3864SOL    HW212492   3.040   2.139   0.131
 3865SOL     OW12493   4.955   7.004   2.293
 3865SOL    HW112494   4.926   6.956   2.375
 3865SOL    HW212495   4.932   6.949   2.212
 3866SOL     OW12496   4.082   6.745   6.688
 3866SOL    HW112497   4.003   6.775   6.741
 3866SOL    HW212498   4.153   6.815   6.691
 3867SOL     OW12499   1.805   3.272   3.582
 3867SOL    HW112500   1.886   3.311   3.539
 3867SOL    HW212501   1.724   3.293   3.527
 3868SOL     OW12502   1.388   5.863   2.857
 3868SOL    HW112503   1.356   5.866   2.762
 3868SOL    HW212504   1.347   5.939   2.908
 3869SOL     OW12505   1.008   3.091   3.501
 3869SOL    HW112506   1.021   3.141   3.586
 3869SOL    HW212507   0.913   3.061   3.494
 3870SOL     OW12508   2.518   4.529   0.399
 3870SOL    HW112509   2.604   4.477   0.400
 3870SOL    HW212510   2.517   4.592   0.322
 3871SOL     OW12511   2.474   0.212   3.015
 3871SOL    HW112512   2.525   0.225   3.101
 3871SOL    HW212513   2.530   0.161   2.950
 3872SOL     OW12514   3.756   3.820   0.391
 3872SOL    HW112515   3.758   3.832   0.491
 3872SOL    HW212516   3.848   3.801   0.359
 3873SOL     OW12517   4.788   4.939   2.358
 3873SOL    HW112518   4.827   5.018   2.309
 3873SOL    HW212519   4.823   4.855   2.318
 3874SOL     OW12520   4.282   0.401   6.245
 3874SOL    HW112521   4.263   0.499   6.250
 3874SOL    HW212522   4.308   0.376   6.152
 3875SOL     OW12523   1.484   5.099   1.188
 3875SOL    HW112524   1.465   5.187   1.233
 3875SOL    HW212525   1.436   5.097   1.100
 3876SOL     OW12526   4.857   3.811   3.073
 3876SOL    HW112527   4.869   3.716   3.045
 3876SOL    HW212528   4.842   3.816   3.171
 3877SOL     OW12529   5.519   1.186   2.365
 3877SOL    HW112530   5.425   1.155   2.376
 3877SOL    HW212531   5.552   1.226   2.450
 3878SOL     OW12532   2.868   6.144   5.595
 3878SOL    HW112533   2.771   6.123   5.609
 3878SOL    HW212534   2.898   6.210   5.663
 3879SOL     OW12535   4.021   6.331   1.466
 3879SOL    HW112536   4.080   6.361   1.390
 3879SOL    HW212537   3.956   6.263   1.432
 3880SOL     OW12538   5.583   3.307   4.039
 3880SOL    HW112539   5.610   3.213   4.057
 3880SOL    HW212540   5.650   3.351   3.979
 3881SOL     OW12541   1.445   3.785   0.579
 3881SOL    HW112542   1.466   3.765   0.484
 3881SOL    HW212543   1.526   3.821   0.625
 3882SOL     OW12544   0.510   0.134   6.368
 3882SOL    HW112545   0.546   0.045   6.393
 3882SOL    HW212546   0.511   0.145   6.268
 3883SOL     OW12547   3.264   0.643   5.962
 3883SOL    HW112548   3.228   0.630   6.054
 3883SOL    HW212549   3.256   0.739   5.936
 3884SOL     OW12550   1.315   4.806   6.017
 3884SOL    HW112551   1.307   4.847   5.926
 3884SOL    HW212552   1.297   4.708   6.011
 3885SOL     OW12553   6.992   1.393   4.319
 3885SOL    HW112554   0.047   1.364   4.381
 3885SOL    HW212555   6.945   1.312   4.285
 3886SOL     OW12556   6.770   5.919   5.373
 3886SOL    HW112557   6.765   6.012   5.408
 3886SOL    HW212558   6.702   5.906   5.300
 3887SOL     OW12559   4.484   2.723   5.517
 3887SOL    HW112560   4.395   2.746   5.479
 3887SOL    HW212561   4.481   2.631   5.555
 3888SOL     OW12562   6.193   2.015   0.903
 3888SOL    HW112563   6.141   1.930   0.894
 3888SOL    HW212564   6.182   2.070   0.821
 3889SOL     OW12565   1.040   5.657   6.648
 3889SOL    HW112566   0.976   5.699   6.712
 3889SOL    HW212567   0.990   5.618   6.571
 3890SOL     OW12568   5.671   3.821   2.340
 3890SOL    HW112569   5.764   3.846   2.311
 3890SOL    HW212570   5.647   3.874   2.421
 3891SOL     OW12571   5.800   4.794   5.510
 3891SOL    HW112572   5.859   4.875   5.506
 3891SOL    HW212573   5.705   4.821   5.497
 3892SOL     OW12574   5.151   0.003   3.298
 3892SOL    HW112575   5.067   0.057   3.289
 3892SOL    HW212576   5.187   7.002   3.206
 3893SOL     OW12577   3.071   6.187   3.794
 3893SOL    HW112578   3.019   6.251   3.851
 3893SOL    HW212579   3.138   6.238   3.739
 3894SOL     OW12580   5.089   4.135   0.413
 3894SOL    HW112581   5.041   4.104   0.495
 3894SOL    HW212582   5.088   4.062   0.344
 3895SOL     OW12583   2.009   1.847   5.875
 3895SOL    HW112584   2.106   1.868   5.865
 3895SOL    HW212585   1.961   1.926   5.912
 3896SOL     OW12586   6.742   2.242   5.921
 3896SOL    HW112587   6.680   2.262   5.845
 3896SOL    HW212588   6.826   2.295   5.909
 3897SOL     OW12589   3.653   6.404   2.195
 3897SOL    HW112590   3.630   6.453   2.279
 3897SOL    HW212591   3.739   6.439   2.158
 3898SOL     OW12592   3.735   3.885   4.104
 3898SOL    HW112593   3.833   3.867   4.090
 3898SOL    HW212594   3.691   3.801   4.137
 3899SOL     OW12595   4.528   1.518   4.918
 3899SOL    HW112596   4.505   1.531   5.015
 3899SOL    HW212597   4.516   1.421   4.894
 3900SOL     OW12598   6.759   2.538   3.909
 3900SOL    HW112599   6.695   2.465   3.934
 3900SOL    HW212600   6.744   2.565   3.814
 3901SOL     OW12601   2.099   5.766   5.220
 3901SOL    HW112602   2.136   5.694   5.161
 3901SOL    HW212603   2.093   5.732   5.314
 3902SOL     OW12604   4.424   5.042   1.494
 3902SOL    HW112605   4.482   4.988   1.555
 3902SOL    HW212606   4.442   5.139   1.508
 3903SOL     OW12607   3.685   2.992   6.093
 3903SOL    HW112608   3.702   2.949   6.004
 3903SOL    HW212609   3.747   2.952   6.161
 3904SOL     OW12610   2.152   6.132   0.677
 3904SOL    HW112611   2.203   6.198   0.621
 3904SOL    HW212612   2.166   6.152   0.773
 3905SOL     OW12613   0.109   0.356   5.453
 3905SOL    HW112614   0.143   0.355   5.359
 3905SOL    HW212615   0.009   0.356   5.452
 3906SOL     OW12616   0.509   5.569   4.992
 3906SOL    HW112617   0.468   5.490   5.038
 3906SOL    HW212618   0.443   5.645   4.992
 3907SOL     OW12619   1.073   0.822   4.742
 3907SOL    HW112620   1.142   0.853   4.676
 3907SOL    HW212621   0.986   0.808   4.695
 3908SOL     OW12622   1.801   0.329   4.527
 3908SOL    HW112623   1.758   0.239   4.533
 3908SOL    HW212624   1.900   0.319   4.519
 3909SOL     OW12625   6.072   2.434   0.691
 3909SOL    HW112626   6.053   2.520   0.739
 3909SOL    HW212627   6.005   2.365   0.719
 3910SOL     OW12628   3.318   2.979   0.944
 3910SOL    HW112629   3.218   2.977   0.933
 3910SOL    HW212630   3.342   2.946   1.035
 3911SOL     OW12631   6.408   0.688   0.889
 3911SOL    HW112632   6.464   0.731   0.960
 3911SOL    HW212633   6.324   0.653   0.930
 3912SOL     OW12634   3.715   2.983   0.194
 3912SOL    HW112635   3.803   3.011   0.156
 3912SOL    HW212636   3.662   3.065   0.218
 3913SOL     OW12637   4.524   5.639   1.672
 3913SOL    HW112638   4.501   5.707   1.741
 3913SOL    HW212639   4.515   5.548   1.710
 3914SOL     OW12640   6.984   1.004   0.737
 3914SOL    HW112641   0.009   1.031   0.651
 3914SOL    HW212642   6.924   0.927   0.721
 3915SOL     OW12643   4.857   5.865   5.788
 3915SOL    HW112644   4.776   5.813   5.759
 3915SOL    HW212645   4.873   5.850   5.885
 3916SOL     OW12646   2.395   1.992   2.899
 3916SOL    HW112647   2.334   1.912   2.890
 3916SOL    HW212648   2.489   1.964   2.882
 3917SOL     OW12649   3.774   4.423   1.458
 3917SOL    HW112650   3.869   4.439   1.428
 3917SOL    HW212651   3.741   4.503   1.508
 3918SOL     OW12652   5.091   1.103   0.445
 3918SOL    HW112653   5.069   1.134   0.353
 3918SOL    HW212654   5.172   1.152   0.478
 3919SOL     OW12655   4.446   6.236   2.408
 3919SOL    HW112656   4.476   6.207   2.498
 3919SOL    HW212657   4.346   6.237   2.404
 3920SOL     OW12658   2.801   1.679   5.435
 3920SOL    HW112659   2.725   1.641   5.382
 3920SOL    HW212660   2.776   1.770   5.469
 3921SOL     OW12661   6.940   2.957   6.216
 3921SOL    HW112662   7.002   3.019   6.262
 3921SOL    HW212663   6.869   2.927   6.280
 3922SOL     OW12664   4.756   4.022   2.883
 3922SOL    HW112665   4.746   3.982   2.792
 3922SOL    HW212666   4.785   3.952   2.947
 3923SOL     OW12667   4.979   0.850   1.410
 3923SOL    HW112668   4.995   0.948   1.399
 3923SOL    HW212669   5.027   0.817   1.492
 3924SOL     OW12670   5.549   5.051   4.034
 3924SOL    HW112671   5.624   5.106   3.997
 3924SOL    HW212672   5.563   4.955   4.008
 3925SOL     OW12673   4.986   4.351   0.906
 3925SOL    HW112674   4.922   4.377   0.834
 3925SOL    HW212675   5.075   4.328   0.866
 3926SOL     OW12676   0.558   5.859   5.468
 3926SOL    HW112677   0.487   5.896   5.528
 3926SOL    HW212678   0.516   5.810   5.392
 3927SOL     OW12679   5.314   2.374   5.360
 3927SOL    HW112680   5.327   2.356   5.263
 3927SOL    HW212681   5.278   2.467   5.373
 3928SOL     OW12682   3.381   5.871   1.967
 3928SOL    HW112683   3.423   5.821   2.043
 3928SOL    HW212684   3.453   5.912   1.911
 3929SOL     OW12685   0.509   1.742   5.205
 3929SOL    HW112686   0.475   1.749   5.111
 3929SOL    HW212687   0.456   1.674   5.255
 3930SOL     OW12688   2.194   4.674   3.792
 3930SOL    HW112689   2.161   4.628   3.875
 3930SOL    HW212690   2.260   4.615   3.746
 3931SOL     OW12691   1.960   2.512   1.456
 3931SOL    HW112692   2.029   2.540   1.523
 3931SOL    HW212693   1.995   2.438   1.399
 3932SOL     OW12694   2.559   4.608   3.986
 3932SOL    HW112695   2.496   4.613   4.064
 3932SOL    HW212696   2.653   4.600   4.020
 3933SOL     OW12697   1.983   6.156   1.498
 3933SOL    HW112698   2.022   6.238   1.541
 3933SOL    HW212699   1.897   6.178   1.454
 3934SOL     OW12700   0.669   0.369   2.021
 3934SOL    HW112701   0.616   0.423   1.956
 3934SOL    HW212702   0.607   0.309   2.072
 3935SOL     OW12703   6.570   3.490   5.859
 3935SOL    HW112704   6.479   3.533   5.855
 3935SOL    HW212705   6.594   3.473   5.955
 3936SOL     OW12706   6.380   4.301   5.705
 3936SOL    HW112707   6.457   4.273   5.649
 3936SOL    HW212708   6.393   4.396   5.735
 3937SOL     OW12709   0.513   6.338   1.580
 3937SOL    HW112710   0.505   6.437   1.596
 3937SOL    HW212711   0.449   6.289   1.638
 3938SOL     OW12712   1.088   3.353   1.799
 3938SOL    HW112713   0.989   3.369   1.800
 3938SOL    HW212714   1.123   3.371   1.707
 3939SOL     OW12715   1.029   0.756   3.372
 3939SOL    HW112716   1.027   0.845   3.326
 3939SOL    HW212717   0.938   0.734   3.406
 3940SOL     OW12718   3.129   5.999   0.570
 3940SOL    HW112719   3.161   5.941   0.495
 3940SOL    HW212720   3.073   6.073   0.533
 3941SOL     OW12721   5.450   5.974   2.068
 3941SOL    HW112722   5.440   5.881   2.102
 3941SOL    HW212723   5.534   5.982   2.015
 3942SOL     OW12724   0.183   5.798   5.199
 3942SOL    HW112725   0.210   5.704   5.175
 3942SOL    HW212726   0.116   5.831   5.133
 3943SOL     OW12727   1.551   3.071   0.487
 3943SOL    HW112728   1.499   3.153   0.462
 3943SOL    HW212729   1.647   3.083   0.460
 3944SOL     OW12730   4.949   2.960   6.767
 3944SOL    HW112731   4.987   2.929   6.679
 3944SOL    HW212732   4.863   3.009   6.751
 3945SOL     OW12733   5.724   0.641   3.723
 3945SOL    HW112734   5.656   0.714   3.733
 3945SOL    HW212735   5.780   0.660   3.642
 3946SOL     OW12736   0.621   3.360   0.322
 3946SOL    HW112737   0.607   3.389   0.417
 3946SOL    HW212738   0.697   3.295   0.319
 3947SOL     OW12739   6.110   5.291   1.918
 3947SOL    HW112740   6.034   5.321   1.860
 3947SOL    HW212741   6.173   5.235   1.864
 3948SOL     OW12742   1.683   3.084   5.811
 3948SOL    HW112743   1.683   3.086   5.911
 3948SOL    HW212744   1.599   3.041   5.779
 3949SOL     OW12745   5.769   0.448   1.914
 3949SOL    HW112746   5.758   0.543   1.886
 3949SOL    HW212747   5.714   0.389   1.855
 3950SOL     OW12748   2.982   4.510   1.582
 3950SOL    HW112749   3.018   4.417   1.569
 3950SOL    HW212750   2.982   4.532   1.680
 3951SOL     OW12751   1.031   2.450   4.527
 3951SOL    HW112752   1.008   2.468   4.623
 3951SOL    HW212753   1.126   2.478   4.511
 3952SOL     OW12754   5.506   3.731   0.530
 3952SOL    HW112755   5.602   3.719   0.504
 3952SOL    HW212756   5.448   3.695   0.457
 3953SOL     OW12757   3.431   3.276   6.986
 3953SOL    HW112758   3.393   3.363   7.017
 3953SOL    HW212759   3.357   3.215   6.959
 3954SOL     OW12760   0.528   2.550   5.858
 3954SOL    HW112761   0.594   2.592   5.920
 3954SOL    HW212762   0.445   2.525   5.908
 3955SOL     OW12763   0.164   3.921   0.336
 3955SOL    HW112764   0.194   4.012   0.307
 3955SOL    HW212765   0.237   3.877   0.388
 3956SOL     OW12766   6.791   2.942   5.335
 3956SOL    HW112767   6.819   3.020   5.279
 3956SOL    HW212768   6.696   2.953   5.362
 3957SOL     OW12769   1.096   1.384   3.374
 3957SOL    HW112770   1.033   1.461   3.371
 3957SOL    HW212771   1.098   1.345   3.466
 3958SOL     OW12772   5.567   5.840   0.311
 3958SOL    HW112773   5.537   5.934   0.300
 3958SOL    HW212774   5.488   5.778   0.304
 3959SOL     OW12775   2.829   6.207   0.791
 3959SOL    HW112776   2.784   6.247   0.711
 3959SOL    HW212777   2.759   6.177   0.857
 3960SOL     OW12778   5.439   3.486   1.086
 3960SOL    HW112779   5.366   3.500   1.020
 3960SOL    HW212780   5.507   3.423   1.047
 3961SOL     OW12781   5.522   0.238   1.403
 3961SOL    HW112782   5.496   0.142   1.397
 3961SOL    HW212783   5.481   0.289   1.328
 3962SOL     OW12784   0.884   6.609   5.805
 3962SOL    HW112785   0.942   6.689   5.789
 3962SOL    HW212786   0.898   6.576   5.899
 3963SOL     OW12787   4.569   5.318   3.292
 3963SOL    HW112788   4.550   5.402   3.343
 3963SOL    HW212789   4.668   5.312   3.274
 3964SOL     OW12790   5.985   6.716   5.944
 3964SOL    HW112791   6.035   6.761   5.870
 3964SOL    HW212792   6.047   6.703   6.022
 3965SOL     OW12793   3.925   2.669   0.110
 3965SOL    HW112794   3.865   2.647   0.188
 3965SOL    HW212795   3.919   2.767   0.091
 3966SOL     OW12796   6.052   3.472   5.551
 3966SOL    HW112797   6.095   3.438   5.468
 3966SOL    HW212798   5.978   3.409   5.578
 3967SOL     OW12799   1.953   6.653   6.731
 3967SOL    HW112800   2.011   6.702   6.796
 3967SOL    HW212801   1.952   6.703   6.644
 3968SOL     OW12802   5.711   0.478   1.165
 3968SOL    HW112803   5.745   0.388   1.191
 3968SOL    HW212804   5.611   0.477   1.166
 3969SOL     OW12805   0.489   6.133   1.886
 3969SOL    HW112806   0.451   6.220   1.917
 3969SOL    HW212807   0.588   6.134   1.894
 3970SOL     OW12808   4.656   4.546   4.190
 3970SOL    HW112809   4.655   4.522   4.286
 3970SOL    HW212810   4.609   4.476   4.137
 3971SOL     OW12811   1.436   6.090   3.711
 3971SOL    HW112812   1.524   6.085   3.663
 3971SOL    HW212813   1.364   6.115   3.646
 3972SOL     OW12814   1.142   0.385   0.164
 3972SOL    HW112815   1.084   0.370   0.083
 3972SOL    HW212816   1.109   0.329   0.239
 3973SOL     OW12817   3.603   2.964   2.806
 3973SOL    HW112818   3.659   2.947   2.725
 3973SOL    HW212819   3.507   2.975   2.777
 3974SOL     OW12820   5.717   0.740   6.168
 3974SOL    HW112821   5.780   0.816   6.187
 3974SOL    HW212822   5.639   0.774   6.116
 3975SOL     OW12823   6.931   6.015   5.680
 3975SOL    HW112824   6.945   5.996   5.582
 3975SOL    HW212825   6.836   5.995   5.704
 3976SOL     OW12826   1.230   3.188   6.593
 3976SOL    HW112827   1.327   3.190   6.569
 3976SOL    HW212828   1.190   3.278   6.577
 3977SOL     OW12829   3.926   6.232   6.029
 3977SOL    HW112830   3.924   6.227   5.929
 3977SOL    HW212831   3.980   6.156   6.066
 3978SOL     OW12832   5.968   4.171   6.952
 3978SOL    HW112833   5.892   4.145   6.892
 3978SOL    HW212834   6.005   4.089   6.996
 3979SOL     OW12835   0.963   6.750   3.450
 3979SOL    HW112836   1.036   6.818   3.437
 3979SOL    HW212837   0.878   6.797   3.473
 3980SOL     OW12838   5.015   3.563   4.838
 3980SOL    HW112839   4.976   3.502   4.768
 3980SOL    HW212840   4.941   3.601   4.893
 3981SOL     OW12841   6.406   2.123   5.463
 3981SOL    HW112842   6.306   2.131   5.466
 3981SOL    HW212843   6.441   2.110   5.555
 3982SOL     OW12844   2.399   2.214   3.806
 3982SOL    HW112845   2.493   2.179   3.799
 3982SOL    HW212846   2.397   2.291   3.870
 3983SOL     OW12847   3.867   6.514   4.019
 3983SOL    HW112848   3.875   6.415   4.007
 3983SOL    HW212849   3.779   6.545   3.984
 3984SOL     OW12850   1.345   0.436   1.540
 3984SOL    HW112851   1.292   0.486   1.471
 3984SOL    HW212852   1.285   0.412   1.616
 3985SOL     OW12853   1.275   3.166   1.924
 3985SOL    HW112854   1.358   3.221   1.935
 3985SOL    HW212855   1.201   3.223   1.889
 3986SOL     OW12856   0.784   2.722   1.987
 3986SOL    HW112857   0.790   2.732   1.888
 3986SOL    HW212858   0.826   2.635   2.014
 3987SOL     OW12859   1.936   4.312   6.263
 3987SOL    HW112860   1.837   4.320   6.263
 3987SOL    HW212861   1.967   4.269   6.178
 3988SOL     OW12862   4.690   1.898   6.951
 3988SOL    HW112863   4.741   1.826   6.999
 3988SOL    HW212864   4.753   1.967   6.918
 3989SOL     OW12865   4.458   1.091   6.713
 3989SOL    HW112866   4.530   1.142   6.665
 3989SOL    HW212867   4.373   1.144   6.710
 3990SOL     OW12868   1.451   2.513   3.800
 3990SOL    HW112869   1.542   2.488   3.767
 3990SOL    HW212870   1.382   2.479   3.736
 3991SOL     OW12871   6.899   1.115   4.307
 3991SOL    HW112872   6.875   1.024   4.274
 3991SOL    HW212873   6.938   1.108   4.399
 3992SOL     OW12874   5.343   3.805   6.308
 3992SOL    HW112875   5.290   3.787   6.391
 3992SOL    HW212876   5.311   3.745   6.235
 3993SOL     OW12877   1.655   1.511   3.626
 3993SOL    HW112878   1.665   1.463   3.539
 3993SOL    HW212879   1.739   1.562   3.646
 3994SOL     OW12880   2.646   1.626   3.821
 3994SOL    HW112881   2.676   1.541   3.864
 3994SOL    HW212882   2.549   1.620   3.797
 3995SOL     OW12883   1.178   3.639   1.803
 3995SOL    HW112884   1.183   3.673   1.897
 3995SOL    HW212885   1.138   3.548   1.803
 3996SOL     OW12886   5.842   6.732   3.590
 3996SOL    HW112887   5.746   6.741   3.615
 3996SOL    HW212888   5.872   6.638   3.607
 3997SOL     OW12889   5.522   3.684   2.958
 3997SOL    HW112890   5.449   3.662   3.022
 3997SOL    HW212891   5.517   3.623   2.879
 3998SOL     OW12892   5.655   2.583   2.955
 3998SOL    HW112893   5.698   2.506   2.908
 3998SOL    HW212894   5.642   2.659   2.891
 3999SOL     OW12895   4.974   2.725   1.439
 3999SOL    HW112896   4.989   2.721   1.340
 3999SOL    HW212897   4.922   2.645   1.468
 4000SOL     OW12898   3.454   4.868   2.399
 4000SOL    HW112899   3.472   4.909   2.488
 4000SOL    HW212900   3.365   4.900   2.364
 4001SOL     OW12901   1.341   4.740   4.484
 4001SOL    HW112902   1.373   4.815   4.427
 4001SOL    HW212903   1.406   4.723   4.557
 4002SOL     OW12904   3.461   4.167   3.565
 4002SOL    HW112905   3.502   4.124   3.646
 4002SOL    HW212906   3.364   4.143   3.561
 4003SOL     OW12907   2.426   1.344   5.627
 4003SOL    HW112908   2.351   1.411   5.631
 4003SOL    HW212909   2.513   1.392   5.615
 4004SOL     OW12910   1.133   3.973   3.572
 4004SOL    HW112911   1.191   3.973   3.491
 4004SOL    HW212912   1.098   3.881   3.589
 4005SOL     OW12913   4.955   3.189   0.653
 4005SOL    HW112914   4.991   3.282   0.645
 4005SOL    HW212915   5.017   3.126   0.607
 4006SOL     OW12916   4.987   5.115   3.313
 4006SOL    HW112917   5.058   5.120   3.243
 4006SOL    HW212918   5.018   5.058   3.389
 4007SOL     OW12919   6.993   1.450   3.151
 4007SOL    HW112920   0.041   1.376   3.145
 4007SOL    HW212921   6.957   1.470   3.060
 4008SOL     OW12922   3.439   0.728   0.868
 4008SOL    HW112923   3.468   0.665   0.941
 4008SOL    HW212924   3.420   0.677   0.785
 4009SOL     OW12925   4.801   2.105   0.659
 4009SOL    HW112926   4.817   2.183   0.598
 4009SOL    HW212927   4.717   2.120   0.711
 4010SOL     OW12928   2.689   5.294   1.781
 4010SOL    HW112929   2.766   5.322   1.839
 4010SOL    HW212930   2.607   5.285   1.837
 4011SOL     OW12931   4.887   5.862   0.104
 4011SOL    HW112932   4.877   5.893   0.199
 4011SOL    HW212933   4.812   5.900   0.049
 4012SOL     OW12934   4.658   6.814   2.642
 4012SOL    HW112935   4.638   6.803   2.740
 4012SOL    HW212936   4.637   6.908   2.614
 4013SOL     OW12937   0.432   1.631   6.200
 4013SOL    HW112938   0.367   1.631   6.276
 4013SOL    HW212939   0.388   1.595   6.118
 4014SOL     OW12940   3.141   5.113   2.494
 4014SOL    HW112941   3.051   5.086   2.530
 4014SOL    HW212942   3.179   5.039   2.440
 4015SOL     OW12943   4.232   4.804   5.993
 4015SOL    HW112944   4.295   4.816   5.916
 4015SOL    HW212945   4.140   4.788   5.957
 4016SOL     OW12946   3.995   5.501   5.392
 4016SOL    HW112947   3.941   5.572   5.348
 4016SOL    HW212948   3.988   5.416   5.340
 4017SOL     OW12949   0.528   4.867   5.528
 4017SOL    HW112950   0.504   4.858   5.625
 4017SOL    HW212951   0.504   4.783   5.480
 4018SOL     OW12952   4.624   6.345   2.177
 4018SOL    HW112953   4.556   6.316   2.245
 4018SOL    HW212954   4.610   6.442   2.156
 4019SOL     OW12955   5.173   3.512   3.341
 4019SOL    HW112956   5.086   3.556   3.323
 4019SOL    HW212957   5.215   3.554   3.422
 4020SOL     OW12958   6.434   5.036   4.212
 4020SOL    HW112959   6.346   5.002   4.246
 4020SOL    HW212960   6.455   5.124   4.254
 4021SOL     OW12961   4.498   3.627   6.417
 4021SOL    HW112962   4.531   3.646   6.510
 4021SOL    HW212963   4.438   3.701   6.387
 4022SOL     OW12964   2.425   0.913   1.575
 4022SOL    HW112965   2.350   0.901   1.639
 4022SOL    HW212966   2.511   0.886   1.618
 4023SOL     OW12967   0.370   1.451   5.053
 4023SOL    HW112968   0.322   1.527   5.009
 4023SOL    HW212969   0.408   1.391   4.983
 4024SOL     OW12970   0.639   5.819   4.769
 4024SOL    HW112971   0.705   5.770   4.827
 4024SOL    HW212972   0.594   5.753   4.709
 4025SOL     OW12973   7.007   5.690   3.763
 4025SOL    HW112974   0.061   5.622   3.748
 4025SOL    HW212975   6.918   5.645   3.755
 4026SOL     OW12976   6.648   6.492   3.711
 4026SOL    HW112977   6.633   6.403   3.667
 4026SOL    HW212978   6.567   6.516   3.765
 4027SOL     OW12979   2.802   3.959   5.769
 4027SOL    HW112980   2.848   4.048   5.766
 4027SOL    HW212981   2.722   3.961   5.710
 4028SOL     OW12982   4.518   1.501   2.715
 4028SOL    HW112983   4.601   1.554   2.730
 4028SOL    HW212984   4.462   1.502   2.798
 4029SOL     OW12985   1.634   5.653   6.711
 4029SOL    HW112986   1.710   5.608   6.665
 4029SOL    HW212987   1.631   5.625   6.807
 4030SOL     OW12988   0.216   1.308   2.684
 4030SOL    HW112989   0.171   1.397   2.682
 4030SOL    HW212990   0.253   1.291   2.775
 4031SOL     OW12991   6.361   6.441   1.516
 4031SOL    HW112992   6.454   6.433   1.551
 4031SOL    HW212993   6.297   6.405   1.584
 4032SOL     OW12994   5.711   0.728   1.818
 4032SOL    HW112995   5.799   0.760   1.781
 4032SOL    HW212996   5.683   0.788   1.893
 4033SOL     OW12997   1.817   2.764   2.455
 4033SOL    HW112998   1.902   2.806   2.487
 4033SOL    HW212999   1.826   2.742   2.357
 4034SOL     OW13000   0.111   3.038   5.243
 4034SOL    HW113001   0.210   3.042   5.227
 4034SOL    HW213002   0.094   3.035   5.341
 4035SOL     OW13003   5.136   1.844   1.446
 4035SOL    HW113004   5.173   1.889   1.527
 4035SOL    HW213005   5.078   1.908   1.395
 4036SOL     OW13006   2.324   5.567   2.834
 4036SOL    HW113007   2.326   5.480   2.785
 4036SOL    HW213008   2.417   5.593   2.861
 4037SOL     OW13009   2.363   0.722   5.908
 4037SOL    HW113010   2.420   0.643   5.928
 4037SOL    HW213011   2.271   0.707   5.946
 4038SOL     OW13012   3.618   3.695   5.979
 4038SOL    HW113013   3.518   3.685   5.978
 4038SOL    HW213014   3.658   3.628   6.042
 4039SOL     OW13015   6.280   5.061   1.518
 4039SOL    HW113016   6.221   5.053   1.438
 4039SOL    HW213017   6.231   5.027   1.599
 4040SOL     OW13018   3.531   5.882   4.825
 4040SOL    HW113019   3.483   5.837   4.750
 4040SOL    HW213020   3.497   5.847   4.912
 4041SOL     OW13021   2.712   6.301   0.537
 4041SOL    HW113022   2.663   6.231   0.485
 4041SOL    HW213023   2.670   6.390   0.521
 4042SOL     OW13024   6.112   0.755   3.757
 4042SOL    HW113025   6.198   0.795   3.791
 4042SOL    HW213026   6.060   0.825   3.708
 4043SOL     OW13027   5.081   3.494   6.630
 4043SOL    HW113028   5.155   3.543   6.677
 4043SOL    HW213029   5.115   3.405   6.600
 4044SOL     OW13030   4.513   5.082   3.413
 4044SOL    HW113031   4.532   5.174   3.377
 4044SOL    HW213032   4.490   5.021   3.337
 4045SOL     OW13033   5.160   0.006   5.395
 4045SOL    HW113034   5.191   7.010   5.488
 4045SOL    HW213035   5.145   0.104   5.380
 4046SOL     OW13036   6.423   1.929   2.227
 4046SOL    HW113037   6.413   2.026   2.206
 4046SOL    HW213038   6.513   1.898   2.197
 4047SOL     OW13039   2.991   3.491   6.763
 4047SOL    HW113040   3.053   3.442   6.701
 4047SOL    HW213041   2.948   3.427   6.826
 4048SOL     OW13042   4.658   1.403   1.960
 4048SOL    HW113043   4.561   1.407   1.982
 4048SOL    HW213044   4.676   1.452   1.875
 4049SOL     OW13045   3.860   4.566   6.571
 4049SOL    HW113046   3.938   4.577   6.509
 4049SOL    HW213047   3.886   4.507   6.647
 4050SOL     OW13048   0.308   5.506   2.793
 4050SOL    HW113049   0.391   5.456   2.818
 4050SOL    HW213050   0.228   5.450   2.815
 4051SOL     OW13051   5.201   1.102   5.083
 4051SOL    HW113052   5.271   1.130   5.149
 4051SOL    HW213053   5.245   1.079   4.997
 4052SOL     OW13054   6.528   2.474   3.687
 4052SOL    HW113055   6.468   2.511   3.757
 4052SOL    HW213056   6.589   2.405   3.727
 4053SOL     OW13057   0.990   5.510   4.494
 4053SOL    HW113058   1.002   5.481   4.399
 4053SOL    HW213059   0.973   5.430   4.552
 4054SOL     OW13060   5.237   4.007   0.715
 4054SOL    HW113061   5.225   4.007   0.815
 4054SOL    HW213062   5.246   3.913   0.683
 4055SOL     OW13063   0.974   4.027   0.949
 4055SOL    HW113064   0.926   4.000   1.032
 4055SOL    HW213065   1.073   4.018   0.963
 4056SOL     OW13066   5.022   3.263   1.019
 4056SOL    HW113067   5.107   3.247   0.969
 4056SOL    HW213068   5.012   3.362   1.035
 4057SOL     OW13069   6.585   3.265   6.773
 4057SOL    HW113070   6.586   3.174   6.732
 4057SOL    HW213071   6.639   3.264   6.858
 4058SOL     OW13072   2.642   6.180   5.885
 4058SOL    HW113073   2.710   6.113   5.914
 4058SOL    HW213074   2.577   6.136   5.822
 4059SOL     OW13075   1.251   1.394   4.440
 4059SOL    HW113076   1.344   1.371   4.469
 4059SOL    HW213077   1.242   1.493   4.432
 4060SOL     OW13078   6.305   5.714   5.160
 4060SOL    HW113079   6.257   5.796   5.130
 4060SOL    HW213080   6.302   5.709   5.260
 4061SOL     OW13081   1.927   5.319   1.142
 4061SOL    HW113082   1.907   5.406   1.187
 4061SOL    HW213083   1.969   5.336   1.053
 4062SOL     OW13084   1.948   1.755   1.773
 4062SOL    HW113085   1.910   1.665   1.796
 4062SOL    HW213086   1.878   1.825   1.785
 4063SOL     OW13087   5.531   1.743   0.464
 4063SOL    HW113088   5.576   1.822   0.423
 4063SOL    HW213089   5.545   1.663   0.405
 4064SOL     OW13090   1.862   1.903   5.196
 4064SOL    HW113091   1.874   1.998   5.166
 4064SOL    HW213092   1.796   1.858   5.137
 4065SOL     OW13093   2.039   0.081   0.892
 4065SOL    HW113094   2.012   0.139   0.816
 4065SOL    HW213095   2.086   0.137   0.961
 4066SOL     OW13096   0.306   4.097   3.438
 4066SOL    HW113097   0.349   4.156   3.370
 4066SOL    HW213098   0.285   4.149   3.520
 4067SOL     OW13099   5.124   4.878   1.427
 4067SOL    HW113100   5.122   4.946   1.501
 4067SOL    HW213101   5.071   4.798   1.454
 4068SOL     OW13102   1.890   2.880   4.972
 4068SOL    HW113103   1.834   2.962   4.989
 4068SOL    HW213104   1.987   2.903   4.983
 4069SOL     OW13105   3.927   0.063   6.812
 4069SOL    HW113106   3.972   0.151   6.823
 4069SOL    HW213107   3.916   0.019   6.902
 4070SOL     OW13108   1.386   3.137   3.031
 4070SOL    HW113109   1.383   3.098   3.123
 4070SOL    HW213110   1.341   3.226   3.031
 4071SOL     OW13111   0.512   0.498   3.911
 4071SOL    HW113112   0.499   0.399   3.904
 4071SOL    HW213113   0.476   0.542   3.828
 4072SOL     OW13114   1.783   5.443   3.710
 4072SOL    HW113115   1.796   5.483   3.800
 4072SOL    HW213116   1.840   5.491   3.643
 4073SOL     OW13117   2.851   5.027   0.134
 4073SOL    HW113118   2.816   5.000   0.044
 4073SOL    HW213119   2.889   4.947   0.180
 4074SOL     OW13120   0.849   5.970   2.820
 4074SOL    HW113121   0.899   5.886   2.842
 4074SOL    HW213122   0.821   6.015   2.904
 4075SOL     OW13123   5.561   0.223   0.726
 4075SOL    HW113124   5.566   0.321   0.747
 4075SOL    HW213125   5.617   0.172   0.791
 4076SOL     OW13126   3.398   3.645   5.130
 4076SOL    HW113127   3.356   3.657   5.040
 4076SOL    HW213128   3.338   3.681   5.201
 4077SOL     OW13129   3.959   1.959   1.706
 4077SOL    HW113130   3.969   2.055   1.678
 4077SOL    HW213131   4.041   1.908   1.677
 4078SOL     OW13132   2.684   4.918   2.661
 4078SOL    HW113133   2.602   4.898   2.608
 4078SOL    HW213134   2.710   4.836   2.713
 4079SOL     OW13135   0.933   2.472   4.113
 4079SOL    HW113136   0.889   2.390   4.149
 4079SOL    HW213137   1.032   2.465   4.124
 4080SOL     OW13138   5.991   1.188   4.929
 4080SOL    HW113139   6.015   1.094   4.907
 4080SOL    HW213140   5.995   1.244   4.847
 4081SOL     OW13141   1.554   3.398   3.715
 4081SOL    HW113142   1.571   3.402   3.617
 4081SOL    HW213143   1.456   3.401   3.733
 4082SOL     OW13144   0.990   2.843   0.981
 4082SOL    HW113145   1.028   2.768   1.035
 4082SOL    HW213146   0.934   2.806   0.907
 4083SOL     OW13147   5.442   2.339   4.596
 4083SOL    HW113148   5.462   2.368   4.503
 4083SOL    HW213149   5.506   2.268   4.624
 4084SOL     OW13150   6.816   1.755   4.395
 4084SOL    HW113151   6.852   1.780   4.485
 4084SOL    HW213152   6.876   1.793   4.324
 4085SOL     OW13153   3.610   6.234   0.280
 4085SOL    HW113154   3.568   6.252   0.190
 4085SOL    HW213155   3.704   6.267   0.279
 4086SOL     OW13156   1.788   5.087   1.263
 4086SOL    HW113157   1.836   5.171   1.237
 4086SOL    HW213158   1.704   5.079   1.209
 4087SOL     OW13159   2.089   2.030   3.332
 4087SOL    HW113160   2.091   2.044   3.233
 4087SOL    HW213161   2.174   2.065   3.372
 4088SOL     OW13162   6.570   1.917   1.137
 4088SOL    HW113163   6.503   1.874   1.197
 4088SOL    HW213164   6.661   1.907   1.178
 4089SOL     OW13165   1.083   0.869   4.150
 4089SOL    HW113166   1.072   0.904   4.243
 4089SOL    HW213167   1.116   0.774   4.154
 4090SOL     OW13168   2.109   3.862   6.352
 4090SOL    HW113169   2.033   3.829   6.407
 4090SOL    HW213170   2.138   3.952   6.385
 4091SOL     OW13171   4.610   6.078   0.231
 4091SOL    HW113172   4.537   6.019   0.265
 4091SOL    HW213173   4.668   6.107   0.307
 4092SOL     OW13174   0.632   2.708   5.151
 4092SOL    HW113175   0.571   2.667   5.084
 4092SOL    HW213176   0.666   2.795   5.116
 4093SOL     OW13177   5.335   1.236   3.582
 4093SOL    HW113178   5.426   1.273   3.603
 4093SOL    HW213179   5.282   1.304   3.532
 4094SOL     OW13180   1.947   4.060   5.112
 4094SOL    HW113181   1.990   4.063   5.022
 4094SOL    HW213182   1.905   4.148   5.132
 4095SOL     OW13183   1.149   2.771   6.153
 4095SOL    HW113184   1.196   2.819   6.227
 4095SOL    HW213185   1.204   2.691   6.125
 4096SOL     OW13186   4.578   4.713   6.679
 4096SOL    HW113187   4.674   4.720   6.654
 4096SOL    HW213188   4.524   4.694   6.597
 4097SOL     OW13189   3.609   3.655   5.713
 4097SOL    HW113190   3.528   3.687   5.665
 4097SOL    HW213191   3.618   3.704   5.800
 4098SOL     OW13192   0.403   2.408   3.246
 4098SOL    HW113193   0.308   2.385   3.267
 4098SOL    HW213194   0.407   2.455   3.158
 4099SOL     OW13195   3.122   5.977   1.980
 4099SOL    HW113196   3.209   5.927   1.984
 4099SOL    HW213197   3.115   6.039   2.058
 4100SOL     OW13198   4.143   5.501   3.924
 4100SOL    HW113199   4.179   5.559   3.851
 4100SOL    HW213200   4.187   5.524   4.010
 4101SOL     OW13201   5.862   1.328   5.798
 4101SOL    HW113202   5.763   1.342   5.805
 4101SOL    HW213203   5.910   1.405   5.840
 4102SOL     OW13204   6.022   0.881   0.230
 4102SOL    HW113205   5.952   0.952   0.226
 4102SOL    HW213206   5.994   0.804   0.172
 4103SOL     OW13207   0.348   0.860   2.467
 4103SOL    HW113208   0.327   0.958   2.472
 4103SOL    HW213209   0.429   0.840   2.522
 4104SOL     OW13210   1.654   4.575   2.720
 4104SOL    HW113211   1.603   4.656   2.751
 4104SOL    HW213212   1.710   4.600   2.641
 4105SOL     OW13213   3.792   5.523   0.370
 4105SOL    HW113214   3.746   5.533   0.458
 4105SOL    HW213215   3.842   5.607   0.349
 4106SOL     OW13216   0.084   3.894   4.760
 4106SOL    HW113217   0.004   3.835   4.755
 4106SOL    HW213218   0.161   3.843   4.799
 4107SOL     OW13219   0.562   6.909   1.644
 4107SOL    HW113220   0.597   6.852   1.718
 4107SOL    HW213221   0.571   6.861   1.557
 4108SOL     OW13222   6.606   3.460   6.611
 4108SOL    HW113223   6.602   3.378   6.669
 4108SOL    HW213224   6.525   3.464   6.552
 4109SOL     OW13225   4.324   6.491   4.104
 4109SOL    HW113226   4.397   6.559   4.114
 4109SOL    HW213227   4.236   6.535   4.122
 4110SOL     OW13228   5.187   3.353   6.027
 4110SOL    HW113229   5.139   3.266   6.036
 4110SOL    HW213230   5.228   3.378   6.115
 4111SOL     OW13231   4.130   2.692   6.896
 4111SOL    HW113232   4.064   2.699   6.970
 4111SOL    HW213233   4.187   2.611   6.909
 4112SOL     OW13234   3.715   1.757   4.201
 4112SOL    HW113235   3.763   1.705   4.130
 4112SOL    HW213236   3.660   1.829   4.158
 4113SOL     OW13237   3.349   5.019   5.290
 4113SOL    HW113238   3.446   4.999   5.299
 4113SOL    HW213239   3.337   5.113   5.257
 4114SOL     OW13240   3.143   1.874   4.031
 4114SOL    HW113241   3.081   1.814   4.082
 4114SOL    HW213242   3.208   1.915   4.094
 4115SOL     OW13243   4.893   5.158   2.226
 4115SOL    HW113244   4.981   5.168   2.179
 4115SOL    HW213245   4.864   5.247   2.262
 4116SOL     OW13246   3.713   2.010   1.852
 4116SOL    HW113247   3.802   2.033   1.812
 4116SOL    HW213248   3.682   2.086   1.909
 4117SOL     OW13249   1.024   5.256   1.269
 4117SOL    HW113250   1.100   5.321   1.268
 4117SOL    HW213251   1.060   5.163   1.266
 4118SOL     OW13252   1.406   6.763   0.571
 4118SOL    HW113253   1.315   6.723   0.564
 4118SOL    HW213254   1.443   6.746   0.662
 4119SOL     OW13255   3.528   0.782   4.164
 4119SOL    HW113256   3.499   0.812   4.073
 4119SOL    HW213257   3.628   0.777   4.167
 4120SOL     OW13258   4.088   6.838   1.579
 4120SOL    HW113259   4.106   6.924   1.627
 4120SOL    HW213260   3.989   6.823   1.572
 4121SOL     OW13261   6.934   2.681   4.599
 4121SOL    HW113262   6.940   2.612   4.527
 4121SOL    HW213263   6.842   2.679   4.639
 4122SOL     OW13264   0.652   6.334   5.543
 4122SOL    HW113265   0.665   6.354   5.640
 4122SOL    HW213266   0.737   6.351   5.494
 4123SOL     OW13267   5.731   3.993   5.807
 4123SOL    HW113268   5.700   4.054   5.734
 4123SOL    HW213269   5.831   3.994   5.811
 4124SOL     OW13270   5.414   6.657   3.942
 4124SOL    HW113271   5.358   6.574   3.949
 4124SOL    HW213272   5.473   6.664   4.022
 4125SOL     OW13273   4.407   0.910   1.357
 4125SOL    HW113274   4.362   0.995   1.384
 4125SOL    HW213275   4.487   0.932   1.300
 4126SOL     OW13276   2.039   4.320   4.400
 4126SOL    HW113277   2.044   4.240   4.459
 4126SOL    HW213278   2.096   4.393   4.437
 4127SOL     OW13279   5.365   2.959   4.801
 4127SOL    HW113280   5.350   3.049   4.841
 4127SOL    HW213281   5.433   2.909   4.856
 4128SOL     OW13282   1.572   3.611   2.353
 4128SOL    HW113283   1.513   3.691   2.363
 4128SOL    HW213284   1.535   3.536   2.408
 4129SOL     OW13285   5.859   2.355   5.773
 4129SOL    HW113286   5.833   2.427   5.709
 4129SOL    HW213287   5.833   2.266   5.735
 4130SOL     OW13288   6.494   4.408   6.360
 4130SOL    HW113289   6.472   4.331   6.421
 4130SOL    HW213290   6.412   4.463   6.345
 4131SOL     OW13291   6.828   5.177   4.016
 4131SOL    HW113292   6.855   5.267   3.982
 4131SOL    HW213293   6.880   5.106   3.968
 4132SOL     OW13294   4.899   3.325   3.290
 4132SOL    HW113295   4.890   3.397   3.359
 4132SOL    HW213296   4.990   3.284   3.296
 4133SOL     OW13297   2.612   0.949   1.311
 4133SOL    HW113298   2.555   0.881   1.265
 4133SOL    HW213299   2.630   0.920   1.405
 4134SOL     OW13300   2.359   1.457   0.200
 4134SOL    HW113301   2.321   1.412   0.280
 4134SOL    HW213302   2.286   1.507   0.153
 4135SOL     OW13303   2.003   0.877   2.693
 4135SOL    HW113304   1.992   0.862   2.791
 4135SOL    HW213305   2.023   0.790   2.648
 4136SOL     OW13306   0.060   2.351   3.998
 4136SOL    HW113307   0.140   2.391   4.043
 4136SOL    HW213308   0.029   2.412   3.925
 4137SOL     OW13309   3.639   3.750   6.306
 4137SOL    HW113310   3.578   3.802   6.366
 4137SOL    HW213311   3.676   3.811   6.236
 4138SOL     OW13312   4.210   4.897   4.214
 4138SOL    HW113313   4.213   4.987   4.171
 4138SOL    HW213314   4.294   4.847   4.192
 4139SOL     OW13315   1.774   1.723   6.354
 4139SOL    HW113316   1.692   1.780   6.354
 4139SOL    HW213317   1.799   1.702   6.259
 4140SOL     OW13318   3.637   0.757   5.309
 4140SOL    HW113319   3.694   0.837   5.330
 4140SOL    HW213320   3.672   0.712   5.227
 4141SOL     OW13321   5.360   4.993   0.710
 4141SOL    HW113322   5.454   4.996   0.741
 4141SOL    HW213323   5.353   4.931   0.631
 4142SOL     OW13324   6.650   4.290   1.084
 4142SOL    HW113325   6.578   4.338   1.135
 4142SOL    HW213326   6.639   4.306   0.986
 4143SOL     OW13327   6.798   2.945   1.174
 4143SOL    HW113328   6.733   2.885   1.128
 4143SOL    HW213329   6.747   3.013   1.228
 4144SOL     OW13330   5.182   1.391   1.828
 4144SOL    HW113331   5.237   1.334   1.889
 4144SOL    HW213332   5.090   1.402   1.867
 4145SOL     OW13333   1.479   0.152   1.497
 4145SOL    HW113334   1.530   0.138   1.412
 4145SOL    HW213335   1.426   0.237   1.490
 4146SOL     OW13336   5.188   0.086   6.546
 4146SOL    HW113337   5.089   0.091   6.529
 4146SOL    HW213338   5.229   0.020   6.484
 4147SOL     OW13339   3.357   2.338   6.090
 4147SOL    HW113340   3.306   2.260   6.054
 4147SOL    HW213341   3.359   2.410   6.021
 4148SOL     OW13342   6.457   0.498   3.481
 4148SOL    HW113343   6.380   0.435   3.489
 4148SOL    HW213344   6.533   0.452   3.434
 4149SOL     OW13345   6.452   3.482   1.120
 4149SOL    HW113346   6.421   3.577   1.108
 4149SOL    HW213347   6.493   3.449   1.035
 4150SOL     OW13348   5.592   0.311   6.328
 4150SOL    HW113349   5.627   0.333   6.419
 4150SOL    HW213350   5.511   0.366   6.309
 4151SOL     OW13351   0.079   6.263   0.765
 4151SOL    HW113352   0.131   6.211   0.697
 4151SOL    HW213353   7.002   6.267   0.736
 4152SOL     OW13354   4.227   4.656   2.173
 4152SOL    HW113355   4.261   4.697   2.089
 4152SOL    HW213356   4.173   4.575   2.152
 4153SOL     OW13357   6.091   4.940   6.632
 4153SOL    HW113358   5.999   4.975   6.649
 4153SOL    HW213359   6.084   4.847   6.594
 4154SOL     OW13360   6.049   3.218   5.184
 4154SOL    HW113361   6.023   3.127   5.214
 4154SOL    HW213362   6.099   3.265   5.258
 4155SOL     OW13363   1.101   3.475   2.250
 4155SOL    HW113364   1.078   3.525   2.334
 4155SOL    HW213365   1.044   3.508   2.175
 4156SOL     OW13366   5.506   6.681   5.427
 4156SOL    HW113367   5.605   6.684   5.414
 4156SOL    HW213368   5.485   6.644   5.517
 4157SOL     OW13369   4.321   0.955   3.923
 4157SOL    HW113370   4.239   0.936   3.978
 4157SOL    HW213371   4.301   1.027   3.857
 4158SOL     OW13372   0.486   5.135   3.236
 4158SOL    HW113373   0.558   5.188   3.191
 4158SOL    HW213374   0.460   5.058   3.178
 4159SOL     OW13375   1.039   2.875   4.250
 4159SOL    HW113376   0.963   2.817   4.280
 4159SOL    HW213377   1.029   2.967   4.289
 4160SOL     OW13378   6.330   0.273   0.801
 4160SOL    HW113379   6.278   0.355   0.779
 4160SOL    HW213380   6.428   0.292   0.792
 4161SOL     OW13381   1.176   1.448   0.051
 4161SOL    HW113382   1.219   1.497   6.995
 4161SOL    HW213383   1.202   1.352   0.048
 4162SOL     OW13384   5.965   6.766   4.612
 4162SOL    HW113385   6.036   6.709   4.569
 4162SOL    HW213386   5.903   6.708   4.664
 4163SOL     OW13387   5.485   1.702   3.618
 4163SOL    HW113388   5.479   1.684   3.716
 4163SOL    HW213389   5.567   1.658   3.581
 4164SOL     OW13390   1.645   0.723   6.623
 4164SOL    HW113391   1.577   0.712   6.551
 4164SOL    HW213392   1.619   0.798   6.684
 4165SOL     OW13393   3.699   6.589   0.978
 4165SOL    HW113394   3.775   6.592   1.043
 4165SOL    HW213395   3.735   6.574   0.885
 4166SOL     OW13396   4.362   3.010   0.709
 4166SOL    HW113397   4.321   3.101   0.722
 4166SOL    HW213398   4.462   3.018   0.717
 4167SOL     OW13399   2.375   2.427   1.619
 4167SOL    HW113400   2.464   2.471   1.631
 4167SOL    HW213401   2.385   2.345   1.564
 4168SOL     OW13402   0.561   5.355   1.275
 4168SOL    HW113403   0.600   5.383   1.363
 4168SOL    HW213404   0.544   5.437   1.220
 4169SOL     OW13405   4.841   3.863   3.366
 4169SOL    HW113406   4.801   3.895   3.452
 4169SOL    HW213407   4.932   3.904   3.354
 4170SOL     OW13408   3.810   2.801   5.607
 4170SOL    HW113409   3.852   2.822   5.519
 4170SOL    HW213410   3.713   2.828   5.606
 4171SOL     OW13411   5.295   4.062   1.204
 4171SOL    HW113412   5.304   4.023   1.296
 4171SOL    HW213413   5.383   4.059   1.157
 4172SOL     OW13414   0.476   1.842   1.069
 4172SOL    HW113415   0.384   1.820   1.102
 4172SOL    HW213416   0.544   1.798   1.128
 4173SOL     OW13417   5.130   2.781   4.776
 4173SOL    HW113418   5.210   2.836   4.752
 4173SOL    HW213419   5.137   2.752   4.872
 4174SOL     OW13420   4.766   0.789   3.482
 4174SOL    HW113421   4.802   0.876   3.517
 4174SOL    HW213422   4.803   0.772   3.391
 4175SOL     OW13423   3.450   6.907   3.566
 4175SOL    HW113424   3.358   6.911   3.603
 4175SOL    HW213425   3.516   6.937   3.635
 4176SOL     OW13426   4.511   6.859   2.877
 4176SOL    HW113427   4.436   6.906   2.830
 4176SOL    HW213428   4.474   6.780   2.927
 4177SOL     OW13429   0.222   6.273   3.976
 4177SOL    HW113430   0.161   6.215   3.922
 4177SOL    HW213431   0.307   6.224   3.994
 4178SOL     OW13432   3.212   2.090   5.993
 4178SOL    HW113433   3.182   2.031   6.068
 4178SOL    HW213434   3.161   2.067   5.910
 4179SOL     OW13435   5.366   3.465   5.201
 4179SOL    HW113436   5.428   3.387   5.208
 4179SOL    HW213437   5.273   3.433   5.183
 4180SOL     OW13438   4.986   4.410   1.188
 4180SOL    HW113439   4.992   4.381   1.092
 4180SOL    HW213440   4.918   4.482   1.196
 4181SOL     OW13441   0.674   1.817   6.882
 4181SOL    HW113442   0.665   1.739   6.945
 4181SOL    HW213443   0.606   1.810   6.810
 4182SOL     OW13444   6.327   0.336   2.597
 4182SOL    HW113445   6.317   0.237   2.608
 4182SOL    HW213446   6.241   0.376   2.567
 4183SOL     OW13447   2.096   1.364   1.973
 4183SOL    HW113448   2.185   1.334   1.937
 4183SOL    HW213449   2.108   1.397   2.067
 4184SOL     OW13450   3.583   5.745   0.302
 4184SOL    HW113451   3.566   5.842   0.320
 4184SOL    HW213452   3.673   5.720   0.337
 4185SOL     OW13453   0.135   0.204   3.569
 4185SOL    HW113454   0.129   0.216   3.470
 4185SOL    HW213455   0.045   0.222   3.610
 4186SOL     OW13456   2.390   3.861   0.782
 4186SOL    HW113457   2.459   3.934   0.783
 4186SOL    HW213458   2.395   3.812   0.695
 4187SOL     OW13459   3.603   3.388   6.380
 4187SOL    HW113460   3.611   3.398   6.281
 4187SOL    HW213461   3.533   3.320   6.402
 4188SOL     OW13462   4.723   0.293   4.039
 4188SOL    HW113463   4.784   0.367   4.070
 4188SOL    HW213464   4.635   0.301   4.086
 4189SOL     OW13465   2.493   1.701   4.781
 4189SOL    HW113466   2.462   1.715   4.875
 4189SOL    HW213467   2.471   1.781   4.726
 4190SOL     OW13468   3.100   1.128   6.976
 4190SOL    HW113469   3.031   1.090   0.019
 4190SOL    HW213470   3.168   1.058   6.956
 4191SOL     OW13471   6.727   2.611   2.737
 4191SOL    HW113472   6.804   2.622   2.799
 4191SOL    HW213473   6.665   2.541   2.772
 4192SOL     OW13474   5.855   1.104   3.412
 4192SOL    HW113475   5.777   1.161   3.385
 4192SOL    HW213476   5.928   1.114   3.344
 4193SOL     OW13477   2.044   6.774   2.537
 4193SOL    HW113478   1.967   6.777   2.601
 4193SOL    HW213479   2.010   6.788   2.444
 4194SOL     OW13480   0.036   1.459   4.046
 4194SOL    HW113481   0.134   1.475   4.050
 4194SOL    HW213482   0.006   1.412   4.129
 4195SOL     OW13483   5.703   0.288   1.677
 4195SOL    HW113484   5.793   0.266   1.640
 4195SOL    HW213485   5.653   0.346   1.613
 4196SOL     OW13486   5.059   2.553   4.123
 4196SOL    HW113487   5.009   2.511   4.048
 4196SOL    HW213488   5.014   2.532   4.210
 4197SOL     OW13489   4.662   4.233   4.555
 4197SOL    HW113490   4.696   4.143   4.528
 4197SOL    HW213491   4.662   4.241   4.654
 4198SOL     OW13492   5.847   3.993   0.220
 4198SOL    HW113493   5.813   4.058   0.288
 4198SOL    HW213494   5.945   4.009   0.205
 4199SOL     OW13495   3.284   3.332   4.861
 4199SOL    HW113496   3.350   3.313   4.933
 4199SOL    HW213497   3.327   3.318   4.772
 4200SOL     OW13498   2.060   0.203   6.906
 4200SOL    HW113499   2.064   0.111   6.866
 4200SOL    HW213500   2.031   0.196   7.002
 4201SOL     OW13501   5.862   0.043   3.721
 4201SOL    HW113502   5.917   0.019   3.641
 4201SOL    HW213503   5.775   0.083   3.691
 4202SOL     OW13504   5.495   4.829   5.226
 4202SOL    HW113505   5.574   4.770   5.213
 4202SOL    HW213506   5.500   4.872   5.316
 4203SOL     OW13507   5.278   5.664   2.754
 4203SOL    HW113508   5.320   5.574   2.744
 4203SOL    HW213509   5.184   5.653   2.785
 4204SOL     OW13510   3.080   2.893   1.481
 4204SOL    HW113511   3.176   2.910   1.503
 4204SOL    HW213512   3.023   2.958   1.532
 4205SOL     OW13513   3.055   5.226   4.191
 4205SOL    HW113514   3.022   5.152   4.250
 4205SOL    HW213515   3.021   5.212   4.098
 4206SOL     OW13516   4.887   0.357   4.547
 4206SOL    HW113517   4.947   0.432   4.518
 4206SOL    HW213518   4.869   0.297   4.469
 4207SOL     OW13519   1.236   1.085   1.601
 4207SOL    HW113520   1.303   1.040   1.542
 4207SOL    HW213521   1.184   1.016   1.652
 4208SOL     OW13522   1.308   2.947   0.448
 4208SOL    HW113523   1.283   2.939   0.544
 4208SOL    HW213524   1.400   2.988   0.440
 4209SOL     OW13525   2.474   6.635   5.086
 4209SOL    HW113526   2.425   6.697   5.024
 4209SOL    HW213527   2.530   6.689   5.149
 4210SOL     OW13528   4.359   2.872   1.000
 4210SOL    HW113529   4.391   2.791   1.049
 4210SOL    HW213530   4.292   2.845   0.930
 4211SOL     OW13531   4.459   5.040   3.884
 4211SOL    HW113532   4.448   4.964   3.819
 4211SOL    HW213533   4.386   5.037   3.952
 4212SOL     OW13534   6.159   1.645   2.734
 4212SOL    HW113535   6.229   1.669   2.801
 4212SOL    HW213536   6.200   1.588   2.663
 4213SOL     OW13537   1.734   1.182   2.298
 4213SOL    HW113538   1.732   1.083   2.314
 4213SOL    HW213539   1.648   1.211   2.257
 4214SOL     OW13540   0.854   3.265   5.109
 4214SOL    HW113541   0.935   3.289   5.161
 4214SOL    HW213542   0.880   3.243   5.015
 4215SOL     OW13543   0.534   5.416   4.531
 4215SOL    HW113544   0.576   5.421   4.440
 4215SOL    HW213545   0.445   5.369   4.524
 4216SOL     OW13546   0.968   2.887   4.993
 4216SOL    HW113547   0.875   2.916   5.015
 4216SOL    HW213548   1.005   2.833   5.069
 4217SOL     OW13549   6.910   0.729   3.079
 4217SOL    HW113550   6.975   0.804   3.089
 4217SOL    HW213551   6.959   0.642   3.077
 4218SOL     OW13552   3.925   0.057   1.989
 4218SOL    HW113553   3.937   0.105   1.903
 4218SOL    HW213554   3.859   0.106   2.046
 4219SOL     OW13555   4.487   5.696   4.095
 4219SOL    HW113556   4.550   5.727   4.166
 4219SOL    HW213557   4.513   5.605   4.065
 4220SOL     OW13558   6.115   3.106   4.405
 4220SOL    HW113559   6.171   3.095   4.487
 4220SOL    HW213560   6.107   3.203   4.383
 4221SOL     OW13561   5.583   5.864   6.457
 4221SOL    HW113562   5.611   5.768   6.454
 4221SOL    HW213563   5.655   5.920   6.416
 4222SOL     OW13564   5.221   2.637   1.570
 4222SOL    HW113565   5.141   2.662   1.516
 4222SOL    HW213566   5.221   2.688   1.656
 4223SOL     OW13567   3.427   4.132   2.222
 4223SOL    HW113568   3.408   4.141   2.124
 4223SOL    HW213569   3.520   4.163   2.241
 4224SOL     OW13570   4.311   2.335   4.705
 4224SOL    HW113571   4.370   2.416   4.714
 4224SOL    HW213572   4.261   2.320   4.790
 4225SOL     OW13573   5.970   6.686   5.077
 4225SOL    HW113574   5.984   6.717   4.984
 4225SOL    HW213575   5.941   6.763   5.134
 4226SOL     OW13576   0.289   1.475   4.043
 4226SOL    HW113577   0.359   1.542   4.067
 4226SOL    HW213578   0.333   1.393   4.006
 4227SOL     OW13579   4.605   4.819   0.421
 4227SOL    HW113580   4.524   4.783   0.374
 4227SOL    HW213581   4.684   4.759   0.402
 4228SOL     OW13582   6.030   5.082   2.931
 4228SOL    HW113583   6.080   4.996   2.947
 4228SOL    HW213584   6.040   5.141   3.011
 4229SOL     OW13585   4.877   5.127   5.454
 4229SOL    HW113586   4.784   5.156   5.478
 4229SOL    HW213587   4.917   5.194   5.391
 4230SOL     OW13588   3.690   0.496   4.795
 4230SOL    HW113589   3.732   0.587   4.798
 4230SOL    HW213590   3.647   0.482   4.706
 4231SOL     OW13591   4.445   0.248   5.468
 4231SOL    HW113592   4.420   0.244   5.565
 4231SOL    HW213593   4.545   0.251   5.460
 4232SOL     OW13594   2.151   4.848   2.579
 4232SOL    HW113595   2.105   4.765   2.612
 4232SOL    HW213596   2.226   4.872   2.640
 4233SOL     OW13597   6.576   6.356   0.106
 4233SOL    HW113598   6.638   6.324   0.177
 4233SOL    HW213599   6.510   6.284   0.084
 4234SOL     OW13600   2.673   4.712   6.055
 4234SOL    HW113601   2.707   4.773   5.983
 4234SOL    HW213602   2.734   4.717   6.134
 4235SOL     OW13603   6.295   3.600   5.855
 4235SOL    HW113604   6.231   3.602   5.932
 4235SOL    HW213605   6.299   3.690   5.812
 4236SOL     OW13606   1.398   2.789   4.438
 4236SOL    HW113607   1.483   2.777   4.387
 4236SOL    HW213608   1.371   2.885   4.437
 4237SOL     OW13609   5.172   3.239   4.846
 4237SOL    HW113610   5.143   3.186   4.766
 4237SOL    HW213611   5.097   3.297   4.877
 4238SOL     OW13612   4.146   5.872   4.429
 4238SOL    HW113613   4.225   5.922   4.397
 4238SOL    HW213614   4.069   5.886   4.367
 4239SOL     OW13615   4.945   5.989   6.111
 4239SOL    HW113616   4.959   6.001   6.209
 4239SOL    HW213617   4.967   6.074   6.063
 4240SOL     OW13618   2.350   4.737   6.679
 4240SOL    HW113619   2.285   4.664   6.657
 4240SOL    HW213620   2.400   4.763   6.597
 4241SOL     OW13621   4.232   0.699   0.341
 4241SOL    HW113622   4.259   0.755   0.420
 4241SOL    HW213623   4.133   0.683   0.345
 4242SOL     OW13624   2.060   0.419   2.700
 4242SOL    HW113625   2.008   0.441   2.782
 4242SOL    HW213626   2.106   0.331   2.713
 4243SOL     OW13627   1.169   3.165   2.377
 4243SOL    HW113628   1.100   3.225   2.336
 4243SOL    HW213629   1.243   3.151   2.311
 4244SOL     OW13630   4.619   6.773   1.280
 4244SOL    HW113631   4.617   6.742   1.375
 4244SOL    HW213632   4.599   6.696   1.220
 4245SOL     OW13633   6.575   3.411   0.874
 4245SOL    HW113634   6.554   3.339   0.808
 4245SOL    HW213635   6.610   3.491   0.826
 4246SOL     OW13636   5.349   2.095   2.990
 4246SOL    HW113637   5.319   2.191   2.997
 4246SOL    HW213638   5.337   2.050   3.078
 4247SOL     OW13639   1.840   5.032   5.494
 4247SOL    HW113640   1.855   5.024   5.396
 4247SOL    HW213641   1.748   5.065   5.511
 4248SOL     OW13642   1.965   0.888   3.261
 4248SOL    HW113643   1.931   0.982   3.257
 4248SOL    HW213644   1.888   0.825   3.258
 4249SOL     OW13645   6.548   0.016   5.030
 4249SOL    HW113646   6.517   6.970   5.100
 4249SOL    HW213647   6.482   0.090   5.021
 4250SOL     OW13648   0.162   5.304   4.019
 4250SOL    HW113649   0.159   5.335   3.924
 4250SOL    HW213650   0.235   5.236   4.031
 4251SOL     OW13651   6.263   1.709   5.592
 4251SOL    HW113652   6.198   1.753   5.530
 4251SOL    HW213653   6.245   1.611   5.594
 4252SOL     OW13654   6.688   6.987   0.030
 4252SOL    HW113655   6.759   6.980   0.100
 4252SOL    HW213656   6.652   0.061   0.028
 4253SOL     OW13657   4.445   5.613   2.601
 4253SOL    HW113658   4.478   5.707   2.592
 4253SOL    HW213659   4.351   5.614   2.634
 4254SOL     OW13660   1.851   2.888   7.005
 4254SOL    HW113661   1.914   2.903   6.929
 4254SOL    HW213662   1.845   2.971   0.041
 4255SOL     OW13663   1.115   3.912   2.698
 4255SOL    HW113664   1.110   3.913   2.598
 4255SOL    HW213665   1.210   3.906   2.727
 4256SOL     OW13666   0.492   5.228   1.698
 4256SOL    HW113667   0.517   5.291   1.624
 4256SOL    HW213668   0.566   5.164   1.714
 4257SOL     OW13669   5.912   0.849   5.051
 4257SOL    HW113670   5.920   0.902   5.136
 4257SOL    HW213671   5.882   0.756   5.073
 4258SOL     OW13672   3.942   5.736   0.009
 4258SOL    HW113673   3.871   5.755   6.961
 4258SOL    HW213674   4.023   5.791   7.007
 4259SOL     OW13675   1.149   0.119   2.142
 4259SOL    HW113676   1.082   0.052   2.111
 4259SOL    HW213677   1.205   0.078   2.215
 4260SOL     OW13678   5.224   0.643   4.361
 4260SOL    HW113679   5.145   0.698   4.386
 4260SOL    HW213680   5.215   0.614   4.265
 4261SOL     OW13681   1.875   0.001   3.849
 4261SOL    HW113682   1.919   0.058   3.780
 4261SOL    HW213683   1.919   6.930   3.850
 4262SOL     OW13684   1.464   4.138   6.831
 4262SOL    HW113685   1.476   4.042   6.857
 4262SOL    HW213686   1.366   4.161   6.832
 4263SOL     OW13687   2.637   2.474   3.828
 4263SOL    HW113688   2.630   2.525   3.742
 4263SOL    HW213689   2.557   2.493   3.885
 4264SOL     OW13690   4.966   0.889   4.694
 4264SOL    HW113691   4.892   0.945   4.656
 4264SOL    HW213692   4.929   0.828   4.764
 4265SOL     OW13693   4.031   1.033   0.345
 4265SOL    HW113694   3.974   1.074   0.416
 4265SOL    HW213695   3.972   0.997   0.273
 4266SOL     OW13696   1.492   6.498   1.029
 4266SOL    HW113697   1.582   6.492   0.985
 4266SOL    HW213698   1.467   6.594   1.039
 4267SOL     OW13699   1.491   4.313   4.923
 4267SOL    HW113700   1.508   4.347   4.830
 4267SOL    HW213701   1.513   4.216   4.928
 4268SOL     OW13702   1.287   4.374   6.325
 4268SOL    HW113703   1.345   4.439   6.374
 4268SOL    HW213704   1.336   4.287   6.315
 4269SOL     OW13705   2.923   1.234   4.556
 4269SOL    HW113706   2.935   1.308   4.490
 4269SOL    HW213707   2.826   1.228   4.581
 4270SOL     OW13708   4.179   2.650   0.497
 4270SOL    HW113709   4.143   2.566   0.537
 4270SOL    HW213710   4.203   2.634   0.402
 4271SOL     OW13711   6.863   0.446   1.238
 4271SOL    HW113712   6.961   0.422   1.238
 4271SOL    HW213713   6.851   0.536   1.279
 4272SOL     OW13714   6.908   1.348   6.436
 4272SOL    HW113715   6.936   1.317   6.527
 4272SOL    HW213716   6.890   1.269   6.378
 4273SOL     OW13717   3.692   5.295   4.672
 4273SOL    HW113718   3.747   5.263   4.595
 4273SOL    HW213719   3.749   5.299   4.754
 4274SOL     OW13720   6.874   1.339   2.018
 4274SOL    HW113721   6.961   1.329   2.066
 4274SOL    HW213722   6.864   1.265   1.952
 4275SOL     OW13723   0.104   2.676   3.428
 4275SOL    HW113724   0.143   2.758   3.386
 4275SOL    HW213725   0.005   2.686   3.435
 4276SOL     OW13726   2.154   5.743   4.353
 4276SOL    HW113727   2.191   5.809   4.289
 4276SOL    HW213728   2.178   5.650   4.323
 4277SOL     OW13729   6.159   5.282   3.064
 4277SOL    HW113730   6.139   5.349   2.993
 4277SOL    HW213731   6.236   5.315   3.119
 4278SOL     OW13732   1.250   6.494   1.689
 4278SOL    HW113733   1.324   6.561   1.695
 4278SOL    HW213734   1.165   6.536   1.720
 4279SOL     OW13735   1.930   1.740   3.356
 4279SOL    HW113736   2.023   1.775   3.353
 4279SOL    HW213737   1.894   1.751   3.449
 4280SOL     OW13738   0.660   6.591   6.204
 4280SOL    HW113739   0.608   6.642   6.135
 4280SOL    HW213740   0.644   6.493   6.193
 4281SOL     OW13741   4.488   5.679   3.665
 4281SOL    HW113742   4.550   5.605   3.692
 4281SOL    HW213743   4.490   5.751   3.734
 4282SOL     OW13744   3.649   4.030   1.113
 4282SOL    HW113745   3.599   3.947   1.088
 4282SOL    HW213746   3.604   4.074   1.191
 4283SOL     OW13747   5.051   1.549   3.981
 4283SOL    HW113748   5.041   1.507   4.071
 4283SOL    HW213749   5.120   1.500   3.928
 4284SOL     OW13750   4.605   5.873   6.052
 4284SOL    HW113751   4.611   5.965   6.013
 4284SOL    HW213752   4.664   5.867   6.133
 4285SOL     OW13753   3.026   0.502   5.703
 4285SOL    HW113754   2.956   0.473   5.638
 4285SOL    HW213755   2.983   0.525   5.791
 4286SOL     OW13756   5.484   0.886   6.441
 4286SOL    HW113757   5.584   0.890   6.451
 4286SOL    HW213758   5.455   0.953   6.374
 4287SOL     OW13759   4.696   0.544   0.209
 4287SOL    HW113760   4.745   0.474   0.262
 4287SOL    HW213761   4.701   0.522   0.112
 4288SOL     OW13762   6.922   6.873   2.545
 4288SOL    HW113763   6.856   6.944   2.521
 4288SOL    HW213764   6.969   6.897   2.630
 4289SOL     OW13765   0.662   3.378   4.759
 4289SOL    HW113766   0.578   3.339   4.720
 4289SOL    HW213767   0.685   3.462   4.710
 4290SOL     OW13768   0.246   0.940   3.632
 4290SOL    HW113769   0.253   0.974   3.726
 4290SOL    HW213770   0.178   0.866   3.629
 4291SOL     OW13771   5.167   3.012   6.477
 4291SOL    HW113772   5.257   2.978   6.451
 4291SOL    HW213773   5.107   3.011   6.397
 4292SOL     OW13774   5.901   2.185   0.853
 4292SOL    HW113775   5.941   2.130   0.925
 4292SOL    HW213776   5.875   2.274   0.889
 4293SOL     OW13777   3.469   4.420   0.115
 4293SOL    HW113778   3.449   4.414   0.017
 4293SOL    HW213779   3.560   4.383   0.133
 4294SOL     OW13780   2.301   1.758   6.473
 4294SOL    HW113781   2.349   1.750   6.560
 4294SOL    HW213782   2.217   1.811   6.486
 4295SOL     OW13783   3.752   5.875   2.958
 4295SOL    HW113784   3.825   5.830   2.907
 4295SOL    HW213785   3.691   5.923   2.895
 4296SOL     OW13786   2.762   6.167   1.955
 4296SOL    HW113787   2.816   6.246   1.926
 4296SOL    HW213788   2.700   6.194   2.028
 4297SOL     OW13789   6.046   4.865   0.826
 4297SOL    HW113790   6.120   4.812   0.867
 4297SOL    HW213791   6.081   4.953   0.795
 4298SOL     OW13792   2.821   6.669   0.016
 4298SOL    HW113793   2.730   6.650   6.998
 4298SOL    HW213794   2.891   6.639   6.970
 4299SOL     OW13795   0.916   2.794   0.119
 4299SOL    HW113796   0.842   2.860   0.104
 4299SOL    HW213797   0.987   2.807   0.049
 4300SOL     OW13798   2.939   1.436   0.893
 4300SOL    HW113799   2.905   1.487   0.972
 4300SOL    HW213800   3.016   1.486   0.851
 4301SOL     OW13801   3.002   6.733   1.404
 4301SOL    HW113802   2.932   6.744   1.476
 4301SOL    HW213803   3.083   6.690   1.444
 4302SOL     OW13804   1.955   5.355   6.074
 4302SOL    HW113805   1.873   5.308   6.040
 4302SOL    HW213806   1.934   5.451   6.090
 4303SOL     OW13807   6.085   4.417   3.107
 4303SOL    HW113808   6.057   4.504   3.065
 4303SOL    HW213809   6.174   4.429   3.152
 4304SOL     OW13810   3.462   3.739   1.558
 4304SOL    HW113811   3.472   3.831   1.595
 4304SOL    HW213812   3.433   3.677   1.630
 4305SOL     OW13813   1.566   0.479   5.208
 4305SOL    HW113814   1.563   0.379   5.202
 4305SOL    HW213815   1.570   0.507   5.304
 4306SOL     OW13816   5.386   3.175   5.001
 4306SOL    HW113817   5.365   3.107   5.072
 4306SOL    HW213818   5.301   3.211   4.963
 4307SOL     OW13819   6.975   1.490   5.506
 4307SOL    HW113820   6.967   1.408   5.563
 4307SOL    HW213821   0.052   1.507   5.486
 4308SOL     OW13822   4.909   5.423   6.919
 4308SOL    HW113823   4.960   5.507   6.902
 4308SOL    HW213824   4.971   5.349   6.943
 4309SOL     OW13825   1.089   3.057   0.775
 4309SOL    HW113826   1.047   2.999   0.844
 4309SOL    HW213827   1.165   3.007   0.732
 4310SOL     OW13828   6.865   1.486   2.904
 4310SOL    HW113829   6.830   1.579   2.892
 4310SOL    HW213830   6.795   1.421   2.876
 4311SOL     OW13831   0.821   0.637   2.709
 4311SOL    HW113832   0.867   0.579   2.642
 4311SOL    HW213833   0.800   0.584   2.792
 4312SOL     OW13834   0.678   4.976   2.614
 4312SOL    HW113835   0.692   4.885   2.575
 4312SOL    HW213836   0.745   4.992   2.686
 4313SOL     OW13837   6.023   1.893   0.045
 4313SOL    HW113838   6.066   1.949   0.116
 4313SOL    HW213839   5.951   1.837   0.085
 4314SOL     OW13840   6.593   2.066   5.280
 4314SOL    HW113841   6.684   2.093   5.312
 4314SOL    HW213842   6.523   2.103   5.341
 4315SOL     OW13843   2.994   1.451   4.318
 4315SOL    HW113844   2.990   1.541   4.276
 4315SOL    HW213845   3.074   1.402   4.283
 4316SOL     OW13846   5.327   6.891   1.657
 4316SOL    HW113847   5.266   6.841   1.595
 4316SOL    HW213848   5.282   6.974   1.689
 4317SOL     OW13849   4.480   1.070   6.069
 4317SOL    HW113850   4.445   0.993   6.016
 4317SOL    HW213851   4.561   1.108   6.024
 4318SOL     OW13852   0.498   1.269   4.335
 4318SOL    HW113853   0.523   1.191   4.278
 4318SOL    HW213854   0.547   1.265   4.422
 4319SOL     OW13855   1.435   4.763   2.697
 4319SOL    HW113856   1.343   4.737   2.667
 4319SOL    HW213857   1.447   4.862   2.689
 4320SOL     OW13858   3.364   6.164   0.548
 4320SOL    HW113859   3.315   6.250   0.561
 4320SOL    HW213860   3.306   6.088   0.578
 4321SOL     OW13861   6.443   6.802   2.551
 4321SOL    HW113862   6.443   6.708   2.583
 4321SOL    HW213863   6.537   6.837   2.549
 4322SOL     OW13864   0.767   3.032   5.499
 4322SOL    HW113865   0.694   2.977   5.540
 4322SOL    HW213866   0.851   3.020   5.553
 4323SOL     OW13867   4.025   5.191   6.502
 4323SOL    HW113868   4.087   5.187   6.424
 4323SOL    HW213869   4.067   5.244   6.575
 4324SOL     OW13870   6.623   4.198   5.950
 4324SOL    HW113871   6.640   4.100   5.940
 4324SOL    HW213872   6.626   4.223   6.047
 4325SOL     OW13873   2.465   0.630   2.133
 4325SOL    HW113874   2.555   0.650   2.171
 4325SOL    HW213875   2.455   0.676   2.045
 4326SOL     OW13876   4.703   2.771   2.622
 4326SOL    HW113877   4.629   2.829   2.654
 4326SOL    HW213878   4.666   2.683   2.592
 4327SOL     OW13879   2.937   5.486   4.226
 4327SOL    HW113880   2.915   5.389   4.215
 4327SOL    HW213881   2.891   5.539   4.154
 4328SOL     OW13882   5.635   6.592   4.621
 4328SOL    HW113883   5.587   6.593   4.708
 4328SOL    HW213884   5.634   6.684   4.580
 4329SOL     OW13885   6.814   1.975   5.995
 4329SOL    HW113886   6.820   1.967   6.095
 4329SOL    HW213887   6.780   2.065   5.971
 4330SOL     OW13888   2.918   4.897   4.926
 4330SOL    HW113889   2.964   4.931   5.008
 4330SOL    HW213890   2.908   4.797   4.933
 4331SOL     OW13891   5.932   0.891   2.061
 4331SOL    HW113892   5.835   0.868   2.055
 4331SOL    HW213893   5.963   0.928   1.973
 4332SOL     OW13894   0.199   5.088   2.659
 4332SOL    HW113895   0.262   5.162   2.637
 4332SOL    HW213896   0.108   5.111   2.626
 4333SOL     OW13897   3.443   2.278   5.414
 4333SOL    HW113898   3.412   2.220   5.489
 4333SOL    HW213899   3.397   2.250   5.330
 4334SOL     OW13900   0.246   2.389   4.363
 4334SOL    HW113901   0.202   2.467   4.319
 4334SOL    HW213902   0.206   2.375   4.453
 4335SOL     OW13903   2.655   3.881   1.633
 4335SOL    HW113904   2.633   3.884   1.536
 4335SOL    HW213905   2.580   3.838   1.683
 4336SOL     OW13906   2.909   4.887   5.576
 4336SOL    HW113907   2.851   4.930   5.507
 4336SOL    HW213908   3.003   4.885   5.544
 4337SOL     OW13909   1.454   5.368   3.868
 4337SOL    HW113910   1.518   5.335   3.799
 4337SOL    HW213911   1.425   5.461   3.845
 4338SOL     OW13912   4.043   0.790   6.030
 4338SOL    HW113913   3.995   0.754   5.950
 4338SOL    HW213914   3.977   0.829   6.094
 4339SOL     OW13915   3.966   3.162   6.131
 4339SOL    HW113916   4.025   3.237   6.100
 4339SOL    HW213917   3.978   3.150   6.230
 4340SOL     OW13918   6.980   3.626   0.960
 4340SOL    HW113919   6.952   3.654   1.052
 4340SOL    HW213920   0.003   3.704   0.914
 4341SOL     OW13921   0.331   6.930   2.764
 4341SOL    HW113922   0.328   6.835   2.793
 4341SOL    HW213923   0.398   6.940   2.691
 4342SOL     OW13924   5.476   4.118   2.592
 4342SOL    HW113925   5.501   4.198   2.647
 4342SOL    HW213926   5.379   4.098   2.604
 4343SOL     OW13927   4.316   0.374   5.958
 4343SOL    HW113928   4.391   0.435   5.930
 4343SOL    HW213929   4.229   0.423   5.951
 4344SOL     OW13930   0.530   3.502   4.006
 4344SOL    HW113931   0.544   3.542   3.915
 4344SOL    HW213932   0.540   3.403   4.000
 4345SOL     OW13933   2.943   3.655   2.251
 4345SOL    HW113934   3.004   3.733   2.237
 4345SOL    HW213935   2.985   3.572   2.215
 4346SOL     OW13936   0.875   3.180   2.075
 4346SOL    HW113937   0.935   3.101   2.062
 4346SOL    HW213938   0.888   3.245   2.000
 4347SOL     OW13939   6.040   5.163   1.112
 4347SOL    HW113940   5.999   5.254   1.106
 4347SOL    HW213941   6.057   5.140   1.208
 4348SOL     OW13942   5.577   5.726   4.154
 4348SOL    HW113943   5.563   5.795   4.082
 4348SOL    HW213944   5.502   5.730   4.219
 4349SOL     OW13945   0.058   3.618   4.852
 4349SOL    HW113946   0.026   3.559   4.927
 4349SOL    HW213947   0.146   3.585   4.819
 4350SOL     OW13948   4.355   1.357   4.642
 4350SOL    HW113949   4.391   1.402   4.561
 4350SOL    HW213950   4.431   1.338   4.705
 4351SOL     OW13951   1.062   6.609   0.277
 4351SOL    HW113952   1.001   6.573   0.347
 4351SOL    HW213953   1.039   6.705   0.259
 4352SOL     OW13954   3.432   3.839   1.035
 4352SOL    HW113955   3.452   3.745   1.064
 4352SOL    HW213956   3.334   3.856   1.042
 4353SOL     OW13957   3.057   3.165   0.840
 4353SOL    HW113958   3.043   3.066   0.833
 4353SOL    HW213959   3.074   3.203   0.749
 4354SOL     OW13960   5.465   6.867   3.500
 4354SOL    HW113961   5.523   6.878   3.419
 4354SOL    HW213962   5.503   6.796   3.559
 4355SOL     OW13963   1.182   6.238   3.585
 4355SOL    HW113964   1.179   6.318   3.525
 4355SOL    HW213965   1.091   6.201   3.597
 4356SOL     OW13966   5.708   2.658   5.793
 4356SOL    HW113967   5.762   2.625   5.870
 4356SOL    HW213968   5.732   2.607   5.711
 4357SOL     OW13969   6.364   0.945   2.400
 4357SOL    HW113970   6.300   0.932   2.475
 4357SOL    HW213971   6.318   0.929   2.313
 4358SOL     OW13972   1.680   6.569   6.694
 4358SOL    HW113973   1.770   6.555   6.736
 4358SOL    HW213974   1.691   6.621   6.610
 4359SOL     OW13975   2.474   1.696   0.200
 4359SOL    HW113976   2.573   1.697   0.187
 4359SOL    HW213977   2.446   1.606   0.234
 4360SOL     OW13978   1.286   3.327   3.689
 4360SOL    HW113979   1.196   3.296   3.720
 4360SOL    HW213980   1.321   3.262   3.621
 4361SOL     OW13981   6.641   1.487   0.639
 4361SOL    HW113982   6.669   1.409   0.695
 4361SOL    HW213983   6.575   1.457   0.570
 4362SOL     OW13984   1.460   5.928   3.910
 4362SOL    HW113985   1.437   5.986   3.831
 4362SOL    HW213986   1.537   5.869   3.886
 4363SOL     OW13987   4.931   1.571   2.150
 4363SOL    HW113988   4.885   1.533   2.230
 4363SOL    HW213989   4.866   1.627   2.098
 4364SOL     OW13990   3.947   3.902   2.757
 4364SOL    HW113991   4.009   3.840   2.805
 4364SOL    HW213992   3.899   3.959   2.823
 4365SOL     OW13993   3.071   2.116   1.558
 4365SOL    HW113994   2.991   2.132   1.501
 4365SOL    HW213995   3.061   2.164   1.645
 4366SOL     OW13996   4.146   6.207   5.015
 4366SOL    HW113997   4.157   6.139   4.943
 4366SOL    HW213998   4.159   6.298   4.977
 4367SOL     OW13999   2.122   5.352   3.654
 4367SOL    HW114000   2.108   5.401   3.741
 4367SOL    HW214001   2.161   5.414   3.587
 4368SOL     OW14002   4.943   4.367   2.663
 4368SOL    HW114003   4.861   4.322   2.629
 4368SOL    HW214004   4.945   4.360   2.763
 4369SOL     OW14005   3.960   4.805   3.286
 4369SOL    HW114006   4.059   4.812   3.299
 4369SOL    HW214007   3.941   4.791   3.189
 4370SOL     OW14008   3.883   4.316   1.694
 4370SOL    HW114009   3.830   4.344   1.615
 4370SOL    HW214010   3.968   4.272   1.664
 4371SOL     OW14011   3.192   1.574   1.170
 4371SOL    HW114012   3.276   1.557   1.117
 4371SOL    HW214013   3.170   1.492   1.223
 4372SOL     OW14014   2.187   3.166   4.556
 4372SOL    HW114015   2.250   3.163   4.633
 4372SOL    HW214016   2.094   3.184   4.589
 4373SOL     OW14017   4.201   1.324   5.677
 4373SOL    HW114018   4.179   1.374   5.593
 4373SOL    HW214019   4.122   1.323   5.737
 4374SOL     OW14020   2.166   1.375   1.619
 4374SOL    HW114021   2.136   1.419   1.535
 4374SOL    HW214022   2.213   1.289   1.596
 4375SOL     OW14023   4.538   1.020   3.409
 4375SOL    HW114024   4.527   1.078   3.490
 4375SOL    HW214025   4.634   1.017   3.383
 4376SOL     OW14026   0.430   6.728   1.294
 4376SOL    HW114027   0.518   6.733   1.342
 4376SOL    HW214028   0.412   6.815   1.248
 4377SOL     OW14029   5.808   6.854   6.453
 4377SOL    HW114030   5.749   6.927   6.487
 4377SOL    HW214031   5.800   6.848   6.354
 4378SOL     OW14032   1.964   5.385   2.761
 4378SOL    HW114033   2.038   5.370   2.695
 4378SOL    HW214034   1.893   5.440   2.718
 4379SOL     OW14035   1.272   0.639   2.033
 4379SOL    HW114036   1.223   0.579   2.096
 4379SOL    HW214037   1.268   0.600   1.941
 4380SOL     OW14038   1.618   5.822   5.485
 4380SOL    HW114039   1.651   5.730   5.464
 4380SOL    HW214040   1.523   5.818   5.517
 4381SOL     OW14041   3.423   6.342   4.800
 4381SOL    HW114042   3.480   6.396   4.739
 4381SOL    HW214043   3.415   6.249   4.765
 4382SOL     OW14044   4.788   3.936   3.876
 4382SOL    HW114045   4.749   4.016   3.921
 4382SOL    HW214046   4.875   3.913   3.918
 4383SOL     OW14047   0.781   3.094   6.142
 4383SOL    HW114048   0.751   3.179   6.100
 4383SOL    HW214049   0.750   3.090   6.237
 4384SOL     OW14050   3.708   5.814   0.559
 4384SOL    HW114051   3.653   5.861   0.628
 4384SOL    HW214052   3.739   5.881   0.491
 4385SOL     OW14053   0.497   2.052   2.424
 4385SOL    HW114054   0.438   2.080   2.349
 4385SOL    HW214055   0.591   2.041   2.391
 4386SOL     OW14056   0.815   3.211   6.850
 4386SOL    HW114057   0.743   3.165   6.798
 4386SOL    HW214058   0.825   3.167   6.939
 4387SOL     OW14059   0.273   3.373   1.990
 4387SOL    HW114060   0.347   3.435   2.016
 4387SOL    HW214061   0.240   3.398   1.899
 4388SOL     OW14062   3.470   1.168   5.780
 4388SOL    HW114063   3.421   1.106   5.840
 4388SOL    HW214064   3.479   1.127   5.689
 4389SOL     OW14065   5.332   2.611   2.896
 4389SOL    HW114066   5.275   2.693   2.903
 4389SOL    HW214067   5.429   2.637   2.900
 4390SOL     OW14068   4.752   2.781   2.133
 4390SOL    HW114069   4.742   2.702   2.073
 4390SOL    HW214070   4.723   2.864   2.083
 4391SOL     OW14071   1.253   5.378   0.455
 4391SOL    HW114072   1.193   5.299   0.449
 4391SOL    HW214073   1.348   5.348   0.463
 4392SOL     OW14074   4.880   3.181   4.247
 4392SOL    HW114075   4.849   3.249   4.180
 4392SOL    HW214076   4.899   3.227   4.334
 4393SOL     OW14077   4.627   6.253   3.151
 4393SOL    HW114078   4.710   6.204   3.123
 4393SOL    HW214079   4.580   6.201   3.222
 4394SOL     OW14080   5.135   0.025   2.748
 4394SOL    HW114081   5.161   0.085   2.824
 4394SOL    HW214082   5.054   0.061   2.702
 4395SOL     OW14083   5.502   1.568   2.025
 4395SOL    HW114084   5.446   1.611   1.954
 4395SOL    HW214085   5.519   1.472   2.001
 4396SOL     OW14086   0.772   0.358   4.200
 4396SOL    HW114087   0.869   0.362   4.178
 4396SOL    HW214088   0.723   0.312   4.126
 4397SOL     OW14089   6.320   0.438   5.592
 4397SOL    HW114090   6.257   0.515   5.582
 4397SOL    HW214091   6.354   0.411   5.502
 4398SOL     OW14092   0.112   4.098   4.574
 4398SOL    HW114093   0.110   4.030   4.648
 4398SOL    HW214094   0.078   4.056   4.490
 4399SOL     OW14095   2.103   1.310   1.144
 4399SOL    HW114096   2.008   1.338   1.132
 4399SOL    HW214097   2.116   1.219   1.104
 4400SOL     OW14098   3.198   6.525   4.614
 4400SOL    HW114099   3.167   6.468   4.538
 4400SOL    HW214100   3.297   6.539   4.607
 4401SOL     OW14101   5.323   5.842   4.208
 4401SOL    HW114102   5.374   5.915   4.164
 4401SOL    HW214103   5.296   5.870   4.301
 4402SOL     OW14104   0.767   6.805   2.893
 4402SOL    HW114105   0.834   6.779   2.823
 4402SOL    HW214106   0.677   6.768   2.868
 4403SOL     OW14107   0.671   0.495   3.638
 4403SOL    HW114108   0.746   0.461   3.695
 4403SOL    HW214109   0.585   0.454   3.669
 4404SOL     OW14110   0.938   4.218   3.667
 4404SOL    HW114111   0.918   4.221   3.765
 4404SOL    HW214112   1.018   4.161   3.650
 4405SOL     OW14113   3.311   3.968   5.523
 4405SOL    HW114114   3.376   3.896   5.549
 4405SOL    HW214115   3.301   4.032   5.599
 4406SOL     OW14116   5.721   4.154   1.287
 4406SOL    HW114117   5.632   4.180   1.324
 4406SOL    HW214118   5.725   4.054   1.279
 4407SOL     OW14119   5.859   0.151   0.050
 4407SOL    HW114120   5.797   0.204   0.108
 4407SOL    HW214121   5.947   0.196   0.043
 4408SOL     OW14122   4.465   6.595   6.450
 4408SOL    HW114123   4.553   6.609   6.405
 4408SOL    HW214124   4.443   6.497   6.449
 4409SOL     OW14125   3.347   0.894   1.544
 4409SOL    HW114126   3.395   0.887   1.632
 4409SOL    HW214127   3.401   0.950   1.481
 4410SOL     OW14128   2.294   5.208   1.659
 4410SOL    HW114129   2.339   5.284   1.706
 4410SOL    HW214130   2.205   5.191   1.700
 4411SOL     OW14131   4.079   3.309   2.817
 4411SOL    HW114132   4.030   3.352   2.741
 4411SOL    HW214133   4.106   3.379   2.883
 4412SOL     OW14134   3.742   1.692   6.521
 4412SOL    HW114135   3.657   1.728   6.483
 4412SOL    HW214136   3.724   1.652   6.611
 4413SOL     OW14137   4.375   6.371   4.586
 4413SOL    HW114138   4.313   6.382   4.664
 4413SOL    HW214139   4.352   6.438   4.515
 4414SOL     OW14140   4.026   4.881   2.001
 4414SOL    HW114141   3.977   4.893   2.087
 4414SOL    HW214142   3.960   4.861   1.928
 4415SOL     OW14143   5.459   2.283   6.843
 4415SOL    HW114144   5.543   2.329   6.815
 4415SOL    HW214145   5.400   2.347   6.892
 4416SOL     OW14146   3.540   0.377   4.083
 4416SOL    HW114147   3.597   0.295   4.086
 4416SOL    HW214148   3.599   0.458   4.083
 4417SOL     OW14149   0.119   6.357   2.690
 4417SOL    HW114150   0.147   6.262   2.703
 4417SOL    HW214151   0.021   6.366   2.708
 4418SOL     OW14152   3.910   0.135   3.786
 4418SOL    HW114153   3.997   0.167   3.748
 4418SOL    HW214154   3.865   0.074   3.719
 4419SOL     OW14155   0.491   5.327   6.526
 4419SOL    HW114156   0.423   5.334   6.600
 4419SOL    HW214157   0.542   5.413   6.520
 4420SOL     OW14158   5.271   1.676   6.343
 4420SOL    HW114159   5.230   1.602   6.290
 4420SOL    HW214160   5.206   1.709   6.411
 4421SOL     OW14161   1.262   1.578   3.671
 4421SOL    HW114162   1.212   1.648   3.722
 4421SOL    HW214163   1.316   1.622   3.599
 4422SOL     OW14164   1.743   4.005   6.081
 4422SOL    HW114165   1.840   3.983   6.095
 4422SOL    HW214166   1.729   4.035   5.987
 4423SOL     OW14167   1.552   1.844   6.408
 4423SOL    HW114168   1.520   1.936   6.386
 4423SOL    HW214169   1.485   1.777   6.374
 4424SOL     OW14170   6.688   0.412   2.898
 4424SOL    HW114171   6.710   0.422   2.801
 4424SOL    HW214172   6.685   0.503   2.940
 4425SOL     OW14173   4.505   4.694   6.383
 4425SOL    HW114174   4.480   4.747   6.302
 4425SOL    HW214175   4.574   4.625   6.358
 4426SOL     OW14176   0.758   0.449   5.671
 4426SOL    HW114177   0.760   0.353   5.697
 4426SOL    HW214178   0.667   0.486   5.689
 4427SOL     OW14179   1.086   0.191   3.343
 4427SOL    HW114180   1.042   0.103   3.360
 4427SOL    HW214181   1.129   0.224   3.427
 4428SOL     OW14182   2.529   5.163   3.578
 4428SOL    HW114183   2.457   5.134   3.516
 4428SOL    HW214184   2.572   5.247   3.544
 4429SOL     OW14185   3.760   6.878   3.198
 4429SOL    HW114186   3.799   6.793   3.233
 4429SOL    HW214187   3.684   6.907   3.256
 4430SOL     OW14188   2.227   0.668   2.248
 4430SOL    HW114189   2.222   0.724   2.331
 4430SOL    HW214190   2.322   0.665   2.217
 4431SOL     OW14191   2.178   2.356   3.073
 4431SOL    HW114192   2.177   2.432   3.138
 4431SOL    HW214193   2.273   2.333   3.050
 4432SOL     OW14194   2.962   3.747   3.395
 4432SOL    HW114195   2.985   3.833   3.442
 4432SOL    HW214196   2.988   3.754   3.299
 4433SOL     OW14197   6.394   0.047   2.530
 4433SOL    HW114198   6.411   6.968   2.541
 4433SOL    HW214199   6.304   0.060   2.487
 4434SOL     OW14200   6.141   2.544   4.165
 4434SOL    HW114201   6.127   2.643   4.175
 4434SOL    HW214202   6.238   2.522   4.174
 4435SOL     OW14203   3.428   3.252   1.647
 4435SOL    HW114204   3.500   3.315   1.619
 4435SOL    HW214205   3.464   3.186   1.713
 4436SOL     OW14206   5.162   1.858   6.590
 4436SOL    HW114207   5.146   1.765   6.624
 4436SOL    HW214208   5.213   1.910   6.659
 4437SOL     OW14209   3.514   0.818   4.579
 4437SOL    HW114210   3.470   0.777   4.499
 4437SOL    HW214211   3.577   0.752   4.621
 4438SOL     OW14212   4.429   2.892   0.217
 4438SOL    HW114213   4.331   2.901   0.198
 4438SOL    HW214214   4.458   2.964   0.280
 4439SOL     OW14215   2.096   5.979   2.181
 4439SOL    HW114216   2.141   5.992   2.093
 4439SOL    HW214217   2.068   5.884   2.191
 4440SOL     OW14218   0.863   6.756   6.582
 4440SOL    HW114219   0.880   6.854   6.597
 4440SOL    HW214220   0.765   6.737   6.595
 4441SOL     OW14221   5.785   2.819   3.306
 4441SOL    HW114222   5.717   2.876   3.259
 4441SOL    HW214223   5.869   2.872   3.320
 4442SOL     OW14224   3.277   6.327   3.510
 4442SOL    HW114225   3.368   6.367   3.517
 4442SOL    HW214226   3.281   6.244   3.454
 4443SOL     OW14227   2.542   1.867   5.787
 4443SOL    HW114228   2.527   1.939   5.719
 4443SOL    HW214229   2.553   1.779   5.740
 4444SOL     OW14230   5.692   0.804   0.962
 4444SOL    HW114231   5.682   0.822   0.864
 4444SOL    HW214232   5.602   0.792   1.003
 4445SOL     OW14233   0.898   0.937   6.331
 4445SOL    HW114234   0.809   0.908   6.297
 4445SOL    HW214235   0.929   1.017   6.279
 4446SOL     OW14236   6.593   0.430   2.632
 4446SOL    HW114237   6.601   0.517   2.584
 4446SOL    HW214238   6.497   0.400   2.630
 4447SOL     OW14239   5.766   2.514   5.558
 4447SOL    HW114240   5.805   2.448   5.494
 4447SOL    HW214241   5.791   2.607   5.528
 4448SOL     OW14242   2.317   3.724   6.810
 4448SOL    HW114243   2.361   3.806   6.848
 4448SOL    HW214244   2.361   3.642   6.845
 4449SOL     OW14245   1.228   1.620   5.000
 4449SOL    HW114246   1.147   1.636   5.058
 4449SOL    HW214247   1.202   1.560   4.924
 4450SOL     OW14248   4.016   3.585   3.375
 4450SOL    HW114249   3.967   3.641   3.308
 4450SOL    HW214250   4.064   3.511   3.328
 4451SOL     OW14251   6.485   4.658   2.123
 4451SOL    HW114252   6.579   4.657   2.089
 4451SOL    HW214253   6.459   4.566   2.151
 4452SOL     OW14254   6.426   6.370   6.215
 4452SOL    HW114255   6.327   6.358   6.209
 4452SOL    HW214256   6.468   6.286   6.248
 4453SOL     OW14257   5.763   2.693   1.275
 4453SOL    HW114258   5.817   2.663   1.353
 4453SOL    HW214259   5.743   2.614   1.216
 4454SOL     OW14260   5.531   3.420   1.468
 4454SOL    HW114261   5.577   3.358   1.404
 4454SOL    HW214262   5.438   3.438   1.437
 4455SOL     OW14263   3.768   1.426   2.404
 4455SOL    HW114264   3.717   1.499   2.359
 4455SOL    HW214265   3.802   1.361   2.336
 4456SOL     OW14266   1.274   5.312   3.338
 4456SOL    HW114267   1.301   5.284   3.246
 4456SOL    HW214268   1.242   5.233   3.390
 4457SOL     OW14269   5.372   2.227   6.074
 4457SOL    HW114270   5.321   2.275   6.002
 4457SOL    HW214271   5.457   2.191   6.036
 4458SOL     OW14272   3.886   2.309   5.813
 4458SOL    HW114273   3.790   2.286   5.796
 4458SOL    HW214274   3.908   2.396   5.770
 4459SOL     OW14275   4.926   6.369   4.593
 4459SOL    HW114276   4.941   6.404   4.686
 4459SOL    HW214277   4.904   6.271   4.597
 4460SOL     OW14278   2.710   1.795   6.377
 4460SOL    HW114279   2.619   1.785   6.338
 4460SOL    HW214280   2.742   1.889   6.365
 4461SOL     OW14281   2.123   0.330   2.328
 4461SOL    HW114282   2.043   0.390   2.328
 4461SOL    HW214283   2.202   0.379   2.292
 4462SOL     OW14284   6.925   5.272   1.286
 4462SOL    HW114285   7.011   5.312   1.257
 4462SOL    HW214286   6.940   5.214   1.366
 4463SOL     OW14287   1.352   3.672   6.007
 4463SOL    HW114288   1.433   3.697   5.955
 4463SOL    HW214289   1.379   3.612   6.082
 4464SOL     OW14290   5.491   3.351   6.885
 4464SOL    HW114291   5.398   3.314   6.882
 4464SOL    HW214292   5.487   3.446   6.914
 4465SOL     OW14293   1.240   6.419   2.180
 4465SOL    HW114294   1.189   6.439   2.263
 4465SOL    HW214295   1.248   6.319   2.169
 4466SOL     OW14296   0.849   1.726   3.026
 4466SOL    HW114297   0.756   1.752   3.054
 4466SOL    HW214298   0.907   1.719   3.107
 4467SOL     OW14299   1.151   6.596   3.646
 4467SOL    HW114300   1.183   6.614   3.739
 4467SOL    HW214301   1.102   6.676   3.611
 4468SOL     OW14302   1.251   2.772   0.241
 4468SOL    HW114303   1.295   2.811   0.322
 4468SOL    HW214304   1.210   2.846   0.187
 4469SOL     OW14305   4.159   0.179   0.795
 4469SOL    HW114306   4.168   0.167   0.893
 4469SOL    HW214307   4.225   0.122   0.747
 4470SOL     OW14308   5.158   4.008   0.975
 4470SOL    HW114309   5.061   3.989   0.992
 4470SOL    HW214310   5.205   4.021   1.062
 4471SOL     OW14311   6.686   3.214   1.317
 4471SOL    HW114312   6.780   3.183   1.331
 4471SOL    HW214313   6.685   3.287   1.248
 4472SOL     OW14314   1.828   4.077   2.311
 4472SOL    HW114315   1.795   3.984   2.295
 4472SOL    HW214316   1.751   4.136   2.337
 4473SOL     OW14317   6.660   6.726   4.367
 4473SOL    HW114318   6.720   6.649   4.390
 4473SOL    HW214319   6.712   6.797   4.320
 4474SOL     OW14320   4.452   0.189   2.873
 4474SOL    HW114321   4.548   0.186   2.845
 4474SOL    HW214322   4.440   0.259   2.943
 4475SOL     OW14323   1.847   3.873   0.358
 4475SOL    HW114324   1.922   3.928   0.395
 4475SOL    HW214325   1.884   3.795   0.308
 4476SOL     OW14326   5.035   6.256   2.176
 4476SOL    HW114327   4.936   6.255   2.169
 4476SOL    HW214328   5.075   6.285   2.089
 4477SOL     OW14329   1.441   1.409   0.707
 4477SOL    HW114330   1.510   1.404   0.635
 4477SOL    HW214331   1.462   1.484   0.769
 4478SOL     OW14332   2.106   6.574   1.892
 4478SOL    HW114333   2.090   6.609   1.800
 4478SOL    HW214334   2.199   6.597   1.921
 4479SOL     OW14335   1.170   7.003   5.428
 4479SOL    HW114336   1.081   0.027   5.442
 4479SOL    HW214337   1.219   0.033   5.356
 4480SOL     OW14338   0.773   4.864   4.148
 4480SOL    HW114339   0.709   4.929   4.188
 4480SOL    HW214340   0.735   4.772   4.152
 4481SOL     OW14341   1.111   6.376   4.391
 4481SOL    HW114342   1.100   6.440   4.466
 4481SOL    HW214343   1.148   6.289   4.425
 4482SOL     OW14344   0.160   4.624   4.095
 4482SOL    HW114345   0.128   4.588   4.007
 4482SOL    HW214346   0.167   4.549   4.161
 4483SOL     OW14347   5.402   3.080   2.064
 4483SOL    HW114348   5.497   3.103   2.083
 4483SOL    HW214349   5.368   3.138   1.990
 4484SOL     OW14350   4.185   2.675   5.667
 4484SOL    HW114351   4.255   2.605   5.651
 4484SOL    HW214352   4.185   2.739   5.590
 4485SOL     OW14353   5.493   1.719   6.522
 4485SOL    HW114354   5.581   1.726   6.476
 4485SOL    HW214355   5.419   1.741   6.458
 4486SOL     OW14356   6.259   3.116   4.649
 4486SOL    HW114357   6.265   3.215   4.663
 4486SOL    HW214358   6.349   3.080   4.628
 4487SOL     OW14359   3.163   3.022   6.138
 4487SOL    HW114360   3.114   3.103   6.170
 4487SOL    HW214361   3.262   3.038   6.142
 4488SOL     OW14362   6.756   1.506   4.410
 4488SOL    HW114363   6.771   1.604   4.398
 4488SOL    HW214364   6.844   1.458   4.412
 4489SOL     OW14365   6.023   6.777   4.289
 4489SOL    HW114366   5.968   6.779   4.206
 4489SOL    HW214367   6.009   6.690   4.336
 4490SOL     OW14368   6.562   1.878   2.800
 4490SOL    HW114369   6.646   1.841   2.839
 4490SOL    HW214370   6.576   1.898   2.703
 4491SOL     OW14371   1.006   3.597   2.488
 4491SOL    HW114372   1.099   3.584   2.524
 4491SOL    HW214373   0.943   3.613   2.564
 4492SOL     OW14374   4.722   3.123   0.274
 4492SOL    HW114375   4.755   3.212   0.305
 4492SOL    HW214376   4.656   3.087   0.341
 4493SOL     OW14377   5.727   5.379   4.490
 4493SOL    HW114378   5.772   5.295   4.460
 4493SOL    HW214379   5.630   5.376   4.463
 4494SOL     OW14380   6.099   4.176   5.028
 4494SOL    HW114381   6.081   4.251   4.965
 4494SOL    HW214382   6.198   4.160   5.033
 4495SOL     OW14383   4.653   6.045   1.829
 4495SOL    HW114384   4.687   5.958   1.794
 4495SOL    HW214385   4.617   6.099   1.753
 4496SOL     OW14386   4.726   3.853   5.459
 4496SOL    HW114387   4.761   3.759   5.462
 4496SOL    HW214388   4.659   3.866   5.532
 4497SOL     OW14389   6.407   5.094   0.311
 4497SOL    HW114390   6.424   5.002   0.347
 4497SOL    HW214391   6.398   5.158   0.386
 4498SOL     OW14392   6.768   3.331   0.239
 4498SOL    HW114393   6.847   3.371   0.193
 4498SOL    HW214394   6.797   3.282   0.320
 4499SOL     OW14395   6.969   2.782   6.004
 4499SOL    HW114396   6.933   2.840   6.078
 4499SOL    HW214397   0.008   2.836   5.944
 4500SOL     OW14398   3.085   3.695   4.537
 4500SOL    HW114399   3.057   3.717   4.630
 4500SOL    HW214400   3.163   3.632   4.538
 4501SOL     OW14401   6.620   4.602   5.493
 4501SOL    HW114402   6.682   4.556   5.557
 4501SOL    HW214403   6.596   4.539   5.419
 4502SOL     OW14404   0.393   2.523   6.898
 4502SOL    HW114405   0.469   2.579   6.863
 4502SOL    HW214406   0.329   2.504   6.824
 4503SOL     OW14407   0.899   1.695   3.882
 4503SOL    HW114408   0.867   1.766   3.819
 4503SOL    HW214409   0.821   1.640   3.912
 4504SOL     OW14410   5.273   2.273   4.115
 4504SOL    HW114411   5.323   2.326   4.046
 4504SOL    HW214412   5.274   2.322   4.202
 4505SOL     OW14413   1.703   6.383   5.420
 4505SOL    HW114414   1.708   6.480   5.443
 4505SOL    HW214415   1.613   6.362   5.383
 4506SOL     OW14416   4.019   0.393   5.062
 4506SOL    HW114417   4.004   0.444   5.146
 4506SOL    HW214418   3.947   0.325   5.051
 4507SOL     OW14419   5.888   4.673   0.692
 4507SOL    HW114420   5.926   4.755   0.734
 4507SOL    HW214421   5.812   4.639   0.747
 4508SOL     OW14422   1.046   3.826   6.986
 4508SOL    HW114423   1.022   3.750   0.027
 4508SOL    HW214424   1.065   3.908   0.021
 4509SOL     OW14425   2.942   1.739   4.132
 4509SOL    HW114426   2.930   1.741   4.232
 4509SOL    HW214427   2.852   1.737   4.088
 4510SOL     OW14428   4.619   6.775   5.283
 4510SOL    HW114429   4.648   6.716   5.358
 4510SOL    HW214430   4.520   6.767   5.270
 4511SOL     OW14431   6.541   2.616   0.812
 4511SOL    HW114432   6.452   2.654   0.788
 4511SOL    HW214433   6.539   2.517   0.801
 4512SOL     OW14434   3.022   5.862   0.153
 4512SOL    HW114435   3.070   5.873   0.066
 4512SOL    HW214436   2.969   5.945   0.172
 4513SOL     OW14437   4.966   0.736   1.753
 4513SOL    HW114438   4.882   0.766   1.798
 4513SOL    HW214439   5.031   0.812   1.752
 4514SOL     OW14440   2.578   1.465   5.302
 4514SOL    HW114441   2.596   1.480   5.205
 4514SOL    HW214442   2.529   1.378   5.314
 4515SOL     OW14443   0.251   5.053   1.064
 4515SOL    HW114444   0.289   5.031   0.974
 4515SOL    HW214445   0.253   5.152   1.078
 4516SOL     OW14446   0.956   1.031   4.922
 4516SOL    HW114447   0.889   0.962   4.948
 4516SOL    HW214448   1.015   0.994   4.849
 4517SOL     OW14449   3.429   6.634   5.662
 4517SOL    HW114450   3.516   6.640   5.614
 4517SOL    HW214451   3.435   6.564   5.734
 4518SOL     OW14452   1.077   2.262   3.931
 4518SOL    HW114453   1.120   2.286   4.018
 4518SOL    HW214454   1.001   2.199   3.947
 4519SOL     OW14455   0.030   3.104   3.835
 4519SOL    HW114456   0.107   3.162   3.810
 4519SOL    HW214457   6.983   3.158   3.889
 4520SOL     OW14458   0.032   4.422   3.266
 4520SOL    HW114459   0.110   4.471   3.305
 4520SOL    HW214460   0.053   4.396   3.171
 4521SOL     OW14461   5.264   2.489   6.919
 4521SOL    HW114462   5.169   2.501   6.890
 4521SOL    HW214463   5.319   2.568   6.890
 4522SOL     OW14464   5.965   0.115   4.146
 4522SOL    HW114465   6.042   0.149   4.200
 4522SOL    HW214466   5.883   0.112   4.204
 4523SOL     OW14467   3.297   3.960   6.635
 4523SOL    HW114468   3.199   3.970   6.652
 4523SOL    HW214469   3.314   3.870   6.595
 4524SOL     OW14470   5.275   0.292   4.736
 4524SOL    HW114471   5.288   0.367   4.671
 4524SOL    HW214472   5.179   0.264   4.736
 4525SOL     OW14473   6.380   1.712   4.962
 4525SOL    HW114474   6.379   1.612   4.971
 4525SOL    HW214475   6.443   1.738   4.890
 4526SOL     OW14476   4.885   6.678   0.896
 4526SOL    HW114477   4.913   6.719   0.809
 4526SOL    HW214478   4.952   6.700   0.966
 4527SOL     OW14479   4.886   0.709   2.305
 4527SOL    HW114480   4.882   0.808   2.320
 4527SOL    HW214481   4.975   0.685   2.267
 4528SOL     OW14482   5.899   0.151   0.764
 4528SOL    HW114483   5.883   0.090   0.687
 4528SOL    HW214484   5.823   0.144   0.829
 4529SOL     OW14485   3.489   6.709   3.138
 4529SOL    HW114486   3.398   6.669   3.141
 4529SOL    HW214487   3.482   6.809   3.141
 4530SOL     OW14488   0.474   3.091   5.929
 4530SOL    HW114489   0.409   3.126   5.997
 4530SOL    HW214490   0.456   2.995   5.911
 4531SOL     OW14491   0.177   3.204   4.266
 4531SOL    HW114492   0.216   3.145   4.337
 4531SOL    HW214493   0.115   3.151   4.208
 4532SOL     OW14494   6.358   1.171   0.750
 4532SOL    HW114495   6.434   1.119   0.787
 4532SOL    HW214496   6.280   1.164   0.812
 4533SOL     OW14497   2.021   5.501   3.008
 4533SOL    HW114498   2.038   5.592   2.972
 4533SOL    HW214499   1.989   5.441   2.935
 4534SOL     OW14500   5.889   3.548   4.815
 4534SOL    HW114501   5.862   3.581   4.725
 4534SOL    HW214502   5.984   3.515   4.811
 4535SOL     OW14503   4.932   3.176   2.075
 4535SOL    HW114504   4.899   3.165   2.169
 4535SOL    HW214505   4.866   3.136   2.012
 4536SOL     OW14506   6.050   0.778   4.357
 4536SOL    HW114507   6.103   0.764   4.274
 4536SOL    HW214508   6.027   0.875   4.367
 4537SOL     OW14509   3.698   2.920   6.859
 4537SOL    HW114510   3.753   2.990   6.905
 4537SOL    HW214511   3.722   2.919   6.762
 4538SOL     OW14512   3.216   1.100   2.835
 4538SOL    HW114513   3.141   1.123   2.897
 4538SOL    HW214514   3.179   1.074   2.746
 4539SOL     OW14515   2.018   1.799   2.984
 4539SOL    HW114516   2.102   1.796   2.930
 4539SOL    HW214517   1.952   1.734   2.947
 4540SOL     OW14518   3.723   3.433   4.521
 4540SOL    HW114519   3.703   3.372   4.444
 4540SOL    HW214520   3.806   3.403   4.568
 4541SOL     OW14521   4.966   2.073   1.337
 4541SOL    HW114522   4.955   2.170   1.321
 4541SOL    HW214523   4.882   2.035   1.376
 4542SOL     OW14524   5.996   6.774   2.559
 4542SOL    HW114525   6.065   6.796   2.489
 4542SOL    HW214526   5.943   6.856   2.580
 4543SOL     OW14527   5.548   1.530   1.030
 4543SOL    HW114528   5.541   1.629   1.042
 4543SOL    HW214529   5.518   1.506   0.938
 4544SOL     OW14530   3.340   5.450   6.524
 4544SOL    HW114531   3.402   5.374   6.545
 4544SOL    HW214532   3.311   5.494   6.609
 4545SOL     OW14533   3.908   2.299   5.503
 4545SOL    HW114534   3.978   2.292   5.432
 4545SOL    HW214535   3.913   2.389   5.546
 4546SOL     OW14536   1.192   6.198   6.371
 4546SOL    HW114537   1.204   6.275   6.434
 4546SOL    HW214538   1.272   6.139   6.376
 4547SOL     OW14539   5.180   2.457   1.847
 4547SOL    HW114540   5.268   2.505   1.848
 4547SOL    HW214541   5.191   2.368   1.803
 4548SOL     OW14542   0.663   4.208   3.550
 4548SOL    HW114543   0.673   4.131   3.488
 4548SOL    HW214544   0.738   4.208   3.616
 4549SOL     OW14545   7.007   3.076   2.680
 4549SOL    HW114546   6.975   3.126   2.599
 4549SOL    HW214547   6.979   2.981   2.674
 4550SOL     OW14548   0.891   5.514   4.020
 4550SOL    HW114549   0.949   5.535   3.941
 4550SOL    HW214550   0.820   5.583   4.029
 4551SOL     OW14551   1.048   2.669   5.761
 4551SOL    HW114552   1.129   2.719   5.791
 4551SOL    HW214553   1.028   2.691   5.665
 4552SOL     OW14554   0.299   3.490   4.856
 4552SOL    HW114555   0.309   3.415   4.790
 4552SOL    HW214556   0.370   3.481   4.927
 4553SOL     OW14557   4.301   5.007   0.513
 4553SOL    HW114558   4.211   4.964   0.502
 4553SOL    HW214559   4.348   4.968   0.592
 4554SOL     OW14560   4.925   6.623   2.702
 4554SOL    HW114561   4.851   6.638   2.767
 4554SOL    HW214562   5.012   6.644   2.744
 4555SOL     OW14563   5.136   2.433   6.474
 4555SOL    HW114564   5.123   2.471   6.565
 4555SOL    HW214565   5.050   2.396   6.440
 4556SOL     OW14566   4.305   0.844   3.407
 4556SOL    HW114567   4.236   0.889   3.351
 4556SOL    HW214568   4.392   0.893   3.399
 4557SOL     OW14569   5.252   6.853   5.948
 4557SOL    HW114570   5.225   6.910   6.026
 4557SOL    HW214571   5.352   6.854   5.939
 4558SOL     OW14572   6.635   3.178   0.062
 4558SOL    HW114573   6.684   3.237   0.126
 4558SOL    HW214574   6.685   3.092   0.050
 4559SOL     OW14575   1.784   6.766   1.385
 4559SOL    HW114576   1.792   6.670   1.360
 4559SOL    HW214577   1.711   6.808   1.331
 4560SOL     OW14578   5.115   3.117   2.822
 4560SOL    HW114579   5.129   3.165   2.735
 4560SOL    HW214580   5.024   3.075   2.823
 4561SOL     OW14581   3.534   0.292   6.581
 4561SOL    HW114582   3.579   0.342   6.507
 4561SOL    HW214583   3.510   0.201   6.550
 4562SOL     OW14584   2.823   4.983   6.848
 4562SOL    HW114585   2.847   5.060   6.788
 4562SOL    HW214586   2.753   4.927   6.804
 4563SOL     OW14587   5.749   1.824   6.405
 4563SOL    HW114588   5.716   1.902   6.353
 4563SOL    HW214589   5.839   1.845   6.444
 4564SOL     OW14590   1.746   6.343   0.616
 4564SOL    HW114591   1.758   6.391   0.529
 4564SOL    HW214592   1.770   6.247   0.605
 4565SOL     OW14593   1.255   0.710   5.255
 4565SOL    HW114594   1.177   0.656   5.222
 4565SOL    HW214595   1.296   0.666   5.335
 4566SOL     OW14596   6.771   0.963   0.016
 4566SOL    HW114597   6.825   1.047   0.014
 4566SOL    HW214598   6.795   0.906   6.956
 4567SOL     OW14599   6.737   1.293   1.108
 4567SOL    HW114600   6.753   1.213   1.165
 4567SOL    HW214601   6.640   1.317   1.112
 4568SOL     OW14602   3.155   4.512   5.713
 4568SOL    HW114603   3.132   4.562   5.630
 4568SOL    HW214604   3.072   4.494   5.765
 4569SOL     OW14605   0.862   1.149   4.266
 4569SOL    HW114606   0.848   1.245   4.290
 4569SOL    HW214607   0.939   1.113   4.319
 4570SOL     OW14608   0.007   5.834   3.980
 4570SOL    HW114609   0.008   5.792   3.890
 4570SOL    HW214610   6.940   5.814   4.026
 4571SOL     OW14611   3.318   3.284   4.433
 4571SOL    HW114612   3.285   3.251   4.344
 4571SOL    HW214613   3.417   3.296   4.429
 4572SOL     OW14614   1.606   6.900   1.201
 4572SOL    HW114615   1.620   6.932   1.107
 4572SOL    HW214616   1.602   6.979   1.262
 4573SOL     OW14617   5.621   6.193   0.771
 4573SOL    HW114618   5.636   6.150   0.683
 4573SOL    HW214619   5.526   6.183   0.798
 4574SOL     OW14620   6.883   4.346   1.540
 4574SOL    HW114621   6.857   4.385   1.452
 4574SOL    HW214622   6.873   4.416   1.611
 4575SOL     OW14623   6.800   0.335   2.041
 4575SOL    HW114624   6.702   0.352   2.025
 4575SOL    HW214625   6.823   0.362   2.134
 4576SOL     OW14626   3.335   5.213   6.342
 4576SOL    HW114627   3.306   5.303   6.373
 4576SOL    HW214628   3.260   5.148   6.353
 4577SOL     OW14629   1.345   3.408   3.330
 4577SOL    HW114630   1.275   3.468   3.369
 4577SOL    HW214631   1.364   3.436   3.235
 4578SOL     OW14632   0.185   3.674   4.033
 4578SOL    HW114633   0.174   3.574   4.040
 4578SOL    HW214634   0.283   3.696   4.033
 4579SOL     OW14635   5.762   2.193   3.513
 4579SOL    HW114636   5.733   2.226   3.423
 4579SOL    HW214637   5.724   2.102   3.529
 4580SOL     OW14638   6.407   6.387   0.832
 4580SOL    HW114639   6.466   6.466   0.851
 4580SOL    HW214640   6.389   6.338   0.918
 4581SOL     OW14641   3.015   5.435   3.006
 4581SOL    HW114642   2.947   5.508   3.013
 4581SOL    HW214643   2.979   5.351   3.046
 4582SOL     OW14644   5.511   6.501   2.874
 4582SOL    HW114645   5.478   6.444   2.798
 4582SOL    HW214646   5.439   6.510   2.943
 4583SOL     OW14647   3.350   2.136   5.625
 4583SOL    HW114648   3.393   2.092   5.704
 4583SOL    HW214649   3.258   2.166   5.649
 4584SOL     OW14650   0.795   5.393   5.424
 4584SOL    HW114651   0.811   5.484   5.461
 4584SOL    HW214652   0.714   5.393   5.366
 4585SOL     OW14653   3.512   6.144   3.050
 4585SOL    HW114654   3.452   6.222   3.067
 4585SOL    HW214655   3.562   6.123   3.134
 4586SOL     OW14656   3.603   6.023   1.831
 4586SOL    HW114657   3.633   6.060   1.918
 4586SOL    HW214658   3.681   5.984   1.782
 4587SOL     OW14659   2.677   3.558   1.295
 4587SOL    HW114660   2.762   3.601   1.326
 4587SOL    HW214661   2.695   3.464   1.268
 4588SOL     OW14662   4.050   3.648   5.397
 4588SOL    HW114663   4.071   3.734   5.349
 4588SOL    HW214664   4.095   3.572   5.350
 4589SOL     OW14665   6.432   2.317   4.426
 4589SOL    HW114666   6.357   2.380   4.409
 4589SOL    HW214667   6.493   2.355   4.495
 4590SOL     OW14668   4.373   5.228   2.706
 4590SOL    HW114669   4.463   5.253   2.740
 4590SOL    HW214670   4.375   5.135   2.671
 4591SOL     OW14671   5.316   5.860   5.634
 4591SOL    HW114672   5.363   5.879   5.720
 4591SOL    HW214673   5.383   5.842   5.563
 4592SOL     OW14674   3.913   2.492   6.805
 4592SOL    HW114675   4.000   2.489   6.756
 4592SOL    HW214676   3.887   2.401   6.835
 4593SOL     OW14677   3.582   6.499   2.540
 4593SOL    HW114678   3.570   6.585   2.492
 4593SOL    HW214679   3.508   6.488   2.607
 4594SOL     OW14680   2.096   1.547   2.330
 4594SOL    HW114681   2.082   1.611   2.254
 4594SOL    HW214682   2.008   1.506   2.355
 4595SOL     OW14683   4.265   3.104   6.768
 4595SOL    HW114684   4.314   3.172   6.715
 4595SOL    HW214685   4.209   3.047   6.706
 4596SOL     OW14686   5.524   0.098   1.750
 4596SOL    HW114687   5.590   0.170   1.729
 4596SOL    HW214688   5.440   0.138   1.786
 4597SOL     OW14689   5.187   3.793   6.524
 4597SOL    HW114690   5.189   3.754   6.617
 4597SOL    HW214691   5.200   3.892   6.529
 4598SOL     OW14692   2.528   5.222   6.878
 4598SOL    HW114693   2.486   5.289   6.818
 4598SOL    HW214694   2.475   5.215   6.963
 4599SOL     OW14695   1.448   4.841   1.273
 4599SOL    HW114696   1.458   4.938   1.248
 4599SOL    HW214697   1.478   4.784   1.197
 4600SOL     OW14698   2.946   5.532   0.656
 4600SOL    HW114699   2.960   5.631   0.656
 4600SOL    HW214700   2.949   5.498   0.562
 4601SOL     OW14701   1.896   0.287   5.255
 4601SOL    HW114702   1.882   0.356   5.326
 4601SOL    HW214703   1.929   0.331   5.172
 4602SOL     OW14704   1.414   0.249   2.075
 4602SOL    HW114705   1.413   0.322   2.006
 4602SOL    HW214706   1.324   0.206   2.081
 4603SOL     OW14707   3.297   6.712   1.262
 4603SOL    HW114708   3.260   6.669   1.344
 4603SOL    HW214709   3.397   6.714   1.268
 4604SOL     OW14710   3.405   6.980   1.756
 4604SOL    HW114711   3.477   0.019   1.794
 4604SOL    HW214712   3.354   0.012   1.687
 4605SOL     OW14713   5.317   0.045   4.879
 4605SOL    HW114714   5.330   7.019   4.791
 4605SOL    HW214715   5.290   0.141   4.864
 4606SOL     OW14716   6.582   6.345   5.143
 4606SOL    HW114717   6.608   6.437   5.113
 4606SOL    HW214718   6.665   6.293   5.164
 4607SOL     OW14719   3.116   1.637   1.676
 4607SOL    HW114720   3.067   1.602   1.756
 4607SOL    HW214721   3.140   1.560   1.616
 4608SOL     OW14722   2.090   3.886   5.712
 4608SOL    HW114723   2.167   3.946   5.731
 4608SOL    HW214724   2.094   3.856   5.616
 4609SOL     OW14725   5.002   6.811   6.728
 4609SOL    HW114726   5.077   6.778   6.671
 4609SOL    HW214727   4.934   6.857   6.671
 4610SOL     OW14728   0.294   3.133   6.594
 4610SOL    HW114729   0.196   3.141   6.609
 4610SOL    HW214730   0.343   3.177   6.670
 4611SOL     OW14731   0.572   4.101   0.132
 4611SOL    HW114732   0.578   4.065   0.225
 4611SOL    HW214733   0.528   4.191   0.134
 4612SOL     OW14734   2.393   6.753   6.787
 4612SOL    HW114735   2.476   6.711   6.823
 4612SOL    HW214736   2.403   6.853   6.789
 4613SOL     OW14737   3.108   5.370   2.451
 4613SOL    HW114738   3.195   5.414   2.475
 4613SOL    HW214739   3.120   5.271   2.455
 4614SOL     OW14740   1.451   5.492   0.223
 4614SOL    HW114741   1.493   5.434   0.153
 4614SOL    HW214742   1.378   5.442   0.268
 4615SOL     OW14743   1.431   2.338   0.406
 4615SOL    HW114744   1.347   2.365   0.454
 4615SOL    HW214745   1.473   2.419   0.365
 4616SOL     OW14746   5.410   1.385   6.302
 4616SOL    HW114747   5.328   1.424   6.262
 4616SOL    HW214748   5.484   1.385   6.235
 4617SOL     OW14749   0.444   2.438   1.539
 4617SOL    HW114750   0.434   2.527   1.584
 4617SOL    HW214751   0.416   2.365   1.602
 4618SOL     OW14752   1.430   2.108   6.376
 4618SOL    HW114753   1.369   2.157   6.438
 4618SOL    HW214754   1.379   2.075   6.297
 4619SOL     OW14755   4.280   0.588   3.332
 4619SOL    HW114756   4.296   0.684   3.356
 4619SOL    HW214757   4.197   0.555   3.377
 4620SOL     OW14758   2.728   4.512   6.684
 4620SOL    HW114759   2.674   4.529   6.602
 4620SOL    HW214760   2.694   4.431   6.731
 4621SOL     OW14761   0.422   0.067   5.566
 4621SOL    HW114762   0.438   0.117   5.481
 4621SOL    HW214763   0.430   6.987   5.549
 4622SOL     OW14764   1.620   4.118   0.770
 4622SOL    HW114765   1.672   4.038   0.738
 4622SOL    HW214766   1.562   4.091   0.847
 4623SOL     OW14767   6.966   5.135   1.528
 4623SOL    HW114768   6.927   5.212   1.580
 4623SOL    HW214769   6.896   5.065   1.514
 4624SOL     OW14770   5.206   0.259   4.317
 4624SOL    HW114771   5.256   0.327   4.371
 4624SOL    HW214772   5.242   0.168   4.336
 4625SOL     OW14773   1.093   4.315   6.574
 4625SOL    HW114774   1.031   4.267   6.512
 4625SOL    HW214775   1.181   4.330   6.528
 4626SOL     OW14776   6.788   5.113   1.110
 4626SOL    HW114777   6.819   5.179   1.179
 4626SOL    HW214778   6.856   5.107   1.037
 4627SOL     OW14779   3.613   6.062   5.383
 4627SOL    HW114780   3.520   6.098   5.376
 4627SOL    HW214781   3.654   6.056   5.292
 4628SOL     OW14782   6.841   4.392   1.842
 4628SOL    HW114783   6.932   4.351   1.851
 4628SOL    HW214784   6.775   4.322   1.815
 4629SOL     OW14785   1.831   4.583   5.675
 4629SOL    HW114786   1.867   4.675   5.665
 4629SOL    HW214787   1.906   4.518   5.683
 4630SOL     OW14788   2.310   6.108   2.867
 4630SOL    HW114789   2.386   6.046   2.849
 4630SOL    HW214790   2.346   6.196   2.899
 4631SOL     OW14791   2.805   6.412   2.520
 4631SOL    HW114792   2.805   6.506   2.484
 4631SOL    HW214793   2.719   6.395   2.569
 4632SOL     OW14794   5.264   5.533   4.024
 4632SOL    HW114795   5.181   5.534   4.079
 4632SOL    HW214796   5.264   5.609   3.960
 4633SOL     OW14797   6.415   2.059   4.310
 4633SOL    HW114798   6.401   2.154   4.339
 4633SOL    HW214799   6.434   2.002   4.390
 4634SOL     OW14800   3.184   4.676   0.812
 4634SOL    HW114801   3.119   4.604   0.790
 4634SOL    HW214802   3.167   4.709   0.905
 4635SOL     OW14803   5.170   3.326   2.097
 4635SOL    HW114804   5.082   3.289   2.066
 4635SOL    HW214805   5.241   3.299   2.032
 4636SOL     OW14806   3.169   5.439   0.436
 4636SOL    HW114807   3.252   5.491   0.420
 4636SOL    HW214808   3.094   5.479   0.383
 4637SOL     OW14809   1.050   0.972   5.436
 4637SOL    HW114810   1.148   0.968   5.459
 4637SOL    HW214811   1.002   1.028   5.503
 4638SOL     OW14812   4.918   3.431   5.597
 4638SOL    HW114813   4.917   3.410   5.694
 4638SOL    HW214814   5.011   3.451   5.567
 4639SOL     OW14815   0.103   3.740   5.602
 4639SOL    HW114816   0.113   3.708   5.508
 4639SOL    HW214817   0.191   3.773   5.636
 4640SOL     OW14818   5.685   4.310   2.776
 4640SOL    HW114819   5.656   4.326   2.870
 4640SOL    HW214820   5.698   4.397   2.730
 4641SOL     OW14821   2.096   4.879   4.620
 4641SOL    HW114822   2.077   4.812   4.548
 4641SOL    HW214823   2.100   4.832   4.708
 4642SOL     OW14824   6.080   5.921   4.680
 4642SOL    HW114825   6.006   5.872   4.727
 4642SOL    HW214826   6.042   6.001   4.633
 4643SOL     OW14827   3.873   2.215   1.740
 4643SOL    HW114828   3.953   2.271   1.763
 4643SOL    HW214829   3.794   2.248   1.791
 4644SOL     OW14830   1.945   5.998   4.856
 4644SOL    HW114831   2.040   5.990   4.886
 4644SOL    HW214832   1.884   5.989   4.934
 4645SOL     OW14833   1.961   6.213   4.642
 4645SOL    HW114834   1.869   6.230   4.607
 4645SOL    HW214835   1.956   6.154   4.723
 4646SOL     OW14836   3.485   0.758   2.069
 4646SOL    HW114837   3.556   0.768   1.999
 4646SOL    HW214838   3.522   0.704   2.145
 4647SOL     OW14839   6.180   0.502   4.475
 4647SOL    HW114840   6.188   0.524   4.378
 4647SOL    HW214841   6.105   0.436   4.488
 4648SOL     OW14842   2.147   5.682   2.676
 4648SOL    HW114843   2.219   5.646   2.735
 4648SOL    HW214844   2.093   5.750   2.726
 4649SOL     OW14845   5.268   0.753   5.540
 4649SOL    HW114846   5.251   0.779   5.635
 4649SOL    HW214847   5.329   0.820   5.497
 4650SOL     OW14848   5.414   5.262   2.290
 4650SOL    HW114849   5.445   5.321   2.215
 4650SOL    HW214850   5.461   5.174   2.285
 4651SOL     OW14851   0.371   2.244   1.768
 4651SOL    HW114852   0.323   2.328   1.795
 4651SOL    HW214853   0.304   2.174   1.745
 4652SOL     OW14854   6.537   0.008   5.615
 4652SOL    HW114855   6.609   7.004   5.550
 4652SOL    HW214856   6.573   0.072   5.684
 4653SOL     OW14857   0.161   6.395   6.904
 4653SOL    HW114858   0.137   6.317   6.846
 4653SOL    HW214859   0.132   6.480   6.860
 4654SOL     OW14860   1.440   0.588   0.005
 4654SOL    HW114861   1.521   0.640   6.996
 4654SOL    HW214862   1.417   0.523   6.952
 4655SOL     OW14863   0.488   4.710   3.110
 4655SOL    HW114864   0.429   4.675   3.183
 4655SOL    HW214865   0.584   4.698   3.135
 4656SOL     OW14866   1.185   0.374   3.895
 4656SOL    HW114867   1.172   0.297   3.832
 4656SOL    HW214868   1.231   0.448   3.847
 4657SOL     OW14869   5.189   7.002   1.049
 4657SOL    HW114870   5.129   0.015   0.975
 4657SOL    HW214871   5.139   7.007   1.136
 4658SOL     OW14872   4.930   0.391   2.981
 4658SOL    HW114873   4.918   0.412   2.884
 4658SOL    HW214874   4.900   0.470   3.035
 4659SOL     OW14875   1.830   2.658   4.844
 4659SOL    HW114876   1.736   2.662   4.809
 4659SOL    HW214877   1.848   2.738   4.901
 4660SOL     OW14878   0.172   1.176   6.229
 4660SOL    HW114879   0.156   1.274   6.239
 4660SOL    HW214880   0.096   1.125   6.269
 4661SOL     OW14881   2.918   3.756   3.756
 4661SOL    HW114882   2.856   3.822   3.797
 4661SOL    HW214883   2.895   3.664   3.787
 4662SOL     OW14884   4.870   0.419   5.457
 4662SOL    HW114885   4.886   0.505   5.410
 4662SOL    HW214886   4.918   0.345   5.410
 4663SOL     OW14887   0.291   2.295   2.374
 4663SOL    HW114888   0.340   2.244   2.303
 4663SOL    HW214889   0.203   2.325   2.338
 4664SOL     OW14890   3.419   2.292   0.346
 4664SOL    HW114891   3.409   2.254   0.255
 4664SOL    HW214892   3.406   2.391   0.343
 4665SOL     OW14893   5.026   0.073   0.016
 4665SOL    HW114894   5.005   0.169   7.016
 4665SOL    HW214895   4.962   0.038   0.084
 4666SOL     OW14896   2.293   1.339   0.436
 4666SOL    HW114897   2.322   1.404   0.507
 4666SOL    HW214898   2.356   1.261   0.435
 4667SOL     OW14899   0.064   5.244   6.520
 4667SOL    HW114900   0.092   5.233   6.425
 4667SOL    HW214901   0.027   5.158   6.554
 4668SOL     OW14902   6.504   1.659   4.010
 4668SOL    HW114903   6.570   1.596   4.051
 4668SOL    HW214904   6.502   1.745   4.061
 4669SOL     OW14905   1.430   0.316   0.190
 4669SOL    HW114906   1.344   0.335   0.143
 4669SOL    HW214907   1.413   0.306   0.288
 4670SOL     OW14908   2.667   1.985   4.149
 4670SOL    HW114909   2.600   2.049   4.188
 4670SOL    HW214910   2.629   1.892   4.151
 4671SOL     OW14911   5.506   3.678   1.724
 4671SOL    HW114912   5.591   3.666   1.774
 4671SOL    HW214913   5.523   3.673   1.626
 4672SOL     OW14914   2.130   3.565   6.391
 4672SOL    HW114915   2.050   3.626   6.393
 4672SOL    HW214916   2.211   3.616   6.418
 4673SOL     OW14917   4.110   0.935   2.948
 4673SOL    HW114918   4.167   0.984   2.883
 4673SOL    HW214919   4.110   0.838   2.926
 4674SOL     OW14920   4.638   5.862   5.360
 4674SOL    HW114921   4.549   5.831   5.394
 4674SOL    HW214922   4.636   5.962   5.348
 4675SOL     OW14923   0.859   4.168   0.214
 4675SOL    HW114924   0.780   4.168   0.153
 4675SOL    HW214925   0.855   4.247   0.274
 4676SOL     OW14926   1.114   5.536   3.390
 4676SOL    HW114927   1.034   5.492   3.431
 4676SOL    HW214928   1.192   5.474   3.393
 4677SOL     OW14929   1.700   2.787   0.324
 4677SOL    HW114930   1.641   2.803   0.403
 4677SOL    HW214931   1.779   2.733   0.352
 4678SOL     OW14932   2.103   4.630   2.944
 4678SOL    HW114933   2.072   4.722   2.970
 4678SOL    HW214934   2.085   4.616   2.847
 4679SOL     OW14935   5.242   0.142   1.807
 4679SOL    HW114936   5.192   0.203   1.745
 4679SOL    HW214937   5.254   0.187   1.895
 4680SOL     OW14938   2.355   1.281   1.899
 4680SOL    HW114939   2.354   1.312   1.805
 4680SOL    HW214940   2.383   1.185   1.903
 4681SOL     OW14941   5.644   3.928   1.503
 4681SOL    HW114942   5.652   3.831   1.479
 4681SOL    HW214943   5.681   3.943   1.594
 4682SOL     OW14944   4.241   3.459   6.620
 4682SOL    HW114945   4.234   3.430   6.715
 4682SOL    HW214946   4.233   3.558   6.614
 4683SOL     OW14947   6.266   4.316   3.526
 4683SOL    HW114948   6.184   4.290   3.577
 4683SOL    HW214949   6.339   4.251   3.544
 4684SOL     OW14950   4.504   6.243   0.006
 4684SOL    HW114951   4.572   6.205   0.069
 4684SOL    HW214952   4.491   6.340   0.026
 4685SOL     OW14953   2.802   3.538   5.692
 4685SOL    HW114954   2.724   3.493   5.736
 4685SOL    HW214955   2.873   3.471   5.672
 4686SOL     OW14956   2.853   6.073   0.185
 4686SOL    HW114957   2.754   6.075   0.170
 4686SOL    HW214958   2.895   6.154   0.144
 4687SOL     OW14959   3.033   0.577   2.618
 4687SOL    HW114960   2.990   0.566   2.529
 4687SOL    HW214961   2.965   0.610   2.684
 4688SOL     OW14962   5.592   3.308   5.716
 4688SOL    HW114963   5.547   3.396   5.699
 4688SOL    HW214964   5.677   3.303   5.664
 4689SOL     OW14965   5.626   0.861   0.702
 4689SOL    HW114966   5.541   0.907   0.675
 4689SOL    HW214967   5.630   0.771   0.658
 4690SOL     OW14968   2.810   1.315   0.414
 4690SOL    HW114969   2.773   1.243   0.355
 4690SOL    HW214970   2.741   1.385   0.430
 4691SOL     OW14971   6.419   4.798   0.876
 4691SOL    HW114972   6.387   4.812   0.970
 4691SOL    HW214973   6.471   4.878   0.847
 4692SOL     OW14974   6.313   4.080   2.858
 4692SOL    HW114975   6.376   4.006   2.833
 4692SOL    HW214976   6.350   4.131   2.936
 4693SOL     OW14977   2.073   0.874   3.799
 4693SOL    HW114978   2.057   0.871   3.700
 4693SOL    HW214979   2.050   0.785   3.838
 4694SOL     OW14980   2.596   1.363   0.168
 4694SOL    HW114981   2.649   1.442   0.199
 4694SOL    HW214982   2.498   1.380   0.183
 4695SOL     OW14983   1.112   5.901   1.414
 4695SOL    HW114984   1.196   5.917   1.363
 4695SOL    HW214985   1.134   5.882   1.510
 4696SOL     OW14986   1.069   4.933   6.314
 4696SOL    HW114987   1.151   4.973   6.273
 4696SOL    HW214988   0.999   4.923   6.243
 4697SOL     OW14989   2.763   4.572   0.801
 4697SOL    HW114990   2.762   4.666   0.767
 4697SOL    HW214991   2.798   4.571   0.895
 4698SOL     OW14992   4.721   1.038   2.917
 4698SOL    HW114993   4.664   0.964   2.951
 4698SOL    HW214994   4.727   1.032   2.817
 4699SOL     OW14995   1.198   0.263   2.461
 4699SOL    HW114996   1.279   0.285   2.407
 4699SOL    HW214997   1.219   0.187   2.523
 4700SOL     OW14998   6.005   2.129   2.799
 4700SOL    HW114999   5.965   2.038   2.796
 4700SOL    HW215000   5.933   2.198   2.790
 4701SOL     OW15001   3.130   1.974   1.932
 4701SOL    HW115002   3.094   2.041   1.867
 4701SOL    HW215003   3.227   1.988   1.946
 4702SOL     OW15004   5.422   4.843   6.171
 4702SOL    HW115005   5.347   4.894   6.212
 4702SOL    HW215006   5.501   4.845   6.232
 4703SOL     OW15007   0.820   4.821   3.489
 4703SOL    HW115008   0.911   4.782   3.501
 4703SOL    HW215009   0.754   4.747   3.473
 4704SOL     OW15010   0.770   5.018   5.488
 4704SOL    HW115011   0.783   5.032   5.390
 4704SOL    HW215012   0.709   4.940   5.504
 4705SOL     OW15013   3.109   2.947   1.901
 4705SOL    HW115014   3.165   2.944   1.983
 4705SOL    HW215015   3.101   2.855   1.863
 4706SOL     OW15016   1.469   0.975   0.435
 4706SOL    HW115017   1.457   1.055   0.376
 4706SOL    HW215018   1.454   1.002   0.530
 4707SOL     OW15019   0.996   0.494   1.250
 4707SOL    HW115020   0.975   0.455   1.339
 4707SOL    HW215021   1.070   0.442   1.207
 4708SOL     OW15022   0.519   2.610   4.063
 4708SOL    HW115023   0.599   2.625   4.005
 4708SOL    HW215024   0.436   2.609   4.007
 4709SOL     OW15025   4.641   4.041   5.275
 4709SOL    HW115026   4.680   3.992   5.352
 4709SOL    HW215027   4.713   4.063   5.209
 4710SOL     OW15028   5.853   6.195   4.189
 4710SOL    HW115029   5.864   6.108   4.237
 4710SOL    HW215030   5.769   6.239   4.218
 4711SOL     OW15031   6.099   3.096   3.204
 4711SOL    HW115032   6.114   3.182   3.252
 4711SOL    HW215033   6.068   3.114   3.111
 4712SOL     OW15034   4.415   4.240   5.302
 4712SOL    HW115035   4.375   4.305   5.237
 4712SOL    HW215036   4.499   4.202   5.262
 4713SOL     OW15037   5.794   4.199   0.969
 4713SOL    HW115038   5.794   4.239   1.060
 4713SOL    HW215039   5.706   4.216   0.925
 4714SOL     OW15040   6.253   0.744   5.941
 4714SOL    HW115041   6.256   0.671   6.009
 4714SOL    HW215042   6.294   0.827   5.980
 4715SOL     OW15043   6.070   1.662   1.724
 4715SOL    HW115044   6.099   1.585   1.667
 4715SOL    HW215045   6.079   1.747   1.672
 4716SOL     OW15046   3.910   4.594   5.657
 4716SOL    HW115047   3.964   4.635   5.583
 4716SOL    HW215048   3.892   4.498   5.636
 4717SOL     OW15049   2.906   5.462   5.136
 4717SOL    HW115050   2.901   5.387   5.201
 4717SOL    HW215051   2.823   5.466   5.082
 4718SOL     OW15052   5.474   4.152   1.403
 4718SOL    HW115053   5.412   4.199   1.466
 4718SOL    HW215054   5.528   4.085   1.453
 4719SOL     OW15055   6.726   3.414   3.704
 4719SOL    HW115056   6.627   3.400   3.700
 4719SOL    HW215057   6.753   3.439   3.797
 4720SOL     OW15058   3.004   4.038   6.818
 4720SOL    HW115059   2.967   4.112   6.874
 4720SOL    HW215060   2.946   4.025   6.737
 4721SOL     OW15061   6.461   3.638   2.642
 4721SOL    HW115062   6.378   3.694   2.635
 4721SOL    HW215063   6.436   3.542   2.655
 4722SOL     OW15064   1.029   4.299   6.268
 4722SOL    HW115065   0.953   4.357   6.298
 4722SOL    HW215066   1.115   4.345   6.289
 4723SOL     OW15067   3.992   3.741   6.542
 4723SOL    HW115068   4.078   3.745   6.593
 4723SOL    HW215069   3.920   3.788   6.593
 4724SOL     OW15070   0.868   6.733   4.311
 4724SOL    HW115071   0.953   6.776   4.281
 4724SOL    HW215072   0.843   6.661   4.246
 4725SOL     OW15073   6.255   5.991   0.685
 4725SOL    HW115074   6.341   6.038   0.702
 4725SOL    HW215075   6.269   5.892   0.688
 4726SOL     OW15076   1.791   3.053   5.495
 4726SOL    HW115077   1.795   3.123   5.423
 4726SOL    HW215078   1.766   3.096   5.582
 4727SOL     OW15079   0.861   5.729   0.477
 4727SOL    HW115080   0.907   5.818   0.469
 4727SOL    HW215081   0.878   5.692   0.569
 4728SOL     OW15082   6.125   1.367   4.010
 4728SOL    HW115083   6.100   1.319   4.094
 4728SOL    HW215084   6.050   1.360   3.944
 4729SOL     OW15085   6.139   0.739   0.460
 4729SOL    HW115086   6.174   0.652   0.424
 4729SOL    HW215087   6.097   0.791   0.386
 4730SOL     OW15088   3.615   0.166   5.020
 4730SOL    HW115089   3.560   0.249   5.031
 4730SOL    HW215090   3.693   0.169   5.082
 4731SOL     OW15091   3.120   0.554   0.781
 4731SOL    HW115092   3.056   0.486   0.746
 4731SOL    HW215093   3.178   0.513   0.851
 4732SOL     OW15094   6.782   3.958   4.421
 4732SOL    HW115095   6.778   3.865   4.384
 4732SOL    HW215096   6.707   3.971   4.487
 4733SOL     OW15097   2.126   3.330   2.956
 4733SOL    HW115098   2.166   3.418   2.933
 4733SOL    HW215099   2.086   3.334   3.048
 4734SOL     OW15100   4.891   3.786   6.537
 4734SOL    HW115101   4.988   3.793   6.514
 4734SOL    HW215102   4.881   3.789   6.636
 4735SOL     OW15103   0.395   6.437   5.039
 4735SOL    HW115104   0.297   6.428   5.020
 4735SOL    HW215105   0.415   6.400   5.129
 4736SOL     OW15106   6.480   2.174   2.792
 4736SOL    HW115107   6.523   2.085   2.804
 4736SOL    HW215108   6.400   2.181   2.852
 4737SOL     OW15109   2.102   4.985   1.018
 4737SOL    HW115110   2.152   5.031   1.091
 4737SOL    HW215111   2.090   4.889   1.042
 4738SOL     OW15112   2.023   0.165   3.666
 4738SOL    HW115113   2.123   0.168   3.659
 4738SOL    HW215114   1.992   0.239   3.727
 4739SOL     OW15115   5.769   3.419   4.314
 4739SOL    HW115116   5.736   3.452   4.225
 4739SOL    HW215117   5.717   3.463   4.387
 4740SOL     OW15118   0.462   1.100   1.438
 4740SOL    HW115119   0.442   1.124   1.343
 4740SOL    HW215120   0.389   1.042   1.474
 4741SOL     OW15121   4.672   4.725   1.683
 4741SOL    HW115122   4.655   4.652   1.749
 4741SOL    HW215123   4.769   4.726   1.658
 4742SOL     OW15124   2.808   5.737   1.356
 4742SOL    HW115125   2.794   5.733   1.455
 4742SOL    HW215126   2.890   5.792   1.337
 4743SOL     OW15127   2.313   2.210   0.240
 4743SOL    HW115128   2.379   2.165   0.299
 4743SOL    HW215129   2.261   2.141   0.189
 4744SOL     OW15130   2.183   3.555   5.578
 4744SOL    HW115131   2.166   3.649   5.548
 4744SOL    HW215132   2.191   3.496   5.498
 4745SOL     OW15133   3.431   5.609   4.741
 4745SOL    HW115134   3.334   5.592   4.756
 4745SOL    HW215135   3.485   5.549   4.799
 4746SOL     OW15136   6.580   6.720   1.249
 4746SOL    HW115137   6.566   6.793   1.316
 4746SOL    HW215138   6.678   6.706   1.236
 4747SOL     OW15139   6.665   1.942   0.709
 4747SOL    HW115140   6.605   1.993   0.648
 4747SOL    HW215141   6.615   1.916   0.792
 4748SOL     OW15142   1.120   1.006   1.325
 4748SOL    HW115143   1.090   1.056   1.405
 4748SOL    HW215144   1.131   0.909   1.348
 4749SOL     OW15145   2.196   6.838   0.269
 4749SOL    HW115146   2.160   6.822   0.361
 4749SOL    HW215147   2.171   6.930   0.240
 4750SOL     OW15148   6.922   0.543   4.440
 4750SOL    HW115149   6.964   0.460   4.478
 4750SOL    HW215150   6.946   0.622   4.497
 4751SOL     OW15151   1.497   4.625   6.335
 4751SOL    HW115152   1.565   4.580   6.276
 4751SOL    HW215153   1.409   4.627   6.288
 4752SOL     OW15154   2.946   5.929   1.776
 4752SOL    HW115155   2.979   5.849   1.727
 4752SOL    HW215156   3.013   5.956   1.845
 4753SOL     OW15157   5.874   6.467   5.420
 4753SOL    HW115158   5.806   6.471   5.493
 4753SOL    HW215159   5.924   6.381   5.426
 4754SOL     OW15160   0.524   0.611   5.727
 4754SOL    HW115161   0.550   0.707   5.714
 4754SOL    HW215162   0.426   0.604   5.742
 4755SOL     OW15163   2.252   1.185   5.997
 4755SOL    HW115164   2.246   1.234   6.084
 4755SOL    HW215165   2.205   1.097   6.005
 4756SOL     OW15166   4.746   2.865   1.531
 4756SOL    HW115167   4.825   2.811   1.501
 4756SOL    HW215168   4.701   2.905   1.452
 4757SOL     OW15169   2.378   2.041   1.721
 4757SOL    HW115170   2.427   2.068   1.804
 4757SOL    HW215171   2.314   1.967   1.743
 4758SOL     OW15172   4.934   5.310   5.247
 4758SOL    HW115173   4.987   5.376   5.301
 4758SOL    HW215174   4.951   5.326   5.149
 4759SOL     OW15175   5.648   5.610   6.425
 4759SOL    HW115176   5.692   5.525   6.451
 4759SOL    HW215177   5.632   5.611   6.326
 4760SOL     OW15178   2.075   1.063   1.423
 4760SOL    HW115179   2.138   1.103   1.489
 4760SOL    HW215180   2.128   1.019   1.350
 4761SOL     OW15181   6.655   6.935   6.527
 4761SOL    HW115182   6.742   6.889   6.541
 4761SOL    HW215183   6.585   6.867   6.504
 4762SOL     OW15184   2.419   5.669   1.773
 4762SOL    HW115185   2.340   5.696   1.718
 4762SOL    HW215186   2.489   5.740   1.769
 4763SOL     OW15187   5.933   6.475   3.661
 4763SOL    HW115188   5.854   6.497   3.719
 4763SOL    HW215189   5.927   6.379   3.634
 4764SOL     OW15190   4.049   3.872   4.991
 4764SOL    HW115191   4.051   3.894   4.893
 4764SOL    HW215192   4.118   3.802   5.011
 4765SOL     OW15193   5.107   5.830   4.698
 4765SOL    HW115194   5.163   5.748   4.713
 4765SOL    HW215195   5.023   5.804   4.650
 4766SOL     OW15196   2.519   6.880   3.058
 4766SOL    HW115197   2.574   6.871   2.974
 4766SOL    HW215198   2.564   6.830   3.132
 4767SOL     OW15199   4.174   6.631   6.446
 4767SOL    HW115200   4.151   6.667   6.536
 4767SOL    HW215201   4.273   6.630   6.435
 4768SOL     OW15202   6.243   0.402   4.728
 4768SOL    HW115203   6.266   0.306   4.712
 4768SOL    HW215204   6.210   0.443   4.644
 4769SOL     OW15205   4.405   6.324   1.868
 4769SOL    HW115206   4.429   6.262   1.943
 4769SOL    HW215207   4.314   6.362   1.884
 4770SOL     OW15208   2.668   0.477   2.958
 4770SOL    HW115209   2.649   0.382   2.935
 4770SOL    HW215210   2.767   0.489   2.971
 4771SOL     OW15211   3.974   3.977   5.899
 4771SOL    HW115212   3.904   3.918   5.859
 4771SOL    HW215213   4.036   4.008   5.827
 4772SOL     OW15214   2.862   1.436   1.518
 4772SOL    HW115215   2.776   1.466   1.558
 4772SOL    HW215216   2.901   1.510   1.463
 4773SOL     OW15217   0.025   5.754   3.495
 4773SOL    HW115218   0.006   5.748   3.593
 4773SOL    HW215219   0.113   5.798   3.480
 4774SOL     OW15220   0.570   3.779   1.077
 4774SOL    HW115221   0.597   3.876   1.073
 4774SOL    HW215222   0.550   3.747   0.984
 4775SOL     OW15223   4.262   0.293   2.598
 4775SOL    HW115224   4.275   0.263   2.503
 4775SOL    HW215225   4.346   0.336   2.631
 4776SOL     OW15226   2.719   5.844   2.308
 4776SOL    HW115227   2.752   5.886   2.223
 4776SOL    HW215228   2.769   5.882   2.385
 4777SOL     OW15229   2.812   4.459   1.356
 4777SOL    HW115230   2.791   4.391   1.426
 4777SOL    HW215231   2.755   4.540   1.370
 4778SOL     OW15232   4.937   3.680   2.146
 4778SOL    HW115233   4.905   3.599   2.096
 4778SOL    HW215234   4.882   3.759   2.120
 4779SOL     OW15235   6.108   0.614   3.100
 4779SOL    HW115236   6.157   0.578   3.179
 4779SOL    HW215237   6.172   0.626   3.024
 4780SOL     OW15238   1.396   6.724   6.499
 4780SOL    HW115239   1.483   6.674   6.492
 4780SOL    HW215240   1.409   6.805   6.556
 4781SOL     OW15241   2.825   5.448   1.380
 4781SOL    HW115242   2.743   5.429   1.434
 4781SOL    HW215243   2.830   5.545   1.360
 4782SOL     OW15244   5.429   6.596   6.980
 4782SOL    HW115245   5.375   6.593   0.045
 4782SOL    HW215246   5.455   6.504   6.954
 4783SOL     OW15247   5.542   4.277   0.864
 4783SOL    HW115248   5.525   4.307   0.770
 4783SOL    HW215249   5.454   4.262   0.911
 4784SOL     OW15250   5.428   4.907   4.971
 4784SOL    HW115251   5.470   4.880   5.059
 4784SOL    HW215252   5.394   4.825   4.925
 4785SOL     OW15253   6.667   6.359   1.342
 4785SOL    HW115254   6.709   6.393   1.257
 4785SOL    HW215255   6.598   6.290   1.319
 4786SOL     OW15256   1.924   3.229   1.888
 4786SOL    HW115257   1.945   3.326   1.905
 4786SOL    HW215258   1.852   3.199   1.950
 4787SOL     OW15259   3.092   2.178   3.190
 4787SOL    HW115260   3.112   2.138   3.279
 4787SOL    HW215261   2.997   2.209   3.187
 4788SOL     OW15262   0.967   4.874   4.551
 4788SOL    HW115263   0.997   4.947   4.489
 4788SOL    HW215264   0.873   4.849   4.530
 4789SOL     OW15265   5.588   0.532   6.825
 4789SOL    HW115266   5.651   0.593   6.875
 4789SOL    HW215267   5.505   0.582   6.802
 4790SOL     OW15268   5.640   2.388   6.393
 4790SOL    HW115269   5.672   2.456   6.459
 4790SOL    HW215270   5.541   2.398   6.379
 4791SOL     OW15271   5.554   6.850   1.909
 4791SOL    HW115272   5.478   6.787   1.928
 4791SOL    HW215273   5.540   6.935   1.959
 4792SOL     OW15274   2.198   2.647   2.929
 4792SOL    HW115275   2.150   2.618   2.846
 4792SOL    HW215276   2.180   2.582   3.003
 4793SOL     OW15277   1.685   6.939   6.303
 4793SOL    HW115278   1.640   6.850   6.292
 4793SOL    HW215279   1.680   6.989   6.216
 4794SOL     OW15280   2.959   0.247   2.962
 4794SOL    HW115281   2.916   0.250   2.872
 4794SOL    HW215282   3.051   0.287   2.956
 4795SOL     OW15283   6.440   3.144   4.386
 4795SOL    HW115284   6.471   3.101   4.471
 4795SOL    HW215285   6.432   3.075   4.314
 4796SOL     OW15286   6.207   3.598   0.994
 4796SOL    HW115287   6.235   3.690   0.968
 4796SOL    HW215288   6.261   3.531   0.942
 4797SOL     OW15289   0.487   4.895   5.808
 4797SOL    HW115290   0.520   4.808   5.846
 4797SOL    HW215291   0.388   4.899   5.816
 4798SOL     OW15292   0.440   3.647   4.386
 4798SOL    HW115293   0.386   3.729   4.403
 4798SOL    HW215294   0.512   3.639   4.454
 4799SOL     OW15295   3.978   1.385   5.040
 4799SOL    HW115296   3.937   1.448   4.975
 4799SOL    HW215297   3.918   1.375   5.120
 4800SOL     OW15298   2.259   2.719   5.423
 4800SOL    HW115299   2.217   2.810   5.417
 4800SOL    HW215300   2.301   2.696   5.336
 4801SOL     OW15301   1.476   1.661   0.821
 4801SOL    HW115302   1.389   1.710   0.820
 4801SOL    HW215303   1.549   1.720   0.786
 4802SOL     OW15304   3.013   0.446   1.792
 4802SOL    HW115305   3.015   0.530   1.846
 4802SOL    HW215306   2.994   0.469   1.697
 4803SOL     OW15307   0.774   0.000   0.175
 4803SOL    HW115308   0.742   0.094   0.164
 4803SOL    HW215309   0.771   6.972   0.087
 4804SOL     OW15310   3.953   5.374   6.069
 4804SOL    HW115311   3.903   5.369   5.983
 4804SOL    HW215312   4.023   5.303   6.071
 4805SOL     OW15313   0.000   1.802   0.573
 4805SOL    HW115314   0.097   1.821   0.556
 4805SOL    HW215315   7.009   1.757   0.662
 4806SOL     OW15316   0.391   3.269   2.788
 4806SOL    HW115317   0.303   3.301   2.753
 4806SOL    HW215318   0.377   3.191   2.849
 4807SOL     OW15319   0.456   6.295   1.307
 4807SOL    HW115320   0.503   6.370   1.259
 4807SOL    HW215321   0.444   6.319   1.403
 4808SOL     OW15322   5.278   3.622   1.278
 4808SOL    HW115323   5.361   3.593   1.230
 4808SOL    HW215324   5.258   3.556   1.351
 4809SOL     OW15325   3.526   5.074   6.869
 4809SOL    HW115326   3.551   4.985   6.828
 4809SOL    HW215327   3.467   5.059   6.947
 4810SOL     OW15328   0.894   6.445   1.782
 4810SOL    HW115329   0.868   6.432   1.878
 4810SOL    HW215330   0.844   6.379   1.725
 4811SOL     OW15331   3.678   5.205   2.132
 4811SOL    HW115332   3.744   5.215   2.057
 4811SOL    HW215333   3.649   5.109   2.138
 4812SOL     OW15334   0.168   5.456   4.272
 4812SOL    HW115335   0.219   5.416   4.348
 4812SOL    HW215336   0.166   5.392   4.195
 4813SOL     OW15337   4.812   2.158   2.611
 4813SOL    HW115338   4.841   2.184   2.519
 4813SOL    HW215339   4.788   2.241   2.663
 4814SOL     OW15340   0.209   3.909   0.904
 4814SOL    HW115341   0.277   3.875   0.839
 4814SOL    HW215342   0.143   3.967   0.856
 4815SOL     OW15343   4.922   5.600   1.394
 4815SOL    HW115344   4.906   5.501   1.390
 4815SOL    HW215345   4.857   5.646   1.334
 4816SOL     OW15346   5.181   5.137   2.791
 4816SOL    HW115347   5.250   5.176   2.730
 4816SOL    HW215348   5.093   5.181   2.773
 4817SOL     OW15349   1.679   2.241   6.222
 4817SOL    HW115350   1.603   2.215   6.281
 4817SOL    HW215351   1.675   2.189   6.137
 4818SOL     OW15352   0.085   6.811   4.086
 4818SOL    HW115353   0.182   6.836   4.090
 4818SOL    HW215354   0.076   6.717   4.052
 4819SOL     OW15355   1.355   3.043   0.018
 4819SOL    HW115356   1.315   3.121   0.067
 4819SOL    HW215357   1.437   3.012   0.066
 4820SOL     OW15358   0.024   3.240   1.923
 4820SOL    HW115359   7.009   3.222   2.015
 4820SOL    HW215360   0.098   3.307   1.927
 4821SOL     OW15361   6.636   5.937   2.749
 4821SOL    HW115362   6.578   5.878   2.693
 4821SOL    HW215363   6.612   5.927   2.845
 4822SOL     OW15364   1.104   3.662   4.414
 4822SOL    HW115365   1.173   3.616   4.358
 4822SOL    HW215366   1.148   3.729   4.474
 4823SOL     OW15367   1.585   2.586   2.073
 4823SOL    HW115368   1.616   2.493   2.090
 4823SOL    HW215369   1.578   2.635   2.160
 4824SOL     OW15370   6.155   1.071   5.146
 4824SOL    HW115371   6.124   1.075   5.241
 4824SOL    HW215372   6.101   1.134   5.091
 4825SOL     OW15373   1.596   6.987   3.883
 4825SOL    HW115374   1.689   7.017   3.904
 4825SOL    HW215375   1.561   6.931   3.958
 4826SOL     OW15376   4.519   0.281   1.771
 4826SOL    HW115377   4.560   0.367   1.740
 4826SOL    HW215378   4.444   0.300   1.834
 4827SOL     OW15379   6.851   1.887   1.235
 4827SOL    HW115380   6.821   1.792   1.248
 4827SOL    HW215381   6.917   1.891   1.161
 4828SOL     OW15382   4.458   0.623   2.393
 4828SOL    HW115383   4.412   0.609   2.481
 4828SOL    HW215384   4.556   0.609   2.403
 4829SOL     OW15385   3.843   0.168   5.166
 4829SOL    HW115386   3.919   0.104   5.180
 4829SOL    HW215387   3.818   0.208   5.255
 4830SOL     OW15388   3.257   5.877   3.634
 4830SOL    HW115389   3.314   5.846   3.558
 4830SOL    HW215390   3.179   5.929   3.599
 4831SOL     OW15391   3.134   4.958   6.498
 4831SOL    HW115392   3.095   4.951   6.590
 4831SOL    HW215393   3.234   4.957   6.505
 4832SOL     OW15394   3.222   2.933   4.174
 4832SOL    HW115395   3.168   2.860   4.132
 4832SOL    HW215396   3.169   3.017   4.176
 4833SOL     OW15397   0.152   2.613   4.216
 4833SOL    HW115398   0.195   2.703   4.225
 4833SOL    HW215399   0.084   2.616   4.142
 4834SOL     OW15400   1.928   4.905   1.716
 4834SOL    HW115401   1.970   4.995   1.731
 4834SOL    HW215402   1.848   4.916   1.657
 4835SOL     OW15403   0.079   2.468   5.358
 4835SOL    HW115404   0.140   2.513   5.293
 4835SOL    HW215405   0.014   2.535   5.395
 4836SOL     OW15406   4.754   1.271   5.470
 4836SOL    HW115407   4.659   1.304   5.470
 4836SOL    HW215408   4.755   1.175   5.498
 4837SOL     OW15409   6.640   4.018   4.669
 4837SOL    HW115410   6.647   3.966   4.755
 4837SOL    HW215411   6.646   4.116   4.690
 4838SOL     OW15412   1.207   4.770   6.572
 4838SOL    HW115413   1.234   4.729   6.485
 4838SOL    HW215414   1.230   4.867   6.572
 4839SOL     OW15415   2.476   1.441   6.938
 4839SOL    HW115416   2.382   1.406   6.938
 4839SOL    HW215417   2.525   1.406   7.018
 4840SOL     OW15418   5.563   3.335   4.863
 4840SOL    HW115419   5.511   3.267   4.914
 4840SOL    HW215420   5.645   3.293   4.825
 4841SOL     OW15421   2.891   5.716   2.910
 4841SOL    HW115422   2.959   5.688   2.842
 4841SOL    HW215423   2.929   5.790   2.966
 4842SOL     OW15424   2.685   5.517   3.076
 4842SOL    HW115425   2.725   5.426   3.067
 4842SOL    HW215426   2.603   5.512   3.133
 4843SOL     OW15427   0.585   2.313   2.023
 4843SOL    HW115428   0.622   2.261   1.945
 4843SOL    HW215429   0.580   2.409   1.998
 4844SOL     OW15430   0.954   5.589   4.772
 4844SOL    HW115431   1.016   5.542   4.834
 4844SOL    HW215432   0.999   5.602   4.684
 4845SOL     OW15433   4.876   3.893   4.901
 4845SOL    HW115434   4.834   3.806   4.926
 4845SOL    HW215435   4.975   3.888   4.913
 4846SOL     OW15436   6.840   3.702   5.041
 4846SOL    HW115437   6.935   3.730   5.028
 4846SOL    HW215438   6.814   3.712   5.136
 4847SOL     OW15439   2.337   6.689   6.299
 4847SOL    HW115440   2.383   6.712   6.385
 4847SOL    HW215441   2.404   6.664   6.230
 4848SOL     OW15442   3.002   0.719   4.040
 4848SOL    HW115443   2.951   0.753   3.961
 4848SOL    HW215444   2.951   0.737   4.124
 4849SOL     OW15445   1.905   6.938   1.062
 4849SOL    HW115446   1.963   6.981   0.993
 4849SOL    HW215447   1.814   6.921   1.023
 4850SOL     OW15448   4.699   0.631   0.580
 4850SOL    HW115449   4.672   0.556   0.641
 4850SOL    HW215450   4.621   0.658   0.524
 4851SOL     OW15451   3.750   5.259   6.477
 4851SOL    HW115452   3.731   5.288   6.383
 4851SOL    HW215453   3.842   5.222   6.483
 4852SOL     OW15454   4.943   5.164   4.767
 4852SOL    HW115455   4.875   5.191   4.834
 4852SOL    HW215456   4.899   5.146   4.679
 4853SOL     OW15457   3.730   0.253   2.613
 4853SOL    HW115458   3.692   0.342   2.636
 4853SOL    HW215459   3.815   0.265   2.561
 4854SOL     OW15460   5.967   6.172   1.662
 4854SOL    HW115461   5.920   6.101   1.611
 4854SOL    HW215462   5.944   6.165   1.759
 4855SOL     OW15463   6.303   5.196   4.848
 4855SOL    HW115464   6.384   5.170   4.796
 4855SOL    HW215465   6.328   5.217   4.942
 4856SOL     OW15466   0.206   3.987   2.954
 4856SOL    HW115467   0.200   3.989   3.054
 4856SOL    HW215468   0.148   4.059   2.916
 4857SOL     OW15469   2.868   1.957   4.762
 4857SOL    HW115470   2.797   1.920   4.822
 4857SOL    HW215471   2.890   2.051   4.790
 4858SOL     OW15472   0.252   5.860   4.106
 4858SOL    HW115473   0.162   5.833   4.071
 4858SOL    HW215474   0.239   5.916   4.188
 4859SOL     OW15475   0.798   5.857   2.332
 4859SOL    HW115476   0.770   5.814   2.246
 4859SOL    HW215477   0.820   5.786   2.399
 4860SOL     OW15478   4.297   5.709   0.968
 4860SOL    HW115479   4.366   5.659   1.019
 4860SOL    HW215480   4.261   5.784   1.024
 4861SOL     OW15481   0.308   4.687   6.628
 4861SOL    HW115482   0.394   4.733   6.648
 4861SOL    HW215483   0.241   4.753   6.594
 4862SOL     OW15484   2.488   4.766   5.294
 4862SOL    HW115485   2.533   4.779   5.206
 4862SOL    HW215486   2.393   4.740   5.280
 4863SOL     OW15487   4.332   1.903   3.012
 4863SOL    HW115488   4.408   1.863   3.063
 4863SOL    HW215489   4.350   1.894   2.914
 4864SOL     OW15490   2.983   1.315   1.710
 4864SOL    HW115491   2.934   1.380   1.652
 4864SOL    HW215492   2.989   1.351   1.803
 4865SOL     OW15493   3.800   5.699   5.356
 4865SOL    HW115494   3.745   5.762   5.411
 4865SOL    HW215495   3.873   5.750   5.310
 4866SOL     OW15496   6.609   4.657   1.104
 4866SOL    HW115497   6.548   4.579   1.100
 4866SOL    HW215498   6.557   4.742   1.097
 4867SOL     OW15499   4.932   5.869   2.760
 4867SOL    HW115500   4.877   5.786   2.756
 4867SOL    HW215501   5.006   5.863   2.693
 4868SOL     OW15502   0.527   5.862   1.245
 4868SOL    HW115503   0.597   5.796   1.273
 4868SOL    HW215504   0.445   5.849   1.300
 4869SOL     OW15505   6.460   0.732   0.615
 4869SOL    HW115506   6.434   0.726   0.711
 4869SOL    HW215507   6.435   0.646   0.569
 4870SOL     OW15508   5.977   6.251   2.334
 4870SOL    HW115509   6.005   6.246   2.430
 4870SOL    HW215510   6.006   6.168   2.286
 4871SOL     OW15511   1.140   3.304   4.114
 4871SOL    HW115512   1.224   3.275   4.067
 4871SOL    HW215513   1.104   3.386   4.070
 4872SOL     OW15514   1.173   1.001   2.666
 4872SOL    HW115515   1.083   0.958   2.667
 4872SOL    HW215516   1.167   1.091   2.623
 4873SOL     OW15517   0.307   5.884   5.576
 4873SOL    HW115518   0.341   5.804   5.625
 4873SOL    HW215519   0.209   5.873   5.557
 4874SOL     OW15520   5.316   3.616   3.103
 4874SOL    HW115521   5.247   3.674   3.060
 4874SOL    HW215522   5.275   3.566   3.179
 4875SOL     OW15523   6.100   2.273   6.953
 4875SOL    HW115524   6.045   2.341   7.002
 4875SOL    HW215525   6.194   2.306   6.946
 4876SOL     OW15526   0.381   1.562   6.703
 4876SOL    HW115527   0.435   1.592   6.781
 4876SOL    HW215528   0.442   1.529   6.631
 4877SOL     OW15529   6.457   1.029   1.332
 4877SOL    HW115530   6.470   0.937   1.294
 4877SOL    HW215531   6.543   1.059   1.375
 4878SOL     OW15532   0.119   1.839   1.926
 4878SOL    HW115533   0.112   1.754   1.980
 4878SOL    HW215534   0.120   1.817   1.829
 4879SOL     OW15535   4.283   5.023   3.584
 4879SOL    HW115536   4.241   5.037   3.495
 4879SOL    HW215537   4.382   5.033   3.577
 4880SOL     OW15538   5.506   1.726   5.672
 4880SOL    HW115539   5.542   1.695   5.584
 4880SOL    HW215540   5.456   1.812   5.660
 4881SOL     OW15541   3.501   6.313   6.291
 4881SOL    HW115542   3.551   6.390   6.331
 4881SOL    HW215543   3.543   6.287   6.204
 4882SOL     OW15544   5.435   0.251   5.582
 4882SOL    HW115545   5.398   0.340   5.607
 4882SOL    HW215546   5.383   0.214   5.505
 4883SOL     OW15547   0.101   5.350   1.851
 4883SOL    HW115548   0.051   5.395   1.777
 4883SOL    HW215549   0.197   5.378   1.848
 4884SOL     OW15550   3.219   6.609   1.518
 4884SOL    HW115551   3.288   6.613   1.590
 4884SOL    HW215552   3.192   6.513   1.504
 4885SOL     OW15553   1.502   0.072   1.755
 4885SOL    HW115554   1.590   0.106   1.787
 4885SOL    HW215555   1.485   0.105   1.662
 4886SOL     OW15556   6.422   0.603   6.777
 4886SOL    HW115557   6.375   0.595   6.689
 4886SOL    HW215558   6.354   0.604   6.851
 4887SOL     OW15559   0.524   2.062   3.809
 4887SOL    HW115560   0.558   2.009   3.887
 4887SOL    HW215561   0.503   2.155   3.839
 4888SOL     OW15562   2.682   5.399   2.793
 4888SOL    HW115563   2.683   5.497   2.816
 4888SOL    HW215564   2.757   5.380   2.730
 4889SOL     OW15565   0.964   1.922   0.260
 4889SOL    HW115566   1.014   1.914   0.174
 4889SOL    HW215567   0.972   1.837   0.311
 4890SOL     OW15568   1.268   0.628   4.594
 4890SOL    HW115569   1.337   0.580   4.649
 4890SOL    HW215570   1.246   0.573   4.513
 4891SOL     OW15571   1.036   4.786   0.115
 4891SOL    HW115572   1.078   4.850   0.051
 4891SOL    HW215573   1.005   4.705   0.065
 4892SOL     OW15574   0.856   5.458   0.966
 4892SOL    HW115575   0.784   5.509   0.919
 4892SOL    HW215576   0.874   5.502   1.055
 4893SOL     OW15577   0.246   3.449   6.430
 4893SOL    HW115578   0.175   3.477   6.494
 4893SOL    HW215579   0.336   3.474   6.466
 4894SOL     OW15580   2.586   1.090   2.952
 4894SOL    HW115581   2.559   1.081   3.048
 4894SOL    HW215582   2.538   1.022   2.897
 4895SOL     OW15583   0.725   3.611   6.972
 4895SOL    HW115584   0.794   3.603   0.025
 4895SOL    HW215585   0.682   3.702   6.977
 4896SOL     OW15586   3.899   5.589   4.587
 4896SOL    HW115587   3.976   5.552   4.535
 4896SOL    HW215588   3.816   5.538   4.564
 4897SOL     OW15589   3.158   5.622   6.320
 4897SOL    HW115590   3.158   5.587   6.226
 4897SOL    HW215591   3.232   5.578   6.371
 4898SOL     OW15592   5.601   2.099   5.159
 4898SOL    HW115593   5.634   2.193   5.174
 4898SOL    HW215594   5.673   2.034   5.182
 4899SOL     OW15595   5.602   3.926   4.211
 4899SOL    HW115596   5.600   3.897   4.116
 4899SOL    HW215597   5.584   4.024   4.217
 4900SOL     OW15598   1.121   6.766   5.572
 4900SOL    HW115599   1.153   6.846   5.521
 4900SOL    HW215600   1.158   6.769   5.665
 4901SOL     OW15601   0.924   0.141   3.897
 4901SOL    HW115602   0.908   0.065   3.834
 4901SOL    HW215603   1.003   0.121   3.955
 4902SOL     OW15604   2.503   4.494   1.924
 4902SOL    HW115605   2.587   4.472   1.875
 4902SOL    HW215606   2.446   4.412   1.931
 4903SOL     OW15607   4.926   7.014   6.500
 4903SOL    HW115608   4.895   0.011   6.594
 4903SOL    HW215609   4.897   0.071   6.442
 4904SOL     OW15610   2.803   5.934   3.712
 4904SOL    HW115611   2.736   5.862   3.694
 4904SOL    HW215612   2.875   5.898   3.771
 4905SOL     OW15613   5.667   3.578   2.082
 4905SOL    HW115614   5.711   3.659   2.045
 4905SOL    HW215615   5.686   3.500   2.023
 4906SOL     OW15616   5.169   0.567   0.726
 4906SOL    HW115617   5.162   0.472   0.696
 4906SOL    HW215618   5.085   0.616   0.703
 4907SOL     OW15619   3.336   0.796   2.533
 4907SOL    HW115620   3.392   0.721   2.568
 4907SOL    HW215621   3.394   0.864   2.489
 4908SOL     OW15622   2.719   5.979   6.644
 4908SOL    HW115623   2.764   6.024   6.567
 4908SOL    HW215624   2.723   5.880   6.632
 4909SOL     OW15625   0.055   6.784   5.305
 4909SOL    HW115626   0.050   6.777   5.405
 4909SOL    HW215627   0.060   6.693   5.266
 4910SOL     OW15628   5.705   6.799   4.867
 4910SOL    HW115629   5.705   6.704   4.899
 4910SOL    HW215630   5.650   6.855   4.930
 4911SOL     OW15631   6.744   2.454   6.322
 4911SOL    HW115632   6.659   2.436   6.370
 4911SOL    HW215633   6.796   2.369   6.312
 4912SOL     OW15634   2.450   2.109   2.126
 4912SOL    HW115635   2.367   2.152   2.162
 4912SOL    HW215636   2.523   2.177   2.121
 4913SOL     OW15637   2.921   3.482   3.365
 4913SOL    HW115638   2.927   3.461   3.463
 4913SOL    HW215639   2.914   3.581   3.353
 4914SOL     OW15640   2.060   6.409   3.739
 4914SOL    HW115641   2.076   6.316   3.771
 4914SOL    HW215642   1.999   6.457   3.803
 4915SOL     OW15643   2.982   5.526   3.679
 4915SOL    HW115644   3.024   5.501   3.591
 4915SOL    HW215645   3.026   5.609   3.714
 4916SOL     OW15646   2.275   1.337   2.409
 4916SOL    HW115647   2.300   1.386   2.492
 4916SOL    HW215648   2.221   1.397   2.349
 4917SOL     OW15649   1.759   5.157   0.850
 4917SOL    HW115650   1.728   5.073   0.895
 4917SOL    HW215651   1.709   5.235   0.887
 4918SOL     OW15652   2.620   0.200   1.774
 4918SOL    HW115653   2.626   0.271   1.845
 4918SOL    HW215654   2.529   0.158   1.778
 4919SOL     OW15655   2.362   2.567   2.215
 4919SOL    HW115656   2.318   2.656   2.210
 4919SOL    HW215657   2.422   2.555   2.136
 4920SOL     OW15658   4.555   0.987   0.496
 4920SOL    HW115659   4.536   0.898   0.454
 4920SOL    HW215660   4.469   1.037   0.509
 4921SOL     OW15661   1.418   5.160   1.632
 4921SOL    HW115662   1.440   5.071   1.593
 4921SOL    HW215663   1.502   5.214   1.640
 4922SOL     OW15664   1.763   2.605   5.572
 4922SOL    HW115665   1.677   2.586   5.525
 4922SOL    HW215666   1.839   2.597   5.508
 4923SOL     OW15667   4.676   1.195   0.923
 4923SOL    HW115668   4.621   1.231   0.847
 4923SOL    HW215669   4.714   1.271   0.976
 4924SOL     OW15670   0.438   4.000   4.838
 4924SOL    HW115671   0.504   4.006   4.913
 4924SOL    HW215672   0.413   4.093   4.809
 4925SOL     OW15673   4.687   5.997   6.975
 4925SOL    HW115674   4.615   6.023   0.021
 4925SOL    HW215675   4.700   6.071   6.909
 4926SOL     OW15676   4.741   2.578   1.967
 4926SOL    HW115677   4.791   2.500   2.005
 4926SOL    HW215678   4.802   2.633   1.911
 4927SOL     OW15679   3.648   3.138   3.282
 4927SOL    HW115680   3.620   3.085   3.201
 4927SOL    HW215681   3.724   3.198   3.257
 4928SOL     OW15682   0.529   6.097   6.916
 4928SOL    HW115683   0.490   6.145   6.995
 4928SOL    HW215684   0.458   6.043   6.872
 4929SOL     OW15685   0.691   5.179   4.142
 4929SOL    HW115686   0.777   5.144   4.105
 4929SOL    HW215687   0.696   5.278   4.150
 4930SOL     OW15688   0.375   2.260   0.906
 4930SOL    HW115689   0.416   2.214   0.827
 4930SOL    HW215690   0.441   2.259   0.982
 4931SOL     OW15691   6.904   0.669   0.429
 4931SOL    HW115692   6.987   0.679   0.483
 4931SOL    HW215693   6.848   0.751   0.437
 4932SOL     OW15694   2.643   2.459   1.663
 4932SOL    HW115695   2.690   2.381   1.704
 4932SOL    HW215696   2.683   2.544   1.696
 4933SOL     OW15697   3.146   0.686   4.315
 4933SOL    HW115698   3.160   0.678   4.216
 4933SOL    HW215699   3.086   0.763   4.334
 4934SOL     OW15700   0.842   6.026   4.796
 4934SOL    HW115701   0.835   6.116   4.840
 4934SOL    HW215702   0.750   5.987   4.786
 4935SOL     OW15703   1.514   1.114   0.714
 4935SOL    HW115704   1.530   1.098   0.812
 4935SOL    HW215705   1.494   1.210   0.698
 4936SOL     OW15706   3.913   5.686   0.696
 4936SOL    HW115707   3.985   5.753   0.681
 4936SOL    HW215708   3.831   5.712   0.644
 4937SOL     OW15709   0.507   3.258   6.346
 4937SOL    HW115710   0.483   3.296   6.435
 4937SOL    HW215711   0.424   3.228   6.299
 4938SOL     OW15712   3.673   4.728   1.583
 4938SOL    HW115713   3.636   4.695   1.670
 4938SOL    HW215714   3.616   4.696   1.508
 4939SOL     OW15715   1.787   1.731   2.021
 4939SOL    HW115716   1.727   1.697   1.950
 4939SOL    HW215717   1.757   1.822   2.050
 4940SOL     OW15718   0.371   2.352   4.843
 4940SOL    HW115719   0.463   2.317   4.858
 4940SOL    HW215720   0.328   2.303   4.768
 4941SOL     OW15721   3.985   2.127   5.216
 4941SOL    HW115722   3.990   2.226   5.232
 4941SOL    HW215723   4.042   2.080   5.282
 4942SOL     OW15724   6.300   2.017   3.951
 4942SOL    HW115725   6.246   1.933   3.949
 4942SOL    HW215726   6.334   2.037   3.859
 4943SOL     OW15727   5.478   3.150   6.569
 4943SOL    HW115728   5.542   3.180   6.640
 4943SOL    HW215729   5.508   3.185   6.480
 4944SOL     OW15730   1.454   5.485   1.110
 4944SOL    HW115731   1.371   5.540   1.101
 4944SOL    HW215732   1.498   5.506   1.197
 4945SOL     OW15733   1.886   1.087   4.866
 4945SOL    HW115734   1.981   1.087   4.898
 4945SOL    HW215735   1.828   1.134   4.932
 4946SOL     OW15736   2.118   5.218   6.889
 4946SOL    HW115737   2.165   5.134   6.860
 4946SOL    HW215738   2.168   5.258   6.966
 4947SOL     OW15739   1.755   0.701   1.574
 4947SOL    HW115740   1.698   0.698   1.657
 4947SOL    HW215741   1.728   0.627   1.513
 4948SOL     OW15742   1.374   2.312   1.662
 4948SOL    HW115743   1.438   2.367   1.714
 4948SOL    HW215744   1.330   2.245   1.722
 4949SOL     OW15745   6.933   3.992   0.264
 4949SOL    HW115746   6.913   4.065   0.198
 4949SOL    HW215747   0.010   3.967   0.258
 4950SOL     OW15748   2.168   4.020   5.266
 4950SOL    HW115749   2.097   4.015   5.195
 4950SOL    HW215750   2.258   4.025   5.223
 4951SOL     OW15751   4.984   5.365   3.741
 4951SOL    HW115752   4.900   5.418   3.730
 4951SOL    HW215753   5.060   5.411   3.694
 4952SOL     OW15754   0.326   6.560   6.034
 4952SOL    HW115755   0.333   6.641   5.976
 4952SOL    HW215756   0.236   6.518   6.023
 4953SOL     OW15757   0.792   2.287   4.704
 4953SOL    HW115758   0.719   2.287   4.772
 4953SOL    HW215759   0.799   2.378   4.663
 4954SOL     OW15760   3.215   4.061   5.170
 4954SOL    HW115761   3.221   4.136   5.236
 4954SOL    HW215762   3.272   4.082   5.091
 4955SOL     OW15763   3.520   5.263   6.612
 4955SOL    HW115764   3.616   5.257   6.587
 4955SOL    HW215765   3.503   5.204   6.691
 4956SOL     OW15766   2.627   6.904   4.781
 4956SOL    HW115767   2.724   6.883   4.785
 4956SOL    HW215768   2.577   6.846   4.845
 4957SOL     OW15769   5.748   4.412   0.451
 4957SOL    HW115770   5.773   4.509   0.447
 4957SOL    HW215771   5.694   4.388   0.371
 4958SOL     OW15772   2.954   6.301   0.094
 4958SOL    HW115773   2.973   6.287   7.016
 4958SOL    HW215774   3.039   6.328   0.141
 4959SOL     OW15775   0.890   3.312   2.458
 4959SOL    HW115776   0.871   3.392   2.401
 4959SOL    HW215777   0.904   3.340   2.553
 4960SOL     OW15778   4.469   5.815   4.482
 4960SOL    HW115779   4.439   5.894   4.428
 4960SOL    HW215780   4.394   5.782   4.538
 4961SOL     OW15781   4.199   1.193   0.164
 4961SOL    HW115782   4.140   1.157   0.236
 4961SOL    HW215783   4.269   1.251   0.204
 4962SOL     OW15784   1.135   4.599   0.994
 4962SOL    HW115785   1.170   4.646   1.075
 4962SOL    HW215786   1.129   4.663   0.918
 4963SOL     OW15787   0.819   3.953   5.949
 4963SOL    HW115788   0.874   4.036   5.938
 4963SOL    HW215789   0.830   3.918   6.041
 4964SOL     OW15790   3.007   0.066   4.336
 4964SOL    HW115791   2.993   6.986   4.344
 4964SOL    HW215792   2.983   0.110   4.423
 4965SOL     OW15793   1.674   6.187   2.721
 4965SOL    HW115794   1.661   6.163   2.625
 4965SOL    HW215795   1.588   6.220   2.760
 4966SOL     OW15796   3.633   6.268   4.554
 4966SOL    HW115797   3.559   6.204   4.577
 4966SOL    HW215798   3.617   6.304   4.462
 4967SOL     OW15799   4.403   4.769   5.020
 4967SOL    HW115800   4.482   4.794   4.963
 4967SOL    HW215801   4.362   4.685   4.985
 4968SOL     OW15802   6.754   1.805   3.115
 4968SOL    HW115803   6.677   1.868   3.121
 4968SOL    HW215804   6.791   1.789   3.206
 4969SOL     OW15805   0.873   6.322   3.069
 4969SOL    HW115806   0.847   6.360   3.158
 4969SOL    HW215807   0.972   6.335   3.055
 4970SOL     OW15808   1.347   1.349   1.864
 4970SOL    HW115809   1.309   1.379   1.776
 4970SOL    HW215810   1.445   1.336   1.856
 4971SOL     OW15811   6.904   6.362   3.199
 4971SOL    HW115812   6.834   6.355   3.129
 4971SOL    HW215813   6.888   6.443   3.255
 4972SOL     OW15814   1.586   4.431   1.294
 4972SOL    HW115815   1.529   4.369   1.348
 4972SOL    HW215816   1.542   4.447   1.205
 4973SOL     OW15817   6.885   0.745   1.000
 4973SOL    HW115818   6.917   0.650   1.004
 4973SOL    HW215819   6.940   0.801   1.062
 4974SOL     OW15820   3.669   5.337   5.138
 4974SOL    HW115821   3.612   5.264   5.100
 4974SOL    HW215822   3.723   5.301   5.213
 4975SOL     OW15823   5.764   3.700   0.426
 4975SOL    HW115824   5.809   3.684   0.338
 4975SOL    HW215825   5.833   3.729   0.493
 4976SOL     OW15826   1.770   6.880   4.294
 4976SOL    HW115827   1.727   6.953   4.347
 4976SOL    HW215828   1.837   6.833   4.350
 4977SOL     OW15829   2.346   4.718   6.372
 4977SOL    HW115830   2.363   4.798   6.314
 4977SOL    HW215831   2.253   4.685   6.355
 4978SOL     OW15832   5.049   4.554   5.062
 4978SOL    HW115833   5.005   4.561   4.972
 4978SOL    HW215834   4.982   4.525   5.130
 4979SOL     OW15835   2.111   6.819   6.293
 4979SOL    HW115836   2.198   6.776   6.270
 4979SOL    HW215837   2.039   6.781   6.234
 4980SOL     OW15838   5.872   3.433   2.989
 4980SOL    HW115839   5.945   3.485   2.944
 4980SOL    HW215840   5.849   3.476   3.076
 4981SOL     OW15841   3.658   5.015   1.878
 4981SOL    HW115842   3.718   5.006   1.798
 4981SOL    HW215843   3.635   4.923   1.912
 4982SOL     OW15844   4.337   1.544   6.676
 4982SOL    HW115845   4.291   1.477   6.618
 4982SOL    HW215846   4.358   1.502   6.764
 4983SOL     OW15847   6.953   5.427   3.211
 4983SOL    HW115848   6.932   5.525   3.222
 4983SOL    HW215849   6.925   5.397   3.120
 4984SOL     OW15850   5.321   4.297   3.080
 4984SOL    HW115851   5.390   4.248   3.133
 4984SOL    HW215852   5.279   4.368   3.136
 4985SOL     OW15853   5.818   6.250   2.872
 4985SOL    HW115854   5.765   6.314   2.817
 4985SOL    HW215855   5.756   6.187   2.918
 4986SOL     OW15856   1.083   5.015   2.653
 4986SOL    HW115857   1.167   4.984   2.698
 4986SOL    HW215858   1.004   4.983   2.705
 4987SOL     OW15859   0.648   1.004   2.184
 4987SOL    HW115860   0.636   1.060   2.265
 4987SOL    HW215861   0.581   0.929   2.185
 4988SOL     OW15862   5.972   0.103   3.473
 4988SOL    HW115863   5.887   0.156   3.477
 4988SOL    HW215864   6.027   0.135   3.396
 4989SOL     OW15865   4.217   0.726   2.782
 4989SOL    HW115866   4.305   0.686   2.756
 4989SOL    HW215867   4.152   0.652   2.800
 4990SOL     OW15868   4.718   1.899   5.672
 4990SOL    HW115869   4.651   1.971   5.653
 4990SOL    HW215870   4.731   1.843   5.590
 4991SOL     OW15871   1.100   5.476   4.998
 4991SOL    HW115872   1.082   5.499   5.094
 4991SOL    HW215873   1.051   5.392   4.974
 4992SOL     OW15874   6.932   1.498   3.591
 4992SOL    HW115875   6.905   1.513   3.496
 4992SOL    HW215876   0.010   1.475   3.595
 4993SOL     OW15877   4.044   6.693   4.573
 4993SOL    HW115878   4.020   6.788   4.554
 4993SOL    HW215879   3.975   6.653   4.633
 4994SOL     OW15880   3.279   5.163   6.010
 4994SOL    HW115881   3.241   5.119   6.092
 4994SOL    HW215882   3.205   5.206   5.958
 4995SOL     OW15883   0.912   0.308   5.414
 4995SOL    HW115884   0.895   0.211   5.426
 4995SOL    HW215885   0.886   0.357   5.497
 4996SOL     OW15886   6.916   0.910   4.665
 4996SOL    HW115887   6.975   0.966   4.722
 4996SOL    HW215888   6.845   0.868   4.722
 4997SOL     OW15889   3.472   2.188   1.331
 4997SOL    HW115890   3.485   2.093   1.303
 4997SOL    HW215891   3.376   2.214   1.320
 4998SOL     OW15892   0.893   3.100   4.004
 4998SOL    HW115893   0.827   3.025   4.009
 4998SOL    HW215894   0.922   3.124   4.097
 4999SOL     OW15895   0.525   3.892   4.557
 4999SOL    HW115896   0.445   3.896   4.497
 4999SOL    HW215897   0.496   3.901   4.652
 5000SOL     OW15898   2.869   5.226   3.368
 5000SOL    HW115899   2.812   5.300   3.403
 5000SOL    HW215900   2.951   5.217   3.426
 5001SOL     OW15901   0.809   5.209   2.883
 5001SOL    HW115902   0.787   5.130   2.941
 5001SOL    HW215903   0.844   5.283   2.940
 5002SOL     OW15904   0.608   3.706   3.201
 5002SOL    HW115905   0.665   3.642   3.150
 5002SOL    HW215906   0.512   3.679   3.193
 5003SOL     OW15907   4.597   6.442   3.913
 5003SOL    HW115908   4.617   6.539   3.895
 5003SOL    HW215909   4.524   6.412   3.851
 5004SOL     OW15910   2.351   5.795   6.329
 5004SOL    HW115911   2.421   5.845   6.380
 5004SOL    HW215912   2.317   5.719   6.385
 5005SOL     OW15913   2.964   2.756   6.708
 5005SOL    HW115914   3.044   2.727   6.761
 5005SOL    HW215915   2.991   2.770   6.613
 5006SOL     OW15916   5.579   1.870   1.937
 5006SOL    HW115917   5.566   1.828   1.847
 5006SOL    HW215918   5.513   1.945   1.949
 5007SOL     OW15919   5.933   0.033   1.918
 5007SOL    HW115920   6.014   6.994   1.927
 5007SOL    HW215921   5.960   0.126   1.892
 5008SOL     OW15922   6.030   6.687   1.737
 5008SOL    HW115923   6.025   6.592   1.703
 5008SOL    HW215924   5.968   6.744   1.683
 5009SOL     OW15925   0.703   2.541   0.464
 5009SOL    HW115926   0.639   2.596   0.411
 5009SOL    HW215927   0.673   2.446   0.466
 5010SOL     OW15928   3.396   3.596   0.760
 5010SOL    HW115929   3.453   3.525   0.800
 5010SOL    HW215930   3.346   3.560   0.681
 5011SOL     OW15931   1.980   3.984   6.672
 5011SOL    HW115932   1.883   3.991   6.697
 5011SOL    HW215933   1.999   4.045   6.595
 5012SOL     OW15934   6.070   1.705   4.965
 5012SOL    HW115935   6.044   1.635   5.031
 5012SOL    HW215936   6.166   1.729   4.978
 5013SOL     OW15937   5.838   0.457   5.771
 5013SOL    HW115938   5.778   0.505   5.707
 5013SOL    HW215939   5.816   0.485   5.864
 5014SOL     OW15940   6.642   3.432   1.569
 5014SOL    HW115941   6.619   3.335   1.578
 5014SOL    HW215942   6.641   3.458   1.473
 5015SOL     OW15943   5.552   6.666   3.667
 5015SOL    HW115944   5.513   6.681   3.758
 5015SOL    HW215945   5.526   6.576   3.633
 5016SOL     OW15946   1.694   3.465   4.937
 5016SOL    HW115947   1.635   3.471   4.856
 5016SOL    HW215948   1.754   3.385   4.928
 5017SOL     OW15949   0.726   2.395   1.513
 5017SOL    HW115950   0.752   2.318   1.572
 5017SOL    HW215951   0.627   2.397   1.503
 5018SOL     OW15952   0.794   6.291   1.587
 5018SOL    HW115953   0.698   6.305   1.564
 5018SOL    HW215954   0.834   6.226   1.523
 5019SOL     OW15955   1.169   5.163   5.187
 5019SOL    HW115956   1.258   5.164   5.142
 5019SOL    HW215957   1.152   5.250   5.232
 5020SOL     OW15958   0.917   0.082   4.527
 5020SOL    HW115959   0.914   0.011   4.597
 5020SOL    HW215960   0.846   0.064   4.459
 5021SOL     OW15961   1.661   0.835   1.238
 5021SOL    HW115962   1.643   0.917   1.184
 5021SOL    HW215963   1.732   0.855   1.306
 5022SOL     OW15964   0.638   3.226   1.392
 5022SOL    HW115965   0.580   3.146   1.382
 5022SOL    HW215966   0.600   3.302   1.340
 5023SOL     OW15967   0.576   4.401   2.294
 5023SOL    HW115968   0.675   4.416   2.288
 5023SOL    HW215969   0.554   4.363   2.383
 5024SOL     OW15970   5.196   3.924   1.592
 5024SOL    HW115971   5.192   3.829   1.561
 5024SOL    HW215972   5.109   3.949   1.633
 5025SOL     OW15973   4.242   1.222   3.209
 5025SOL    HW115974   4.205   1.133   3.236
 5025SOL    HW215975   4.262   1.277   3.290
 5026SOL     OW15976   6.050   6.201   5.216
 5026SOL    HW115977   6.077   6.291   5.182
 5026SOL    HW215978   6.002   6.211   5.302
 5027SOL     OW15979   5.255   1.067   6.736
 5027SOL    HW115980   5.220   1.001   6.802
 5027SOL    HW215981   5.186   1.082   6.665
 5028SOL     OW15982   0.392   2.512   2.796
 5028SOL    HW115983   0.314   2.573   2.787
 5028SOL    HW215984   0.437   2.527   2.884
 5029SOL     OW15985   6.439   2.223   2.181
 5029SOL    HW115986   6.393   2.218   2.092
 5029SOL    HW215987   6.394   2.290   2.238
 5030SOL     OW15988   6.888   5.243   6.936
 5030SOL    HW115989   6.819   5.184   6.978
 5030SOL    HW215990   6.954   5.272   7.005
 5031SOL     OW15991   6.974   0.567   5.716
 5031SOL    HW115992   6.945   0.553   5.622
 5031SOL    HW215993   6.894   0.568   5.776
 5032SOL     OW15994   3.550   2.808   5.291
 5032SOL    HW115995   3.456   2.835   5.268
 5032SOL    HW215996   3.614   2.849   5.226
 5033SOL     OW15997   2.019   1.233   0.423
 5033SOL    HW115998   2.022   1.143   0.380
 5033SOL    HW215999   2.111   1.271   0.428
 5034SOL     OW16000   4.798   5.892   3.877
 5034SOL    HW116001   4.807   5.795   3.900
 5034SOL    HW216002   4.759   5.941   3.955
 5035SOL     OW16003   0.521   4.432   4.410
 5035SOL    HW116004   0.553   4.506   4.350
 5035SOL    HW216005   0.541   4.344   4.367
 5036SOL     OW16006   6.555   3.422   5.126
 5036SOL    HW116007   6.571   3.501   5.066
 5036SOL    HW216008   6.580   3.445   5.220
 5037SOL     OW16009   4.382   4.382   1.125
 5037SOL    HW116010   4.370   4.289   1.160
 5037SOL    HW216011   4.329   4.393   1.041
 5038SOL     OW16012   3.281   3.418   3.950
 5038SOL    HW116013   3.296   3.484   3.876
 5038SOL    HW216014   3.325   3.331   3.926
 5039SOL     OW16015   1.770   2.922   6.613
 5039SOL    HW116016   1.841   2.859   6.643
 5039SOL    HW216017   1.697   2.925   6.681
 5040SOL     OW16018   1.116   5.642   5.943
 5040SOL    HW116019   1.189   5.575   5.954
 5040SOL    HW216020   1.037   5.615   5.998
 5041SOL     OW16021   0.311   3.196   2.202
 5041SOL    HW116022   0.401   3.232   2.224
 5041SOL    HW216023   0.270   3.250   2.128
 5042SOL     OW16024   6.882   3.223   6.015
 5042SOL    HW116025   6.844   3.156   5.952
 5042SOL    HW216026   6.969   3.257   5.980
 5043SOL     OW16027   4.337   0.335   0.966
 5043SOL    HW116028   4.389   0.256   0.933
 5043SOL    HW216029   4.372   0.362   1.056
 5044SOL     OW16030   6.953   5.574   0.382
 5044SOL    HW116031   6.881   5.637   0.354
 5044SOL    HW216032   7.001   5.611   0.461
 5045SOL     OW16033   5.987   3.855   6.218
 5045SOL    HW116034   6.044   3.934   6.194
 5045SOL    HW216035   5.893   3.873   6.190
 5046SOL     OW16036   3.445   3.202   3.913
 5046SOL    HW116037   3.474   3.107   3.904
 5046SOL    HW216038   3.511   3.252   3.969
 5047SOL     OW16039   1.727   3.515   3.264
 5047SOL    HW116040   1.697   3.604   3.229
 5047SOL    HW216041   1.710   3.444   3.196
 5048SOL     OW16042   1.278   1.451   5.729
 5048SOL    HW116043   1.249   1.417   5.639
 5048SOL    HW216044   1.228   1.402   5.800
 5049SOL     OW16045   6.123   0.583   6.281
 5049SOL    HW116046   6.200   0.557   6.223
 5049SOL    HW216047   6.053   0.512   6.276
 5050SOL     OW16048   1.778   0.746   0.501
 5050SOL    HW116049   1.804   0.748   0.404
 5050SOL    HW216050   1.753   0.838   0.531
 5051SOL     OW16051   3.935   4.834   1.502
 5051SOL    HW116052   3.838   4.833   1.476
 5051SOL    HW216053   3.978   4.748   1.474
 5052SOL     OW16054   3.353   1.846   5.501
 5052SOL    HW116055   3.379   1.942   5.488
 5052SOL    HW216056   3.435   1.789   5.491
 5053SOL     OW16057   0.490   5.484   2.499
 5053SOL    HW116058   0.444   5.409   2.452
 5053SOL    HW216059   0.554   5.447   2.566
 5054SOL     OW16060   4.071   4.980   5.034
 5054SOL    HW116061   4.104   4.900   5.085
 5054SOL    HW216062   4.072   5.060   5.093
 5055SOL     OW16063   6.431   3.175   6.424
 5055SOL    HW116064   6.417   3.151   6.520
 5055SOL    HW216065   6.506   3.121   6.386
 5056SOL     OW16066   4.991   3.648   5.224
 5056SOL    HW116067   4.937   3.646   5.140
 5056SOL    HW216068   4.932   3.628   5.302
 5057SOL     OW16069   1.084   6.434   2.401
 5057SOL    HW116070   1.008   6.369   2.400
 5057SOL    HW216071   1.048   6.526   2.418
 5058SOL     OW16072   3.010   4.588   6.627
 5058SOL    HW116073   2.916   4.577   6.659
 5058SOL    HW216074   3.070   4.524   6.676
 5059SOL     OW16075   0.500   0.754   2.953
 5059SOL    HW116076   0.491   0.675   2.892
 5059SOL    HW216077   0.514   0.837   2.899
 5060SOL     OW16078   6.086   1.912   6.136
 5060SOL    HW116079   6.111   1.976   6.063
 5060SOL    HW216080   6.164   1.852   6.155
 5061SOL     OW16081   4.703   3.352   0.441
 5061SOL    HW116082   4.637   3.393   0.504
 5061SOL    HW216083   4.794   3.387   0.461
 5062SOL     OW16084   0.107   0.163   1.296
 5062SOL    HW116085   0.078   0.256   1.271
 5062SOL    HW216086   0.170   0.167   1.373
 5063SOL     OW16087   0.926   6.644   2.441
 5063SOL    HW116088   0.844   6.587   2.452
 5063SOL    HW216089   0.916   6.727   2.495
 5064SOL     OW16090   4.627   3.100   0.704
 5064SOL    HW116091   4.644   3.195   0.679
 5064SOL    HW216092   4.714   3.055   0.723
 5065SOL     OW16093   2.704   6.607   5.493
 5065SOL    HW116094   2.656   6.520   5.477
 5065SOL    HW216095   2.797   6.589   5.524
 5066SOL     OW16096   5.872   4.810   1.579
 5066SOL    HW116097   5.923   4.783   1.497
 5066SOL    HW216098   5.908   4.760   1.658
 5067SOL     OW16099   4.945   0.704   0.689
 5067SOL    HW116100   4.863   0.685   0.634
 5067SOL    HW216101   4.922   0.770   0.761
 5068SOL     OW16102   2.971   4.653   0.039
 5068SOL    HW116103   3.003   4.711   6.983
 5068SOL    HW216104   2.874   4.633   0.027
 5069SOL     OW16105   0.985   4.592   2.979
 5069SOL    HW116106   0.958   4.505   3.021
 5069SOL    HW216107   0.927   4.610   2.899
 5070SOL     OW16108   4.868   3.382   4.025
 5070SOL    HW116109   4.803   3.347   3.957
 5070SOL    HW216110   4.952   3.327   4.022
 5071SOL     OW16111   4.530   2.118   5.591
 5071SOL    HW116112   4.532   2.114   5.691
 5071SOL    HW216113   4.438   2.140   5.561
 5072SOL     OW16114   0.318   4.404   1.097
 5072SOL    HW116115   0.333   4.306   1.101
 5072SOL    HW216116   0.370   4.449   1.171
 5073SOL     OW16117   5.885   0.077   2.314
 5073SOL    HW116118   5.833   0.140   2.256
 5073SOL    HW216119   5.831   0.052   2.394
 5074SOL     OW16120   2.825   4.075   6.606
 5074SOL    HW116121   2.903   4.120   6.562
 5074SOL    HW216122   2.767   4.034   6.536
 5075SOL     OW16123   0.158   5.217   4.736
 5075SOL    HW116124   0.145   5.153   4.812
 5075SOL    HW216125   0.189   5.305   4.771
 5076SOL     OW16126   3.352   0.985   0.834
 5076SOL    HW116127   3.409   0.903   0.842
 5076SOL    HW216128   3.297   0.995   0.917
 5077SOL     OW16129   1.079   2.782   3.709
 5077SOL    HW116130   1.108   2.871   3.744
 5077SOL    HW216131   1.160   2.723   3.698
 5078SOL     OW16132   1.649   2.040   4.492
 5078SOL    HW116133   1.667   1.946   4.521
 5078SOL    HW216134   1.706   2.062   4.412
 5079SOL     OW16135   3.515   4.761   5.523
 5079SOL    HW116136   3.595   4.782   5.580
 5079SOL    HW216137   3.432   4.791   5.570
 5080SOL     OW16138   5.449   6.534   5.653
 5080SOL    HW116139   5.358   6.550   5.692
 5080SOL    HW216140   5.468   6.436   5.652
 5081SOL     OW16141   3.515   3.498   3.431
 5081SOL    HW116142   3.470   3.473   3.345
 5081SOL    HW216143   3.522   3.598   3.436
 5082SOL     OW16144   5.291   5.999   6.123
 5082SOL    HW116145   5.265   5.965   6.214
 5082SOL    HW216146   5.275   6.097   6.118
 5083SOL     OW16147   1.800   6.956   2.084
 5083SOL    HW116148   1.706   6.986   2.103
 5083SOL    HW216149   1.799   6.892   2.007
 5084SOL     OW16150   1.267   5.743   4.275
 5084SOL    HW116151   1.296   5.776   4.364
 5084SOL    HW216152   1.171   5.769   4.259
 5085SOL     OW16153   5.847   1.623   6.245
 5085SOL    HW116154   5.936   1.593   6.279
 5085SOL    HW216155   5.817   1.703   6.296
 5086SOL     OW16156   6.373   4.713   3.796
 5086SOL    HW116157   6.348   4.706   3.699
 5086SOL    HW216158   6.364   4.809   3.825
 5087SOL     OW16159   6.853   5.606   5.121
 5087SOL    HW116160   6.879   5.539   5.051
 5087SOL    HW216161   6.899   5.692   5.104
 5088SOL     OW16162   6.021   0.736   5.817
 5088SOL    HW116163   5.954   0.674   5.856
 5088SOL    HW216164   6.098   0.747   5.879
 5089SOL     OW16165   5.721   3.422   2.737
 5089SOL    HW116166   5.779   3.356   2.690
 5089SOL    HW216167   5.742   3.422   2.834
 5090SOL     OW16168   1.724   4.931   1.481
 5090SOL    HW116169   1.634   4.940   1.524
 5090SOL    HW216170   1.730   4.993   1.402
 5091SOL     OW16171   0.985   6.226   2.644
 5091SOL    HW116172   1.008   6.158   2.575
 5091SOL    HW216173   0.922   6.186   2.711
 5092SOL     OW16174   3.580   2.200   1.063
 5092SOL    HW116175   3.605   2.109   1.030
 5092SOL    HW216176   3.562   2.196   1.162
 5093SOL     OW16177   1.685   1.958   2.115
 5093SOL    HW116178   1.586   1.948   2.121
 5093SOL    HW216179   1.714   2.038   2.167
 5094SOL     OW16180   0.693   6.324   5.175
 5094SOL    HW116181   0.754   6.382   5.228
 5094SOL    HW216182   0.647   6.259   5.237
 5095SOL     OW16183   2.606   0.429   5.162
 5095SOL    HW116184   2.648   0.516   5.139
 5095SOL    HW216185   2.676   0.367   5.198
 5096SOL     OW16186   5.228   3.685   0.918
 5096SOL    HW116187   5.211   3.783   0.926
 5096SOL    HW216188   5.164   3.635   0.977
 5097SOL     OW16189   1.686   6.600   5.962
 5097SOL    HW116190   1.698   6.679   5.902
 5097SOL    HW216191   1.701   6.516   5.910
 5098SOL     OW16192   0.048   1.553   2.718
 5098SOL    HW116193   0.075   1.645   2.745
 5098SOL    HW216194   7.011   1.512   2.791
 5099SOL     OW16195   1.431   0.102   5.267
 5099SOL    HW116196   1.399   0.184   5.313
 5099SOL    HW216197   1.503   0.126   5.202
 5100SOL     OW16198   5.960   6.120   0.225
 5100SOL    HW116199   5.965   6.047   0.293
 5100SOL    HW216200   5.944   6.207   0.272
 5101SOL     OW16201   4.232   6.260   6.892
 5101SOL    HW116202   4.321   6.220   6.911
 5101SOL    HW216203   4.242   6.359   6.879
 5102SOL     OW16204   4.144   6.769   4.944
 5102SOL    HW116205   4.076   6.783   4.872
 5102SOL    HW216206   4.225   6.825   4.924
 5103SOL     OW16207   6.853   0.185   4.081
 5103SOL    HW116208   6.833   0.246   4.157
 5103SOL    HW216209   6.770   0.166   4.029
 5104SOL     OW16210   1.504   0.694   1.799
 5104SOL    HW116211   1.454   0.751   1.734
 5104SOL    HW216212   1.542   0.751   1.872
 5105SOL     OW16213   3.376   3.581   6.306
 5105SOL    HW116214   3.475   3.589   6.323
 5105SOL    HW216215   3.329   3.657   6.350
 5106SOL     OW16216   3.507   0.590   2.550
 5106SOL    HW116217   3.573   0.559   2.619
 5106SOL    HW216218   3.555   0.603   2.463
 5107SOL     OW16219   2.405   6.969   6.060
 5107SOL    HW116220   2.487   7.012   6.023
 5107SOL    HW216221   2.395   6.994   6.157
 5108SOL     OW16222   2.980   3.877   4.344
 5108SOL    HW116223   3.039   3.818   4.400
 5108SOL    HW216224   3.031   3.907   4.263
 5109SOL     OW16225   0.114   0.950   1.522
 5109SOL    HW116226   0.167   0.946   1.606
 5109SOL    HW216227   0.022   0.915   1.539
 5110SOL     OW16228   1.636   5.527   5.822
 5110SOL    HW116229   1.581   5.480   5.752
 5110SOL    HW216230   1.575   5.579   5.882
 5111SOL     OW16231   1.855   1.441   0.368
 5111SOL    HW116232   1.909   1.357   0.380
 5111SOL    HW216233   1.782   1.424   0.302
 5112SOL     OW16234   0.303   6.198   3.692
 5112SOL    HW116235   0.393   6.207   3.733
 5112SOL    HW216236   0.250   6.128   3.742
 5113SOL     OW16237   1.525   0.887   6.807
 5113SOL    HW116238   1.581   0.952   6.858
 5113SOL    HW216239   1.437   0.876   6.852
 5114SOL     OW16240   3.525   4.813   6.798
 5114SOL    HW116241   3.550   4.738   6.737
 5114SOL    HW216242   3.451   4.783   6.859
 5115SOL     OW16243   1.756   3.378   5.523
 5115SOL    HW116244   1.668   3.407   5.561
 5115SOL    HW216245   1.745   3.355   5.427
 5116SOL     OW16246   6.250   4.789   0.398
 5116SOL    HW116247   6.315   4.764   0.326
 5116SOL    HW216248   6.294   4.777   0.487
 5117SOL     OW16249   2.432   4.483   4.675
 5117SOL    HW116250   2.463   4.539   4.752
 5117SOL    HW216251   2.407   4.392   4.708
 5118SOL     OW16252   4.259   6.190   0.476
 5118SOL    HW116253   4.175   6.213   0.426
 5118SOL    HW216254   4.251   6.223   0.570
 5119SOL     OW16255   5.523   0.672   2.157
 5119SOL    HW116256   5.616   0.644   2.180
 5119SOL    HW216257   5.471   0.594   2.123
 5120SOL     OW16258   4.888   1.889   2.647
 5120SOL    HW116259   4.890   1.989   2.644
 5120SOL    HW216260   4.978   1.854   2.672
 5121SOL     OW16261   0.032   3.377   5.306
 5121SOL    HW116262   0.075   3.292   5.337
 5121SOL    HW216263   6.954   3.377   5.332
 5122SOL     OW16264   2.282   6.794   3.636
 5122SOL    HW116265   2.252   6.799   3.541
 5122SOL    HW216266   2.382   6.793   3.639
 5123SOL     OW16267   4.999   4.758   2.339
 5123SOL    HW116268   5.076   4.765   2.275
 5123SOL    HW216269   5.020   4.689   2.408
 5124SOL     OW16270   3.252   6.603   6.478
 5124SOL    HW116271   3.154   6.617   6.493
 5124SOL    HW216272   3.269   6.509   6.451
 5125SOL     OW16273   0.375   2.596   4.592
 5125SOL    HW116274   0.345   2.501   4.601
 5125SOL    HW216275   0.400   2.614   4.497
 5126SOL     OW16276   6.043   4.253   6.315
 5126SOL    HW116277   5.960   4.199   6.324
 5126SOL    HW216278   6.025   4.333   6.258
 5127SOL     OW16279   5.692   3.217   6.730
 5127SOL    HW116280   5.789   3.211   6.751
 5127SOL    HW216281   5.645   3.263   6.806
 5128SOL     OW16282   0.223   0.503   0.026
 5128SOL    HW116283   0.227   0.451   0.112
 5128SOL    HW216284   0.164   0.582   0.038
 5129SOL     OW16285   4.825   1.918   2.232
 5129SOL    HW116286   4.769   1.955   2.306
 5129SOL    HW216287   4.866   1.831   2.261
 5130SOL     OW16288   0.652   5.658   4.052
 5130SOL    HW116289   0.561   5.659   4.094
 5130SOL    HW216290   0.662   5.737   3.992
 5131SOL     OW16291   3.022   4.868   3.169
 5131SOL    HW116292   3.057   4.791   3.116
 5131SOL    HW216293   2.922   4.862   3.172
 5132SOL     OW16294   3.747   1.498   6.758
 5132SOL    HW116295   3.780   1.470   6.848
 5132SOL    HW216296   3.705   1.420   6.712
 5133SOL     OW16297   4.226   4.252   6.803
 5133SOL    HW116298   4.323   4.257   6.778
 5133SOL    HW216299   4.202   4.332   6.859
 5134SOL     OW16300   6.755   5.882   1.436
 5134SOL    HW116301   6.787   5.974   1.414
 5134SOL    HW216302   6.707   5.844   1.357
 5135SOL     OW16303   6.506   3.319   2.108
 5135SOL    HW116304   6.520   3.382   2.185
 5135SOL    HW216305   6.574   3.336   2.038
 5136SOL     OW16306   0.807   0.465   5.958
 5136SOL    HW116307   0.897   0.422   5.956
 5136SOL    HW216308   0.788   0.508   5.870
 5137SOL     OW16309   5.303   1.034   4.821
 5137SOL    HW116310   5.365   1.109   4.845
 5137SOL    HW216311   5.288   1.034   4.723
 5138SOL     OW16312   3.495   2.894   3.831
 5138SOL    HW116313   3.505   2.876   3.929
 5138SOL    HW216314   3.408   2.940   3.814
 5139SOL     OW16315   2.212   0.090   4.909
 5139SOL    HW116316   2.259   0.134   4.833
 5139SOL    HW216317   2.116   0.077   4.885
 5140SOL     OW16318   4.563   2.229   6.422
 5140SOL    HW116319   4.604   2.142   6.449
 5140SOL    HW216320   4.503   2.214   6.343
 5141SOL     OW16321   6.215   2.975   1.887
 5141SOL    HW116322   6.275   3.033   1.943
 5141SOL    HW216323   6.266   2.893   1.858
 5142SOL     OW16324   0.038   0.292   2.556
 5142SOL    HW116325   7.011   0.381   2.561
 5142SOL    HW216326   0.137   0.306   2.564
 5143SOL     OW16327   0.452   5.685   3.705
 5143SOL    HW116328   0.520   5.652   3.640
 5143SOL    HW216329   0.368   5.632   3.695
 5144SOL     OW16330   2.576   2.806   5.523
 5144SOL    HW116331   2.533   2.888   5.562
 5144SOL    HW216332   2.567   2.730   5.587
 5145SOL     OW16333   2.721   6.386   6.758
 5145SOL    HW116334   2.817   6.404   6.739
 5145SOL    HW216335   2.671   6.377   6.672
 5146SOL     OW16336   5.144   4.548   6.202
 5146SOL    HW116337   5.154   4.449   6.201
 5146SOL    HW216338   5.202   4.589   6.131
 5147SOL     OW16339   4.713   2.847   3.404
 5147SOL    HW116340   4.791   2.891   3.448
 5147SOL    HW216341   4.646   2.820   3.473
 5148SOL     OW16342   0.596   0.034   0.375
 5148SOL    HW116343   0.567   0.129   0.374
 5148SOL    HW216344   0.654   0.016   0.295
 5149SOL     OW16345   5.021   4.601   3.338
 5149SOL    HW116346   4.947   4.588   3.272
 5149SOL    HW216347   4.992   4.567   3.428
 5150SOL     OW16348   0.090   6.088   3.814
 5150SOL    HW116349   0.006   6.137   3.790
 5150SOL    HW216350   0.067   5.995   3.844
 5151SOL     OW16351   5.909   5.360   1.747
 5151SOL    HW116352   5.856   5.411   1.815
 5151SOL    HW216353   5.855   5.284   1.713
 5152SOL     OW16354   0.818   1.341   6.683
 5152SOL    HW116355   0.772   1.252   6.689
 5152SOL    HW216356   0.863   1.361   6.770
 5153SOL     OW16357   1.163   1.973   0.803
 5153SOL    HW116358   1.095   1.973   0.876
 5153SOL    HW216359   1.157   1.887   0.752
 5154SOL     OW16360   6.823   2.956   6.929
 5154SOL    HW116361   6.875   3.028   6.882
 5154SOL    HW216362   6.885   2.901   6.985
 5155SOL     OW16363   1.805   1.519   0.828
 5155SOL    HW116364   1.864   1.600   0.827
 5155SOL    HW216365   1.747   1.522   0.910
 5156SOL     OW16366   5.399   5.843   5.918
 5156SOL    HW116367   5.360   5.751   5.925
 5156SOL    HW216368   5.352   5.904   5.982
 5157SOL     OW16369   4.168   0.248   1.378
 5157SOL    HW116370   4.210   0.316   1.438
 5157SOL    HW216371   4.110   0.294   1.311
 5158SOL     OW16372   2.415   1.899   2.332
 5158SOL    HW116373   2.464   1.956   2.266
 5158SOL    HW216374   2.384   1.815   2.288
 5159SOL     OW16375   6.386   3.130   5.345
 5159SOL    HW116376   6.443   3.049   5.333
 5159SOL    HW216377   6.297   3.102   5.382
 5160SOL     OW16378   6.597   6.250   3.617
 5160SOL    HW116379   6.586   6.192   3.536
 5160SOL    HW216380   6.556   6.204   3.696
 5161SOL     OW16381   1.111   3.732   0.260
 5161SOL    HW116382   1.065   3.724   0.349
 5161SOL    HW216383   1.200   3.776   0.272
 5162SOL     OW16384   0.162   6.877   3.424
 5162SOL    HW116385   0.253   6.858   3.462
 5162SOL    HW216386   0.093   6.842   3.486
 5163SOL     OW16387   3.042   6.867   1.958
 5163SOL    HW116388   3.010   6.948   1.910
 5163SOL    HW216389   3.142   6.862   1.951
 5164SOL     OW16390   3.190   3.739   0.847
 5164SOL    HW116391   3.277   3.692   0.834
 5164SOL    HW216392   3.129   3.718   0.771
 5165SOL     OW16393   1.296   4.439   6.877
 5165SOL    HW116394   1.269   4.348   6.847
 5165SOL    HW216395   1.295   4.443   6.977
 5166SOL     OW16396   1.738   5.923   1.641
 5166SOL    HW116397   1.655   5.968   1.675
 5166SOL    HW216398   1.791   5.888   1.718
 5167SOL     OW16399   5.257   2.390   5.080
 5167SOL    HW116400   5.263   2.412   4.983
 5167SOL    HW216401   5.163   2.366   5.104
 5168SOL     OW16402   4.429   2.358   2.160
 5168SOL    HW116403   4.463   2.264   2.166
 5168SOL    HW216404   4.497   2.420   2.200
 5169SOL     OW16405   4.259   6.262   3.953
 5169SOL    HW116406   4.295   6.330   4.017
 5169SOL    HW216407   4.274   6.293   3.859
 5170SOL     OW16408   1.503   3.284   6.242
 5170SOL    HW116409   1.599   3.277   6.272
 5170SOL    HW216410   1.454   3.202   6.273
 5171SOL     OW16411   1.834   6.020   5.558
 5171SOL    HW116412   1.774   5.941   5.556
 5171SOL    HW216413   1.866   6.040   5.465
 5172SOL     OW16414   6.770   5.098   4.432
 5172SOL    HW116415   6.672   5.091   4.418
 5172SOL    HW216416   6.801   5.190   4.411
 5173SOL     OW16417   4.199   4.287   5.483
 5173SOL    HW116418   4.211   4.386   5.473
 5173SOL    HW216419   4.264   4.239   5.424
 5174SOL     OW16420   2.405   6.063   3.271
 5174SOL    HW116421   2.487   6.093   3.319
 5174SOL    HW216422   2.326   6.115   3.304
 5175SOL     OW16423   3.133   3.818   6.883
 5175SOL    HW116424   3.089   3.907   6.877
 5175SOL    HW216425   3.078   3.757   6.939
 5176SOL     OW16426   5.763   5.746   0.631
 5176SOL    HW116427   5.825   5.800   0.574
 5176SOL    HW216428   5.702   5.807   0.681
 5177SOL     OW16429   5.687   0.007   0.268
 5177SOL    HW116430   5.680   6.968   0.186
 5177SOL    HW216431   5.652   0.098   0.247
 5178SOL     OW16432   0.720   4.398   1.906
 5178SOL    HW116433   0.622   4.396   1.926
 5178SOL    HW216434   0.739   4.343   1.825
 5179SOL     OW16435   5.572   5.062   2.654
 5179SOL    HW116436   5.546   4.981   2.600
 5179SOL    HW216437   5.638   5.034   2.724
 5180SOL     OW16438   2.429   0.041   2.279
 5180SOL    HW116439   2.344   0.050   2.333
 5180SOL    HW216440   2.504   0.015   2.340
 5181SOL     OW16441   0.520   0.160   6.064
 5181SOL    HW116442   0.475   0.181   5.978
 5181SOL    HW216443   0.563   0.070   6.058
 5182SOL     OW16444   3.463   5.465   3.329
 5182SOL    HW116445   3.479   5.543   3.269
 5182SOL    HW216446   3.416   5.393   3.278
 5183SOL     OW16447   3.891   1.537   3.666
 5183SOL    HW116448   3.910   1.632   3.641
 5183SOL    HW216449   3.956   1.508   3.737
 5184SOL     OW16450   2.880   1.167   3.975
 5184SOL    HW116451   2.896   1.109   4.055
 5184SOL    HW216452   2.966   1.180   3.926
 5185SOL     OW16453   6.043   0.706   1.703
 5185SOL    HW116454   6.078   0.672   1.790
 5185SOL    HW216455   6.054   0.635   1.633
 5186SOL     OW16456   6.752   3.207   6.431
 5186SOL    HW116457   6.743   3.226   6.333
 5186SOL    HW216458   6.779   3.290   6.479
 5187SOL     OW16459   1.876   4.653   5.262
 5187SOL    HW116460   1.814   4.609   5.326
 5187SOL    HW216461   1.943   4.586   5.229
 5188SOL     OW16462   6.244   6.532   2.104
 5188SOL    HW116463   6.164   6.592   2.107
 5188SOL    HW216464   6.265   6.501   2.197
 5189SOL     OW16465   5.311   6.900   6.387
 5189SOL    HW116466   5.408   6.894   6.363
 5189SOL    HW216467   5.257   6.918   6.305
 5190SOL     OW16468   0.998   4.290   0.583
 5190SOL    HW116469   0.913   4.332   0.615
 5190SOL    HW216470   1.063   4.286   0.659
 5191SOL     OW16471   3.221   4.859   2.622
 5191SOL    HW116472   3.132   4.836   2.583
 5191SOL    HW216473   3.293   4.826   2.561
 5192SOL     OW16474   1.933   4.743   2.130
 5192SOL    HW116475   2.020   4.693   2.129
 5192SOL    HW216476   1.877   4.714   2.053
 5193SOL     OW16477   5.275   0.042   6.143
 5193SOL    HW116478   5.212   0.098   6.198
 5193SOL    HW216479   5.369   0.060   6.173
 5194SOL     OW16480   5.229   1.969   6.368
 5194SOL    HW116481   5.316   2.017   6.378
 5194SOL    HW216482   5.214   1.908   6.445
 5195SOL     OW16483   0.049   0.366   4.583
 5195SOL    HW116484   0.010   0.280   4.550
 5195SOL    HW216485   0.118   0.398   4.517
 5196SOL     OW16486   5.348   6.608   2.486
 5196SOL    HW116487   5.286   6.682   2.459
 5196SOL    HW216488   5.439   6.627   2.451
 5197SOL     OW16489   1.192   4.093   5.414
 5197SOL    HW116490   1.254   4.090   5.336
 5197SOL    HW216491   1.102   4.059   5.387
 5198SOL     OW16492   5.972   5.830   2.349
 5198SOL    HW116493   5.996   5.769   2.425
 5198SOL    HW216494   6.003   5.790   2.263
 5199SOL     OW16495   6.803   4.752   0.875
 5199SOL    HW116496   6.758   4.743   0.964
 5199SOL    HW216497   6.898   4.780   0.888
 5200SOL     OW16498   0.280   3.806   4.950
 5200SOL    HW116499   0.331   3.720   4.951
 5200SOL    HW216500   0.333   3.876   4.902
 5201SOL     OW16501   1.449   5.127   4.037
 5201SOL    HW116502   1.425   5.211   3.988
 5201SOL    HW216503   1.548   5.121   4.045
 5202SOL     OW16504   0.184   4.876   0.763
 5202SOL    HW116505   0.129   4.885   0.846
 5202SOL    HW216506   0.250   4.802   0.775
 5203SOL     OW16507   1.296   2.075   0.106
 5203SOL    HW116508   1.241   2.158   0.097
 5203SOL    HW216509   1.382   2.086   0.056
 5204SOL     OW16510   4.828   4.961   0.047
 5204SOL    HW116511   4.896   4.918   7.007
 5204SOL    HW216512   4.768   5.019   7.011
 5205SOL     OW16513   1.233   0.310   1.766
 5205SOL    HW116514   1.222   0.232   1.704
 5205SOL    HW216515   1.330   0.323   1.786
 5206SOL     OW16516   0.325   4.200   6.292
 5206SOL    HW116517   0.380   4.264   6.239
 5206SOL    HW216518   0.237   4.242   6.314
 5207SOL     OW16519   1.890   4.656   4.195
 5207SOL    HW116520   1.801   4.694   4.170
 5207SOL    HW216521   1.883   4.610   4.284
 5208SOL     OW16522   3.641   1.211   6.671
 5208SOL    HW116523   3.600   1.127   6.708
 5208SOL    HW216524   3.736   1.193   6.646
 5209SOL     OW16525   5.629   6.092   2.997
 5209SOL    HW116526   5.664   6.007   2.958
 5209SOL    HW216527   5.530   6.084   3.012
 5210SOL     OW16528   5.285   4.767   4.074
 5210SOL    HW116529   5.299   4.725   3.985
 5210SOL    HW216530   5.213   4.835   4.068
 5211SOL     OW16531   4.109   3.364   3.285
 5211SOL    HW116532   4.044   3.295   3.252
 5211SOL    HW216533   4.129   3.349   3.381
 5212SOL     OW16534   0.991   1.991   1.016
 5212SOL    HW116535   0.954   1.900   1.037
 5212SOL    HW216536   1.027   2.033   1.100
 5213SOL     OW16537   4.770   2.666   5.432
 5213SOL    HW116538   4.736   2.641   5.341
 5213SOL    HW216539   4.754   2.590   5.495
 5214SOL     OW16540   5.364   0.958   5.376
 5214SOL    HW116541   5.448   0.919   5.340
 5214SOL    HW216542   5.333   1.033   5.316
 5215SOL     OW16543   5.221   4.509   2.862
 5215SOL    HW116544   5.123   4.488   2.865
 5215SOL    HW216545   5.270   4.443   2.919
 5216SOL     OW16546   4.979   4.898   0.506
 5216SOL    HW116547   4.946   4.959   0.435
 5216SOL    HW216548   4.902   4.867   0.562
 5217SOL     OW16549   2.490   5.161   4.363
 5217SOL    HW116550   2.514   5.169   4.460
 5217SOL    HW216551   2.488   5.065   4.337
 5218SOL     OW16552   1.650   6.690   3.415
 5218SOL    HW116553   1.622   6.782   3.442
 5218SOL    HW216554   1.658   6.632   3.497
 5219SOL     OW16555   3.510   6.966   6.164
 5219SOL    HW116556   3.569   6.897   6.206
 5219SOL    HW216557   3.416   6.955   6.197
 5220SOL     OW16558   0.929   6.508   2.713
 5220SOL    HW116559   0.857   6.470   2.770
 5220SOL    HW216560   0.978   6.434   2.668
 5221SOL     OW16561   4.989   1.104   4.889
 5221SOL    HW116562   5.024   1.052   4.811
 5221SOL    HW216563   5.035   1.074   4.973
 5222SOL     OW16564   1.651   0.544   3.705
 5222SOL    HW116565   1.570   0.516   3.654
 5222SOL    HW216566   1.651   0.499   3.795
 5223SOL     OW16567   4.683   0.551   1.412
 5223SOL    HW116568   4.618   0.518   1.343
 5223SOL    HW216569   4.641   0.543   1.503
 5224SOL     OW16570   6.249   1.717   2.213
 5224SOL    HW116571   6.319   1.786   2.193
 5224SOL    HW216572   6.196   1.746   2.293
 5225SOL     OW16573   5.822   5.952   4.352
 5225SOL    HW116574   5.869   6.019   4.408
 5225SOL    HW216575   5.734   5.930   4.394
 5226SOL     OW16576   1.142   6.346   4.109
 5226SOL    HW116577   1.156   6.357   4.208
 5226SOL    HW216578   1.172   6.255   4.081
 5227SOL     OW16579   6.020   4.619   2.824
 5227SOL    HW116580   5.996   4.649   2.732
 5227SOL    HW216581   5.939   4.616   2.882
 5228SOL     OW16582   5.359   1.682   0.649
 5228SOL    HW116583   5.414   1.715   0.572
 5228SOL    HW216584   5.324   1.760   0.701
 5229SOL     OW16585   1.288   3.737   5.412
 5229SOL    HW116586   1.193   3.725   5.441
 5229SOL    HW216587   1.317   3.659   5.357
 5230SOL     OW16588   0.255   0.418   0.295
 5230SOL    HW116589   0.209   0.468   0.369
 5230SOL    HW216590   0.203   0.335   0.273
 5231SOL     OW16591   4.097   3.287   3.838
 5231SOL    HW116592   4.122   3.250   3.748
 5231SOL    HW216593   3.998   3.298   3.843
 5232SOL     OW16594   4.328   2.464   6.863
 5232SOL    HW116595   4.252   2.444   6.800
 5232SOL    HW216596   4.415   2.445   6.818
 5233SOL     OW16597   0.658   6.479   2.482
 5233SOL    HW116598   0.623   6.420   2.556
 5233SOL    HW216599   0.593   6.480   2.407
 5234SOL     OW16600   3.627   6.583   0.587
 5234SOL    HW116601   3.636   6.680   0.611
 5234SOL    HW216602   3.642   6.571   0.489
 5235SOL     OW16603   0.966   3.195   0.542
 5235SOL    HW116604   1.010   3.142   0.615
 5235SOL    HW216605   0.893   3.251   0.582
 5236SOL     OW16606   5.069   3.526   1.083
 5236SOL    HW116607   5.135   3.523   1.158
 5236SOL    HW216608   4.986   3.572   1.113
 5237SOL     OW16609   2.572   2.352   5.546
 5237SOL    HW116610   2.482   2.365   5.505
 5237SOL    HW216611   2.587   2.422   5.616
 5238SOL     OW16612   1.970   4.756   0.816
 5238SOL    HW116613   2.013   4.731   0.903
 5238SOL    HW216614   1.938   4.673   0.769
 5239SOL     OW16615   3.359   2.964   3.458
 5239SOL    HW116616   3.456   2.988   3.465
 5239SOL    HW216617   3.324   2.940   3.549
 5240SOL     OW16618   3.446   2.106   5.055
 5240SOL    HW116619   3.387   2.137   5.130
 5240SOL    HW216620   3.407   2.135   4.968
 5241SOL     OW16621   1.909   6.400   6.462
 5241SOL    HW116622   1.994   6.392   6.515
 5241SOL    HW216623   1.854   6.475   6.499
 5242SOL     OW16624   6.313   1.276   5.892
 5242SOL    HW116625   6.310   1.177   5.901
 5242SOL    HW216626   6.403   1.304   5.857
 5243SOL     OW16627   1.287   5.235   0.994
 5243SOL    HW116628   1.353   5.306   1.016
 5243SOL    HW216629   1.316   5.187   0.911
 5244SOL     OW16630   5.061   4.705   5.380
 5244SOL    HW116631   5.054   4.736   5.475
 5244SOL    HW216632   5.141   4.747   5.337
 5245SOL     OW16633   4.785   3.762   6.881
 5245SOL    HW116634   4.727   3.830   6.926
 5245SOL    HW216635   4.870   3.750   6.934
 5246SOL     OW16636   1.260   3.587   2.557
 5246SOL    HW116637   1.271   3.669   2.500
 5246SOL    HW216638   1.346   3.536   2.559
 5247SOL     OW16639   0.181   5.369   0.749
 5247SOL    HW116640   0.256   5.361   0.815
 5247SOL    HW216641   0.204   5.317   0.667
 5248SOL     OW16642   5.262   0.677   5.975
 5248SOL    HW116643   5.182   0.661   6.032
 5248SOL    HW216644   5.322   0.597   5.978
 5249SOL     OW16645   0.970   5.065   5.009
 5249SOL    HW116646   1.043   5.125   5.043
 5249SOL    HW216647   1.004   5.012   4.932
 5250SOL     OW16648   0.579   1.732   6.440
 5250SOL    HW116649   0.543   1.643   6.466
 5250SOL    HW216650   0.669   1.720   6.397
 5251SOL     OW16651   6.422   3.196   1.225
 5251SOL    HW116652   6.399   3.100   1.238
 5251SOL    HW216653   6.505   3.218   1.277
 5252SOL     OW16654   3.992   5.959   0.462
 5252SOL    HW116655   3.938   6.031   0.506
 5252SOL    HW216656   4.066   5.931   0.522
 5253SOL     OW16657   5.579   3.529   4.520
 5253SOL    HW116658   5.539   3.515   4.611
 5253SOL    HW216659   5.559   3.622   4.489
 5254SOL     OW16660   4.285   0.648   3.752
 5254SOL    HW116661   4.371   0.635   3.703
 5254SOL    HW216662   4.288   0.599   3.839
 5255SOL     OW16663   2.999   6.535   5.113
 5255SOL    HW116664   3.093   6.503   5.114
 5255SOL    HW216665   2.946   6.484   5.181
 5256SOL     OW16666   5.090   0.332   3.207
 5256SOL    HW116667   5.024   0.352   3.135
 5256SOL    HW216668   5.098   0.232   3.218
 5257SOL     OW16669   4.005   0.334   6.979
 5257SOL    HW116670   4.041   0.415   0.005
 5257SOL    HW216671   3.940   0.288   0.020
 5258SOL     OW16672   4.989   4.222   2.356
 5258SOL    HW116673   4.899   4.185   2.379
 5258SOL    HW216674   4.979   4.314   2.319
 5259SOL     OW16675   4.835   5.339   2.869
 5259SOL    HW116676   4.819   5.328   2.967
 5259SOL    HW216677   4.759   5.391   2.829
 5260SOL     OW16678   5.636   3.666   1.428
 5260SOL    HW116679   5.712   3.671   1.364
 5260SOL    HW216680   5.601   3.573   1.431
 5261SOL     OW16681   0.633   2.079   4.581
 5261SOL    HW116682   0.685   1.994   4.597
 5261SOL    HW216683   0.684   2.156   4.618
 5262SOL     OW16684   3.065   6.555   1.971
 5262SOL    HW116685   3.031   6.648   1.956
 5262SOL    HW216686   3.109   6.550   2.061
 5263SOL     OW16687   1.692   0.059   6.063
 5263SOL    HW116688   1.637   0.121   6.121
 5263SOL    HW216689   1.789   0.082   6.073
 5264SOL     OW16690   0.154   2.146   1.150
 5264SOL    HW116691   0.234   2.164   1.093
 5264SOL    HW216692   0.179   2.154   1.247
 5265SOL     OW16693   5.347   4.889   1.647
 5265SOL    HW116694   5.263   4.867   1.598
 5265SOL    HW216695   5.426   4.867   1.590
 5266SOL     OW16696   1.434   6.707   1.688
 5266SOL    HW116697   1.375   6.784   1.713
 5266SOL    HW216698   1.528   6.740   1.675
 5267SOL     OW16699   5.048   4.825   5.073
 5267SOL    HW116700   5.115   4.847   5.144
 5267SOL    HW216701   5.037   4.726   5.068
 5268SOL     OW16702   6.107   5.471   5.363
 5268SOL    HW116703   6.148   5.459   5.273
 5268SOL    HW216704   6.048   5.552   5.361
 5269SOL     OW16705   2.036   5.377   4.246
 5269SOL    HW116706   2.044   5.422   4.157
 5269SOL    HW216707   2.001   5.284   4.233
 5270SOL     OW16708   6.288   2.509   1.745
 5270SOL    HW116709   6.242   2.582   1.694
 5270SOL    HW216710   6.229   2.477   1.818
 5271SOL     OW16711   5.457   4.430   5.357
 5271SOL    HW116712   5.407   4.464   5.278
 5271SOL    HW216713   5.414   4.346   5.389
 5272SOL     OW16714   0.351   6.964   4.555
 5272SOL    HW116715   0.270   6.983   4.500
 5272SOL    HW216716   0.328   6.898   4.627
 5273SOL     OW16717   0.591   1.473   3.779
 5273SOL    HW116718   0.614   1.538   3.851
 5273SOL    HW216719   0.511   1.506   3.728
 5274SOL     OW16720   6.562   5.136   4.020
 5274SOL    HW116721   6.659   5.158   4.031
 5274SOL    HW216722   6.532   5.077   4.095
 5275SOL     OW16723   2.644   0.215   6.948
 5275SOL    HW116724   2.731   0.223   6.997
 5275SOL    HW216725   2.624   0.118   6.933
 5276SOL     OW16726   6.857   6.886   1.796
 5276SOL    HW116727   6.894   6.905   1.887
 5276SOL    HW216728   6.812   6.967   1.760
 5277SOL     OW16729   1.069   1.664   3.213
 5277SOL    HW116730   1.103   1.756   3.196
 5277SOL    HW216731   1.113   1.599   3.151
 5278SOL     OW16732   0.547   5.470   5.692
 5278SOL    HW116733   0.632   5.419   5.686
 5278SOL    HW216734   0.555   5.539   5.764
 5279SOL     OW16735   1.540   5.536   6.132
 5279SOL    HW116736   1.537   5.630   6.166
 5279SOL    HW216737   1.635   5.503   6.132
 5280SOL     OW16738   3.809   5.897   4.831
 5280SOL    HW116739   3.710   5.884   4.821
 5280SOL    HW216740   3.856   5.864   4.750
 5281SOL     OW16741   2.122   0.380   4.754
 5281SOL    HW116742   2.162   0.451   4.811
 5281SOL    HW216743   2.023   0.379   4.766
 5282SOL     OW16744   1.403   0.394   2.326
 5282SOL    HW116745   1.416   0.325   2.255
 5282SOL    HW216746   1.317   0.443   2.310
 5283SOL     OW16747   6.897   0.833   4.154
 5283SOL    HW116748   6.852   0.807   4.240
 5283SOL    HW216749   6.921   0.750   4.104
 5284SOL     OW16750   5.350   2.036   1.999
 5284SOL    HW116751   5.266   2.027   1.946
 5284SOL    HW216752   5.336   2.000   2.091
 5285SOL     OW16753   0.744   2.887   4.005
 5285SOL    HW116754   0.758   2.861   3.909
 5285SOL    HW216755   0.775   2.813   4.064
 5286SOL     OW16756   6.452   2.975   1.407
 5286SOL    HW116757   6.440   2.877   1.389
 5286SOL    HW216758   6.547   2.993   1.433
 5287SOL     OW16759   3.310   4.975   1.610
 5287SOL    HW116760   3.390   5.026   1.578
 5287SOL    HW216761   3.332   4.878   1.616
 5288SOL     OW16762   5.086   0.551   2.106
 5288SOL    HW116763   5.112   0.509   2.018
 5288SOL    HW216764   5.132   0.639   2.116
 5289SOL     OW16765   1.919   4.840   6.603
 5289SOL    HW116766   1.891   4.745   6.615
 5289SOL    HW216767   1.991   4.863   6.669
 5290SOL     OW16768   1.679   3.373   5.859
 5290SOL    HW116769   1.670   3.431   5.778
 5290SOL    HW216770   1.692   3.278   5.831
 5291SOL     OW16771   2.679   4.537   5.324
 5291SOL    HW116772   2.761   4.543   5.267
 5291SOL    HW216773   2.611   4.603   5.291
 5292SOL     OW16774   6.424   4.237   6.553
 5292SOL    HW116775   6.504   4.257   6.609
 5292SOL    HW216776   6.342   4.236   6.610
 5293SOL     OW16777   2.024   5.125   4.548
 5293SOL    HW116778   2.067   5.037   4.571
 5293SOL    HW216779   1.927   5.110   4.527
 5294SOL     OW16780   4.211   0.701   5.203
 5294SOL    HW116781   4.193   0.620   5.258
 5294SOL    HW216782   4.240   0.674   5.111
 5295SOL     OW16783   3.251   0.902   2.120
 5295SOL    HW116784   3.182   0.855   2.175
 5295SOL    HW216785   3.339   0.855   2.130
 5296SOL     OW16786   3.896   4.271   1.020
 5296SOL    HW116787   3.949   4.280   0.935
 5296SOL    HW216788   3.952   4.226   1.089
 5297SOL     OW16789   2.257   3.999   0.149
 5297SOL    HW116790   2.348   4.032   0.172
 5297SOL    HW216791   2.258   3.899   0.140
 5298SOL     OW16792   2.523   6.989   0.038
 5298SOL    HW116793   2.490   6.914   0.095
 5298SOL    HW216794   2.507   6.968   6.961
 5299SOL     OW16795   3.127   2.050   0.392
 5299SOL    HW116796   3.177   1.969   0.362
 5299SOL    HW216797   3.126   2.053   0.492
 5300SOL     OW16798   1.860   4.615   0.463
 5300SOL    HW116799   1.852   4.614   0.364
 5300SOL    HW216800   1.813   4.695   0.500
 5301SOL     OW16801   4.934   0.671   6.705
 5301SOL    HW116802   4.872   0.719   6.643
 5301SOL    HW216803   5.010   0.632   6.652
 5302SOL     OW16804   4.939   5.568   3.173
 5302SOL    HW116805   5.035   5.552   3.152
 5302SOL    HW216806   4.930   5.645   3.236
 5303SOL     OW16807   6.794   4.971   6.008
 5303SOL    HW116808   6.834   4.884   6.038
 5303SOL    HW216809   6.707   4.953   5.963
 5304SOL     OW16810   6.297   1.223   1.213
 5304SOL    HW116811   6.355   1.280   1.155
 5304SOL    HW216812   6.352   1.151   1.255
 5305SOL     OW16813   1.358   5.484   2.793
 5305SOL    HW116814   1.265   5.446   2.801
 5305SOL    HW216815   1.378   5.541   2.872
 5306SOL     OW16816   6.659   4.035   6.187
 5306SOL    HW116817   6.716   3.959   6.219
 5306SOL    HW216818   6.571   4.034   6.236
 5307SOL     OW16819   4.777   2.460   0.601
 5307SOL    HW116820   4.836   2.402   0.544
 5307SOL    HW216821   4.704   2.498   0.545
 5308SOL     OW16822   1.370   4.669   2.985
 5308SOL    HW116823   1.359   4.573   3.008
 5308SOL    HW216824   1.392   4.678   2.888
 5309SOL     OW16825   4.261   5.988   2.805
 5309SOL    HW116826   4.188   6.046   2.841
 5309SOL    HW216827   4.256   5.987   2.705
 5310SOL     OW16828   6.087   3.316   2.736
 5310SOL    HW116829   6.011   3.307   2.672
 5310SOL    HW216830   6.160   3.253   2.711
 5311SOL     OW16831   5.879   6.693   0.589
 5311SOL    HW116832   5.848   6.625   0.656
 5311SOL    HW216833   5.937   6.648   0.521
 5312SOL     OW16834   0.488   6.609   1.635
 5312SOL    HW116835   0.389   6.614   1.634
 5312SOL    HW216836   0.524   6.661   1.712
 5313SOL     OW16837   6.842   5.307   5.345
 5313SOL    HW116838   6.832   5.257   5.431
 5313SOL    HW216839   6.920   5.369   5.351
 5314SOL     OW16840   5.817   6.608   1.017
 5314SOL    HW116841   5.739   6.671   1.022
 5314SOL    HW216842   5.884   6.633   1.087
 5315SOL     OW16843   4.437   1.971   3.402
 5315SOL    HW116844   4.485   2.021   3.330
 5315SOL    HW216845   4.345   1.949   3.371
 5316SOL     OW16846   0.804   2.986   5.200
 5316SOL    HW116847   0.809   2.991   5.300
 5316SOL    HW216848   0.830   3.073   5.160
 5317SOL     OW16849   6.675   0.943   5.673
 5317SOL    HW116850   6.768   0.963   5.643
 5317SOL    HW216851   6.667   0.962   5.771
 5318SOL     OW16852   6.413   3.144   0.249
 5318SOL    HW116853   6.485   3.141   0.180
 5318SOL    HW216854   6.420   3.228   0.302
 5319SOL     OW16855   4.378   6.701   0.977
 5319SOL    HW116856   4.322   6.725   0.898
 5319SOL    HW216857   4.446   6.773   0.993
 5320SOL     OW16858   3.784   5.545   1.408
 5320SOL    HW116859   3.838   5.566   1.489
 5320SOL    HW216860   3.765   5.447   1.404
 5321SOL     OW16861   1.445   4.737   5.244
 5321SOL    HW116862   1.527   4.724   5.188
 5321SOL    HW216863   1.366   4.754   5.184
 5322SOL     OW16864   5.529   6.622   1.577
 5322SOL    HW116865   5.535   6.578   1.488
 5322SOL    HW216866   5.544   6.555   1.649
 5323SOL     OW16867   4.783   1.390   5.742
 5323SOL    HW116868   4.723   1.461   5.778
 5323SOL    HW216869   4.743   1.351   5.659
 5324SOL     OW16870   2.613   2.471   6.589
 5324SOL    HW116871   2.580   2.391   6.639
 5324SOL    HW216872   2.536   2.533   6.569
 5325SOL     OW16873   2.901   1.818   5.159
 5325SOL    HW116874   2.954   1.900   5.180
 5325SOL    HW216875   2.919   1.748   5.228
 5326SOL     OW16876   6.564   5.952   3.014
 5326SOL    HW116877   6.478   5.946   3.064
 5326SOL    HW216878   6.640   5.929   3.075
 5327SOL     OW16879   5.232   2.365   4.804
 5327SOL    HW116880   5.141   2.373   4.764
 5327SOL    HW216881   5.301   2.386   4.734
 5328SOL     OW16882   4.298   3.964   5.910
 5328SOL    HW116883   4.291   3.868   5.939
 5328SOL    HW216884   4.218   3.988   5.856
 5329SOL     OW16885   1.258   5.679   6.308
 5329SOL    HW116886   1.287   5.745   6.239
 5329SOL    HW216887   1.335   5.656   6.367
 5330SOL     OW16888   3.768   3.854   0.651
 5330SOL    HW116889   3.697   3.835   0.719
 5330SOL    HW216890   3.854   3.814   0.682
 5331SOL     OW16891   6.922   2.201   6.679
 5331SOL    HW116892   6.823   2.185   6.689
 5331SOL    HW216893   6.938   2.291   6.640
 5332SOL     OW16894   1.377   4.644   1.553
 5332SOL    HW116895   1.454   4.580   1.541
 5332SOL    HW216896   1.291   4.594   1.542
 5333SOL     OW16897   1.526   0.789   3.143
 5333SOL    HW116898   1.602   0.740   3.186
 5333SOL    HW216899   1.439   0.756   3.180
 5334SOL     OW16900   2.912   0.168   4.933
 5334SOL    HW116901   2.844   0.236   4.904
 5334SOL    HW216902   2.939   0.187   5.028
 5335SOL     OW16903   6.623   5.698   0.351
 5335SOL    HW116904   6.661   5.629   0.290
 5335SOL    HW216905   6.595   5.778   0.297
 5336SOL     OW16906   1.806   3.547   2.187
 5336SOL    HW116907   1.790   3.490   2.107
 5336SOL    HW216908   1.720   3.561   2.236
 5337SOL     OW16909   4.752   4.000   1.254
 5337SOL    HW116910   4.780   3.960   1.167
 5337SOL    HW216911   4.833   4.033   1.303
 5338SOL     OW16912   6.613   1.709   0.099
 5338SOL    HW116913   6.578   1.773   0.031
 5338SOL    HW216914   6.555   1.712   0.181
 5339SOL     OW16915   6.744   2.061   3.969
 5339SOL    HW116916   6.652   2.024   3.979
 5339SOL    HW216917   6.805   1.989   3.937
 5340SOL     OW16918   5.694   2.619   6.831
 5340SOL    HW116919   5.664   2.711   6.809
 5340SOL    HW216920   5.702   2.608   6.930
 5341SOL     OW16921   3.905   1.895   5.509
 5341SOL    HW116922   3.867   1.859   5.424
 5341SOL    HW216923   3.838   1.884   5.583
 5342SOL     OW16924   3.974   0.687   4.963
 5342SOL    HW116925   4.073   0.691   4.955
 5342SOL    HW216926   3.933   0.756   4.903
 5343SOL     OW16927   4.141   3.587   2.643
 5343SOL    HW116928   4.170   3.634   2.726
 5343SOL    HW216929   4.045   3.561   2.651
 5344SOL     OW16930   1.488   2.623   2.554
 5344SOL    HW116931   1.507   2.702   2.613
 5344SOL    HW216932   1.415   2.646   2.490
 5345SOL     OW16933   4.546   6.348   0.939
 5345SOL    HW116934   4.613   6.282   0.904
 5345SOL    HW216935   4.527   6.327   1.035
 5346SOL     OW16936   3.045   6.049   3.533
 5346SOL    HW116937   2.969   5.990   3.504
 5346SOL    HW216938   3.046   6.055   3.633
 5347SOL     OW16939   0.365   1.998   1.976
 5347SOL    HW116940   0.416   1.985   1.890
 5347SOL    HW216941   0.269   1.973   1.962
 5348SOL     OW16942   0.985   1.227   0.743
 5348SOL    HW116943   1.054   1.286   0.785
 5348SOL    HW216944   1.002   1.222   0.644
 5349SOL     OW16945   0.246   2.190   0.244
 5349SOL    HW116946   0.273   2.170   0.149
 5349SOL    HW216947   0.157   2.150   0.262
 5350SOL     OW16948   2.397   0.440   6.268
 5350SOL    HW116949   2.429   0.427   6.362
 5350SOL    HW216950   2.471   0.417   6.205
 5351SOL     OW16951   5.004   6.001   1.333
 5351SOL    HW116952   4.949   6.075   1.371
 5351SOL    HW216953   4.971   5.977   1.242
 5352SOL     OW16954   2.270   5.947   4.238
 5352SOL    HW116955   2.346   5.977   4.297
 5352SOL    HW216956   2.303   5.937   4.144
 5353SOL     OW16957   4.646   6.318   4.758
 5353SOL    HW116958   4.576   6.341   4.691
 5353SOL    HW216959   4.678   6.224   4.743
 5354SOL     OW16960   2.607   4.665   2.401
 5354SOL    HW116961   2.679   4.708   2.346
 5354SOL    HW216962   2.547   4.735   2.438
 5355SOL     OW16963   4.332   1.727   3.703
 5355SOL    HW116964   4.246   1.746   3.655
 5355SOL    HW216965   4.407   1.775   3.657
 5356SOL     OW16966   6.418   3.829   1.639
 5356SOL    HW116967   6.451   3.840   1.546
 5356SOL    HW216968   6.464   3.896   1.699
 5357SOL     OW16969   3.958   0.618   0.385
 5357SOL    HW116970   3.959   0.526   0.425
 5357SOL    HW216971   3.878   0.668   0.418
 5358SOL     OW16972   4.013   2.112   0.711
 5358SOL    HW116973   3.962   2.065   0.782
 5358SOL    HW216974   4.062   2.190   0.750
 5359SOL     OW16975   2.501   1.845   1.078
 5359SOL    HW116976   2.539   1.757   1.051
 5359SOL    HW216977   2.565   1.918   1.054
 5360SOL     OW16978   3.634   6.704   5.135
 5360SOL    HW116979   3.713   6.759   5.109
 5360SOL    HW216980   3.663   6.612   5.161
 5361SOL     OW16981   2.366   1.210   4.651
 5361SOL    HW116982   2.445   1.181   4.597
 5361SOL    HW216983   2.362   1.310   4.652
 5362SOL     OW16984   4.962   4.472   2.934
 5362SOL    HW116985   4.891   4.401   2.928
 5362SOL    HW216986   4.988   4.484   3.030
 5363SOL     OW16987   1.026   6.207   6.000
 5363SOL    HW116988   1.077   6.122   5.997
 5363SOL    HW216989   1.068   6.270   6.065
 5364SOL     OW16990   6.546   6.001   0.794
 5364SOL    HW116991   6.564   5.964   0.885
 5364SOL    HW216992   6.596   5.948   0.726
 5365SOL     OW16993   4.595   3.024   6.240
 5365SOL    HW116994   4.515   3.073   6.276
 5365SOL    HW216995   4.652   2.993   6.316
 5366SOL     OW16996   4.026   4.835   0.672
 5366SOL    HW116997   4.055   4.789   0.588
 5366SOL    HW216998   3.999   4.767   0.740
 5367SOL     OW16999   0.517   5.241   0.778
 5367SOL    HW117000   0.566   5.306   0.721
 5367SOL    HW217001   0.552   5.149   0.761
 5368SOL     OW17002   5.579   1.709   2.307
 5368SOL    HW117003   5.677   1.694   2.321
 5368SOL    HW217004   5.545   1.648   2.236
 5369SOL     OW17005   2.318   4.687   3.339
 5369SOL    HW117006   2.229   4.717   3.304
 5369SOL    HW217007   2.391   4.737   3.291
 5370SOL     OW17008   4.054   3.317   1.540
 5370SOL    HW117009   4.014   3.408   1.527
 5370SOL    HW217010   4.038   3.286   1.633
 5371SOL     OW17011   1.770   4.176   4.781
 5371SOL    HW117012   1.746   4.140   4.691
 5371SOL    HW217013   1.776   4.101   4.847
 5372SOL     OW17014   2.963   5.375   2.231
 5372SOL    HW117015   3.019   5.364   2.313
 5372SOL    HW217016   2.893   5.445   2.246
 5373SOL     OW17017   3.163   4.934   4.470
 5373SOL    HW117018   3.257   4.902   4.463
 5373SOL    HW217019   3.142   4.956   4.566
 5374SOL     OW17020   1.505   3.209   6.585
 5374SOL    HW117021   1.542   3.163   6.505
 5374SOL    HW217022   1.572   3.275   6.620
 5375SOL     OW17023   1.296   4.090   5.161
 5375SOL    HW117024   1.263   4.169   5.109
 5375SOL    HW217025   1.236   4.011   5.142
 5376SOL     OW17026   1.761   3.269   1.622
 5376SOL    HW117027   1.848   3.281   1.574
 5376SOL    HW217028   1.769   3.305   1.715
 5377SOL     OW17029   6.693   0.082   1.690
 5377SOL    HW117030   6.617   0.068   1.754
 5377SOL    HW217031   6.696   0.178   1.661
 5378SOL     OW17032   6.314   0.289   0.458
 5378SOL    HW117033   6.233   0.250   0.501
 5378SOL    HW217034   6.343   0.231   0.382
 5379SOL     OW17035   0.337   4.836   3.991
 5379SOL    HW117036   0.324   4.914   4.052
 5379SOL    HW217037   0.312   4.752   4.039
 5380SOL     OW17038   2.485   0.557   3.564
 5380SOL    HW117039   2.505   0.603   3.478
 5380SOL    HW217040   2.556   0.489   3.583
 5381SOL     OW17041   6.229   3.847   0.890
 5381SOL    HW117042   6.249   3.933   0.937
 5381SOL    HW217043   6.222   3.864   0.791
 5382SOL     OW17044   3.033   0.441   1.502
 5382SOL    HW117045   3.009   0.536   1.483
 5382SOL    HW217046   3.027   0.388   1.418
 5383SOL     OW17047   2.790   2.190   5.526
 5383SOL    HW117048   2.850   2.229   5.456
 5383SOL    HW217049   2.702   2.239   5.525
 5384SOL     OW17050   6.432   6.287   4.434
 5384SOL    HW117051   6.345   6.255   4.396
 5384SOL    HW217052   6.433   6.387   4.435
 5385SOL     OW17053   2.941   3.705   2.952
 5385SOL    HW117054   2.989   3.621   2.981
 5385SOL    HW217055   2.864   3.681   2.893
 5386SOL     OW17056   4.864   6.224   4.148
 5386SOL    HW117057   4.857   6.273   4.061
 5386SOL    HW217058   4.776   6.180   4.169
 5387SOL     OW17059   2.482   5.704   2.403
 5387SOL    HW117060   2.550   5.762   2.358
 5387SOL    HW217061   2.407   5.761   2.437
 5388SOL     OW17062   5.378   6.540   2.200
 5388SOL    HW117063   5.390   6.450   2.158
 5388SOL    HW217064   5.287   6.545   2.241
 5389SOL     OW17065   4.838   1.081   1.638
 5389SOL    HW117066   4.800   1.101   1.548
 5389SOL    HW217067   4.938   1.082   1.633
 5390SOL     OW17068   5.322   4.899   4.352
 5390SOL    HW117069   5.363   4.895   4.443
 5390SOL    HW217070   5.354   4.821   4.297
 5391SOL     OW17071   2.602   3.526   0.261
 5391SOL    HW117072   2.573   3.609   0.212
 5391SOL    HW217073   2.680   3.485   0.213
 5392SOL     OW17074   5.952   3.037   1.375
 5392SOL    HW117075   6.012   2.961   1.401
 5392SOL    HW217076   5.959   3.110   1.443
 5393SOL     OW17077   6.951   0.112   6.816
 5393SOL    HW117078   6.932   0.153   6.905
 5393SOL    HW217079   6.893   0.031   6.804
 5394SOL     OW17080   0.832   3.828   6.234
 5394SOL    HW117081   0.752   3.825   6.294
 5394SOL    HW217082   0.897   3.896   6.267
 5395SOL     OW17083   4.663   0.424   0.730
 5395SOL    HW117084   4.573   0.380   0.731
 5395SOL    HW217085   4.734   0.354   0.722
 5396SOL     OW17086   5.349   3.819   2.219
 5396SOL    HW117087   5.314   3.913   2.221
 5396SOL    HW217088   5.273   3.755   2.231
 5397SOL     OW17089   6.677   3.350   1.871
 5397SOL    HW117090   6.640   3.416   1.805
 5397SOL    HW217091   6.676   3.259   1.831
 5398SOL     OW17092   3.154   2.692   1.785
 5398SOL    HW117093   3.081   2.624   1.791
 5398SOL    HW217094   3.172   2.713   1.689
 5399SOL     OW17095   3.013   6.408   0.758
 5399SOL    HW117096   2.965   6.494   0.740
 5399SOL    HW217097   2.946   6.336   0.778
 5400SOL     OW17098   2.667   4.174   0.451
 5400SOL    HW117099   2.742   4.108   0.443
 5400SOL    HW217100   2.694   4.249   0.511
 5401SOL     OW17101   5.907   3.193   2.186
 5401SOL    HW117102   5.951   3.201   2.096
 5401SOL    HW217103   5.973   3.156   2.251
 5402SOL     OW17104   2.586   5.879   1.761
 5402SOL    HW117105   2.598   5.979   1.758
 5402SOL    HW217106   2.634   5.843   1.841
 5403SOL     OW17107   0.254   3.523   6.163
 5403SOL    HW117108   0.254   3.508   6.262
 5403SOL    HW217109   0.340   3.491   6.125
 5404SOL     OW17110   1.199   2.877   3.437
 5404SOL    HW117111   1.127   2.945   3.422
 5404SOL    HW217112   1.208   2.859   3.535
 5405SOL     OW17113   6.893   5.777   6.826
 5405SOL    HW117114   6.966   5.843   6.845
 5405SOL    HW217115   6.895   5.752   6.729
 5406SOL     OW17116   1.726   2.190   0.361
 5406SOL    HW117117   1.659   2.116   0.364
 5406SOL    HW217118   1.698   2.258   0.294
 5407SOL     OW17119   4.467   3.446   0.640
 5407SOL    HW117120   4.487   3.487   0.729
 5407SOL    HW217121   4.425   3.357   0.653
 5408SOL     OW17122   2.651   1.104   5.389
 5408SOL    HW117123   2.616   1.175   5.328
 5408SOL    HW217124   2.641   1.134   5.484
 5409SOL     OW17125   5.208   0.227   2.939
 5409SOL    HW117126   5.143   0.303   2.938
 5409SOL    HW217127   5.269   0.236   3.018
 5410SOL     OW17128   3.118   2.232   1.808
 5410SOL    HW117129   3.215   2.246   1.790
 5410SOL    HW217130   3.078   2.317   1.843
 5411SOL     OW17131   6.543   4.956   5.850
 5411SOL    HW117132   6.551   4.909   5.762
 5411SOL    HW217133   6.538   5.055   5.835
 5412SOL     OW17134   5.078   2.982   0.544
 5412SOL    HW117135   4.999   2.947   0.495
 5412SOL    HW217136   5.129   2.905   0.585
 5413SOL     OW17137   2.664   1.880   1.365
 5413SOL    HW117138   2.704   1.799   1.322
 5413SOL    HW217139   2.637   1.858   1.459
 5414SOL     OW17140   5.022   1.704   4.588
 5414SOL    HW117141   5.021   1.781   4.651
 5414SOL    HW217142   5.057   1.733   4.499
 5415SOL     OW17143   0.189   6.201   1.325
 5415SOL    HW117144   0.285   6.229   1.328
 5415SOL    HW217145   0.167   6.150   1.408
 5416SOL     OW17146   4.112   5.078   5.344
 5416SOL    HW117147   4.158   5.156   5.302
 5416SOL    HW217148   4.151   4.993   5.309
 5417SOL     OW17149   3.712   6.944   5.325
 5417SOL    HW117150   3.753   6.911   5.240
 5417SOL    HW217151   3.680   0.019   5.313
 5418SOL     OW17152   3.571   0.228   2.406
 5418SOL    HW117153   3.627   0.219   2.488
 5418SOL    HW217154   3.610   0.299   2.347
 5419SOL     OW17155   3.578   4.774   0.284
 5419SOL    HW117156   3.505   4.724   0.237
 5419SOL    HW217157   3.556   4.783   0.381
 5420SOL     OW17158   1.997   2.723   3.529
 5420SOL    HW117159   1.975   2.780   3.609
 5420SOL    HW217160   2.067   2.769   3.475
 5421SOL     OW17161   1.651   3.722   1.271
 5421SOL    HW117162   1.693   3.792   1.213
 5421SOL    HW217163   1.704   3.712   1.355
 5422SOL     OW17164   1.102   4.978   1.103
 5422SOL    HW117165   1.093   5.076   1.084
 5422SOL    HW217166   1.163   4.937   1.036
 5423SOL     OW17167   6.372   3.076   6.691
 5423SOL    HW117168   6.292   3.131   6.716
 5423SOL    HW217169   6.405   3.026   6.772
 5424SOL     OW17170   5.045   3.586   4.115
 5424SOL    HW117171   4.969   3.527   4.087
 5424SOL    HW217172   5.079   3.557   4.205
 5425SOL     OW17173   4.097   1.143   4.947
 5425SOL    HW117174   4.126   1.059   4.994
 5425SOL    HW217175   4.083   1.215   5.015
 5426SOL     OW17176   5.600   6.241   4.283
 5426SOL    HW117177   5.607   6.169   4.351
 5426SOL    HW217178   5.559   6.323   4.323
 5427SOL     OW17179   4.290   5.807   6.461
 5427SOL    HW117180   4.258   5.789   6.554
 5427SOL    HW217181   4.228   5.873   6.417
 5428SOL     OW17182   0.708   0.378   0.760
 5428SOL    HW117183   0.739   0.451   0.820
 5428SOL    HW217184   0.689   0.296   0.814
 5429SOL     OW17185   1.834   1.470   0.085
 5429SOL    HW117186   1.837   1.423   7.016
 5429SOL    HW217187   1.784   1.556   0.074
 5430SOL     OW17188   0.351   2.012   6.370
 5430SOL    HW117189   0.330   2.050   6.460
 5430SOL    HW217190   0.437   1.960   6.375
 5431SOL     OW17191   3.413   6.783   6.618
 5431SOL    HW117192   3.407   6.771   6.718
 5431SOL    HW217193   3.353   6.716   6.573
 5432SOL     OW17194   5.503   0.068   6.842
 5432SOL    HW117195   5.560   0.148   6.861
 5432SOL    HW217196   5.407   0.093   6.850
 5433SOL     OW17197   0.262   1.807   4.354
 5433SOL    HW117198   0.197   1.879   4.378
 5433SOL    HW217199   0.245   1.727   4.411
 5434SOL     OW17200   2.914   0.111   5.671
 5434SOL    HW117201   2.886   0.067   5.586
 5434SOL    HW217202   2.916   0.043   5.744
 5435SOL     OW17203   4.895   6.929   2.053
 5435SOL    HW117204   4.913   6.942   1.955
 5435SOL    HW217205   4.824   6.860   2.065
 5436SOL     OW17206   4.704   4.179   3.448
 5436SOL    HW117207   4.727   4.117   3.523
 5436SOL    HW217208   4.767   4.165   3.372
 5437SOL     OW17209   2.528   4.136   0.212
 5437SOL    HW117210   2.593   4.145   0.136
 5437SOL    HW217211   2.577   4.144   0.299
 5438SOL     OW17212   6.857   2.596   1.733
 5438SOL    HW117213   6.824   2.592   1.639
 5438SOL    HW217214   6.952   2.626   1.734
 5439SOL     OW17215   1.703   1.989   1.333
 5439SOL    HW117216   1.642   2.045   1.389
 5439SOL    HW217217   1.794   2.030   1.333
 5440SOL     OW17218   1.585   1.483   1.438
 5440SOL    HW117219   1.546   1.415   1.376
 5440SOL    HW217220   1.577   1.574   1.398
 5441SOL     OW17221   3.629   2.005   4.108
 5441SOL    HW117222   3.713   2.022   4.057
 5441SOL    HW217223   3.633   2.053   4.196
 5442SOL     OW17224   4.126   6.624   2.461
 5442SOL    HW117225   4.211   6.645   2.510
 5442SOL    HW217226   4.114   6.525   2.455
 5443SOL     OW17227   2.786   0.253   5.229
 5443SOL    HW117228   2.885   0.238   5.236
 5443SOL    HW217229   2.739   0.165   5.234
 5444SOL     OW17230   0.709   0.637   4.107
 5444SOL    HW117231   0.659   0.571   4.051
 5444SOL    HW217232   0.799   0.600   4.128
 5445SOL     OW17233   6.481   3.997   3.343
 5445SOL    HW117234   6.397   3.974   3.394
 5445SOL    HW217235   6.539   3.917   3.337
 5446SOL     OW17236   5.741   5.553   5.096
 5446SOL    HW117237   5.833   5.545   5.057
 5446SOL    HW217238   5.693   5.465   5.085
 5447SOL     OW17239   3.222   2.574   0.033
 5447SOL    HW117240   3.128   2.540   0.027
 5447SOL    HW217241   3.273   2.521   0.101
 5448SOL     OW17242   5.065   2.135   5.120
 5448SOL    HW117243   5.017   2.082   5.190
 5448SOL    HW217244   5.164   2.121   5.130
 5449SOL     OW17245   1.470   2.453   6.439
 5449SOL    HW117246   1.399   2.497   6.494
 5449SOL    HW217247   1.432   2.429   6.350
 5450SOL     OW17248   2.420   1.007   1.934
 5450SOL    HW117249   2.473   0.931   1.896
 5450SOL    HW217250   2.434   1.012   2.033
 5451SOL     OW17251   1.139   5.979   3.208
 5451SOL    HW117252   1.046   5.945   3.223
 5451SOL    HW217253   1.204   5.925   3.261
 5452SOL     OW17254   1.974   4.111   0.121
 5452SOL    HW117255   1.958   4.157   0.208
 5452SOL    HW217256   2.056   4.054   0.128
 5453SOL     OW17257   6.680   4.130   0.646
 5453SOL    HW117258   6.690   4.067   0.569
 5453SOL    HW217259   6.702   4.083   0.731
 5454SOL     OW17260   6.965   4.558   6.453
 5454SOL    HW117261   6.869   4.565   6.425
 5454SOL    HW217262   6.974   4.588   6.547
 5455SOL     OW17263   0.006   3.067   1.065
 5455SOL    HW117264   6.937   3.047   1.106
 5455SOL    HW217265   0.063   2.985   1.067
 5456SOL     OW17266   3.387   0.876   6.257
 5456SOL    HW117267   3.295   0.837   6.255
 5456SOL    HW217268   3.404   0.915   6.348
 5457SOL     OW17269   5.623   2.548   0.782
 5457SOL    HW117270   5.526   2.535   0.765
 5457SOL    HW217271   5.641   2.645   0.797
 5458SOL     OW17272   0.949   4.566   6.945
 5458SOL    HW117273   0.929   4.470   6.961
 5458SOL    HW217274   0.983   4.579   6.852
 5459SOL     OW17275   1.861   5.134   0.095
 5459SOL    HW117276   1.897   5.058   0.149
 5459SOL    HW217277   1.842   5.102   0.002
 5460SOL     OW17278   3.357   0.487   1.544
 5460SOL    HW117279   3.409   0.417   1.494
 5460SOL    HW217280   3.259   0.471   1.530
 5461SOL     OW17281   5.286   6.319   5.329
 5461SOL    HW117282   5.308   6.387   5.259
 5461SOL    HW217283   5.331   6.232   5.306
 5462SOL     OW17284   1.576   0.824   0.868
 5462SOL    HW117285   1.588   0.891   0.942
 5462SOL    HW217286   1.666   0.797   0.833
 5463SOL     OW17287   6.278   2.332   0.905
 5463SOL    HW117288   6.196   2.325   0.849
 5463SOL    HW217289   6.257   2.378   0.991
 5464SOL     OW17290   1.705   0.502   4.037
 5464SOL    HW117291   1.673   0.597   4.030
 5464SOL    HW217292   1.630   0.443   4.067
 5465SOL     OW17293   4.063   6.876   3.659
 5465SOL    HW117294   4.058   6.795   3.718
 5465SOL    HW217295   3.979   6.884   3.606
 5466SOL     OW17296   5.259   4.318   4.850
 5466SOL    HW117297   5.332   4.308   4.918
 5466SOL    HW217298   5.267   4.408   4.807
 5467SOL     OW17299   5.345   1.917   2.788
 5467SOL    HW117300   5.431   1.929   2.740
 5467SOL    HW217301   5.357   1.941   2.885
 5468SOL     OW17302   4.769   1.662   4.603
 5468SOL    HW117303   4.719   1.746   4.623
 5468SOL    HW217304   4.867   1.679   4.608
 5469SOL     OW17305   4.017   4.620   6.356
 5469SOL    HW117306   4.103   4.589   6.395
 5469SOL    HW217307   4.029   4.710   6.314
 5470SOL     OW17308   2.135   5.023   3.941
 5470SOL    HW117309   2.183   4.981   3.864
 5470SOL    HW217310   2.038   4.997   3.936
 5471SOL     OW17311   5.444   6.147   1.083
 5471SOL    HW117312   5.392   6.152   0.998
 5471SOL    HW217313   5.389   6.185   1.158
 5472SOL     OW17314   4.334   3.833   6.288
 5472SOL    HW117315   4.266   3.885   6.339
 5472SOL    HW217316   4.289   3.779   6.217
 5473SOL     OW17317   0.915   3.836   2.891
 5473SOL    HW117318   0.966   3.876   2.815
 5473SOL    HW217319   0.980   3.800   2.959
 5474SOL     OW17320   2.166   5.022   4.314
 5474SOL    HW117321   2.203   5.089   4.379
 5474SOL    HW217322   2.237   4.998   4.248
 5475SOL     OW17323   3.505   2.588   1.206
 5475SOL    HW117324   3.551   2.527   1.271
 5475SOL    HW217325   3.425   2.542   1.168
 5476SOL     OW17326   1.773   3.318   6.188
 5476SOL    HW117327   1.795   3.397   6.130
 5476SOL    HW217328   1.755   3.239   6.130
 5477SOL     OW17329   2.081   3.387   3.516
 5477SOL    HW117330   2.108   3.481   3.539
 5477SOL    HW217331   2.103   3.327   3.593
 5478SOL     OW17332   5.301   5.912   6.445
 5478SOL    HW117333   5.249   5.827   6.446
 5478SOL    HW217334   5.399   5.892   6.446
 5479SOL     OW17335   4.821   0.541   4.357
 5479SOL    HW117336   4.871   0.477   4.298
 5479SOL    HW217337   4.868   0.629   4.357
 5480SOL     OW17338   0.716   4.120   4.581
 5480SOL    HW117339   0.710   4.140   4.679
 5480SOL    HW217340   0.648   4.052   4.557
 5481SOL     OW17341   3.083   0.086   4.738
 5481SOL    HW117342   3.028   0.126   4.811
 5481SOL    HW217343   3.106   7.010   4.762
 5482SOL     OW17344   3.560   4.407   1.680
 5482SOL    HW117345   3.584   4.493   1.724
 5482SOL    HW217346   3.487   4.423   1.612
 5483SOL     OW17347   0.410   2.336   6.169
 5483SOL    HW117348   0.399   2.315   6.072
 5483SOL    HW217349   0.500   2.304   6.200
 5484SOL     OW17350   4.578   0.430   4.379
 5484SOL    HW117351   4.536   0.449   4.468
 5484SOL    HW217352   4.670   0.470   4.377
 5485SOL     OW17353   2.528   6.200   5.351
 5485SOL    HW117354   2.439   6.185   5.309
 5485SOL    HW217355   2.600   6.165   5.292
 5486SOL     OW17356   2.660   5.837   4.933
 5486SOL    HW117357   2.653   5.825   5.032
 5486SOL    HW217358   2.573   5.812   4.890
 5487SOL     OW17359   2.895   4.485   5.810
 5487SOL    HW117360   2.817   4.492   5.873
 5487SOL    HW217361   2.866   4.511   5.718
 5488SOL     OW17362   5.651   1.342   0.738
 5488SOL    HW117363   5.682   1.371   0.647
 5488SOL    HW217364   5.556   1.370   0.751
 5489SOL     OW17365   6.946   3.199   2.164
 5489SOL    HW117366   6.918   3.257   2.241
 5489SOL    HW217367   6.906   3.108   2.174
 5490SOL     OW17368   0.966   6.780   2.709
 5490SOL    HW117369   1.064   6.794   2.700
 5490SOL    HW217370   0.946   6.682   2.706
 5491SOL     OW17371   0.013   3.137   0.791
 5491SOL    HW117372   0.017   3.235   0.775
 5491SOL    HW217373   0.056   3.115   0.880
 5492SOL     OW17374   0.282   1.883   5.585
 5492SOL    HW117375   0.373   1.919   5.609
 5492SOL    HW217376   0.218   1.959   5.574
 5493SOL     OW17377   4.154   3.570   1.818
 5493SOL    HW117378   4.174   3.661   1.783
 5493SOL    HW217379   4.099   3.576   1.901
 5494SOL     OW17380   5.844   4.207   5.125
 5494SOL    HW117381   5.928   4.196   5.072
 5494SOL    HW217382   5.852   4.157   5.211
 5495SOL     OW17383   5.840   0.488   0.355
 5495SOL    HW117384   5.773   0.438   0.410
 5495SOL    HW217385   5.931   0.449   0.367
 5496SOL     OW17386   4.285   1.036   4.326
 5496SOL    HW117387   4.340   0.973   4.380
 5496SOL    HW217388   4.233   0.985   4.257
 5497SOL     OW17389   0.765   1.130   6.201
 5497SOL    HW117390   0.852   1.170   6.231
 5497SOL    HW217391   0.755   1.143   6.102
 5498SOL     OW17392   0.908   4.851   1.879
 5498SOL    HW117393   0.877   4.766   1.922
 5498SOL    HW217394   0.886   4.848   1.781
 5499SOL     OW17395   0.656   0.430   4.899
 5499SOL    HW117396   0.690   0.405   4.990
 5499SOL    HW217397   0.733   0.442   4.837
 5500SOL     OW17398   2.428   0.755   0.338
 5500SOL    HW117399   2.332   0.735   0.318
 5500SOL    HW217400   2.487   0.707   0.273
 5501SOL     OW17401   3.940   2.223   6.958
 5501SOL    HW117402   3.981   2.288   0.004
 5501SOL    HW217403   4.007   2.201   6.887
 5502SOL     OW17404   4.722   2.690   6.976
 5502SOL    HW117405   4.722   2.790   6.968
 5502SOL    HW217406   4.754   2.649   6.890
 5503SOL     OW17407   0.548   3.455   0.081
 5503SOL    HW117408   0.561   3.402   0.165
 5503SOL    HW217409   0.638   3.483   0.046
 5504SOL     OW17410   3.620   0.913   6.860
 5504SOL    HW117411   3.707   0.957   6.838
 5504SOL    HW217412   3.626   0.815   6.843
 5505SOL     OW17413   2.741   4.710   4.368
 5505SOL    HW117414   2.767   4.706   4.465
 5505SOL    HW217415   2.812   4.757   4.316
 5506SOL     OW17416   0.509   3.464   5.860
 5506SOL    HW117417   0.540   3.553   5.893
 5506SOL    HW217418   0.571   3.392   5.891
 5507SOL     OW17419   3.067   0.233   6.339
 5507SOL    HW117420   2.995   0.300   6.355
 5507SOL    HW217421   3.147   0.279   6.300
 5508SOL     OW17422   0.521   0.959   6.715
 5508SOL    HW117423   0.515   0.860   6.723
 5508SOL    HW217424   0.575   0.983   6.634
 5509SOL     OW17425   0.064   5.618   0.674
 5509SOL    HW117426   7.016   5.652   0.740
 5509SOL    HW217427   0.083   5.522   0.692
 5510SOL     OW17428   4.324   5.199   6.685
 5510SOL    HW117429   4.331   5.101   6.705
 5510SOL    HW217430   4.266   5.244   6.752
 5511SOL     OW17431   0.558   1.275   5.491
 5511SOL    HW117432   0.553   1.277   5.391
 5511SOL    HW217433   0.541   1.367   5.527
 5512SOL     OW17434   3.915   0.752   2.224
 5512SOL    HW117435   3.912   0.767   2.125
 5512SOL    HW217436   3.920   0.841   2.270
 5513SOL     OW17437   4.214   4.946   6.932
 5513SOL    HW117438   4.134   4.905   6.888
 5513SOL    HW217439   4.191   5.039   6.962
 5514SOL     OW17440   2.931   0.204   5.923
 5514SOL    HW117441   2.940   0.170   5.829
 5514SOL    HW217442   3.008   0.264   5.944
 5515SOL     OW17443   2.207   6.007   1.927
 5515SOL    HW117444   2.304   6.033   1.932
 5515SOL    HW217445   2.157   6.074   1.873
 5516SOL     OW17446   2.411   2.706   5.079
 5516SOL    HW117447   2.471   2.667   5.148
 5516SOL    HW217448   2.409   2.805   5.088
 5517SOL     OW17449   1.763   3.782   3.047
 5517SOL    HW117450   1.806   3.848   2.986
 5517SOL    HW217451   1.787   3.689   3.019
 5518SOL     OW17452   4.513   4.526   5.649
 5518SOL    HW117453   4.417   4.548   5.632
 5518SOL    HW217454   4.523   4.428   5.664
 5519SOL     OW17455   4.591   2.506   3.574
 5519SOL    HW117456   4.669   2.453   3.607
 5519SOL    HW217457   4.523   2.444   3.535
 5520SOL     OW17458   5.829   6.719   1.972
 5520SOL    HW117459   5.890   6.693   1.898
 5520SOL    HW217460   5.741   6.749   1.934
 5521SOL     OW17461   5.959   5.892   1.509
 5521SOL    HW117462   6.025   5.860   1.441
 5521SOL    HW217463   5.932   5.815   1.567
 5522SOL     OW17464   6.562   5.020   0.866
 5522SOL    HW117465   6.656   5.000   0.892
 5522SOL    HW217466   6.516   5.068   0.941
 5523SOL     OW17467   5.697   1.346   2.187
 5523SOL    HW117468   5.609   1.308   2.212
 5523SOL    HW217469   5.703   1.356   2.088
 5524SOL     OW17470   2.851   0.563   4.693
 5524SOL    HW117471   2.875   0.633   4.761
 5524SOL    HW217472   2.933   0.511   4.669
 5525SOL     OW17473   6.522   2.250   1.368
 5525SOL    HW117474   6.602   2.285   1.416
 5525SOL    HW217475   6.489   2.167   1.412
 5526SOL     OW17476   4.668   4.850   3.199
 5526SOL    HW117477   4.571   4.868   3.211
 5526SOL    HW217478   4.709   4.920   3.141
 5527SOL     OW17479   5.493   2.108   4.040
 5527SOL    HW117480   5.402   2.138   4.070
 5527SOL    HW217481   5.561   2.175   4.068
 5528SOL     OW17482   1.024   1.809   1.674
 5528SOL    HW117483   1.020   1.906   1.652
 5528SOL    HW217484   1.116   1.785   1.705
 5529SOL     OW17485   3.680   0.652   2.347
 5529SOL    HW117486   3.756   0.646   2.282
 5529SOL    HW217487   3.699   0.723   2.414
 5530SOL     OW17488   6.873   2.544   1.450
 5530SOL    HW117489   6.838   2.460   1.492
 5530SOL    HW217490   6.903   2.525   1.357
 5531SOL     OW17491   3.192   3.914   1.187
 5531SOL    HW117492   3.225   3.824   1.214
 5531SOL    HW217493   3.131   3.951   1.257
 5532SOL     OW17494   1.632   3.021   1.474
 5532SOL    HW117495   1.665   2.928   1.491
 5532SOL    HW217496   1.685   3.086   1.529
 5533SOL     OW17497   4.123   1.534   3.863
 5533SOL    HW117498   4.104   1.527   3.961
 5533SOL    HW217499   4.115   1.630   3.834
 5534SOL     OW17500   1.180   1.448   4.782
 5534SOL    HW117501   1.177   1.501   4.697
 5534SOL    HW217502   1.269   1.401   4.788
 5535SOL     OW17503   0.867   2.064   3.456
 5535SOL    HW117504   0.864   2.063   3.556
 5535SOL    HW217505   0.780   2.032   3.419
 5536SOL     OW17506   3.154   0.405   4.386
 5536SOL    HW117507   3.132   0.495   4.349
 5536SOL    HW217508   3.188   0.347   4.312
 5537SOL     OW17509   2.951   1.096   2.922
 5537SOL    HW117510   2.902   1.145   2.851
 5537SOL    HW217511   2.927   1.134   3.012
 5538SOL     OW17512   4.797   5.807   4.632
 5538SOL    HW117513   4.786   5.731   4.696
 5538SOL    HW217514   4.816   5.771   4.541
 5539SOL     OW17515   2.699   3.157   0.724
 5539SOL    HW117516   2.771   3.215   0.686
 5539SOL    HW217517   2.634   3.132   0.652
 5540SOL     OW17518   5.323   4.561   2.318
 5540SOL    HW117519   5.343   4.471   2.355
 5540SOL    HW217520   5.260   4.609   2.379
 5541SOL     OW17521   4.461   1.303   5.564
 5541SOL    HW117522   4.371   1.318   5.605
 5541SOL    HW217523   4.455   1.229   5.497
 5542SOL     OW17524   4.656   4.472   6.298
 5542SOL    HW117525   4.613   4.389   6.330
 5542SOL    HW217526   4.730   4.449   6.235
 5543SOL     OW17527   6.401   2.419   5.731
 5543SOL    HW117528   6.418   2.450   5.824
 5543SOL    HW217529   6.312   2.372   5.727
 5544SOL     OW17530   5.824   0.992   6.001
 5544SOL    HW117531   5.923   1.003   5.991
 5544SOL    HW217532   5.789   0.935   5.926
 5545SOL     OW17533   2.893   2.202   2.271
 5545SOL    HW117534   2.877   2.109   2.237
 5545SOL    HW217535   2.879   2.268   2.197
 5546SOL     OW17536   1.637   4.875   5.902
 5546SOL    HW117537   1.717   4.869   5.842
 5546SOL    HW217538   1.580   4.794   5.890
 5547SOL     OW17539   3.627   5.595   4.489
 5547SOL    HW117540   3.574   5.515   4.461
 5547SOL    HW217541   3.592   5.629   4.576
 5548SOL     OW17542   6.218   3.363   5.325
 5548SOL    HW117543   6.257   3.445   5.366
 5548SOL    HW217544   6.289   3.293   5.318
 5549SOL     OW17545   2.564   4.755   0.157
 5549SOL    HW117546   2.506   4.685   0.115
 5549SOL    HW217547   2.603   4.813   0.085
 5550SOL     OW17548   4.182   6.374   1.242
 5550SOL    HW117549   4.220   6.397   1.332
 5550SOL    HW217550   4.178   6.457   1.186
 5551SOL     OW17551   0.991   1.492   2.967
 5551SOL    HW117552   0.935   1.566   3.004
 5551SOL    HW217553   0.941   1.406   2.973
 5552SOL     OW17554   0.091   2.695   1.751
 5552SOL    HW117555   0.085   2.691   1.851
 5552SOL    HW217556   0.106   2.790   1.722
 5553SOL     OW17557   4.965   5.816   0.393
 5553SOL    HW117558   4.958   5.846   0.488
 5553SOL    HW217559   5.032   5.873   0.345
 5554SOL     OW17560   2.911   2.284   4.555
 5554SOL    HW117561   2.866   2.207   4.600
 5554SOL    HW217562   3.010   2.273   4.561
 5555SOL     OW17563   0.339   5.746   2.908
 5555SOL    HW117564   0.322   5.652   2.878
 5555SOL    HW217565   0.350   5.805   2.828
 5556SOL     OW17566   0.060   1.008   4.862
 5556SOL    HW117567   0.064   0.908   4.863
 5556SOL    HW217568   0.116   1.045   4.936
 5557SOL     OW17569   2.303   0.208   3.624
 5557SOL    HW117570   2.346   0.135   3.677
 5557SOL    HW217571   2.343   0.211   3.533
 5558SOL     OW17572   5.123   2.730   5.045
 5558SOL    HW117573   5.100   2.789   5.122
 5558SOL    HW217574   5.043   2.676   5.019
 5559SOL     OW17575   2.187   0.645   1.305
 5559SOL    HW117576   2.173   0.642   1.206
 5559SOL    HW217577   2.134   0.572   1.348
 5560SOL     OW17578   0.167   0.836   4.330
 5560SOL    HW117579   0.094   0.832   4.261
 5560SOL    HW217580   0.135   0.792   4.414
 5561SOL     OW17581   1.543   3.123   3.757
 5561SOL    HW117582   1.558   3.222   3.747
 5561SOL    HW217583   1.507   3.087   3.671
 5562SOL     OW17584   2.607   2.504   5.749
 5562SOL    HW117585   2.613   2.577   5.817
 5562SOL    HW217586   2.542   2.434   5.781
 5563SOL     OW17587   4.231   5.640   1.502
 5563SOL    HW117588   4.242   5.563   1.440
 5563SOL    HW217589   4.319   5.687   1.513
 5564SOL     OW17590   5.457   4.507   1.643
 5564SOL    HW117591   5.516   4.507   1.562
 5564SOL    HW217592   5.388   4.435   1.635
 5565SOL     OW17593   3.398   3.700   5.571
 5565SOL    HW117594   3.447   3.636   5.511
 5565SOL    HW217595   3.304   3.668   5.583
 5566SOL     OW17596   2.065   4.722   1.097
 5566SOL    HW117597   1.999   4.756   1.165
 5566SOL    HW217598   2.137   4.671   1.144
 5567SOL     OW17599   1.435   5.284   2.082
 5567SOL    HW117600   1.363   5.323   2.025
 5567SOL    HW217601   1.415   5.302   2.178
 5568SOL     OW17602   3.305   2.455   1.531
 5568SOL    HW117603   3.300   2.397   1.450
 5568SOL    HW217604   3.214   2.492   1.552
 5569SOL     OW17605   5.688   1.946   6.898
 5569SOL    HW117606   5.761   2.013   6.884
 5569SOL    HW217607   5.636   1.935   6.813
 5570SOL     OW17608   6.673   4.413   6.140
 5570SOL    HW117609   6.613   4.468   6.082
 5570SOL    HW217610   6.623   4.383   6.222
 5571SOL     OW17611   6.764   4.684   5.817
 5571SOL    HW117612   6.850   4.634   5.825
 5571SOL    HW217613   6.696   4.643   5.877
 5572SOL     OW17614   5.167   2.744   5.726
 5572SOL    HW117615   5.145   2.842   5.725
 5572SOL    HW217616   5.266   2.732   5.723
 5573SOL     OW17617   0.930   4.010   0.599
 5573SOL    HW117618   0.938   4.110   0.603
 5573SOL    HW217619   1.021   3.970   0.592
 5574SOL     OW17620   0.338   5.977   4.624
 5574SOL    HW117621   0.252   5.943   4.588
 5574SOL    HW217622   0.406   5.904   4.623
 5575SOL     OW17623   2.072   1.069   0.802
 5575SOL    HW117624   2.068   1.036   0.896
 5575SOL    HW217625   1.992   1.125   0.783
 5576SOL     OW17626   6.091   6.223   6.520
 5576SOL    HW117627   6.074   6.253   6.614
 5576SOL    HW217628   6.190   6.221   6.504
 5577SOL     OW17629   2.094   3.783   5.457
 5577SOL    HW117630   2.005   3.741   5.440
 5577SOL    HW217631   2.114   3.850   5.386
 5578SOL     OW17632   4.035   2.354   6.234
 5578SOL    HW117633   4.098   2.427   6.206
 5578SOL    HW217634   4.020   2.292   6.157
 5579SOL     OW17635   4.990   4.762   0.209
 5579SOL    HW117636   4.939   4.694   0.261
 5579SOL    HW217637   4.946   4.851   0.220
 5580SOL     OW17638   5.846   1.430   0.902
 5580SOL    HW117639   5.776   1.384   0.848
 5580SOL    HW217640   5.820   1.526   0.916
 5581SOL     OW17641   2.959   2.532   0.044
 5581SOL    HW117642   2.895   2.468   0.001
 5581SOL    HW217643   2.908   2.600   0.097
 5582SOL     OW17644   3.813   3.395   3.511
 5582SOL    HW117645   3.847   3.459   3.443
 5582SOL    HW217646   3.713   3.405   3.519
 5583SOL     OW17647   3.981   0.465   0.719
 5583SOL    HW117648   3.926   0.455   0.636
 5583SOL    HW217649   4.041   0.386   0.729
 5584SOL     OW17650   6.037   2.915   3.389
 5584SOL    HW117651   6.060   2.979   3.316
 5584SOL    HW217652   5.996   2.965   3.465
 5585SOL     OW17653   6.326   6.909   4.302
 5585SOL    HW117654   6.363   6.924   4.210
 5585SOL    HW217655   6.246   6.848   4.296
 5586SOL     OW17656   2.239   0.773   6.186
 5586SOL    HW117657   2.292   0.823   6.254
 5586SOL    HW217658   2.190   0.699   6.231
 5587SOL     OW17659   3.393   6.938   4.050
 5587SOL    HW117660   3.360   6.996   3.976
 5587SOL    HW217661   3.326   6.865   4.068
 5588SOL     OW17662   4.327   0.300   6.512
 5588SOL    HW117663   4.245   0.246   6.530
 5588SOL    HW217664   4.351   0.292   6.415
 5589SOL     OW17665   4.110   3.267   6.411
 5589SOL    HW117666   4.127   3.172   6.438
 5589SOL    HW217667   4.175   3.327   6.458
 5590SOL     OW17668   0.049   6.785   3.175
 5590SOL    HW117669   0.094   6.823   3.256
 5590SOL    HW217670   6.984   6.738   3.203
 5591SOL     OW17671   4.928   0.726   0.207
 5591SOL    HW117672   4.836   0.689   0.196
 5591SOL    HW217673   4.983   0.663   0.262
 5592SOL     OW17674   2.040   2.006   2.761
 5592SOL    HW117675   2.064   1.982   2.855
 5592SOL    HW217676   1.940   2.009   2.752
 5593SOL     OW17677   1.716   3.273   5.256
 5593SOL    HW117678   1.633   3.316   5.219
 5593SOL    HW217679   1.719   3.178   5.227
 5594SOL     OW17680   3.041   0.720   6.915
 5594SOL    HW117681   3.039   0.620   6.916
 5594SOL    HW217682   3.008   0.755   7.002
 5595SOL     OW17683   0.194   1.116   5.073
 5595SOL    HW117684   0.190   1.179   5.151
 5595SOL    HW217685   0.227   1.027   5.103
 5596SOL     OW17686   5.123   1.733   2.727
 5596SOL    HW117687   5.191   1.793   2.685
 5596SOL    HW217688   5.118   1.752   2.825
 5597SOL     OW17689   0.423   1.255   6.138
 5597SOL    HW117690   0.332   1.253   6.179
 5597SOL    HW217691   0.491   1.280   6.207
 5598SOL     OW17692   6.684   2.481   4.234
 5598SOL    HW117693   6.717   2.391   4.203
 5598SOL    HW217694   6.584   2.479   4.241
 5599SOL     OW17695   4.931   2.714   3.286
 5599SOL    HW117696   4.845   2.748   3.325
 5599SOL    HW217697   4.912   2.673   3.197
 5600SOL     OW17698   2.482   1.423   2.085
 5600SOL    HW117699   2.428   1.372   2.018
 5600SOL    HW217700   2.550   1.363   2.125
 5601SOL     OW17701   6.230   2.911   5.509
 5601SOL    HW117702   6.209   2.814   5.494
 5601SOL    HW217703   6.279   2.921   5.596
 5602SOL     OW17704   6.616   2.411   2.910
 5602SOL    HW117705   6.711   2.399   2.940
 5602SOL    HW217706   6.579   2.323   2.881
 5603SOL     OW17707   4.359   1.124   5.357
 5603SOL    HW117708   4.328   1.201   5.300
 5603SOL    HW217709   4.371   1.043   5.299
 5604SOL     OW17710   0.847   0.405   3.837
 5604SOL    HW117711   0.851   0.305   3.847
 5604SOL    HW217712   0.902   0.447   3.909
 5605SOL     OW17713   4.434   6.723   4.392
 5605SOL    HW117714   4.488   6.681   4.318
 5605SOL    HW217715   4.345   6.678   4.398
 5606SOL     OW17716   4.858   2.862   0.417
 5606SOL    HW117717   4.890   2.786   0.360
 5606SOL    HW217718   4.762   2.881   0.395
 5607SOL     OW17719   6.666   2.719   2.470
 5607SOL    HW117720   6.685   2.681   2.561
 5607SOL    HW217721   6.647   2.817   2.479
 5608SOL     OW17722   4.816   0.761   3.224
 5608SOL    HW117723   4.773   0.839   3.179
 5608SOL    HW217724   4.891   0.727   3.168
 5609SOL     OW17725   0.303   0.367   0.572
 5609SOL    HW117726   0.283   0.365   0.474
 5609SOL    HW217727   0.307   0.274   0.608
 5610SOL     OW17728   5.282   4.786   1.237
 5610SOL    HW117729   5.219   4.849   1.283
 5610SOL    HW217730   5.287   4.700   1.289
 5611SOL     OW17731   6.339   5.170   1.804
 5611SOL    HW117732   6.311   5.166   1.708
 5611SOL    HW217733   6.395   5.091   1.827
 5612SOL     OW17734   3.647   1.672   0.872
 5612SOL    HW117735   3.675   1.743   0.936
 5612SOL    HW217736   3.646   1.583   0.918
 5613SOL     OW17737   5.442   4.625   6.038
 5613SOL    HW117738   5.536   4.592   6.043
 5613SOL    HW217739   5.437   4.717   6.076
 5614SOL     OW17740   5.227   3.603   3.892
 5614SOL    HW117741   5.299   3.539   3.866
 5614SOL    HW217742   5.169   3.561   3.962
 5615SOL     OW17743   6.897   2.188   3.339
 5615SOL    HW117744   6.954   2.150   3.267
 5615SOL    HW217745   6.931   2.158   3.429
 5616SOL     OW17746   1.516   3.024   2.474
 5616SOL    HW117747   1.547   2.969   2.552
 5616SOL    HW217748   1.589   3.084   2.443
 5617SOL     OW17749   1.719   4.975   6.179
 5617SOL    HW117750   1.683   4.913   6.109
 5617SOL    HW217751   1.724   5.068   6.141
 5618SOL     OW17752   5.727   6.775   2.488
 5618SOL    HW117753   5.826   6.768   2.495
 5618SOL    HW217754   5.700   6.772   2.392
 5619SOL     OW17755   3.985   3.053   3.526
 5619SOL    HW117756   3.933   3.031   3.444
 5619SOL    HW217757   3.944   3.007   3.605
 5620SOL     OW17758   5.100   4.107   5.010
 5620SOL    HW117759   5.138   4.015   5.003
 5620SOL    HW217760   5.153   4.170   4.953
 5621SOL     OW17761   0.838   2.102   5.965
 5621SOL    HW117762   0.881   2.067   6.048
 5621SOL    HW217763   0.883   2.187   5.937
 5622SOL     OW17764   4.755   6.106   3.688
 5622SOL    HW117765   4.823   6.127   3.618
 5622SOL    HW217766   4.769   6.012   3.721
 5623SOL     OW17767   4.784   5.322   4.046
 5623SOL    HW117768   4.775   5.223   4.037
 5623SOL    HW217769   4.873   5.351   4.011
 5624SOL     OW17770   5.978   4.950   3.268
 5624SOL    HW117771   6.026   4.922   3.185
 5624SOL    HW217772   5.977   5.050   3.273
 5625SOL     OW17773   1.703   6.178   5.737
 5625SOL    HW117774   1.751   6.109   5.682
 5625SOL    HW217775   1.658   6.134   5.814
 5626SOL     OW17776   0.913   4.787   6.605
 5626SOL    HW117777   0.956   4.727   6.673
 5626SOL    HW217778   0.977   4.803   6.530
 5627SOL     OW17779   0.810   5.669   0.212
 5627SOL    HW117780   0.818   5.692   0.309
 5627SOL    HW217781   0.806   5.569   0.202
 5628SOL     OW17782   2.684   2.877   1.101
 5628SOL    HW117783   2.605   2.938   1.102
 5628SOL    HW217784   2.748   2.905   1.174
 5629SOL     OW17785   5.873   3.261   2.554
 5629SOL    HW117786   5.810   3.313   2.496
 5629SOL    HW217787   5.856   3.163   2.541
 5630SOL     OW17788   1.034   4.008   6.304
 5630SOL    HW117789   1.117   3.956   6.283
 5630SOL    HW217790   1.049   4.105   6.281
 5631SOL     OW17791   3.676   1.770   1.989
 5631SOL    HW117792   3.677   1.849   1.928
 5631SOL    HW217793   3.699   1.800   2.082
 5632SOL     OW17794   5.253   6.885   5.637
 5632SOL    HW117795   5.240   6.786   5.645
 5632SOL    HW217796   5.346   6.908   5.666
 5633SOL     OW17797   0.821   4.741   5.316
 5633SOL    HW117798   0.909   4.749   5.363
 5633SOL    HW217799   0.760   4.683   5.371
 5634SOL     OW17800   2.271   0.154   1.099
 5634SOL    HW117801   2.293   0.056   1.101
 5634SOL    HW217802   2.349   0.206   1.133
 5635SOL     OW17803   2.713   0.485   0.647
 5635SOL    HW117804   2.738   0.388   0.653
 5635SOL    HW217805   2.704   0.522   0.740
 5636SOL     OW17806   5.525   1.414   5.541
 5636SOL    HW117807   5.429   1.392   5.525
 5636SOL    HW217808   5.582   1.368   5.473
 5637SOL     OW17809   5.252   6.527   4.312
 5637SOL    HW117810   5.283   6.498   4.402
 5637SOL    HW217811   5.182   6.464   4.279
 5638SOL     OW17812   6.246   5.094   0.932
 5638SOL    HW117813   6.177   5.119   1.001
 5638SOL    HW217814   6.221   5.135   0.844
 5639SOL     OW17815   2.092   0.430   1.500
 5639SOL    HW117816   2.060   0.505   1.558
 5639SOL    HW217817   2.081   0.343   1.548
 5640SOL     OW17818   3.035   6.421   2.702
 5640SOL    HW117819   3.008   6.461   2.615
 5640SOL    HW217820   2.991   6.332   2.713
 5641SOL     OW17821   0.474   4.447   4.027
 5641SOL    HW117822   0.410   4.483   3.959
 5641SOL    HW217823   0.535   4.382   3.983
 5642SOL     OW17824   1.726   4.257   0.125
 5642SOL    HW117825   1.802   4.192   0.126
 5642SOL    HW217826   1.697   4.272   0.030
 5643SOL     OW17827   4.572   2.164   5.160
 5643SOL    HW117828   4.493   2.172   5.099
 5643SOL    HW217829   4.595   2.068   5.172
 5644SOL     OW17830   4.158   1.147   4.681
 5644SOL    HW117831   4.120   1.151   4.774
 5644SOL    HW217832   4.215   1.228   4.666
 5645SOL     OW17833   6.148   5.598   4.072
 5645SOL    HW117834   6.098   5.516   4.101
 5645SOL    HW217835   6.097   5.679   4.101
 5646SOL     OW17836   0.476   5.736   4.286
 5646SOL    HW117837   0.535   5.816   4.277
 5646SOL    HW217838   0.398   5.745   4.224
 5647SOL     OW17839   5.667   4.967   6.383
 5647SOL    HW117840   5.601   5.039   6.405
 5647SOL    HW217841   5.725   4.997   6.307
 5648SOL     OW17842   2.105   1.964   5.317
 5648SOL    HW117843   2.006   1.947   5.313
 5648SOL    HW217844   2.142   1.965   5.224
 5649SOL     OW17845   1.091   0.727   5.574
 5649SOL    HW117846   1.123   0.808   5.525
 5649SOL    HW217847   1.117   0.733   5.670
 5650SOL     OW17848   6.484   4.863   0.080
 5650SOL    HW117849   6.427   4.944   0.067
 5650SOL    HW217850   6.458   4.792   0.014
 5651SOL     OW17851   6.347   1.401   2.741
 5651SOL    HW117852   6.353   1.376   2.644
 5651SOL    HW217853   6.288   1.335   2.788
 5652SOL     OW17854   4.734   4.891   0.644
 5652SOL    HW117855   4.673   4.843   0.581
 5652SOL    HW217856   4.702   4.985   0.655
 5653SOL     OW17857   1.707   6.216   6.071
 5653SOL    HW117858   1.703   6.117   6.060
 5653SOL    HW217859   1.649   6.244   6.147
 5654SOL     OW17860   0.870   6.149   5.718
 5654SOL    HW117861   0.797   6.218   5.723
 5654SOL    HW217862   0.919   6.146   5.805
 5655SOL     OW17863   0.276   3.532   3.543
 5655SOL    HW117864   0.236   3.607   3.597
 5655SOL    HW217865   0.366   3.559   3.510
 5656SOL     OW17866   3.348   4.649   0.204
 5656SOL    HW117867   3.394   4.569   0.165
 5656SOL    HW217868   3.286   4.619   0.277
 5657SOL     OW17869   4.319   6.110   2.092
 5657SOL    HW117870   4.259   6.154   2.158
 5657SOL    HW217871   4.326   6.013   2.113
 5658SOL     OW17872   4.800   7.014   5.551
 5658SOL    HW117873   4.705   6.997   5.576
 5658SOL    HW217874   4.809   7.012   5.452
 5659SOL     OW17875   3.690   3.799   2.775
 5659SOL    HW117876   3.779   3.843   2.781
 5659SOL    HW217877   3.646   3.825   2.689
 5660SOL     OW17878   5.824   6.401   0.805
 5660SOL    HW117879   5.744   6.344   0.788
 5660SOL    HW217880   5.817   6.441   0.896
 5661SOL     OW17881   6.416   5.777   4.521
 5661SOL    HW117882   6.394   5.857   4.578
 5661SOL    HW217883   6.395   5.797   4.425
 5662SOL     OW17884   2.484   4.549   4.422
 5662SOL    HW117885   2.579   4.577   4.409
 5662SOL    HW217886   2.471   4.518   4.517
 5663SOL     OW17887   1.098   4.066   0.080
 5663SOL    HW117888   1.020   4.108   0.127
 5663SOL    HW217889   1.183   4.109   0.109
 5664SOL     OW17890   0.593   4.696   2.809
 5664SOL    HW117891   0.545   4.768   2.758
 5664SOL    HW217892   0.538   4.669   2.888
 5665SOL     OW17893   2.328   2.587   6.061
 5665SOL    HW117894   2.410   2.557   6.110
 5665SOL    HW217895   2.265   2.511   6.052
 5666SOL     OW17896   5.850   5.502   0.612
 5666SOL    HW117897   5.944   5.509   0.578
 5666SOL    HW217898   5.818   5.592   0.640
 5667SOL     OW17899   6.956   5.326   3.574
 5667SOL    HW117900   6.962   5.356   3.480
 5667SOL    HW217901   6.981   5.229   3.580
 5668SOL     OW17902   6.129   2.321   5.728
 5668SOL    HW117903   6.038   2.328   5.767
 5668SOL    HW217904   6.121   2.297   5.631
 5669SOL     OW17905   6.600   3.522   6.154
 5669SOL    HW117906   6.590   3.527   6.253
 5669SOL    HW217907   6.587   3.612   6.114
 5670SOL     OW17908   0.665   4.283   3.919
 5670SOL    HW117909   0.668   4.308   3.823
 5670SOL    HW217910   0.757   4.261   3.951
 5671SOL     OW17911   1.786   1.449   6.039
 5671SOL    HW117912   1.883   1.474   6.040
 5671SOL    HW217913   1.731   1.528   6.012
 5672SOL     OW17914   5.138   5.275   5.835
 5672SOL    HW117915   5.065   5.215   5.866
 5672SOL    HW217916   5.223   5.251   5.882
 5673SOL     OW17917   0.651   0.527   2.274
 5673SOL    HW117918   0.670   0.487   2.185
 5673SOL    HW217919   0.597   0.611   2.263
 5674SOL     OW17920   6.901   3.544   1.578
 5674SOL    HW117921   6.805   3.517   1.585
 5674SOL    HW217922   6.954   3.468   1.538
 5675SOL     OW17923   4.357   2.476   5.582
 5675SOL    HW117924   4.359   2.378   5.604
 5675SOL    HW217925   4.365   2.487   5.483
 5676SOL     OW17926   2.648   0.537   1.779
 5676SOL    HW117927   2.654   0.465   1.848
 5676SOL    HW217928   2.709   0.516   1.703
 5677SOL     OW17929   6.746   0.394   4.273
 5677SOL    HW117930   6.783   0.460   4.339
 5677SOL    HW217931   6.650   0.415   4.255
 5678SOL     OW17932   1.733   5.498   3.062
 5678SOL    HW117933   1.675   5.495   2.981
 5678SOL    HW217934   1.823   5.534   3.038
 5679SOL     OW17935   1.790   6.046   5.084
 5679SOL    HW117936   1.740   6.130   5.067
 5679SOL    HW217937   1.865   6.064   5.148
 5680SOL     OW17938   2.500   6.685   6.517
 5680SOL    HW117939   2.453   6.673   6.604
 5680SOL    HW217940   2.573   6.753   6.528
 5681SOL     OW17941   1.214   3.011   6.807
 5681SOL    HW117942   1.268   3.040   6.886
 5681SOL    HW217943   1.219   3.081   6.736
 5682SOL     OW17944   1.185   3.483   4.684
 5682SOL    HW117945   1.141   3.399   4.716
 5682SOL    HW217946   1.238   3.463   4.602
 5683SOL     OW17947   3.617   2.283   5.743
 5683SOL    HW117948   3.578   2.372   5.765
 5683SOL    HW217949   3.578   2.214   5.804
 5684SOL     OW17950   3.137   3.915   3.719
 5684SOL    HW117951   3.050   3.865   3.713
 5684SOL    HW217952   3.198   3.883   3.646
 5685SOL     OW17953   0.274   5.471   2.122
 5685SOL    HW117954   0.311   5.453   2.031
 5685SOL    HW217955   0.223   5.391   2.154
 5686SOL     OW17956   3.637   6.677   6.872
 5686SOL    HW117957   3.540   6.697   6.880
 5686SOL    HW217958   3.662   6.670   6.775
 5687SOL     OW17959   5.324   5.559   5.943
 5687SOL    HW117960   5.288   5.544   5.851
 5687SOL    HW217961   5.267   5.511   6.010
 5688SOL     OW17962   5.759   1.891   1.117
 5688SOL    HW117963   5.799   1.850   1.199
 5688SOL    HW217964   5.805   1.978   1.098
 5689SOL     OW17965   3.462   2.787   0.779
 5689SOL    HW117966   3.418   2.873   0.802
 5689SOL    HW217967   3.549   2.780   0.827
 5690SOL     OW17968   4.856   6.481   1.268
 5690SOL    HW117969   4.879   6.552   1.334
 5690SOL    HW217970   4.791   6.518   1.201
 5691SOL     OW17971   1.012   0.355   1.899
 5691SOL    HW117972   1.053   0.344   1.989
 5691SOL    HW217973   1.081   0.337   1.829
 5692SOL     OW17974   5.686   2.634   6.512
 5692SOL    HW117975   5.661   2.712   6.455
 5692SOL    HW217976   5.730   2.666   6.596
 5693SOL     OW17977   4.866   2.642   2.969
 5693SOL    HW117978   4.927   2.623   2.892
 5693SOL    HW217979   4.819   2.558   2.996
 5694SOL     OW17980   6.914   1.848   3.869
 5694SOL    HW117981   6.894   1.750   3.870
 5694SOL    HW217982   6.955   1.873   3.781
 5695SOL     OW17983   1.592   3.367   3.428
 5695SOL    HW117984   1.497   3.364   3.396
 5695SOL    HW217985   1.643   3.434   3.373
 5696SOL     OW17986   2.831   0.483   5.422
 5696SOL    HW117987   2.764   0.557   5.422
 5696SOL    HW217988   2.915   0.514   5.379
 5697SOL     OW17989   6.175   3.198   0.141
 5697SOL    HW117990   6.152   3.128   0.073
 5697SOL    HW217991   6.251   3.166   0.198
 5698SOL     OW17992   0.311   3.691   1.885
 5698SOL    HW117993   0.371   3.727   1.956
 5698SOL    HW217994   0.216   3.692   1.916
 5699SOL     OW17995   6.175   0.783   5.158
 5699SOL    HW117996   6.151   0.784   5.255
 5699SOL    HW217997   6.166   0.875   5.121
 5700SOL     OW17998   1.659   5.761   3.842
 5700SOL    HW117999   1.665   5.777   3.744
 5700SOL    HW218000   1.728   5.695   3.870
 5701SOL     OW18001   6.357   5.503   1.247
 5701SOL    HW118002   6.361   5.424   1.308
 5701SOL    HW218003   6.442   5.555   1.256
 5702SOL     OW18004   1.923   0.716   6.700
 5702SOL    HW118005   1.947   0.623   6.728
 5702SOL    HW218006   1.829   0.718   6.666
 5703SOL     OW18007   4.384   4.678   0.892
 5703SOL    HW118008   4.320   4.717   0.958
 5703SOL    HW218009   4.360   4.583   0.873
 5704SOL     OW18010   3.625   5.342   3.527
 5704SOL    HW118011   3.680   5.408   3.580
 5704SOL    HW218012   3.562   5.391   3.467
 5705SOL     OW18013   6.297   0.820   1.930
 5705SOL    HW118014   6.331   0.816   1.836
 5705SOL    HW218015   6.231   0.746   1.946
 5706SOL     OW18016   1.206   1.201   6.837
 5706SOL    HW118017   1.118   1.212   6.883
 5706SOL    HW218018   1.208   1.113   6.790
 5707SOL     OW18019   2.765   2.078   0.373
 5707SOL    HW118020   2.714   2.138   0.435
 5707SOL    HW218021   2.850   2.122   0.346
 5708SOL     OW18022   5.230   6.563   1.714
 5708SOL    HW118023   5.278   6.626   1.652
 5708SOL    HW218024   5.296   6.497   1.751
 5709SOL     OW18025   1.364   0.533   2.694
 5709SOL    HW118026   1.409   0.528   2.605
 5709SOL    HW218027   1.353   0.628   2.722
 5710SOL     OW18028   2.967   3.493   6.282
 5710SOL    HW118029   2.900   3.563   6.306
 5710SOL    HW218030   3.041   3.534   6.228
 5711SOL     OW18031   4.282   1.090   3.669
 5711SOL    HW118032   4.370   1.103   3.623
 5711SOL    HW218033   4.234   1.178   3.675
 5712SOL     OW18034   0.125   6.103   6.204
 5712SOL    HW118035   0.207   6.047   6.219
 5712SOL    HW218036   0.044   6.049   6.228
 5713SOL     OW18037   6.842   2.269   2.515
 5713SOL    HW118038   6.865   2.175   2.488
 5713SOL    HW218039   6.743   2.279   2.520
 5714SOL     OW18040   1.281   0.940   6.312
 5714SOL    HW118041   1.215   0.933   6.238
 5714SOL    HW218042   1.354   1.003   6.286
 5715SOL     OW18043   1.047   6.560   2.977
 5715SOL    HW118044   0.966   6.573   3.034
 5715SOL    HW218045   1.021   6.563   2.880
 5716SOL     OW18046   2.248   3.494   6.042
 5716SOL    HW118047   2.325   3.558   6.048
 5716SOL    HW218048   2.205   3.485   6.131
 5717SOL     OW18049   1.189   3.921   0.513
 5717SOL    HW118050   1.208   4.010   0.472
 5717SOL    HW218051   1.269   3.863   0.506
 5718SOL     OW18052   2.610   4.309   5.812
 5718SOL    HW118053   2.645   4.365   5.737
 5718SOL    HW218054   2.545   4.241   5.775
 5719SOL     OW18055   3.438   1.053   6.483
 5719SOL    HW118056   3.362   1.043   6.548
 5719SOL    HW218057   3.509   0.985   6.504
 5720SOL     OW18058   1.098   4.869   4.799
 5720SOL    HW118059   1.072   4.782   4.842
 5720SOL    HW218060   1.069   4.869   4.703
 5721SOL     OW18061   0.831   4.051   1.485
 5721SOL    HW118062   0.827   4.008   1.395
 5721SOL    HW218063   0.922   4.089   1.500
 5722SOL     OW18064   5.648   6.617   4.115
 5722SOL    HW118065   5.717   6.551   4.087
 5722SOL    HW218066   5.605   6.587   4.200
 5723SOL     OW18067   2.998   5.098   0.884
 5723SOL    HW118068   2.944   5.031   0.935
 5723SOL    HW218069   3.082   5.119   0.934
 5724SOL     OW18070   5.113   1.605   6.681
 5724SOL    HW118071   5.155   1.521   6.716
 5724SOL    HW218072   5.031   1.625   6.733
 5725SOL     OW18073   5.188   5.427   6.349
 5725SOL    HW118074   5.225   5.391   6.264
 5725SOL    HW218075   5.260   5.474   6.400
 5726SOL     OW18076   5.473   3.464   6.055
 5726SOL    HW118077   5.409   3.456   6.131
 5726SOL    HW218078   5.428   3.511   5.978
 5727SOL     OW18079   6.038   2.132   3.547
 5727SOL    HW118080   6.081   2.218   3.521
 5727SOL    HW218081   5.955   2.151   3.600
 5728SOL     OW18082   6.321   0.729   5.622
 5728SOL    HW118083   6.321   0.808   5.684
 5728SOL    HW218084   6.413   0.690   5.618
 5729SOL     OW18085   0.667   2.242   6.174
 5729SOL    HW118086   0.653   2.149   6.210
 5729SOL    HW218087   0.710   2.237   6.084
 5730SOL     OW18088   5.138   4.926   5.729
 5730SOL    HW118089   5.079   4.934   5.810
 5730SOL    HW218090   5.214   4.864   5.749
 5731SOL     OW18091   3.491   0.922   3.931
 5731SOL    HW118092   3.572   0.955   3.883
 5731SOL    HW218093   3.422   0.893   3.865
 5732SOL     OW18094   5.697   4.852   4.920
 5732SOL    HW118095   5.748   4.862   5.005
 5732SOL    HW218096   5.658   4.940   4.894
 5733SOL     OW18097   3.500   1.162   0.215
 5733SOL    HW118098   3.467   1.240   0.162
 5733SOL    HW218099   3.436   1.143   0.289
 5734SOL     OW18100   2.308   6.163   5.729
 5734SOL    HW118101   2.328   6.257   5.700
 5734SOL    HW218102   2.319   6.102   5.650
 5735SOL     OW18103   4.423   0.929   1.882
 5735SOL    HW118104   4.518   0.950   1.907
 5735SOL    HW218105   4.417   0.833   1.854
 5736SOL     OW18106   4.808   4.362   6.875
 5736SOL    HW118107   4.799   4.335   6.779
 5736SOL    HW218108   4.739   4.432   6.896
 5737SOL     OW18109   4.195   5.449   1.054
 5737SOL    HW118110   4.220   5.532   1.003
 5737SOL    HW218111   4.098   5.431   1.042
 5738SOL     OW18112   3.478   1.360   6.506
 5738SOL    HW118113   3.544   1.311   6.562
 5738SOL    HW218114   3.411   1.405   6.565
 5739SOL     OW18115   2.143   0.349   5.616
 5739SOL    HW118116   2.207   0.292   5.564
 5739SOL    HW218117   2.054   0.303   5.622
 5740SOL     OW18118   5.470   3.544   2.264
 5740SOL    HW118119   5.548   3.552   2.202
 5740SOL    HW218120   5.420   3.630   2.265
 5741SOL     OW18121   0.366   3.386   4.450
 5741SOL    HW118122   0.311   3.369   4.368
 5741SOL    HW218123   0.398   3.481   4.450
 5742SOL     OW18124   5.178   0.431   3.740
 5742SOL    HW118125   5.112   0.494   3.698
 5742SOL    HW218126   5.263   0.432   3.686
 5743SOL     OW18127   4.095   3.667   5.682
 5743SOL    HW118128   4.184   3.628   5.704
 5743SOL    HW218129   4.097   3.704   5.589
 5744SOL     OW18130   5.815   6.446   2.518
 5744SOL    HW118131   5.741   6.475   2.458
 5744SOL    HW218132   5.900   6.438   2.465
 5745SOL     OW18133   1.841   2.297   2.778
 5745SOL    HW118134   1.916   2.286   2.712
 5745SOL    HW218135   1.797   2.209   2.793
 5746SOL     OW18136   4.636   0.272   3.455
 5746SOL    HW118137   4.717   0.327   3.436
 5746SOL    HW218138   4.619   0.211   3.377
 5747SOL     OW18139   0.830   6.487   1.383
 5747SOL    HW118140   0.812   6.417   1.314
 5747SOL    HW218141   0.850   6.442   1.471
 5748SOL     OW18142   0.505   6.117   0.686
 5748SOL    HW118143   0.480   6.131   0.781
 5748SOL    HW218144   0.526   6.020   0.671
 5749SOL     OW18145   1.980   6.017   5.302
 5749SOL    HW118146   2.021   5.928   5.278
 5749SOL    HW218147   2.048   6.089   5.288
 5750SOL     OW18148   6.623   4.467   4.246
 5750SOL    HW118149   6.551   4.436   4.183
 5750SOL    HW218150   6.640   4.395   4.314
 5751SOL     OW18151   1.963   3.691   4.336
 5751SOL    HW118152   2.014   3.625   4.391
 5751SOL    HW218153   1.928   3.763   4.395
 5752SOL     OW18154   5.003   0.337   0.930
 5752SOL    HW118155   4.999   0.435   0.911
 5752SOL    HW218156   4.985   0.321   1.027
 5753SOL     OW18157   2.993   4.010   4.884
 5753SOL    HW118158   2.982   4.109   4.877
 5753SOL    HW218159   2.942   3.977   4.963
 5754SOL     OW18160   0.891   6.098   1.400
 5754SOL    HW118161   0.956   6.023   1.385
 5754SOL    HW218162   0.869   6.141   1.313
 5755SOL     OW18163   1.652   2.442   6.938
 5755SOL    HW118164   1.649   2.524   6.994
 5755SOL    HW218165   1.624   2.464   6.844
 5756SOL     OW18166   5.698   6.053   1.475
 5756SOL    HW118167   5.787   6.013   1.454
 5756SOL    HW218168   5.635   6.034   1.399
 5757SOL     OW18169   6.309   6.920   3.995
 5757SOL    HW118170   6.219   6.879   3.986
 5757SOL    HW218171   6.354   6.924   3.906
 5758SOL     OW18172   0.582   0.529   2.833
 5758SOL    HW118173   0.606   0.497   2.924
 5758SOL    HW218174   0.570   0.450   2.772
 5759SOL     OW18175   3.414   0.170   0.721
 5759SOL    HW118176   3.504   0.132   0.744
 5759SOL    HW218177   3.372   0.209   0.804
 5760SOL     OW18178   0.503   3.006   1.350
 5760SOL    HW118179   0.428   3.050   1.400
 5760SOL    HW218180   0.467   2.929   1.298
 5761SOL     OW18181   5.486   5.761   5.437
 5761SOL    HW118182   5.446   5.686   5.385
 5761SOL    HW218183   5.561   5.802   5.384
 5762SOL     OW18184   5.635   4.634   6.991
 5762SOL    HW118185   5.659   4.587   6.906
 5762SOL    HW218186   5.717   4.650   0.027
 5763SOL     OW18187   5.397   0.342   0.095
 5763SOL    HW118188   5.345   0.366   0.013
 5763SOL    HW218189   5.354   0.263   0.140
 5764SOL     OW18190   4.100   5.868   4.007
 5764SOL    HW118191   4.181   5.918   4.039
 5764SOL    HW218192   4.102   5.861   3.907
 5765SOL     OW18193   6.577   5.648   1.239
 5765SOL    HW118194   6.672   5.617   1.230
 5765SOL    HW218195   6.540   5.668   1.148
 5766SOL     OW18196   0.784   1.735   4.353
 5766SOL    HW118197   0.701   1.788   4.337
 5766SOL    HW218198   0.766   1.638   4.335
 5767SOL     OW18199   2.556   0.514   0.947
 5767SOL    HW118200   2.559   0.609   0.978
 5767SOL    HW218201   2.646   0.473   0.955
 5768SOL     OW18202   0.412   6.489   4.771
 5768SOL    HW118203   0.394   6.459   4.865
 5768SOL    HW218204   0.431   6.409   4.714
 5769SOL     OW18205   1.161   5.239   6.172
 5769SOL    HW118206   1.211   5.326   6.163
 5769SOL    HW218207   1.063   5.257   6.180
 5770SOL     OW18208   2.045   5.145   1.432
 5770SOL    HW118209   2.088   5.139   1.342
 5770SOL    HW218210   1.968   5.082   1.436
 5771SOL     OW18211   2.477   5.343   4.174
 5771SOL    HW118212   2.486   5.276   4.247
 5771SOL    HW218213   2.407   5.314   4.110
 5772SOL     OW18214   4.205   0.642   1.975
 5772SOL    HW118215   4.259   0.586   2.037
 5772SOL    HW218216   4.180   0.588   1.895
 5773SOL     OW18217   4.135   2.263   2.435
 5773SOL    HW118218   4.145   2.340   2.372
 5773SOL    HW218219   4.039   2.237   2.442
 5774SOL     OW18220   0.273   6.261   3.432
 5774SOL    HW118221   0.197   6.208   3.395
 5774SOL    HW218222   0.278   6.249   3.531
 5775SOL     OW18223   0.344   5.671   2.296
 5775SOL    HW118224   0.321   5.610   2.221
 5775SOL    HW218225   0.396   5.620   2.366
 5776SOL     OW18226   2.251   0.442   2.979
 5776SOL    HW118227   2.348   0.418   2.984
 5776SOL    HW218228   2.242   0.541   2.966
 5777SOL     OW18229   1.771   0.301   3.137
 5777SOL    HW118230   1.745   0.218   3.089
 5777SOL    HW218231   1.865   0.325   3.114
 5778SOL     OW18232   0.864   1.511   6.888
 5778SOL    HW118233   0.885   1.529   6.984
 5778SOL    HW218234   0.765   1.516   6.874
 5779SOL     OW18235   5.378   2.359   6.323
 5779SOL    HW118236   5.375   2.314   6.234
 5779SOL    HW218237   5.286   2.388   6.349
 5780SOL     OW18238   5.389   5.046   3.448
 5780SOL    HW118239   5.306   4.992   3.432
 5780SOL    HW218240   5.370   5.115   3.518
 5781SOL     OW18241   0.410   3.608   5.559
 5781SOL    HW118242   0.470   3.530   5.577
 5781SOL    HW218243   0.396   3.659   5.644
 5782SOL     OW18244   0.370   1.132   0.595
 5782SOL    HW118245   0.441   1.062   0.601
 5782SOL    HW218246   0.319   1.136   0.681
 5783SOL     OW18247   2.059   1.729   2.109
 5783SOL    HW118248   1.969   1.728   2.067
 5783SOL    HW218249   2.119   1.792   2.059
 5784SOL     OW18250   0.432   6.447   6.680
 5784SOL    HW118251   0.520   6.418   6.643
 5784SOL    HW218252   0.438   6.449   6.780
 5785SOL     OW18253   2.027   1.675   1.082
 5785SOL    HW118254   1.989   1.660   1.174
 5785SOL    HW218255   1.958   1.719   1.025
 5786SOL     OW18256   0.334   3.603   0.673
 5786SOL    HW118257   0.254   3.556   0.710
 5786SOL    HW218258   0.405   3.609   0.743
 5787SOL     OW18259   2.850   1.826   5.812
 5787SOL    HW118260   2.803   1.749   5.856
 5787SOL    HW218261   2.943   1.833   5.848
 5788SOL     OW18262   2.607   0.717   3.073
 5788SOL    HW118263   2.633   0.779   3.000
 5788SOL    HW218264   2.612   0.623   3.041
 5789SOL     OW18265   4.086   4.857   6.230
 5789SOL    HW118266   4.125   4.863   6.138
 5789SOL    HW218267   4.154   4.887   6.297
 5790SOL     OW18268   0.465   3.026   4.050
 5790SOL    HW118269   0.537   2.964   4.017
 5790SOL    HW218270   0.376   2.996   4.016
 5791SOL     OW18271   2.791   0.229   2.764
 5791SOL    HW118272   2.769   0.133   2.774
 5791SOL    HW218273   2.789   0.254   2.667
 5792SOL     OW18274   6.796   2.115   2.926
 5792SOL    HW118275   6.818   2.065   2.842
 5792SOL    HW218276   6.833   2.207   2.920
 5793SOL     OW18277   6.408   1.326   3.744
 5793SOL    HW118278   6.506   1.347   3.750
 5793SOL    HW218279   6.359   1.405   3.707
 5794SOL     OW18280   3.682   3.498   6.834
 5794SOL    HW118281   3.707   3.445   6.915
 5794SOL    HW218282   3.698   3.595   6.851
 5795SOL     OW18283   5.870   4.330   5.799
 5795SOL    HW118284   5.821   4.276   5.867
 5795SOL    HW218285   5.928   4.398   5.846
 5796SOL     OW18286   3.625   1.655   7.001
 5796SOL    HW118287   3.604   1.617   6.911
 5796SOL    HW218288   3.573   1.739   7.015
 5797SOL     OW18289   3.442   2.068   4.620
 5797SOL    HW118290   3.366   2.087   4.682
 5797SOL    HW218291   3.508   2.008   4.666
 5798SOL     OW18292   6.739   4.654   5.226
 5798SOL    HW118293   6.815   4.702   5.270
 5798SOL    HW218294   6.724   4.692   5.135
 5799SOL     OW18295   5.265   6.972   3.045
 5799SOL    HW118296   5.266   6.919   2.960
 5799SOL    HW218297   5.315   0.039   3.031
 5800SOL     OW18298   5.753   4.800   1.130
 5800SOL    HW118299   5.770   4.843   1.042
 5800SOL    HW218300   5.707   4.713   1.116
 5801SOL     OW18301   0.732   0.953   3.389
 5801SOL    HW118302   0.651   0.942   3.447
 5801SOL    HW218303   0.713   1.022   3.320
 5802SOL     OW18304   7.000   3.942   6.069
 5802SOL    HW118305   6.961   3.912   5.983
 5802SOL    HW218306   6.943   3.911   6.145
 5803SOL     OW18307   1.251   4.660   0.741
 5803SOL    HW118308   1.317   4.687   0.670
 5803SOL    HW218309   1.165   4.633   0.698
 5804SOL     OW18310   6.056   4.181   4.360
 5804SOL    HW118311   6.104   4.261   4.394
 5804SOL    HW218312   5.973   4.167   4.414
 5805SOL     OW18313   4.484   4.023   6.443
 5805SOL    HW118314   4.427   3.966   6.384
 5805SOL    HW218315   4.447   4.023   6.536
 5806SOL     OW18316   0.850   6.244   6.982
 5806SOL    HW118317   0.949   6.257   6.990
 5806SOL    HW218318   0.829   6.146   6.981
 5807SOL     OW18319   1.448   3.637   0.976
 5807SOL    HW118320   1.538   3.593   0.979
 5807SOL    HW218321   1.401   3.622   1.063
 5808SOL     OW18322   5.697   4.314   2.316
 5808SOL    HW118323   5.619   4.367   2.349
 5808SOL    HW218324   5.664   4.236   2.262
 5809SOL     OW18325   6.944   3.001   4.452
 5809SOL    HW118326   6.918   3.068   4.521
 5809SOL    HW218327   6.861   2.957   4.416
 5810SOL     OW18328   3.274   1.478   3.723
 5810SOL    HW118329   3.349   1.528   3.680
 5810SOL    HW218330   3.207   1.543   3.759
 5811SOL     OW18331   2.599   0.264   4.634
 5811SOL    HW118332   2.632   0.272   4.728
 5811SOL    HW218333   2.499   0.261   4.634
 5812SOL     OW18334   4.715   0.155   2.802
 5812SOL    HW118335   4.713   0.083   2.872
 5812SOL    HW218336   4.799   0.147   2.749
 5813SOL     OW18337   1.289   0.977   5.575
 5813SOL    HW118338   1.272   0.974   5.673
 5813SOL    HW218339   1.387   0.962   5.557
 5814SOL     OW18340   0.043   4.826   1.014
 5814SOL    HW118341   0.080   4.832   1.107
 5814SOL    HW218342   0.011   4.916   0.985
 5815SOL     OW18343   4.093   2.240   2.996
 5815SOL    HW118344   4.064   2.200   2.909
 5815SOL    HW218345   4.024   2.222   3.066
 5816SOL     OW18346   4.501   0.086   0.013
 5816SOL    HW118347   4.534   0.059   0.103
 5816SOL    HW218348   4.532   0.179   7.012
 5817SOL     OW18349   5.310   3.285   5.814
 5817SOL    HW118350   5.258   3.309   5.895
 5817SOL    HW218351   5.351   3.367   5.774
 5818SOL     OW18352   5.746   6.865   5.667
 5818SOL    HW118353   5.736   6.780   5.719
 5818SOL    HW218354   5.737   6.845   5.570
 5819SOL     OW18355   5.586   0.484   0.913
 5819SOL    HW118356   5.665   0.487   0.974
 5819SOL    HW218357   5.503   0.477   0.967
 5820SOL     OW18358   4.838   6.842   3.321
 5820SOL    HW118359   4.827   6.802   3.412
 5820SOL    HW218360   4.811   6.775   3.252
 5821SOL     OW18361   2.928   0.689   1.900
 5821SOL    HW118362   2.917   0.760   1.969
 5821SOL    HW218363   2.845   0.634   1.893
 5822SOL     OW18364   0.629   2.184   1.778
 5822SOL    HW118365   0.633   2.095   1.732
 5822SOL    HW218366   0.536   2.221   1.772
 5823SOL     OW18367   1.820   1.249   5.079
 5823SOL    HW118368   1.895   1.280   5.137
 5823SOL    HW218369   1.740   1.307   5.094
 5824SOL     OW18370   6.823   6.693   3.255
 5824SOL    HW118371   6.799   6.683   3.351
 5824SOL    HW218372   6.740   6.690   3.199
 5825SOL     OW18373   2.027   1.100   6.825
 5825SOL    HW118374   2.125   1.120   6.824
 5825SOL    HW218375   2.006   1.038   6.901
 5826SOL     OW18376   6.421   6.150   5.053
 5826SOL    HW118377   6.476   6.224   5.092
 5826SOL    HW218378   6.357   6.116   5.122
 5827SOL     OW18379   0.274   5.463   4.783
 5827SOL    HW118380   0.367   5.438   4.810
 5827SOL    HW218381   0.278   5.528   4.707
 5828SOL     OW18382   0.294   3.832   2.263
 5828SOL    HW118383   0.243   3.797   2.184
 5828SOL    HW218384   0.282   3.770   2.340
 5829SOL     OW18385   2.992   1.349   1.978
 5829SOL    HW118386   3.066   1.292   2.013
 5829SOL    HW218387   2.983   1.431   2.035
 5830SOL     OW18388   3.699   0.688   5.682
 5830SOL    HW118389   3.650   0.737   5.611
 5830SOL    HW218390   3.634   0.649   5.748
 5831SOL     OW18391   6.038   6.583   3.001
 5831SOL    HW118392   5.994   6.570   2.913
 5831SOL    HW218393   6.137   6.575   2.990
 5832SOL     OW18394   4.114   3.936   5.359
 5832SOL    HW118395   4.071   3.989   5.286
 5832SOL    HW218396   4.213   3.934   5.345
 5833SOL     OW18397   3.056   3.270   3.950
 5833SOL    HW118398   3.134   3.332   3.943
 5833SOL    HW218399   3.044   3.222   3.863
 5834SOL     OW18400   5.706   1.770   0.678
 5834SOL    HW118401   5.786   1.714   0.659
 5834SOL    HW218402   5.633   1.747   0.614
 5835SOL     OW18403   4.982   2.368   3.440
 5835SOL    HW118404   5.068   2.356   3.391
 5835SOL    HW218405   4.999   2.416   3.526
 5836SOL     OW18406   3.043   6.099   2.230
 5836SOL    HW118407   2.965   6.162   2.229
 5836SOL    HW218408   3.088   6.105   2.319
 5837SOL     OW18409   4.811   4.603   0.394
 5837SOL    HW118410   4.773   4.585   0.485
 5837SOL    HW218411   4.873   4.529   0.368
 5838SOL     OW18412   1.097   1.741   5.873
 5838SOL    HW118413   1.158   1.805   5.920
 5838SOL    HW218414   1.083   1.661   5.930
 5839SOL     OW18415   6.827   3.620   2.848
 5839SOL    HW118416   6.861   3.686   2.915
 5839SOL    HW218417   6.739   3.584   2.878
 5840SOL     OW18418   1.411   5.810   6.754
 5840SOL    HW118419   1.493   5.761   6.726
 5840SOL    HW218420   1.437   5.898   6.796
 5841SOL     OW18421   6.336   3.072   3.913
 5841SOL    HW118422   6.366   3.020   3.833
 5841SOL    HW218423   6.244   3.043   3.939
 5842SOL     OW18424   4.066   2.873   0.743
 5842SOL    HW118425   4.128   2.951   0.746
 5842SOL    HW218426   4.014   2.875   0.657
 5843SOL     OW18427   1.915   3.286   2.549
 5843SOL    HW118428   1.965   3.370   2.529
 5843SOL    HW218429   1.952   3.245   2.632
 5844SOL     OW18430   0.251   5.850   6.215
 5844SOL    HW118431   0.188   5.775   6.194
 5844SOL    HW218432   0.300   5.829   6.300
 5845SOL     OW18433   0.989   2.452   3.750
 5845SOL    HW118434   1.037   2.376   3.793
 5845SOL    HW218435   0.894   2.427   3.733
 5846SOL     OW18436   6.937   2.711   5.425
 5846SOL    HW118437   0.015   2.730   5.443
 5846SOL    HW218438   6.889   2.797   5.407
 5847SOL     OW18439   2.017   2.270   2.563
 5847SOL    HW118440   2.081   2.193   2.566
 5847SOL    HW218441   1.963   2.266   2.479
 5848SOL     OW18442   2.030   4.751   3.369
 5848SOL    HW118443   2.006   4.660   3.336
 5848SOL    HW218444   2.007   4.759   3.466
 5849SOL     OW18445   1.434   0.439   5.683
 5849SOL    HW118446   1.516   0.463   5.735
 5849SOL    HW218447   1.380   0.373   5.734
 5850SOL     OW18448   1.574   4.230   2.071
 5850SOL    HW118449   1.533   4.198   2.156
 5850SOL    HW218450   1.575   4.330   2.069
 5851SOL     OW18451   6.151   4.018   2.546
 5851SOL    HW118452   6.089   4.096   2.538
 5851SOL    HW218453   6.133   3.969   2.631
 5852SOL     OW18454   3.955   5.762   2.804
 5852SOL    HW118455   3.917   5.741   2.713
 5852SOL    HW218456   4.050   5.731   2.808
 5853SOL     OW18457   3.043   4.800   6.120
 5853SOL    HW118458   2.996   4.713   6.107
 5853SOL    HW218459   2.992   4.873   6.073
 5854SOL     OW18460   6.886   1.957   5.643
 5854SOL    HW118461   6.836   2.043   5.629
 5854SOL    HW218462   6.887   1.905   5.558
 5855SOL     OW18463   1.294   0.906   4.564
 5855SOL    HW118464   1.307   0.807   4.561
 5855SOL    HW218465   1.381   0.950   4.585
 5856SOL     OW18466   2.453   4.927   3.198
 5856SOL    HW118467   2.548   4.932   3.231
 5856SOL    HW218468   2.401   5.003   3.236
 5857SOL     OW18469   6.601   2.414   4.895
 5857SOL    HW118470   6.503   2.433   4.886
 5857SOL    HW218471   6.622   2.390   4.990
 5858SOL     OW18472   3.073   0.867   2.559
 5858SOL    HW118473   3.169   0.862   2.586
 5858SOL    HW218474   3.015   0.845   2.638
 5859SOL     OW18475   6.631   6.638   0.993
 5859SOL    HW118476   6.592   6.688   1.071
 5859SOL    HW218477   6.699   6.573   1.025
 5860SOL     OW18478   1.454   4.365   1.561
 5860SOL    HW118479   1.375   4.385   1.619
 5860SOL    HW218480   1.454   4.268   1.537
 5861SOL     OW18481   5.417   2.404   3.926
 5861SOL    HW118482   5.435   2.495   3.888
 5861SOL    HW218483   5.368   2.349   3.858
 5862SOL     OW18484   4.009   5.194   3.012
 5862SOL    HW118485   3.996   5.277   2.957
 5862SOL    HW218486   3.950   5.198   3.092
 5863SOL     OW18487   2.095   0.964   6.050
 5863SOL    HW118488   2.142   0.891   6.100
 5863SOL    HW218489   2.008   0.984   6.094
 5864SOL     OW18490   4.185   4.184   1.621
 5864SOL    HW118491   4.255   4.253   1.604
 5864SOL    HW218492   4.224   4.111   1.678
 5865SOL     OW18493   5.093   1.026   3.248
 5865SOL    HW118494   5.044   0.961   3.306
 5865SOL    HW218495   5.184   1.041   3.284
 5866SOL     OW18496   4.128   6.900   5.385
 5866SOL    HW118497   4.208   6.871   5.438
 5866SOL    HW218498   4.053   6.922   5.447
 5867SOL     OW18499   0.682   2.799   1.469
 5867SOL    HW118500   0.649   2.881   1.424
 5867SOL    HW218501   0.679   2.811   1.569
 5868SOL     OW18502   1.519   0.115   5.615
 5868SOL    HW118503   1.576   0.184   5.661
 5868SOL    HW218504   1.461   0.160   5.547
 5869SOL     OW18505   2.732   4.730   4.702
 5869SOL    HW118506   2.641   4.699   4.677
 5869SOL    HW218507   2.764   4.681   4.782
 5870SOL     OW18508   5.068   5.176   4.144
 5870SOL    HW118509   5.037   5.172   4.049
 5870SOL    HW218510   5.167   5.194   4.146
 5871SOL     OW18511   3.858   3.135   6.943
 5871SOL    HW118512   3.918   3.097   7.014
 5871SOL    HW218513   3.794   3.199   6.985
 5872SOL     OW18514   4.424   5.693   6.160
 5872SOL    HW118515   4.502   5.752   6.138
 5872SOL    HW218516   4.386   5.719   6.249
 5873SOL     OW18517   2.870   3.041   0.414
 5873SOL    HW118518   2.785   3.046   0.362
 5873SOL    HW218519   2.867   2.963   0.476
 5874SOL     OW18520   2.288   3.422   1.611
 5874SOL    HW118521   2.318   3.457   1.700
 5874SOL    HW218522   2.194   3.390   1.617
 5875SOL     OW18523   3.466   2.304   6.852
 5875SOL    HW118524   3.393   2.356   6.896
 5875SOL    HW218525   3.435   2.211   6.835
 5876SOL     OW18526   3.148   3.357   6.511
 5876SOL    HW118527   3.222   3.424   6.513
 5876SOL    HW218528   3.072   3.392   6.456
 5877SOL     OW18529   6.333   0.540   1.633
 5877SOL    HW118530   6.404   0.481   1.670
 5877SOL    HW218531   6.324   0.622   1.690
 5878SOL     OW18532   4.510   5.257   2.063
 5878SOL    HW118533   4.539   5.183   2.124
 5878SOL    HW218534   4.511   5.344   2.113
 5879SOL     OW18535   3.386   3.215   6.427
 5879SOL    HW118536   3.385   3.121   6.392
 5879SOL    HW218537   3.295   3.240   6.459
 5880SOL     OW18538   5.149   3.675   5.652
 5880SOL    HW118539   5.177   3.768   5.678
 5880SOL    HW218540   5.195   3.650   5.567
 5881SOL     OW18541   0.826   6.318   2.341
 5881SOL    HW118542   0.790   6.231   2.308
 5881SOL    HW218543   0.768   6.353   2.415
 5882SOL     OW18544   1.493   6.299   5.622
 5882SOL    HW118545   1.587   6.268   5.636
 5882SOL    HW218546   1.455   6.254   5.541
 5883SOL     OW18547   0.363   3.902   0.695
 5883SOL    HW118548   0.453   3.940   0.674
 5883SOL    HW218549   0.357   3.808   0.660
 5884SOL     OW18550   5.707   1.933   3.618
 5884SOL    HW118551   5.623   1.964   3.663
 5884SOL    HW218552   5.769   1.895   3.687
 5885SOL     OW18553   0.209   5.640   0.140
 5885SOL    HW118554   0.159   5.557   0.163
 5885SOL    HW218555   0.159   5.720   0.174
 5886SOL     OW18556   1.270   4.187   3.704
 5886SOL    HW118557   1.220   4.109   3.665
 5886SOL    HW218558   1.368   4.172   3.696
 5887SOL     OW18559   2.224   2.713   1.387
 5887SOL    HW118560   2.171   2.690   1.305
 5887SOL    HW218561   2.198   2.651   1.461
 5888SOL     OW18562   2.821   6.376   1.370
 5888SOL    HW118563   2.877   6.406   1.447
 5888SOL    HW218564   2.828   6.443   1.295
 5889SOL     OW18565   6.670   0.375   1.004
 5889SOL    HW118566   6.728   0.413   1.076
 5889SOL    HW218567   6.664   0.440   0.928
 5890SOL     OW18568   2.737   6.632   2.354
 5890SOL    HW118569   2.817   6.608   2.299
 5890SOL    HW218570   2.656   6.585   2.317
 5891SOL     OW18571   2.498   3.458   0.694
 5891SOL    HW118572   2.502   3.362   0.723
 5891SOL    HW218573   2.421   3.471   0.632
 5892SOL     OW18574   0.661   3.000   0.824
 5892SOL    HW118575   0.566   2.991   0.793
 5892SOL    HW218576   0.671   3.086   0.874
 5893SOL     OW18577   0.973   5.722   1.735
 5893SOL    HW118578   1.045   5.775   1.691
 5893SOL    HW218579   0.909   5.785   1.780
 5894SOL     OW18580   1.732   5.762   5.774
 5894SOL    HW118581   1.671   5.793   5.701
 5894SOL    HW218582   1.717   5.665   5.790
 5895SOL     OW18583   5.599   2.987   4.293
 5895SOL    HW118584   5.566   2.966   4.385
 5895SOL    HW218585   5.669   3.058   4.299
 5896SOL     OW18586   5.973   2.281   1.626
 5896SOL    HW118587   5.908   2.256   1.697
 5896SOL    HW218588   6.066   2.260   1.656
 5897SOL     OW18589   4.645   1.608   0.700
 5897SOL    HW118590   4.676   1.653   0.783
 5897SOL    HW218591   4.704   1.633   0.624
 5898SOL     OW18592   1.665   1.718   5.654
 5898SOL    HW118593   1.753   1.703   5.701
 5898SOL    HW218594   1.675   1.791   5.587
 5899SOL     OW18595   0.094   5.282   5.689
 5899SOL    HW118596   0.033   5.237   5.754
 5899SOL    HW218597   0.064   5.377   5.676
 5900SOL     OW18598   6.528   6.209   3.262
 5900SOL    HW118599   6.574   6.221   3.174
 5900SOL    HW218600   6.458   6.138   3.253
 5901SOL     OW18601   1.961   0.130   6.141
 5901SOL    HW118602   2.040   0.160   6.088
 5901SOL    HW218603   1.991   0.078   6.221
 5902SOL     OW18604   5.330   4.153   5.349
 5902SOL    HW118605   5.385   4.111   5.278
 5902SOL    HW218606   5.234   4.156   5.320
 5903SOL     OW18607   6.149   1.907   6.518
 5903SOL    HW118608   6.086   1.943   6.587
 5903SOL    HW218609   6.224   1.859   6.563
 5904SOL     OW18610   1.856   4.362   2.702
 5904SOL    HW118611   1.947   4.402   2.697
 5904SOL    HW218612   1.789   4.433   2.725
 5905SOL     OW18613   5.949   1.037   4.434
 5905SOL    HW118614   5.929   1.087   4.518
 5905SOL    HW218615   5.863   1.005   4.393
 5906SOL     OW18616   5.111   0.669   5.000
 5906SOL    HW118617   5.170   0.641   4.925
 5906SOL    HW218618   5.026   0.707   4.964
 5907SOL     OW18619   2.152   1.939   6.960
 5907SOL    HW118620   2.092   1.880   7.013
 5907SOL    HW218621   2.243   1.898   6.956
 5908SOL     OW18622   4.561   3.404   6.266
 5908SOL    HW118623   4.540   3.475   6.333
 5908SOL    HW218624   4.644   3.428   6.217
 5909SOL     OW18625   0.073   4.371   4.931
 5909SOL    HW118626   0.001   4.377   5.000
 5909SOL    HW218627   0.041   4.320   4.852
 5910SOL     OW18628   1.968   3.884   1.356
 5910SOL    HW118629   2.068   3.887   1.355
 5910SOL    HW218630   1.932   3.919   1.270
 5911SOL     OW18631   6.367   5.363   6.227
 5911SOL    HW118632   6.292   5.301   6.203
 5911SOL    HW218633   6.342   5.457   6.202
 5912SOL     OW18634   6.126   4.004   0.163
 5912SOL    HW118635   6.181   4.065   0.220
 5912SOL    HW218636   6.171   3.915   0.157
 5913SOL     OW18637   1.891   1.632   5.758
 5913SOL    HW118638   1.910   1.540   5.724
 5913SOL    HW218639   1.955   1.655   5.831
 5914SOL     OW18640   1.919   5.609   0.790
 5914SOL    HW118641   2.009   5.653   0.787
 5914SOL    HW218642   1.859   5.652   0.723
 5915SOL     OW18643   4.841   2.871   2.359
 5915SOL    HW118644   4.802   2.814   2.432
 5915SOL    HW218645   4.819   2.832   2.270
 5916SOL     OW18646   3.629   0.224   5.839
 5916SOL    HW118647   3.566   0.157   5.877
 5916SOL    HW218648   3.635   0.212   5.740
 5917SOL     OW18649   3.587   3.467   2.756
 5917SOL    HW118650   3.628   3.385   2.795
 5917SOL    HW218651   3.552   3.525   2.829
 5918SOL     OW18652   1.871   3.292   4.198
 5918SOL    HW118653   1.968   3.316   4.205
 5918SOL    HW218654   1.854   3.244   4.112
 5919SOL     OW18655   1.894   2.673   6.659
 5919SOL    HW118656   1.869   2.636   6.570
 5919SOL    HW218657   1.871   2.607   6.730
 5920SOL     OW18658   3.780   0.694   6.747
 5920SOL    HW118659   3.816   0.626   6.811
 5920SOL    HW218660   3.855   0.727   6.690
 5921SOL     OW18661   3.762   4.746   5.366
 5921SOL    HW118662   3.670   4.731   5.401
 5921SOL    HW218663   3.797   4.661   5.327
 5922SOL     OW18664   6.302   4.609   2.770
 5922SOL    HW118665   6.318   4.514   2.745
 5922SOL    HW218666   6.204   4.626   2.779
 5923SOL     OW18667   6.761   7.012   3.662
 5923SOL    HW118668   6.675   7.015   3.611
 5923SOL    HW218669   6.763   0.068   3.728
 5924SOL     OW18670   5.075   2.376   4.361
 5924SOL    HW118671   5.071   2.466   4.404
 5924SOL    HW218672   4.989   2.359   4.313
 5925SOL     OW18673   5.175   5.974   0.906
 5925SOL    HW118674   5.228   5.926   0.976
 5925SOL    HW218675   5.237   6.033   0.853
 5926SOL     OW18676   3.794   5.094   1.563
 5926SOL    HW118677   3.890   5.067   1.552
 5926SOL    HW218678   3.777   5.178   1.511
 5927SOL     OW18679   2.727   5.906   2.026
 5927SOL    HW118680   2.816   5.861   2.023
 5927SOL    HW218681   2.738   6.003   2.002
 5928SOL     OW18682   1.488   0.109   2.713
 5928SOL    HW118683   1.521   0.203   2.716
 5928SOL    HW218684   1.563   0.048   2.688
 5929SOL     OW18685   1.710   6.615   6.407
 5929SOL    HW118686   1.794   6.596   6.356
 5929SOL    HW218687   1.637   6.555   6.375
 5930SOL     OW18688   6.560   1.329   4.746
 5930SOL    HW118689   6.586   1.237   4.719
 5930SOL    HW218690   6.523   1.378   4.667
 5931SOL     OW18691   6.407   5.806   1.540
 5931SOL    HW118692   6.433   5.875   1.608
 5931SOL    HW218693   6.464   5.817   1.459
 5932SOL     OW18694   2.324   0.043   0.769
 5932SOL    HW118695   2.257   0.059   0.842
 5932SOL    HW218696   2.400   0.107   0.779
 5933SOL     OW18697   6.947   3.799   3.015
 5933SOL    HW118698   0.016   3.832   2.981
 5933SOL    HW218699   6.904   3.870   3.071
 5934SOL     OW18700   3.526   3.691   2.959
 5934SOL    HW118701   3.520   3.750   3.039
 5934SOL    HW218702   3.575   3.738   2.886
 5935SOL     OW18703   4.064   3.823   4.347
 5935SOL    HW118704   4.011   3.888   4.402
 5935SOL    HW218705   4.086   3.743   4.404
 5936SOL     OW18706   5.369   5.298   0.039
 5936SOL    HW118707   5.290   5.255   0.083
 5936SOL    HW218708   5.351   5.395   0.026
 5937SOL     OW18709   1.900   3.464   1.137
 5937SOL    HW118710   1.904   3.497   1.231
 5937SOL    HW218711   1.962   3.387   1.126
 5938SOL     OW18712   1.781   4.228   3.127
 5938SOL    HW118713   1.817   4.147   3.079
 5938SOL    HW218714   1.764   4.301   3.061
 5939SOL     OW18715   3.145   0.308   2.620
 5939SOL    HW118716   3.206   0.324   2.542
 5939SOL    HW218717   3.091   0.391   2.637
 5940SOL     OW18718   4.232   6.587   2.876
 5940SOL    HW118719   4.249   6.652   2.949
 5940SOL    HW218720   4.224   6.495   2.914
 5941SOL     OW18721   6.258   5.089   2.744
 5941SOL    HW118722   6.215   5.117   2.658
 5941SOL    HW218723   6.193   5.099   2.819
 5942SOL     OW18724   4.483   3.569   5.996
 5942SOL    HW118725   4.522   3.522   6.076
 5942SOL    HW218726   4.550   3.635   5.961
 5943SOL     OW18727   1.892   6.046   0.634
 5943SOL    HW118728   1.971   6.093   0.593
 5943SOL    HW218729   1.918   6.005   0.720
 5944SOL     OW18730   5.210   1.624   2.370
 5944SOL    HW118731   5.118   1.663   2.369
 5944SOL    HW218732   5.276   1.695   2.344
 5945SOL     OW18733   6.200   4.873   5.747
 5945SOL    HW118734   6.249   4.959   5.760
 5945SOL    HW218735   6.105   4.893   5.723
 5946SOL     OW18736   5.014   3.120   5.984
 5946SOL    HW118737   5.050   3.078   5.900
 5946SOL    HW218738   5.033   3.061   6.062
 5947SOL     OW18739   4.400   3.600   1.645
 5947SOL    HW118740   4.363   3.514   1.680
 5947SOL    HW218741   4.336   3.674   1.665
 5948SOL     OW18742   3.984   4.860   2.981
 5948SOL    HW118743   4.002   4.958   2.990
 5948SOL    HW218744   3.928   4.844   2.899
 5949SOL     OW18745   4.139   5.043   1.444
 5949SOL    HW118746   4.236   5.059   1.461
 5949SOL    HW218747   4.094   5.130   1.422
 5950SOL     OW18748   6.129   2.191   4.144
 5950SOL    HW118749   6.108   2.241   4.060
 5950SOL    HW218750   6.193   2.118   4.124
 5951SOL     OW18751   1.912   5.825   4.007
 5951SOL    HW118752   1.847   5.779   4.067
 5951SOL    HW218753   1.863   5.870   3.933
 5952SOL     OW18754   6.861   6.640   3.806
 5952SOL    HW118755   6.817   6.702   3.872
 5952SOL    HW218756   6.796   6.569   3.780
 5953SOL     OW18757   6.583   2.834   6.183
 5953SOL    HW118758   6.559   2.911   6.124
 5953SOL    HW218759   6.638   2.768   6.131
 5954SOL     OW18760   0.077   4.865   6.625
 5954SOL    HW118761   0.021   4.897   6.549
 5954SOL    HW218762   0.098   4.942   6.686
 5955SOL     OW18763   5.090   5.291   1.726
 5955SOL    HW118764   4.999   5.333   1.726
 5955SOL    HW218765   5.129   5.296   1.818
 5956SOL     OW18766   5.189   2.300   0.089
 5956SOL    HW118767   5.232   2.373   0.036
 5956SOL    HW218768   5.175   2.220   0.030
 5957SOL     OW18769   6.075   6.242   6.086
 5957SOL    HW118770   6.112   6.314   6.143
 5957SOL    HW218771   6.041   6.167   6.143
 5958SOL     OW18772   6.663   5.655   2.222
 5958SOL    HW118773   6.600   5.707   2.164
 5958SOL    HW218774   6.723   5.718   2.272
 5959SOL     OW18775   2.225   1.847   6.090
 5959SOL    HW118776   2.148   1.887   6.141
 5959SOL    HW218777   2.223   1.881   5.996
 5960SOL     OW18778   3.077   0.129   3.695
 5960SOL    HW118779   3.099   0.225   3.680
 5960SOL    HW218780   3.008   0.121   3.767
 5961SOL     OW18781   3.333   0.538   4.810
 5961SOL    HW118782   3.303   0.504   4.721
 5961SOL    HW218783   3.334   0.638   4.810
 5962SOL     OW18784   4.881   5.426   2.363
 5962SOL    HW118785   4.975   5.393   2.357
 5962SOL    HW218786   4.879   5.524   2.343
 5963SOL     OW18787   3.875   3.824   2.492
 5963SOL    HW118788   3.957   3.794   2.443
 5963SOL    HW218789   3.899   3.853   2.585
 5964SOL     OW18790   0.123   5.337   6.166
 5964SOL    HW118791   0.113   5.242   6.197
 5964SOL    HW218792   0.219   5.355   6.144
 5965SOL     OW18793   2.370   2.842   6.181
 5965SOL    HW118794   2.352   2.745   6.162
 5965SOL    HW218795   2.410   2.884   6.100
 5966SOL     OW18796   3.118   6.012   4.712
 5966SOL    HW118797   3.202   6.001   4.658
 5966SOL    HW218798   3.074   5.923   4.724
 5967SOL     OW18799   4.658   6.400   2.867
 5967SOL    HW118800   4.648   6.334   2.941
 5967SOL    HW218801   4.700   6.484   2.902
 5968SOL     OW18802   6.804   2.452   3.396
 5968SOL    HW118803   6.729   2.489   3.340
 5968SOL    HW218804   6.828   2.361   3.363
 5969SOL     OW18805   5.823   3.929   3.567
 5969SOL    HW118806   5.857   3.963   3.655
 5969SOL    HW218807   5.724   3.920   3.571
 5970SOL     OW18808   1.521   3.389   2.524
 5970SOL    HW118809   1.441   3.344   2.563
 5970SOL    HW218810   1.574   3.323   2.471
 5971SOL     OW18811   1.805   6.475   2.774
 5971SOL    HW118812   1.860   6.471   2.691
 5971SOL    HW218813   1.731   6.408   2.768
 5972SOL     OW18814   4.905   6.963   0.237
 5972SOL    HW118815   4.828   7.007   0.284
 5972SOL    HW218816   4.873   6.882   0.188
 5973SOL     OW18817   1.680   4.451   2.997
 5973SOL    HW118818   1.592   4.412   2.972
 5973SOL    HW218819   1.694   4.537   2.949
 5974SOL     OW18820   0.196   4.192   0.427
 5974SOL    HW118821   0.232   4.177   0.520
 5974SOL    HW218822   0.122   4.259   0.431
 5975SOL     OW18823   3.037   2.882   0.852
 5975SOL    HW118824   3.104   2.831   0.798
 5975SOL    HW218825   2.959   2.822   0.873
 5976SOL     OW18826   2.982   3.235   4.713
 5976SOL    HW118827   3.065   3.280   4.747
 5976SOL    HW218828   2.929   3.199   4.790
 5977SOL     OW18829   1.332   4.466   2.342
 5977SOL    HW118830   1.424   4.467   2.305
 5977SOL    HW218831   1.303   4.372   2.359
 5978SOL     OW18832   5.574   5.035   2.227
 5978SOL    HW118833   5.525   4.965   2.174
 5978SOL    HW218834   5.566   5.014   2.324
 5979SOL     OW18835   6.393   0.884   3.550
 5979SOL    HW118836   6.485   0.850   3.527
 5979SOL    HW218837   6.401   0.959   3.615
 5980SOL     OW18838   5.213   4.309   0.744
 5980SOL    HW118839   5.236   4.380   0.677
 5980SOL    HW218840   5.189   4.224   0.697
 5981SOL     OW18841   5.299   1.034   2.364
 5981SOL    HW118842   5.262   1.010   2.454
 5981SOL    HW218843   5.224   1.054   2.301
 5982SOL     OW18844   0.005   2.144   6.942
 5982SOL    HW118845   0.022   2.236   6.977
 5982SOL    HW218846   6.989   2.151   6.848
 5983SOL     OW18847   1.630   1.250   4.076
 5983SOL    HW118848   1.705   1.203   4.030
 5983SOL    HW218849   1.574   1.184   4.127
 5984SOL     OW18850   0.310   6.059   4.920
 5984SOL    HW118851   0.299   6.068   4.821
 5984SOL    HW218852   0.390   6.111   4.949
 5985SOL     OW18853   4.739   1.962   4.028
 5985SOL    HW118854   4.666   1.921   3.973
 5985SOL    HW218855   4.707   2.049   4.065
 5986SOL     OW18856   3.485   3.150   2.571
 5986SOL    HW118857   3.482   3.055   2.539
 5986SOL    HW218858   3.496   3.211   2.493
 5987SOL     OW18859   4.400   6.842   4.898
 5987SOL    HW118860   4.457   6.761   4.912
 5987SOL    HW218861   4.446   6.905   4.836
 5988SOL     OW18862   4.436   6.873   3.935
 5988SOL    HW118863   4.349   6.844   3.976
 5988SOL    HW218864   4.445   6.972   3.942
 5989SOL     OW18865   3.276   0.365   6.205
 5989SOL    HW118866   3.234   0.374   6.115
 5989SOL    HW218867   3.372   0.337   6.194
 5990SOL     OW18868   3.231   5.212   0.963
 5990SOL    HW118869   3.221   5.221   0.864
 5990SOL    HW218870   3.323   5.238   0.990
 5991SOL     OW18871   3.162   5.540   4.338
 5991SOL    HW118872   3.191   5.456   4.386
 5991SOL    HW218873   3.088   5.519   4.275
 5992SOL     OW18874   3.980   0.542   3.910
 5992SOL    HW118875   3.952   0.527   3.815
 5992SOL    HW218876   4.076   0.517   3.920
 5993SOL     OW18877   2.512   5.897   5.825
 5993SOL    HW118878   2.487   5.933   5.915
 5993SOL    HW218879   2.539   5.802   5.834
 5994SOL     OW18880   5.936   2.745   2.239
 5994SOL    HW118881   5.963   2.822   2.295
 5994SOL    HW218882   5.870   2.775   2.170
 5995SOL     OW18883   6.807   5.226   0.752
 5995SOL    HW118884   6.727   5.281   0.778
 5995SOL    HW218885   6.814   5.223   0.652
 5996SOL     OW18886   6.972   5.746   6.074
 5996SOL    HW118887   6.924   5.658   6.080
 5996SOL    HW218888   0.007   5.748   5.990
 5997SOL     OW18889   0.624   6.766   1.864
 5997SOL    HW118890   0.673   6.695   1.915
 5997SOL    HW218891   0.557   6.811   1.924
 5998SOL     OW18892   5.639   2.115   2.266
 5998SOL    HW118893   5.590   2.117   2.179
 5998SOL    HW218894   5.722   2.061   2.256
 5999SOL     OW18895   1.470   2.162   2.813
 5999SOL    HW118896   1.531   2.193   2.886
 5999SOL    HW218897   1.441   2.240   2.758
 6000SOL     OW18898   4.499   5.403   2.435
 6000SOL    HW118899   4.413   5.353   2.442
 6000SOL    HW218900   4.495   5.483   2.496
 6001SOL     OW18901   6.395   2.600   6.599
 6001SOL    HW118902   6.492   2.591   6.621
 6001SOL    HW218903   6.364   2.519   6.549
 6002SOL     OW18904   1.721   0.179   1.856
 6002SOL    HW118905   1.746   0.185   1.952
 6002SOL    HW218906   1.765   0.252   1.805
 6003SOL     OW18907   4.797   4.106   5.062
 6003SOL    HW118908   4.874   4.166   5.083
 6003SOL    HW218909   4.830   4.013   5.045
 6004SOL     OW18910   0.532   3.360   2.397
 6004SOL    HW118911   0.626   3.387   2.376
 6004SOL    HW218912   0.532   3.297   2.474
 6005SOL     OW18913   3.181   5.436   3.499
 6005SOL    HW118914   3.262   5.433   3.441
 6005SOL    HW218915   3.134   5.347   3.494
 6006SOL     OW18916   3.079   0.012   6.513
 6006SOL    HW118917   3.091   0.084   6.444
 6006SOL    HW218918   2.999   6.976   6.490
 6007SOL     OW18919   5.630   2.355   4.101
 6007SOL    HW118920   5.712   2.412   4.103
 6007SOL    HW218921   5.580   2.371   4.016
 6008SOL     OW18922   2.806   4.907   5.842
 6008SOL    HW118923   2.835   4.906   5.746
 6008SOL    HW218924   2.721   4.958   5.850
 6009SOL     OW18925   2.491   1.786   4.044
 6009SOL    HW118926   2.559   1.725   4.004
 6009SOL    HW218927   2.452   1.845   3.973
 6010SOL     OW18928   1.847   4.097   2.659
 6010SOL    HW118929   1.853   4.193   2.688
 6010SOL    HW218930   1.933   4.070   2.615
 6011SOL     OW18931   5.436   2.777   2.407
 6011SOL    HW118932   5.396   2.814   2.492
 6011SOL    HW218933   5.363   2.738   2.351
 6012SOL     OW18934   6.762   3.096   0.852
 6012SOL    HW118935   6.859   3.089   0.831
 6012SOL    HW218936   6.749   3.158   0.930
 6013SOL     OW18937   5.811   0.749   2.546
 6013SOL    HW118938   5.723   0.782   2.581
 6013SOL    HW218939   5.863   0.825   2.509
 6014SOL     OW18940   5.665   0.270   0.181
 6014SOL    HW118941   5.581   0.295   0.134
 6014SOL    HW218942   5.673   0.322   0.266
 6015SOL     OW18943   5.287   1.943   4.500
 6015SOL    HW118944   5.291   2.041   4.478
 6015SOL    HW218945   5.195   1.909   4.482
 6016SOL     OW18946   2.216   0.799   5.318
 6016SOL    HW118947   2.262   0.880   5.353
 6016SOL    HW218948   2.223   0.724   5.385
 6017SOL     OW18949   6.512   5.123   2.751
 6017SOL    HW118950   6.415   5.102   2.762
 6017SOL    HW218951   6.567   5.050   2.792
 6018SOL     OW18952   2.640   3.669   0.888
 6018SOL    HW118953   2.620   3.670   0.986
 6018SOL    HW218954   2.573   3.610   0.842
 6019SOL     OW18955   3.920   1.063   4.020
 6019SOL    HW118956   3.879   1.146   3.982
 6019SOL    HW218957   3.948   1.003   3.945
 6020SOL     OW18958   3.972   0.588   2.644
 6020SOL    HW118959   3.996   0.510   2.702
 6020SOL    HW218960   4.020   0.581   2.557
 6021SOL     OW18961   4.365   1.541   2.295
 6021SOL    HW118962   4.379   1.612   2.226
 6021SOL    HW218963   4.340   1.584   2.382
 6022SOL     OW18964   4.018   1.582   3.309
 6022SOL    HW118965   3.954   1.559   3.236
 6022SOL    HW218966   4.019   1.509   3.378
 6023SOL     OW18967   0.352   1.650   3.070
 6023SOL    HW118968   0.324   1.621   3.161
 6023SOL    HW218969   0.346   1.573   3.006
 6024SOL     OW18970   0.671   4.941   1.725
 6024SOL    HW118971   0.639   4.924   1.818
 6024SOL    HW218972   0.747   5.006   1.727
 6025SOL     OW18973   4.674   1.392   1.408
 6025SOL    HW118974   4.703   1.300   1.382
 6025SOL    HW218975   4.717   1.458   1.347
 6026SOL     OW18976   6.543   4.470   5.279
 6026SOL    HW118977   6.497   4.432   5.199
 6026SOL    HW218978   6.597   4.550   5.253
 6027SOL     OW18979   2.809   3.186   6.647
 6027SOL    HW118980   2.776   3.182   6.553
 6027SOL    HW218981   2.888   3.125   6.657
 6028SOL     OW18982   1.586   3.951   0.308
 6028SOL    HW118983   1.568   4.038   0.355
 6028SOL    HW218984   1.675   3.916   0.337
 6029SOL     OW18985   2.146   6.528   1.268
 6029SOL    HW118986   2.120   6.525   1.171
 6029SOL    HW218987   2.239   6.495   1.279
 6030SOL     OW18988   2.202   0.956   1.748
 6030SOL    HW118989   2.256   0.962   1.832
 6030SOL    HW218990   2.117   1.008   1.759
 6031SOL     OW18991   5.077   6.444   5.453
 6031SOL    HW118992   5.155   6.402   5.406
 6031SOL    HW218993   5.027   6.375   5.505
 6032SOL     OW18994   1.094   2.888   2.349
 6032SOL    HW118995   1.077   2.986   2.346
 6032SOL    HW218996   1.031   2.844   2.413
 6033SOL     OW18997   1.212   1.899   3.550
 6033SOL    HW118998   1.174   1.868   3.637
 6033SOL    HW218999   1.304   1.862   3.539
 6034SOL     OW19000   1.598   4.431   5.129
 6034SOL    HW119001   1.543   4.377   5.065
 6034SOL    HW219002   1.597   4.527   5.101
 6035SOL     OW19003   6.027   0.276   3.933
 6035SOL    HW119004   5.977   0.362   3.943
 6035SOL    HW219005   6.007   0.217   4.011
 6036SOL     OW19006   0.372   6.833   5.455
 6036SOL    HW119007   0.363   6.776   5.537
 6036SOL    HW219008   0.281   6.859   5.423
 6037SOL     OW19009   5.685   5.887   5.285
 6037SOL    HW119010   5.647   5.830   5.213
 6037SOL    HW219011   5.779   5.913   5.262
 6038SOL     OW19012   6.270   4.332   6.008
 6038SOL    HW119013   6.343   4.302   5.948
 6038SOL    HW219014   6.255   4.263   6.079
 6039SOL     OW19015   3.417   3.493   2.527
 6039SOL    HW119016   3.483   3.484   2.453
 6039SOL    HW219017   3.462   3.472   2.614
 6040SOL     OW19018   0.715   2.213   0.085
 6040SOL    HW119019   0.641   2.280   0.082
 6040SOL    HW219020   0.794   2.252   0.131
 6041SOL     OW19021   0.948   1.560   0.123
 6041SOL    HW119022   1.036   1.514   0.110
 6041SOL    HW219023   0.955   1.655   0.095
 6042SOL     OW19024   5.455   5.024   2.978
 6042SOL    HW119025   5.495   5.112   3.003
 6042SOL    HW219026   5.441   5.021   2.879
 6043SOL     OW19027   1.121   4.585   4.562
 6043SOL    HW119028   1.033   4.632   4.567
 6043SOL    HW219029   1.192   4.651   4.538
 6044SOL     OW19030   0.280   0.458   0.964
 6044SOL    HW119031   0.203   0.470   0.901
 6044SOL    HW219032   0.333   0.543   0.968
 6045SOL     OW19033   6.312   4.632   1.296
 6045SOL    HW119034   6.328   4.616   1.394
 6045SOL    HW219035   6.332   4.727   1.273
 6046SOL     OW19036   3.139   2.700   0.368
 6046SOL    HW119037   3.202   2.743   0.433
 6046SOL    HW219038   3.096   2.771   0.312
 6047SOL     OW19039   6.450   7.019   4.514
 6047SOL    HW119040   6.543   0.012   4.479
 6047SOL    HW219041   6.393   6.979   4.443
 6048SOL     OW19042   4.367   0.113   4.199
 6048SOL    HW119043   4.368   0.109   4.099
 6048SOL    HW219044   4.299   0.048   4.234
 6049SOL     OW19045   5.188   4.082   6.566
 6049SOL    HW119046   5.244   4.121   6.639
 6049SOL    HW219047   5.123   4.151   6.533
 6050SOL     OW19048   4.390   4.680   5.366
 6050SOL    HW119049   4.449   4.757   5.390
 6050SOL    HW219050   4.324   4.664   5.439
 6051SOL     OW19051   1.754   2.006   2.801
 6051SOL    HW119052   1.662   1.973   2.780
 6051SOL    HW219053   1.776   1.984   2.896
 6052SOL     OW19054   0.681   1.409   0.917
 6052SOL    HW119055   0.689   1.507   0.896
 6052SOL    HW219056   0.687   1.357   0.832
 6053SOL     OW19057   1.687   7.006   6.719
 6053SOL    HW119058   1.709   0.068   6.774
 6053SOL    HW219059   1.698   6.924   6.775
 6054SOL     OW19060   1.604   4.834   0.276
 6054SOL    HW119061   1.513   4.826   0.234
 6054SOL    HW219062   1.626   4.930   0.290
 6055SOL     OW19063   4.746   0.931   5.108
 6055SOL    HW119064   4.806   1.000   5.148
 6055SOL    HW219065   4.707   0.875   5.181
 6056SOL     OW19066   4.100   2.143   6.565
 6056SOL    HW119067   4.138   2.070   6.622
 6056SOL    HW219068   4.136   2.135   6.472
 6057SOL     OW19069   3.335   0.822   4.807
 6057SOL    HW119070   3.389   0.839   4.725
 6057SOL    HW219071   3.375   0.871   4.885
 6058SOL     OW19072   5.669   2.098   4.438
 6058SOL    HW119073   5.598   2.049   4.388
 6058SOL    HW219074   5.754   2.096   4.386
 6059SOL     OW19075   5.502   4.069   0.171
 6059SOL    HW119076   5.489   4.054   0.269
 6059SOL    HW219077   5.420   4.040   0.121
 6060SOL     OW19078   4.477   5.256   5.356
 6060SOL    HW119079   4.397   5.270   5.298
 6060SOL    HW219080   4.543   5.329   5.339
 6061SOL     OW19081   3.482   1.793   6.507
 6061SOL    HW119082   3.426   1.711   6.494
 6061SOL    HW219083   3.482   1.818   6.604
 6062SOL     OW19084   1.595   0.886   5.040
 6062SOL    HW119085   1.688   0.916   5.059
 6062SOL    HW219086   1.533   0.925   5.109
 6063SOL     OW19087   4.283   0.837   0.003
 6063SOL    HW119088   4.367   0.847   6.969
 6063SOL    HW219089   4.300   0.865   0.098
 6064SOL     OW19090   0.816   5.718   3.644
 6064SOL    HW119091   0.775   5.738   3.555
 6064SOL    HW219092   0.863   5.630   3.640
 6065SOL     OW19093   6.757   6.770   0.802
 6065SOL    HW119094   6.841   6.720   0.781
 6065SOL    HW219095   6.703   6.718   0.867
 6066SOL     OW19096   4.275   2.334   0.794
 6066SOL    HW119097   4.298   2.411   0.853
 6066SOL    HW219098   4.202   2.360   0.730
 6067SOL     OW19099   6.140   1.344   6.088
 6067SOL    HW119100   6.136   1.295   6.175
 6067SOL    HW219101   6.206   1.300   6.027
 6068SOL     OW19102   4.685   2.778   4.733
 6068SOL    HW119103   4.738   2.767   4.817
 6068SOL    HW219104   4.719   2.858   4.683
 6069SOL     OW19105   6.528   3.916   5.153
 6069SOL    HW119106   6.547   3.831   5.202
 6069SOL    HW219107   6.526   3.992   5.218
 6070SOL     OW19108   4.351   2.548   6.437
 6070SOL    HW119109   4.270   2.559   6.379
 6070SOL    HW219110   4.431   2.534   6.380
 6071SOL     OW19111   4.104   6.670   5.236
 6071SOL    HW119112   4.110   6.674   5.137
 6071SOL    HW219113   4.100   6.762   5.274
 6072SOL     OW19114   0.810   1.459   1.931
 6072SOL    HW119115   0.815   1.513   1.847
 6072SOL    HW219116   0.865   1.376   1.920
 6073SOL     OW19117   6.789   2.585   0.951
 6073SOL    HW119118   6.754   2.529   1.026
 6073SOL    HW219119   6.712   2.619   0.897
 6074SOL     OW19120   0.256   0.100   5.114
 6074SOL    HW119121   0.302   0.048   5.041
 6074SOL    HW219122   0.168   0.058   5.134
 6075SOL     OW19123   5.929   3.382   0.530
 6075SOL    HW119124   5.879   3.441   0.594
 6075SOL    HW219125   5.919   3.287   0.559
 6076SOL     OW19126   2.107   6.466   3.465
 6076SOL    HW119127   2.042   6.527   3.419
 6076SOL    HW219128   2.076   6.450   3.559
 6077SOL     OW19129   5.864   6.033   2.160
 6077SOL    HW119130   5.900   5.962   2.221
 6077SOL    HW219131   5.770   6.010   2.135
 6078SOL     OW19132   2.918   4.944   3.806
 6078SOL    HW119133   2.921   4.940   3.707
 6078SOL    HW219134   2.844   4.887   3.841
 6079SOL     OW19135   2.449   2.229   6.807
 6079SOL    HW119136   2.517   2.265   6.870
 6079SOL    HW219137   2.360   2.270   6.827
 6080SOL     OW19138   6.007   2.228   1.337
 6080SOL    HW119139   6.103   2.259   1.335
 6080SOL    HW219140   5.974   2.230   1.431
 6081SOL     OW19141   6.859   3.189   3.996
 6081SOL    HW119142   6.775   3.203   3.945
 6081SOL    HW219143   6.838   3.166   4.091
 6082SOL     OW19144   4.308   1.277   2.782
 6082SOL    HW119145   4.240   1.329   2.731
 6082SOL    HW219146   4.334   1.195   2.731
 6083SOL     OW19147   1.417   6.061   6.934
 6083SOL    HW119148   1.320   6.080   6.919
 6083SOL    HW219149   1.432   6.034   0.010
 6084SOL     OW19150   0.006   5.509   5.355
 6084SOL    HW119151   0.100   5.500   5.322
 6084SOL    HW219152   6.965   5.531   5.278
 6085SOL     OW19153   5.978   3.834   6.991
 6085SOL    HW119154   5.929   3.759   6.946
 6085SOL    HW219155   5.919   3.876   0.041
 6086SOL     OW19156   3.311   2.085   4.158
 6086SOL    HW119157   3.381   2.066   4.226
 6086SOL    HW219158   3.228   2.120   4.203
 6087SOL     OW19159   5.558   6.598   6.588
 6087SOL    HW119160   5.499   6.644   6.654
 6087SOL    HW219161   5.654   6.612   6.614
 6088SOL     OW19162   0.653   0.163   5.103
 6088SOL    HW119163   0.708   0.084   5.129
 6088SOL    HW219164   0.635   0.160   5.005
 6089SOL     OW19165   0.346   3.324   1.039
 6089SOL    HW119166   0.436   3.320   1.081
 6089SOL    HW219167   0.323   3.236   0.999
 6090SOL     OW19168   0.807   5.680   5.497
 6090SOL    HW119169   0.785   5.667   5.400
 6090SOL    HW219170   0.737   5.736   5.540
 6091SOL     OW19171   6.228   1.389   1.826
 6091SOL    HW119172   6.283   1.391   1.910
 6091SOL    HW219173   6.151   1.452   1.834
 6092SOL     OW19174   1.971   1.544   2.669
 6092SOL    HW119175   1.902   1.595   2.720
 6092SOL    HW219176   1.929   1.502   2.589
 6093SOL     OW19177   1.311   2.873   1.374
 6093SOL    HW119178   1.312   2.888   1.275
 6093SOL    HW219179   1.394   2.824   1.400
 6094SOL     OW19180   0.717   1.144   1.320
 6094SOL    HW119181   0.782   1.173   1.390
 6094SOL    HW219182   0.626   1.134   1.360
 6095SOL     OW19183   6.354   3.436   6.476
 6095SOL    HW119184   6.294   3.474   6.405
 6095SOL    HW219185   6.393   3.350   6.443
 6096SOL     OW19186   3.759   2.011   3.700
 6096SOL    HW119187   3.665   2.034   3.724
 6096SOL    HW219188   3.822   2.063   3.757
 6097SOL     OW19189   2.769   1.092   2.281
 6097SOL    HW119190   2.851   1.090   2.339
 6097SOL    HW219191   2.705   1.161   2.315
 6098SOL     OW19192   2.164   2.318   5.738
 6098SOL    HW119193   2.176   2.250   5.666
 6098SOL    HW219194   2.174   2.410   5.700
 6099SOL     OW19195   5.600   5.785   5.060
 6099SOL    HW119196   5.614   5.852   4.987
 6099SOL    HW219197   5.660   5.706   5.045
 6100SOL     OW19198   6.208   2.694   0.093
 6100SOL    HW119199   6.191   2.744   0.008
 6100SOL    HW219200   6.302   2.710   0.123
 6101SOL     OW19201   6.441   1.358   5.541
 6101SOL    HW119202   6.482   1.270   5.520
 6101SOL    HW219203   6.470   1.426   5.473
 6102SOL     OW19204   3.114   0.856   4.997
 6102SOL    HW119205   3.195   0.828   4.946
 6102SOL    HW219206   3.033   0.846   4.939
 6103SOL     OW19207   6.642   6.645   5.076
 6103SOL    HW119208   6.689   6.720   5.029
 6103SOL    HW219209   6.668   6.645   5.172
 6104SOL     OW19210   6.351   1.835   6.302
 6104SOL    HW119211   6.294   1.868   6.378
 6104SOL    HW219212   6.360   1.735   6.308
 6105SOL     OW19213   3.299   5.669   5.320
 6105SOL    HW119214   3.288   5.638   5.226
 6105SOL    HW219215   3.392   5.650   5.351
 6106SOL     OW19216   3.363   4.858   5.973
 6106SOL    HW119217   3.405   4.912   6.046
 6106SOL    HW219218   3.271   4.830   6.001
 6107SOL     OW19219   2.059   4.435   5.170
 6107SOL    HW119220   2.013   4.372   5.233
 6107SOL    HW219221   2.138   4.390   5.129
 6108SOL     OW19222   1.003   1.869   4.216
 6108SOL    HW119223   1.062   1.790   4.202
 6108SOL    HW219224   0.916   1.839   4.257
 6109SOL     OW19225   5.962   3.422   0.974
 6109SOL    HW119226   6.042   3.386   1.023
 6109SOL    HW219227   5.987   3.508   0.930
 6110SOL     OW19228   3.216   1.377   5.042
 6110SOL    HW119229   3.210   1.477   5.037
 6110SOL    HW219230   3.260   1.342   4.960
 6111SOL     OW19231   1.437   4.701   3.293
 6111SOL    HW119232   1.345   4.690   3.256
 6111SOL    HW219233   1.454   4.629   3.361
 6112SOL     OW19234   0.924   1.910   2.807
 6112SOL    HW119235   0.904   1.847   2.881
 6112SOL    HW219236   0.838   1.949   2.773
 6113SOL     OW19237   2.024   6.761   5.523
 6113SOL    HW119238   2.091   6.834   5.510
 6113SOL    HW219239   1.984   6.768   5.614
 6114SOL     OW19240   4.452   5.994   0.830
 6114SOL    HW119241   4.460   5.919   0.764
 6114SOL    HW219242   4.476   5.960   0.921
 6115SOL     OW19243   5.368   5.220   2.602
 6115SOL    HW119244   5.446   5.158   2.606
 6115SOL    HW219245   5.336   5.227   2.507
 6116SOL     OW19246   3.664   1.232   1.894
 6116SOL    HW119247   3.681   1.287   1.812
 6116SOL    HW219248   3.751   1.210   1.938
 6117SOL     OW19249   5.676   6.861   4.576
 6117SOL    HW119250   5.750   6.898   4.521
 6117SOL    HW219251   5.694   6.878   4.673
 6118SOL     OW19252   5.998   0.967   3.598
 6118SOL    HW119253   5.937   1.004   3.527
 6118SOL    HW219254   6.086   0.943   3.556
 6119SOL     OW19255   6.939   5.045   4.675
 6119SOL    HW119256   6.900   5.026   4.585
 6119SOL    HW219257   0.014   5.079   4.664
 6120SOL     OW19258   2.308   6.850   2.522
 6120SOL    HW119259   2.274   6.943   2.534
 6120SOL    HW219260   2.232   6.790   2.495
 6121SOL     OW19261   0.543   2.314   3.966
 6121SOL    HW119262   0.586   2.260   4.038
 6121SOL    HW219263   0.609   2.380   3.930
 6122SOL     OW19264   3.915   5.928   3.220
 6122SOL    HW119265   3.877   5.867   3.289
 6122SOL    HW219266   3.861   5.921   3.136
 6123SOL     OW19267   6.028   1.179   2.439
 6123SOL    HW119268   5.934   1.194   2.468
 6123SOL    HW219269   6.048   1.234   2.358
 6124SOL     OW19270   3.274   0.198   5.744
 6124SOL    HW119271   3.327   0.113   5.749
 6124SOL    HW219272   3.303   0.251   5.664
 6125SOL     OW19273   2.237   6.342   1.579
 6125SOL    HW119274   2.267   6.287   1.501
 6125SOL    HW219275   2.272   6.435   1.569
 6126SOL     OW19276   5.285   4.878   2.578
 6126SOL    HW119277   5.318   4.847   2.667
 6126SOL    HW219278   5.212   4.945   2.591
 6127SOL     OW19279   1.925   6.088   1.776
 6127SOL    HW119280   1.971   6.173   1.802
 6127SOL    HW219281   1.924   6.080   1.677
 6128SOL     OW19282   6.134   2.037   0.268
 6128SOL    HW119283   6.077   2.118   0.281
 6128SOL    HW219284   6.165   2.003   0.357
 6129SOL     OW19285   6.258   4.326   2.674
 6129SOL    HW119286   6.162   4.352   2.686
 6129SOL    HW219287   6.270   4.230   2.699
 6130SOL     OW19288   4.894   3.186   3.034
 6130SOL    HW119289   4.846   3.208   3.119
 6130SOL    HW219290   4.857   3.102   2.995
 6131SOL     OW19291   6.533   1.094   5.483
 6131SOL    HW119292   6.563   1.027   5.552
 6131SOL    HW219293   6.490   1.046   5.407
 6132SOL     OW19294   3.982   2.848   1.008
 6132SOL    HW119295   3.938   2.758   1.018
 6132SOL    HW219296   4.028   2.853   0.920
 6133SOL     OW19297   0.845   3.994   1.216
 6133SOL    HW119298   0.897   4.078   1.229
 6133SOL    HW219299   0.905   3.915   1.226
 6134SOL     OW19300   4.211   3.768   6.676
 6134SOL    HW119301   4.224   3.862   6.644
 6134SOL    HW219302   4.279   3.748   6.748
 6135SOL     OW19303   6.143   6.508   1.309
 6135SOL    HW119304   6.226   6.539   1.264
 6135SOL    HW219305   6.167   6.448   1.386
 6136SOL     OW19306   1.139   1.709   2.001
 6136SOL    HW119307   1.067   1.649   2.034
 6136SOL    HW219308   1.225   1.687   2.048
 6137SOL     OW19309   2.974   6.324   5.748
 6137SOL    HW119310   2.884   6.366   5.761
 6137SOL    HW219311   3.040   6.394   5.719
 6138SOL     OW19312   3.797   6.167   3.364
 6138SOL    HW119313   3.768   6.127   3.451
 6138SOL    HW219314   3.818   6.094   3.299
 6139SOL     OW19315   1.569   4.400   4.672
 6139SOL    HW119316   1.575   4.371   4.577
 6139SOL    HW219317   1.661   4.409   4.710
 6140SOL     OW19318   1.308   6.919   1.762
 6140SOL    HW119319   1.226   6.970   1.735
 6140SOL    HW219320   1.385   6.981   1.771
 6141SOL     OW19321   6.588   5.673   5.842
 6141SOL    HW119322   6.510   5.639   5.791
 6141SOL    HW219323   6.658   5.706   5.779
 6142SOL     OW19324   6.838   4.431   1.269
 6142SOL    HW119325   6.917   4.489   1.248
 6142SOL    HW219326   6.785   4.414   1.186
 6143SOL     OW19327   5.832   5.035   6.605
 6143SOL    HW119328   5.779   4.990   6.533
 6143SOL    HW219329   5.774   5.052   6.685
 6144SOL     OW19330   6.922   3.857   4.029
 6144SOL    HW119331   6.932   3.956   4.032
 6144SOL    HW219332   7.010   3.814   4.051
 6145SOL     OW19333   5.057   5.529   2.863
 6145SOL    HW119334   4.982   5.469   2.836
 6145SOL    HW219335   5.113   5.483   2.933
 6146SOL     OW19336   5.547   1.549   3.098
 6146SOL    HW119337   5.580   1.522   3.008
 6146SOL    HW219338   5.530   1.467   3.154
 6147SOL     OW19339   2.155   3.754   2.441
 6147SOL    HW119340   2.169   3.843   2.399
 6147SOL    HW219341   2.154   3.683   2.371
 6148SOL     OW19342   6.012   6.161   4.581
 6148SOL    HW119343   5.946   6.235   4.593
 6148SOL    HW219344   6.071   6.181   4.502
 6149SOL     OW19345   3.176   5.580   3.222
 6149SOL    HW119346   3.151   5.573   3.319
 6149SOL    HW219347   3.101   5.545   3.166
 6150SOL     OW19348   4.583   6.138   5.918
 6150SOL    HW119349   4.652   6.202   5.883
 6150SOL    HW219350   4.516   6.119   5.846
 6151SOL     OW19351   5.176   2.611   5.459
 6151SOL    HW119352   5.119   2.547   5.408
 6151SOL    HW219353   5.131   2.634   5.546
 6152SOL     OW19354   6.169   4.374   6.558
 6152SOL    HW119355   6.150   4.324   6.473
 6152SOL    HW219356   6.157   4.313   6.636
 6153SOL     OW19357   4.200   3.805   1.672
 6153SOL    HW119358   4.136   3.854   1.613
 6153SOL    HW219359   4.278   3.864   1.695
 6154SOL     OW19360   5.124   2.892   3.235
 6154SOL    HW119361   5.037   2.848   3.256
 6154SOL    HW219362   5.199   2.839   3.276
 6155SOL     OW19363   0.502   3.653   5.219
 6155SOL    HW119364   0.408   3.635   5.248
 6155SOL    HW219365   0.521   3.604   5.134
 6156SOL     OW19366   6.307   6.771   3.354
 6156SOL    HW119367   6.320   6.709   3.277
 6156SOL    HW219368   6.209   6.781   3.373
 6157SOL     OW19369   2.551   1.510   4.366
 6157SOL    HW119370   2.477   1.443   4.364
 6157SOL    HW219371   2.580   1.525   4.460
 6158SOL     OW19372   4.861   1.461   6.231
 6158SOL    HW119373   4.764   1.464   6.254
 6158SOL    HW219374   4.874   1.414   6.144
 6159SOL     OW19375   5.144   2.877   0.262
 6159SOL    HW119376   5.116   2.972   0.273
 6159SOL    HW219377   5.067   2.823   0.229
 6160SOL     OW19378   5.676   5.956   1.911
 6160SOL    HW119379   5.738   5.879   1.923
 6160SOL    HW219380   5.625   5.945   1.826
 6161SOL     OW19381   5.263   0.149   5.818
 6161SOL    HW119382   5.295   0.121   5.909
 6161SOL    HW219383   5.275   0.074   5.754
 6162SOL     OW19384   6.804   5.023   4.903
 6162SOL    HW119385   6.844   5.077   4.977
 6162SOL    HW219386   6.854   5.041   4.818
 6163SOL     OW19387   6.082   4.531   1.227
 6163SOL    HW119388   6.175   4.560   1.250
 6163SOL    HW219389   6.062   4.555   1.132
 6164SOL     OW19390   3.720   1.896   1.052
 6164SOL    HW119391   3.633   1.907   1.100
 6164SOL    HW219392   3.789   1.956   1.093
 6165SOL     OW19393   3.453   6.197   0.062
 6165SOL    HW119394   3.461   6.122   7.016
 6165SOL    HW219395   3.373   6.182   0.121
 6166SOL     OW19396   2.551   1.299   6.220
 6166SOL    HW119397   2.569   1.231   6.149
 6166SOL    HW219398   2.464   1.279   6.265
 6167SOL     OW19399   0.658   3.979   3.370
 6167SOL    HW119400   0.593   3.938   3.434
 6167SOL    HW219401   0.608   4.023   3.295
 6168SOL     OW19402   0.117   4.192   2.770
 6168SOL    HW119403   0.172   4.132   2.712
 6168SOL    HW219404   0.022   4.163   2.769
 6169SOL     OW19405   2.047   4.065   2.475
 6169SOL    HW119406   2.097   4.040   2.391
 6169SOL    HW219407   1.958   4.102   2.451
 6170SOL     OW19408   0.420   2.829   5.392
 6170SOL    HW119409   0.430   2.890   5.313
 6170SOL    HW219410   0.487   2.853   5.462
 6171SOL     OW19411   0.278   0.638   6.331
 6171SOL    HW119412   0.325   0.600   6.410
 6171SOL    HW219413   0.192   0.681   6.361
 6172SOL     OW19414   0.601   3.446   2.769
 6172SOL    HW119415   0.531   3.376   2.779
 6172SOL    HW219416   0.562   3.536   2.789
 6173SOL     OW19417   6.767   6.973   3.121
 6173SOL    HW119418   6.866   6.979   3.136
 6173SOL    HW219419   6.720   0.011   3.188
 6174SOL     OW19420   5.726   3.885   2.930
 6174SOL    HW119421   5.771   3.868   2.843
 6174SOL    HW219422   5.656   3.816   2.946
 6175SOL     OW19423   2.429   2.078   5.635
 6175SOL    HW119424   2.433   2.103   5.538
 6175SOL    HW219425   2.430   2.162   5.691
 6176SOL     OW19426   4.095   4.559   5.287
 6176SOL    HW119427   4.186   4.575   5.247
 6176SOL    HW219428   4.064   4.467   5.262
 6177SOL     OW19429   5.751   1.095   1.725
 6177SOL    HW119430   5.760   1.169   1.658
 6177SOL    HW219431   5.841   1.056   1.744
 6178SOL     OW19432   4.937   4.688   1.577
 6178SOL    HW119433   4.895   4.612   1.528
 6178SOL    HW219434   5.029   4.663   1.606
 6179SOL     OW19435   5.748   4.896   3.119
 6179SOL    HW119436   5.662   4.861   3.157
 6179SOL    HW219437   5.811   4.916   3.193
 6180SOL     OW19438   2.754   4.135   0.055
 6180SOL    HW119439   2.737   4.094   6.985
 6180SOL    HW219440   2.812   4.074   0.109
 6181SOL     OW19441   5.215   5.028   6.264
 6181SOL    HW119442   5.142   4.982   6.213
 6181SOL    HW219443   5.177   5.109   6.309
 6182SOL     OW19444   3.167   3.438   0.266
 6182SOL    HW119445   3.225   3.469   0.190
 6182SOL    HW219446   3.137   3.345   0.248
 6183SOL     OW19447   0.864   1.602   1.698
 6183SOL    HW119448   0.907   1.520   1.661
 6183SOL    HW219449   0.931   1.676   1.703
 6184SOL     OW19450   2.837   0.599   5.895
 6184SOL    HW119451   2.755   0.634   5.850
 6184SOL    HW219452   2.850   0.646   5.982
 6185SOL     OW19453   3.126   2.700   5.819
 6185SOL    HW119454   3.071   2.741   5.746
 6185SOL    HW219455   3.096   2.736   5.907
 6186SOL     OW19456   6.571   1.342   1.890
 6186SOL    HW119457   6.513   1.354   1.971
 6186SOL    HW219458   6.667   1.345   1.917
 6187SOL     OW19459   5.481   1.659   5.170
 6187SOL    HW119460   5.499   1.740   5.115
 6187SOL    HW219461   5.383   1.641   5.172
 6188SOL     OW19462   1.456   2.334   5.383
 6188SOL    HW119463   1.433   2.319   5.287
 6188SOL    HW219464   1.495   2.251   5.421
 6189SOL     OW19465   6.260   6.302   2.586
 6189SOL    HW119466   6.198   6.281   2.661
 6189SOL    HW219467   6.241   6.241   2.509
 6190SOL     OW19468   0.187   2.406   5.730
 6190SOL    HW119469   0.233   2.449   5.652
 6190SOL    HW219470   0.140   2.476   5.784
 6191SOL     OW19471   3.742   3.609   6.517
 6191SOL    HW119472   3.701   3.628   6.428
 6191SOL    HW219473   3.838   3.636   6.516
 6192SOL     OW19474   2.917   1.476   0.104
 6192SOL    HW119475   2.826   1.507   0.075
 6192SOL    HW219476   2.978   1.472   0.024
 6193SOL     OW19477   4.630   5.420   6.887
 6193SOL    HW119478   4.629   5.413   6.787
 6193SOL    HW219479   4.724   5.412   6.920
 6194SOL     OW19480   6.577   0.260   6.169
 6194SOL    HW119481   6.571   0.343   6.114
 6194SOL    HW219482   6.614   0.186   6.113
 6195SOL     OW19483   6.744   6.665   5.654
 6195SOL    HW119484   6.808   6.589   5.638
 6195SOL    HW219485   6.756   6.699   5.747
 6196SOL     OW19486   5.974   3.709   3.380
 6196SOL    HW119487   6.061   3.663   3.399
 6196SOL    HW219488   5.915   3.647   3.328
 6197SOL     OW19489   3.223   5.650   1.922
 6197SOL    HW119490   3.268   5.731   1.960
 6197SOL    HW219491   3.247   5.570   1.977
 6198SOL     OW19492   6.200   6.681   6.103
 6198SOL    HW119493   6.283   6.700   6.154
 6198SOL    HW219494   6.223   6.631   6.019
 6199SOL     OW19495   1.126   0.407   0.875
 6199SOL    HW119496   1.192   0.477   0.901
 6199SOL    HW219497   1.150   0.320   0.918
 6200SOL     OW19498   1.612   2.401   3.100
 6200SOL    HW119499   1.706   2.401   3.066
 6200SOL    HW219500   1.577   2.308   3.103
 6201SOL     OW19501   6.860   3.476   3.933
 6201SOL    HW119502   6.902   3.396   3.975
 6201SOL    HW219503   6.851   3.548   4.001
 6202SOL     OW19504   6.021   1.532   2.397
 6202SOL    HW119505   6.119   1.517   2.386
 6202SOL    HW219506   5.986   1.476   2.471
 6203SOL     OW19507   6.679   5.978   2.101
 6203SOL    HW119508   6.724   5.904   2.050
 6203SOL    HW219509   6.592   6.001   2.057
 6204SOL     OW19510   2.306   6.918   5.213
 6204SOL    HW119511   2.354   6.898   5.128
 6204SOL    HW219512   2.331   6.851   5.283
 6205SOL     OW19513   5.377   3.927   3.158
 6205SOL    HW119514   5.436   3.976   3.094
 6205SOL    HW219515   5.303   3.883   3.108
 6206SOL     OW19516   5.281   2.311   3.632
 6206SOL    HW119517   5.381   2.320   3.629
 6206SOL    HW219518   5.242   2.354   3.550
 6207SOL     OW19519   2.281   5.504   4.300
 6207SOL    HW119520   2.339   5.425   4.286
 6207SOL    HW219521   2.186   5.474   4.314
 6208SOL     OW19522   3.853   3.137   5.858
 6208SOL    HW119523   3.833   3.170   5.950
 6208SOL    HW219524   3.800   3.054   5.840
 6209SOL     OW19525   3.308   3.159   1.231
 6209SOL    HW119526   3.371   3.233   1.255
 6209SOL    HW219527   3.338   3.075   1.275
 6210SOL     OW19528   4.746   1.779   3.680
 6210SOL    HW119529   4.727   1.738   3.591
 6210SOL    HW219530   4.697   1.866   3.687
 6211SOL     OW19531   5.836   5.149   4.738
 6211SOL    HW119532   5.843   5.050   4.750
 6211SOL    HW219533   5.928   5.189   4.736
 6212SOL     OW19534   4.232   4.855   5.615
 6212SOL    HW119535   4.228   4.931   5.679
 6212SOL    HW219536   4.148   4.851   5.562
 6213SOL     OW19537   4.450   5.729   0.083
 6213SOL    HW119538   4.470   5.739   7.005
 6213SOL    HW219539   4.535   5.739   0.136
 6214SOL     OW19540   6.012   5.614   6.714
 6214SOL    HW119541   5.914   5.619   6.731
 6214SOL    HW219542   6.033   5.528   6.666
 6215SOL     OW19543   6.036   2.691   5.676
 6215SOL    HW119544   6.115   2.632   5.694
 6215SOL    HW219545   6.008   2.681   5.581
 6216SOL     OW19546   4.554   2.173   2.951
 6216SOL    HW119547   4.513   2.172   2.860
 6216SOL    HW219548   4.520   2.253   3.002
 6217SOL     OW19549   0.600   4.734   2.475
 6217SOL    HW119550   0.504   4.753   2.457
 6217SOL    HW219551   0.647   4.712   2.389
 6218SOL     OW19552   4.733   6.774   6.595
 6218SOL    HW119553   4.677   6.698   6.564
 6218SOL    HW219554   4.742   6.770   6.695
 6219SOL     OW19555   0.857   0.690   6.129
 6219SOL    HW119556   0.872   0.602   6.084
 6219SOL    HW219557   0.798   0.748   6.072
 6220SOL     OW19558   4.080   0.837   1.148
 6220SOL    HW119559   4.099   0.780   1.067
 6220SOL    HW219560   4.115   0.929   1.132
 6221SOL     OW19561   6.179   5.812   6.614
 6221SOL    HW119562   6.273   5.782   6.627
 6221SOL    HW219563   6.118   5.753   6.666
 6222SOL     OW19564   6.292   1.535   2.460
 6222SOL    HW119565   6.366   1.595   2.430
 6222SOL    HW219566   6.314   1.440   2.436
 6223SOL     OW19567   0.277   4.845   3.454
 6223SOL    HW119568   0.220   4.908   3.400
 6223SOL    HW219569   0.309   4.892   3.537
 6224SOL     OW19570   3.977   1.531   6.506
 6224SOL    HW119571   3.970   1.595   6.582
 6224SOL    HW219572   3.885   1.506   6.474
 6225SOL     OW19573   4.393   6.717   6.701
 6225SOL    HW119574   4.429   6.810   6.702
 6225SOL    HW219575   4.407   6.677   6.610
 6226SOL     OW19576   1.489   1.078   4.664
 6226SOL    HW119577   1.455   1.076   4.758
 6226SOL    HW219578   1.497   1.173   4.634
 6227SOL     OW19579   2.820   3.754   5.175
 6227SOL    HW119580   2.860   3.844   5.153
 6227SOL    HW219581   2.890   3.697   5.219
 6228SOL     OW19582   1.990   2.900   3.777
 6228SOL    HW119583   2.086   2.918   3.756
 6228SOL    HW219584   1.983   2.863   3.870
 6229SOL     OW19585   0.591   3.788   4.074
 6229SOL    HW119586   0.607   3.851   4.150
 6229SOL    HW219587   0.538   3.710   4.107
 6230SOL     OW19588   0.017   0.906   2.137
 6230SOL    HW119589   7.001   0.961   2.213
 6230SOL    HW219590   6.997   0.814   2.142
 6231SOL     OW19591   1.180   5.334   0.092
 6231SOL    HW119592   1.206   5.239   0.108
 6231SOL    HW219593   1.137   5.371   0.174
 6232SOL     OW19594   4.200   1.393   6.491
 6232SOL    HW119595   4.227   1.351   6.404
 6232SOL    HW219596   4.111   1.438   6.480
 6233SOL     OW19597   0.028   3.704   1.809
 6233SOL    HW119598   0.046   3.642   1.732
 6233SOL    HW219599   0.059   3.796   1.786
 6234SOL     OW19600   4.984   6.444   4.855
 6234SOL    HW119601   4.970   6.533   4.897
 6234SOL    HW219602   4.929   6.375   4.903
 6235SOL     OW19603   6.483   0.857   3.174
 6235SOL    HW119604   6.544   0.929   3.207
 6235SOL    HW219605   6.389   0.892   3.168
 6236SOL     OW19606   0.923   4.871   0.874
 6236SOL    HW119607   0.843   4.824   0.838
 6236SOL    HW219608   0.914   4.881   0.973
 6237SOL     OW19609   3.655   1.414   0.948
 6237SOL    HW119610   3.606   1.328   0.930
 6237SOL    HW219611   3.743   1.412   0.901
 6238SOL     OW19612   2.248   6.741   4.582
 6238SOL    HW119613   2.222   6.727   4.677
 6238SOL    HW219614   2.342   6.774   4.578
 6239SOL     OW19615   4.806   1.443   3.419
 6239SOL    HW119616   4.842   1.452   3.512
 6239SOL    HW219617   4.851   1.367   3.373
 6240SOL     OW19618   4.146   3.598   4.126
 6240SOL    HW119619   4.185   3.642   4.207
 6240SOL    HW219620   4.079   3.529   4.155
 6241SOL     OW19621   3.434   0.038   2.722
 6241SOL    HW119622   3.473   0.127   2.745
 6241SOL    HW219623   3.464   6.990   2.789
 6242SOL     OW19624   2.627   2.083   3.883
 6242SOL    HW119625   2.715   2.063   3.841
 6242SOL    HW219626   2.600   2.007   3.942
 6243SOL     OW19627   5.201   0.853   5.788
 6243SOL    HW119628   5.193   0.930   5.851
 6243SOL    HW219629   5.195   0.767   5.840
 6244SOL     OW19630   4.366   4.595   3.231
 6244SOL    HW119631   4.311   4.602   3.148
 6244SOL    HW219632   4.314   4.629   3.310
 6245SOL     OW19633   0.955   4.425   2.293
 6245SOL    HW119634   0.881   4.374   2.337
 6245SOL    HW219635   1.028   4.362   2.266
 6246SOL     OW19636   6.586   6.077   4.393
 6246SOL    HW119637   6.526   6.157   4.397
 6246SOL    HW219638   6.575   6.031   4.305
 6247SOL     OW19639   6.872   6.714   2.325
 6247SOL    HW119640   6.898   6.775   2.400
 6247SOL    HW219641   6.817   6.638   2.361
 6248SOL     OW19642   3.291   3.370   6.155
 6248SOL    HW119643   3.323   3.285   6.197
 6248SOL    HW219644   3.324   3.448   6.208
 6249SOL     OW19645   6.253   3.259   1.568
 6249SOL    HW119646   6.267   3.341   1.512
 6249SOL    HW219647   6.155   3.240   1.575
 6250SOL     OW19648   6.658   0.026   0.391
 6250SOL    HW119649   6.612   6.979   0.331
 6250SOL    HW219650   6.589   0.078   0.442
 6251SOL     OW19651   2.794   6.678   4.025
 6251SOL    HW119652   2.762   6.584   4.037
 6251SOL    HW219653   2.787   6.704   3.928
 6252SOL     OW19654   2.578   4.954   6.994
 6252SOL    HW119655   2.541   5.024   6.934
 6252SOL    HW219656   2.610   4.877   6.939
 6253SOL     OW19657   3.658   5.013   5.260
 6253SOL    HW119658   3.692   4.928   5.298
 6253SOL    HW219659   3.658   5.008   5.160
 6254SOL     OW19660   0.526   6.521   1.136
 6254SOL    HW119661   0.580   6.583   1.079
 6254SOL    HW219662   0.473   6.575   1.202
 6255SOL     OW19663   0.307   1.040   2.067
 6255SOL    HW119664   0.226   1.002   2.112
 6255SOL    HW219665   0.284   1.129   2.027
 6256SOL     OW19666   4.835   5.951   2.232
 6256SOL    HW119667   4.830   5.995   2.322
 6256SOL    HW219668   4.806   6.016   2.162
 6257SOL     OW19669   3.814   4.070   1.364
 6257SOL    HW119670   3.779   4.057   1.457
 6257SOL    HW219671   3.768   4.148   1.322
 6258SOL     OW19672   4.088   6.123   5.461
 6258SOL    HW119673   4.135   6.209   5.480
 6258SOL    HW219674   4.038   6.093   5.542
 6259SOL     OW19675   2.681   0.553   4.481
 6259SOL    HW119676   2.601   0.608   4.506
 6259SOL    HW219677   2.740   0.540   4.561
 6260SOL     OW19678   1.848   1.812   0.484
 6260SOL    HW119679   1.886   1.835   0.394
 6260SOL    HW219680   1.914   1.834   0.555
 6261SOL     OW19681   3.700   6.899   0.910
 6261SOL    HW119682   3.770   6.900   0.981
 6261SOL    HW219683   3.632   6.829   0.930
 6262SOL     OW19684   6.525   0.202   2.352
 6262SOL    HW119685   6.588   0.150   2.294
 6262SOL    HW219686   6.492   0.143   2.426
 6263SOL     OW19687   6.272   5.945   6.144
 6263SOL    HW119688   6.255   5.954   6.045
 6263SOL    HW219689   6.198   5.988   6.194
 6264SOL     OW19690   1.679   0.087   0.500
 6264SOL    HW119691   1.654   0.016   0.434
 6264SOL    HW219692   1.703   0.044   0.588
 6265SOL     OW19693   4.996   1.334   6.950
 6265SOL    HW119694   5.081   1.382   6.924
 6265SOL    HW219695   5.004   1.302   0.026
 6266SOL     OW19696   2.592   5.138   2.807
 6266SOL    HW119697   2.594   5.236   2.828
 6266SOL    HW219698   2.563   5.125   2.712
 6267SOL     OW19699   1.661   6.392   4.864
 6267SOL    HW119700   1.677   6.368   4.959
 6267SOL    HW219701   1.695   6.485   4.847
 6268SOL     OW19702   3.669   1.155   1.267
 6268SOL    HW119703   3.623   1.135   1.353
 6268SOL    HW219704   3.705   1.248   1.269
 6269SOL     OW19705   6.034   5.363   0.372
 6269SOL    HW119706   6.097   5.411   0.432
 6269SOL    HW219707   5.994   5.428   0.307
 6270SOL     OW19708   1.935   6.467   6.937
 6270SOL    HW119709   1.953   6.520   6.855
 6270SOL    HW219710   1.886   6.383   6.913
 6271SOL     OW19711   5.817   3.014   6.305
 6271SOL    HW119712   5.783   3.091   6.359
 6271SOL    HW219713   5.741   2.952   6.284
 6272SOL     OW19714   0.532   7.000   0.639
 6272SOL    HW119715   0.432   6.989   0.641
 6272SOL    HW219716   0.562   7.011   0.544
 6273SOL     OW19717   0.015   6.429   1.392
 6273SOL    HW119718   0.061   6.518   1.387
 6273SOL    HW219719   0.065   6.362   1.338
 6274SOL     OW19720   3.448   5.690   4.208
 6274SOL    HW119721   3.387   5.669   4.284
 6274SOL    HW219722   3.423   5.634   4.128
 6275SOL     OW19723   1.908   5.257   6.720
 6275SOL    HW119724   1.909   5.354   6.694
 6275SOL    HW219725   1.973   5.243   6.795
 6276SOL     OW19726   1.355   5.678   3.045
 6276SOL    HW119727   1.377   5.748   3.113
 6276SOL    HW219728   1.332   5.722   2.958
 6277SOL     OW19729   5.057   3.811   1.236
 6277SOL    HW119730   4.984   3.772   1.292
 6277SOL    HW219731   5.144   3.768   1.261
 6278SOL     OW19732   2.518   0.956   6.063
 6278SOL    HW119733   2.481   1.007   5.984
 6278SOL    HW219734   2.476   0.866   6.068
 6279SOL     OW19735   2.678   6.978   1.487
 6279SOL    HW119736   2.588   6.937   1.496
 6279SOL    HW219737   2.670   0.059   1.487
 6280SOL     OW19738   6.376   2.112   0.160
 6280SOL    HW119739   6.283   2.078   0.179
 6280SOL    HW219740   6.390   2.198   0.209
 6281SOL     OW19741   6.032   3.945   5.805
 6281SOL    HW119742   6.068   3.958   5.898
 6281SOL    HW219743   6.066   3.858   5.769
 6282SOL     OW19744   0.126   3.163   5.935
 6282SOL    HW119745   0.165   3.235   5.877
 6282SOL    HW219746   0.122   3.077   5.884
 6283SOL     OW19747   1.338   5.820   4.551
 6283SOL    HW119748   1.256   5.827   4.608
 6283SOL    HW219749   1.415   5.864   4.598
 6284SOL     OW19750   2.051   4.121   6.443
 6284SOL    HW119751   2.011   4.172   6.366
 6284SOL    HW219752   2.149   4.137   6.446
 6285SOL     OW19753   0.915   3.888   3.322
 6285SOL    HW119754   0.965   3.972   3.299
 6285SOL    HW219755   0.817   3.909   3.328
 6286SOL     OW19756   1.067   2.689   6.441
 6286SOL    HW119757   1.109   2.763   6.493
 6286SOL    HW219758   0.967   2.699   6.444
 6287SOL     OW19759   4.623   4.832   4.886
 6287SOL    HW119760   4.650   4.928   4.886
 6287SOL    HW219761   4.697   4.776   4.922
 6288SOL     OW19762   3.795   3.185   6.522
 6288SOL    HW119763   3.888   3.206   6.553
 6288SOL    HW219764   3.764   3.101   6.566
 6289SOL     OW19765   2.977   4.185   5.734
 6289SOL    HW119766   2.940   4.278   5.737
 6289SOL    HW219767   3.026   4.171   5.648
 6290SOL     OW19768   5.106   5.777   4.044
 6290SOL    HW119769   5.113   5.842   3.967
 6290SOL    HW219770   5.184   5.791   4.105
 6291SOL     OW19771   3.798   3.730   3.229
 6291SOL    HW119772   3.706   3.738   3.266
 6291SOL    HW219773   3.834   3.821   3.209
 6292SOL     OW19774   1.748   3.161   4.400
 6292SOL    HW119775   1.791   3.222   4.334
 6292SOL    HW219776   1.738   3.070   4.359
 6293SOL     OW19777   3.895   1.169   6.544
 6293SOL    HW119778   3.986   1.194   6.578
 6293SOL    HW219779   3.899   1.080   6.499
 6294SOL     OW19780   1.726   1.411   3.358
 6294SOL    HW119781   1.795   1.459   3.303
 6294SOL    HW219782   1.635   1.438   3.328
 6295SOL     OW19783   5.238   3.943   5.723
 6295SOL    HW119784   5.254   4.032   5.679
 6295SOL    HW219785   5.319   3.916   5.774
 6296SOL     OW19786   0.654   2.714   6.912
 6296SOL    HW119787   0.693   2.668   6.992
 6296SOL    HW219788   0.727   2.764   6.864
 6297SOL     OW19789   5.847   0.943   4.062
 6297SOL    HW119790   5.942   0.935   4.092
 6297SOL    HW219791   5.844   0.975   3.967
 6298SOL     OW19792   6.525   5.629   0.813
 6298SOL    HW119793   6.466   5.673   0.881
 6298SOL    HW219794   6.479   5.631   0.724
 6299SOL     OW19795   4.295   1.655   2.530
 6299SOL    HW119796   4.329   1.722   2.597
 6299SOL    HW219797   4.209   1.688   2.492
 6300SOL     OW19798   2.868   1.132   6.467
 6300SOL    HW119799   2.797   1.062   6.452
 6300SOL    HW219800   2.869   1.196   6.390
 6301SOL     OW19801   3.912   6.213   6.922
 6301SOL    HW119802   3.984   6.277   6.894
 6301SOL    HW219803   3.927   6.125   6.877
 6302SOL     OW19804   2.982   1.672   6.562
 6302SOL    HW119805   3.048   1.652   6.634
 6302SOL    HW219806   2.920   1.744   6.592
 6303SOL     OW19807   0.808   5.687   5.232
 6303SOL    HW119808   0.798   5.668   5.134
 6303SOL    HW219809   0.794   5.784   5.249
 6304SOL     OW19810   4.426   0.679   3.073
 6304SOL    HW119811   4.395   0.652   3.164
 6304SOL    HW219812   4.439   0.778   3.070
 6305SOL     OW19813   0.931   6.139   6.321
 6305SOL    HW119814   0.899   6.077   6.394
 6305SOL    HW219815   1.011   6.190   6.353
 6306SOL     OW19816   0.496   4.167   4.333
 6306SOL    HW119817   0.574   4.121   4.291
 6306SOL    HW219818   0.412   4.114   4.315
 6307SOL     OW19819   3.809   3.620   2.986
 6307SOL    HW119820   3.807   3.643   3.084
 6307SOL    HW219821   3.730   3.662   2.941
 6308SOL     OW19822   6.943   2.385   0.466
 6308SOL    HW119823   6.917   2.350   0.556
 6308SOL    HW219824   0.015   2.426   0.470
 6309SOL     OW19825   2.171   6.205   4.481
 6309SOL    HW119826   2.085   6.216   4.532
 6309SOL    HW219827   2.214   6.295   4.470
 6310SOL     OW19828   1.182   6.642   3.226
 6310SOL    HW119829   1.127   6.597   3.156
 6310SOL    HW219830   1.190   6.583   3.306
 6311SOL     OW19831   4.918   0.674   5.329
 6311SOL    HW119832   4.986   0.736   5.290
 6311SOL    HW219833   4.840   0.726   5.363
 6312SOL     OW19834   3.404   6.052   6.337
 6312SOL    HW119835   3.495   6.011   6.344
 6312SOL    HW219836   3.411   6.140   6.290
 6313SOL     OW19837   5.803   5.636   4.404
 6313SOL    HW119838   5.770   5.541   4.408
 6313SOL    HW219839   5.770   5.680   4.321
 6314SOL     OW19840   1.674   6.931   2.628
 6314SOL    HW119841   1.737   7.004   2.605
 6314SOL    HW219842   1.723   6.858   2.675
 6315SOL     OW19843   1.902   2.299   4.716
 6315SOL    HW119844   1.840   2.341   4.650
 6315SOL    HW219845   1.964   2.369   4.753
 6316SOL     OW19846   4.948   1.051   4.450
 6316SOL    HW119847   4.999   1.133   4.476
 6316SOL    HW219848   4.912   1.062   4.358
 6317SOL     OW19849   5.091   5.028   1.640
 6317SOL    HW119850   5.109   5.123   1.667
 6317SOL    HW219851   5.062   4.976   1.720
 6318SOL     OW19852   6.391   6.820   6.220
 6318SOL    HW119853   6.445   6.834   6.136
 6318SOL    HW219854   6.375   6.908   6.264
 6319SOL     OW19855   5.210   1.040   4.568
 6319SOL    HW119856   5.179   1.129   4.535
 6319SOL    HW219857   5.144   0.970   4.540
 6320SOL     OW19858   6.317   0.363   5.873
 6320SOL    HW119859   6.327   0.377   5.775
 6320SOL    HW219860   6.220   0.364   5.897
 6321SOL     OW19861   5.882   1.997   6.613
 6321SOL    HW119862   5.885   2.048   6.527
 6321SOL    HW219863   5.833   2.051   6.682
 6322SOL     OW19864   1.363   1.095   2.014
 6322SOL    HW119865   1.441   1.063   1.961
 6322SOL    HW219866   1.326   1.178   1.973
 6323SOL     OW19867   2.620   3.949   1.370
 6323SOL    HW119868   2.683   3.933   1.294
 6323SOL    HW219869   2.526   3.953   1.335
 6324SOL     OW19870   5.003   1.515   0.875
 6324SOL    HW119871   4.950   1.594   0.906
 6324SOL    HW219872   5.084   1.505   0.931
 6325SOL     OW19873   1.732   2.712   3.878
 6325SOL    HW119874   1.724   2.795   3.823
 6325SOL    HW219875   1.711   2.632   3.821
 6326SOL     OW19876   5.380   5.198   5.915
 6326SOL    HW119877   5.449   5.240   5.856
 6326SOL    HW219878   5.418   5.113   5.953
 6327SOL     OW19879   0.123   0.734   3.899
 6327SOL    HW119880   0.188   0.794   3.945
 6327SOL    HW219881   0.079   0.674   3.966
 6328SOL     OW19882   4.485   3.639   5.311
 6328SOL    HW119883   4.533   3.598   5.234
 6328SOL    HW219884   4.511   3.735   5.319
 6329SOL     OW19885   1.265   2.206   5.791
 6329SOL    HW119886   1.244   2.120   5.746
 6329SOL    HW219887   1.287   2.276   5.723
 6330SOL     OW19888   5.295   1.492   3.498
 6330SOL    HW119889   5.368   1.554   3.529
 6330SOL    HW219890   5.226   1.544   3.448
 6331SOL     OW19891   0.590   3.355   3.364
 6331SOL    HW119892   0.497   3.319   3.359
 6331SOL    HW219893   0.587   3.450   3.395
 6332SOL     OW19894   2.913   1.635   0.343
 6332SOL    HW119895   2.931   1.589   0.256
 6332SOL    HW219896   2.971   1.595   0.414
 6333SOL     OW19897   5.255   1.907   0.794
 6333SOL    HW119898   5.188   1.972   0.757
 6333SOL    HW219899   5.328   1.957   0.840
 6334SOL     OW19900   1.495   1.661   2.377
 6334SOL    HW119901   1.584   1.680   2.336
 6334SOL    HW219902   1.427   1.727   2.343
 6335SOL     OW19903   6.511   1.310   0.473
 6335SOL    HW119904   6.445   1.236   0.485
 6335SOL    HW219905   6.482   1.368   0.396
 6336SOL     OW19906   0.608   2.846   5.579
 6336SOL    HW119907   0.648   2.775   5.522
 6336SOL    HW219908   0.648   2.841   5.671
 6337SOL     OW19909   4.682   5.274   5.093
 6337SOL    HW119910   4.773   5.236   5.108
 6337SOL    HW219911   4.679   5.368   5.127
 6338SOL     OW19912   2.551   1.585   3.426
 6338SOL    HW119913   2.649   1.576   3.443
 6338SOL    HW219914   2.535   1.613   3.332
 6339SOL     OW19915   0.746   4.713   3.178
 6339SOL    HW119916   0.829   4.752   3.138
 6339SOL    HW219917   0.751   4.720   3.278
 6340SOL     OW19918   2.160   4.037   1.129
 6340SOL    HW119919   2.102   4.119   1.125
 6340SOL    HW219920   2.141   3.979   1.050
 6341SOL     OW19921   0.294   5.320   3.751
 6341SOL    HW119922   0.373   5.340   3.811
 6341SOL    HW219923   0.318   5.246   3.688
 6342SOL     OW19924   1.978   1.684   1.352
 6342SOL    HW119925   2.048   1.612   1.355
 6342SOL    HW219926   2.008   1.762   1.406
 6343SOL     OW19927   1.305   5.879   1.227
 6343SOL    HW119928   1.385   5.867   1.285
 6343SOL    HW219929   1.323   5.951   1.160
 6344SOL     OW19930   6.650   1.249   3.937
 6344SOL    HW119931   6.682   1.158   3.964
 6344SOL    HW219932   6.700   1.278   3.855
 6345SOL     OW19933   5.726   3.851   1.949
 6345SOL    HW119934   5.678   3.870   2.035
 6345SOL    HW219935   5.695   3.916   1.879
 6346SOL     OW19936   6.577   4.274   5.503
 6346SOL    HW119937   6.674   4.268   5.527
 6346SOL    HW219938   6.567   4.320   5.415
 6347SOL     OW19939   1.804   1.952   3.068
 6347SOL    HW119940   1.767   1.882   3.130
 6347SOL    HW219941   1.901   1.934   3.052
 6348SOL     OW19942   0.080   2.035   5.910
 6348SOL    HW119943   0.147   2.014   5.981
 6348SOL    HW219944   0.032   2.120   5.933
 6349SOL     OW19945   0.023   1.395   0.072
 6349SOL    HW119946   0.101   1.405   0.134
 6349SOL    HW219947   0.046   1.436   7.002
 6350SOL     OW19948   1.149   5.195   1.749
 6350SOL    HW119949   1.237   5.179   1.705
 6350SOL    HW219950   1.078   5.145   1.700
 6351SOL     OW19951   5.796   2.897   2.076
 6351SOL    HW119952   5.701   2.881   2.050
 6351SOL    HW219953   5.812   2.995   2.088
 6352SOL     OW19954   2.719   0.331   4.329
 6352SOL    HW119955   2.806   0.290   4.358
 6352SOL    HW219956   2.680   0.383   4.405
 6353SOL     OW19957   3.590   6.040   5.863
 6353SOL    HW119958   3.500   6.011   5.895
 6353SOL    HW219959   3.657   5.968   5.882
 6354SOL     OW19960   4.608   5.407   1.820
 6354SOL    HW119961   4.581   5.367   1.908
 6354SOL    HW219962   4.704   5.434   1.824
 6355SOL     OW19963   2.618   4.665   1.155
 6355SOL    HW119964   2.716   4.647   1.142
 6355SOL    HW219965   2.597   4.758   1.126
 6356SOL     OW19966   6.062   4.656   6.292
 6356SOL    HW119967   6.092   4.750   6.277
 6356SOL    HW219968   6.019   4.648   6.383
 6357SOL     OW19969   5.678   1.042   1.316
 6357SOL    HW119970   5.689   1.136   1.284
 6357SOL    HW219971   5.766   0.994   1.311
 6358SOL     OW19972   1.148   2.117   6.523
 6358SOL    HW119973   1.052   2.144   6.518
 6358SOL    HW219974   1.186   2.144   6.611
 6359SOL     OW19975   5.561   6.369   0.434
 6359SOL    HW119976   5.474   6.332   0.400
 6359SOL    HW219977   5.545   6.460   0.472
 6360SOL     OW19978   0.903   2.494   2.066
 6360SOL    HW119979   0.911   2.401   2.031
 6360SOL    HW219980   0.920   2.495   2.165
 6361SOL     OW19981   0.422   0.304   7.007
 6361SOL    HW119982   0.500   0.303   6.944
 6361SOL    HW219983   0.365   0.384   6.989
 6362SOL     OW19984   1.248   5.986   0.528
 6362SOL    HW119985   1.296   5.903   0.498
 6362SOL    HW219986   1.227   5.978   0.626
 6363SOL     OW19987   2.461   4.444   3.244
 6363SOL    HW119988   2.421   4.363   3.199
 6363SOL    HW219989   2.387   4.507   3.270
 6364SOL     OW19990   2.249   2.708   4.358
 6364SOL    HW119991   2.206   2.658   4.434
 6364SOL    HW219992   2.208   2.799   4.351
 6365SOL     OW19993   5.701   5.398   3.372
 6365SOL    HW119994   5.785   5.412   3.425
 6365SOL    HW219995   5.680   5.480   3.319
 6366SOL     OW19996   5.920   0.163   4.924
 6366SOL    HW119997   5.980   0.095   4.882
 6366SOL    HW219998   5.829   0.158   4.884
 6367SOL     OW19999   2.235   2.258   2.176
 6367SOL    HW120000   2.233   2.309   2.262
 6367SOL    HW220001   2.148   2.270   2.129
 6368SOL     OW20002   4.749   2.977   4.556
 6368SOL    HW120003   4.724   2.941   4.466
 6368SOL    HW220004   4.849   2.987   4.562
 6369SOL     OW20005   3.832   5.490   6.720
 6369SOL    HW120006   3.787   5.455   6.639
 6369SOL    HW220007   3.815   5.428   6.797
 6370SOL     OW20008   5.207   3.463   4.369
 6370SOL    HW120009   5.293   3.440   4.323
 6370SOL    HW220010   5.225   3.534   4.438
 6371SOL     OW20011   4.853   4.214   1.437
 6371SOL    HW120012   4.921   4.173   1.375
 6371SOL    HW220013   4.871   4.183   1.530
 6372SOL     OW20014   6.490   1.702   2.367
 6372SOL    HW120015   6.450   1.793   2.362
 6372SOL    HW220016   6.503   1.666   2.275
 6373SOL     OW20017   4.641   4.380   1.200
 6373SOL    HW120018   4.547   4.397   1.170
 6373SOL    HW220019   4.701   4.450   1.161
 6374SOL     OW20020   4.535   3.621   0.061
 6374SOL    HW120021   4.486   3.534   0.071
 6374SOL    HW220022   4.623   3.605   0.016
 6375SOL     OW20023   5.527   2.220   1.897
 6375SOL    HW120024   5.449   2.178   1.942
 6375SOL    HW220025   5.565   2.291   1.956
 6376SOL     OW20026   3.727   1.235   6.323
 6376SOL    HW120027   3.776   1.228   6.410
 6376SOL    HW220028   3.750   1.322   6.279
 6377SOL     OW20029   6.733   0.471   0.538
 6377SOL    HW120030   6.775   0.554   0.501
 6377SOL    HW220031   6.804   0.405   0.562
 6378SOL     OW20032   5.361   5.533   1.968
 6378SOL    HW120033   5.398   5.488   1.887
 6378SOL    HW220034   5.289   5.597   1.942
 6379SOL     OW20035   2.208   6.019   6.523
 6379SOL    HW120036   2.218   6.056   6.431
 6379SOL    HW220037   2.294   5.976   6.551
 6380SOL     OW20038   1.355   3.456   5.376
 6380SOL    HW120039   1.276   3.409   5.414
 6380SOL    HW220040   1.430   3.456   5.443
 6381SOL     OW20041   4.441   2.408   0.082
 6381SOL    HW120042   4.472   2.488   0.134
 6381SOL    HW220043   4.411   2.437   7.010
 6382SOL     OW20044   1.556   1.903   1.143
 6382SOL    HW120045   1.618   1.941   1.212
 6382SOL    HW220046   1.580   1.938   1.053
 6383SOL     OW20047   2.187   2.789   2.240
 6383SOL    HW120048   2.106   2.815   2.187
 6383SOL    HW220049   2.199   2.853   2.316
 6384SOL     OW20050   6.157   2.582   2.666
 6384SOL    HW120051   6.097   2.653   2.702
 6384SOL    HW220052   6.180   2.517   2.739
 6385SOL     OW20053   6.936   3.080   1.393
 6385SOL    HW120054   6.885   3.037   1.468
 6385SOL    HW220055   6.962   3.011   1.326
 6386SOL     OW20056   2.308   3.805   0.419
 6386SOL    HW120057   2.396   3.847   0.443
 6386SOL    HW220058   2.322   3.709   0.394
 6387SOL     OW20059   0.118   0.508   6.541
 6387SOL    HW120060   0.050   0.456   6.592
 6387SOL    HW220061   0.075   0.556   6.465
 6388SOL     OW20062   6.739   5.432   2.056
 6388SOL    HW120063   6.665   5.392   2.001
 6388SOL    HW220064   6.707   5.517   2.098
 6389SOL     OW20065   0.970   0.567   6.845
 6389SOL    HW120066   1.033   0.603   6.776
 6389SOL    HW220067   0.935   0.642   6.901
 6390SOL     OW20068   6.038   0.805   6.661
 6390SOL    HW120069   6.022   0.828   6.757
 6390SOL    HW220070   5.951   0.810   6.611
 6391SOL     OW20071   0.722   1.533   4.880
 6391SOL    HW120072   0.725   1.614   4.937
 6391SOL    HW220073   0.789   1.466   4.912
 6392SOL     OW20074   3.781   6.739   3.597
 6392SOL    HW120075   3.858   6.678   3.616
 6392SOL    HW220076   3.713   6.690   3.542
 6393SOL     OW20077   0.184   5.583   6.853
 6393SOL    HW120078   0.094   5.588   6.808
 6393SOL    HW220079   0.172   5.580   6.952
 6394SOL     OW20080   1.478   5.565   1.458
 6394SOL    HW120081   1.522   5.616   1.384
 6394SOL    HW220082   1.540   5.558   1.536
 6395SOL     OW20083   2.049   3.871   3.347
 6395SOL    HW120084   2.085   3.792   3.298
 6395SOL    HW220085   1.949   3.864   3.353
 6396SOL     OW20086   0.963   3.565   6.580
 6396SOL    HW120087   0.974   3.506   6.660
 6396SOL    HW220088   0.979   3.660   6.606
 6397SOL     OW20089   5.383   3.380   3.825
 6397SOL    HW120090   5.465   3.347   3.872
 6397SOL    HW220091   5.309   3.314   3.835
 6398SOL     OW20092   1.803   0.453   0.745
 6398SOL    HW120093   1.738   0.425   0.674
 6398SOL    HW220094   1.786   0.548   0.770
 6399SOL     OW20095   3.252   0.902   5.892
 6399SOL    HW120096   3.156   0.917   5.914
 6399SOL    HW220097   3.263   0.889   5.794
 6400SOL     OW20098   1.510   6.435   3.312
 6400SOL    HW120099   1.559   6.399   3.232
 6400SOL    HW220100   1.508   6.534   3.308
 6401SOL     OW20101   3.669   5.956   3.557
 6401SOL    HW120102   3.619   5.873   3.531
 6401SOL    HW220103   3.744   5.931   3.618
 6402SOL     OW20104   1.837   4.430   4.874
 6402SOL    HW120105   1.827   4.336   4.842
 6402SOL    HW220106   1.775   4.445   4.951
 6403SOL     OW20107   5.012   5.606   4.932
 6403SOL    HW120108   5.101   5.623   4.892
 6403SOL    HW220109   4.957   5.690   4.931
 6404SOL     OW20110   4.483   6.613   2.215
 6404SOL    HW120111   4.401   6.572   2.174
 6404SOL    HW220112   4.456   6.669   2.294
 6405SOL     OW20113   5.330   1.843   2.217
 6405SOL    HW120114   5.359   1.915   2.280
 6405SOL    HW220115   5.406   1.780   2.201
 6406SOL     OW20116   0.718   3.124   3.487
 6406SOL    HW120117   0.666   3.157   3.408
 6406SOL    HW220118   0.723   3.196   3.556
 6407SOL     OW20119   1.600   6.104   2.431
 6407SOL    HW120120   1.602   6.185   2.373
 6407SOL    HW220121   1.514   6.100   2.481
 6408SOL     OW20122   6.576   0.342   1.421
 6408SOL    HW120123   6.554   0.338   1.519
 6408SOL    HW220124   6.524   0.415   1.378
 6409SOL     OW20125   5.727   5.003   3.440
 6409SOL    HW120126   5.817   4.960   3.446
 6409SOL    HW220127   5.727   5.072   3.367
 6410SOL     OW20128   2.079   1.495   5.958
 6410SOL    HW120129   2.167   1.539   5.935
 6410SOL    HW220130   2.073   1.407   5.912
 6411SOL     OW20131   0.405   2.621   1.953
 6411SOL    HW120132   0.408   2.617   1.853
 6411SOL    HW220133   0.314   2.649   1.983
 6412SOL     OW20134   3.580   0.638   0.190
 6412SOL    HW120135   3.592   0.592   0.103
 6412SOL    HW220136   3.579   0.737   0.176
 6413SOL     OW20137   5.482   6.379   3.458
 6413SOL    HW120138   5.538   6.362   3.377
 6413SOL    HW220139   5.393   6.415   3.430
 6414SOL     OW20140   1.654   0.180   0.040
 6414SOL    HW120141   1.561   0.176   0.077
 6414SOL    HW220142   1.650   0.210   6.964
 6415SOL     OW20143   0.490   2.613   3.415
 6415SOL    HW120144   0.437   2.608   3.500
 6415SOL    HW220145   0.472   2.531   3.360
 6416SOL     OW20146   2.866   6.804   0.250
 6416SOL    HW120147   2.788   6.844   0.297
 6416SOL    HW220148   2.835   6.747   0.174
 6417SOL     OW20149   3.773   2.022   0.463
 6417SOL    HW120150   3.837   2.010   0.539
 6417SOL    HW220151   3.799   1.960   0.388
 6418SOL     OW20152   4.178   5.027   0.824
 6418SOL    HW120153   4.275   5.009   0.811
 6418SOL    HW220154   4.124   4.960   0.772
 6419SOL     OW20155   1.524   6.419   6.515
 6419SOL    HW120156   1.569   6.407   6.603
 6419SOL    HW220157   1.425   6.419   6.529
 6420SOL     OW20158   2.118   4.136   4.580
 6420SOL    HW120159   2.185   4.183   4.638
 6420SOL    HW220160   2.162   4.110   4.494
 6421SOL     OW20161   4.366   6.985   2.260
 6421SOL    HW120162   4.412   6.963   2.174
 6421SOL    HW220163   4.405   6.929   2.333
 6422SOL     OW20164   5.887   1.634   4.442
 6422SOL    HW120165   5.823   1.696   4.397
 6422SOL    HW220166   5.976   1.678   4.449
 6423SOL     OW20167   2.365   4.550   4.186
 6423SOL    HW120168   2.341   4.459   4.151
 6423SOL    HW220169   2.404   4.541   4.277
 6424SOL     OW20170   6.427   4.739   5.079
 6424SOL    HW120171   6.447   4.780   4.990
 6424SOL    HW220172   6.344   4.683   5.071
 6425SOL     OW20173   6.669   5.548   3.768
 6425SOL    HW120174   6.629   5.626   3.720
 6425SOL    HW220175   6.596   5.490   3.804
 6426SOL     OW20176   4.665   4.416   5.079
 6426SOL    HW120177   4.670   4.425   4.980
 6426SOL    HW220178   4.752   4.381   5.114
 6427SOL     OW20179   3.954   3.194   3.171
 6427SOL    HW120180   3.926   3.099   3.155
 6427SOL    HW220181   3.884   3.255   3.133
 6428SOL     OW20182   5.490   3.368   0.842
 6428SOL    HW120183   5.440   3.384   0.757
 6428SOL    HW220184   5.566   3.306   0.825
 6429SOL     OW20185   2.292   1.088   5.536
 6429SOL    HW120186   2.358   1.162   5.550
 6429SOL    HW220187   2.228   1.113   5.463
 6430SOL     OW20188   6.742   6.896   5.432
 6430SOL    HW120189   6.765   6.982   5.387
 6430SOL    HW220190   6.799   6.886   5.514
 6431SOL     OW20191   3.834   4.798   1.792
 6431SOL    HW120192   3.814   4.769   1.698
 6431SOL    HW220193   3.758   4.774   1.852
 6432SOL     OW20194   4.696   4.733   5.749
 6432SOL    HW120195   4.776   4.712   5.805
 6432SOL    HW220196   4.655   4.647   5.716
 6433SOL     OW20197   2.760   5.358   6.785
 6433SOL    HW120198   2.795   5.436   6.837
 6433SOL    HW220199   2.682   5.318   6.833
 6434SOL     OW20200   4.104   5.154   6.056
 6434SOL    HW120201   4.179   5.152   5.990
 6434SOL    HW220202   4.137   5.127   6.146
 6435SOL     OW20203   4.883   1.722   1.040
 6435SOL    HW120204   4.979   1.748   1.033
 6435SOL    HW220205   4.865   1.683   1.130
 6436SOL     OW20206   6.746   3.669   4.258
 6436SOL    HW120207   6.772   3.578   4.227
 6436SOL    HW220208   6.803   3.737   4.213
 6437SOL     OW20209   0.682   1.950   5.295
 6437SOL    HW120210   0.616   1.882   5.263
 6437SOL    HW220211   0.637   2.013   5.358
 6438SOL     OW20212   0.764   5.301   0.495
 6438SOL    HW120213   0.668   5.328   0.482
 6438SOL    HW220214   0.772   5.202   0.483
 6439SOL     OW20215   5.729   7.013   2.959
 6439SOL    HW120216   5.737   0.082   3.004
 6439SOL    HW220217   5.675   6.951   3.015
 6440SOL     OW20218   2.712   2.256   6.955
 6440SOL    HW120219   2.749   2.235   6.864
 6440SOL    HW220220   2.661   2.178   6.990
 6441SOL     OW20221   0.525   1.989   2.896
 6441SOL    HW120222   0.594   2.058   2.919
 6441SOL    HW220223   0.533   1.912   2.958
 6442SOL     OW20224   2.914   2.668   5.382
 6442SOL    HW120225   2.889   2.573   5.363
 6442SOL    HW220226   2.846   2.729   5.342
 6443SOL     OW20227   4.905   2.703   0.184
 6443SOL    HW120228   4.852   2.717   0.101
 6443SOL    HW220229   4.916   2.604   0.200
 6444SOL     OW20230   6.453   3.180   5.055
 6444SOL    HW120231   6.437   3.125   5.136
 6444SOL    HW220232   6.482   3.272   5.081
 6445SOL     OW20233   3.616   2.933   3.065
 6445SOL    HW120234   3.601   2.936   2.966
 6445SOL    HW220235   3.531   2.906   3.111
 6446SOL     OW20236   2.414   0.924   6.343
 6446SOL    HW120237   2.470   0.926   6.260
 6446SOL    HW220238   2.474   0.917   6.423
 6447SOL     OW20239   6.320   3.396   1.806
 6447SOL    HW120240   6.310   3.350   1.718
 6447SOL    HW220241   6.414   3.430   1.815
 6448SOL     OW20242   3.346   5.282   1.361
 6448SOL    HW120243   3.286   5.357   1.334
 6448SOL    HW220244   3.345   5.272   1.460
 6449SOL     OW20245   2.416   5.308   1.286
 6449SOL    HW120246   2.394   5.359   1.369
 6449SOL    HW220247   2.471   5.365   1.225
 6450SOL     OW20248   0.603   4.074   1.104
 6450SOL    HW120249   0.662   4.046   1.180
 6450SOL    HW220250   0.654   4.136   1.044
 6451SOL     OW20251   4.186   2.273   1.104
 6451SOL    HW120252   4.244   2.236   1.031
 6451SOL    HW220253   4.242   2.293   1.185
 6452SOL     OW20254   4.713   2.274   3.626
 6452SOL    HW120255   4.763   2.194   3.593
 6452SOL    HW220256   4.735   2.290   3.722
 6453SOL     OW20257   2.780   1.091   1.164
 6453SOL    HW120258   2.830   1.120   1.246
 6453SOL    HW220259   2.697   1.042   1.192
 6454SOL     OW20260   5.558   2.377   3.601
 6454SOL    HW120261   5.612   2.363   3.518
 6454SOL    HW220262   5.572   2.471   3.634
 6455SOL     OW20263   6.634   3.798   3.325
 6455SOL    HW120264   6.688   3.723   3.287
 6455SOL    HW220265   6.668   3.820   3.416
 6456SOL     OW20266   5.899   1.530   2.704
 6456SOL    HW120267   5.818   1.568   2.749
 6456SOL    HW220268   5.979   1.586   2.726
 6457SOL     OW20269   3.723   6.965   2.303
 6457SOL    HW120270   3.663   0.026   2.295
 6457SOL    HW220271   3.671   6.882   2.286
 6458SOL     OW20272   0.122   4.989   3.249
 6458SOL    HW120273   0.167   5.050   3.184
 6458SOL    HW220274   0.025   5.013   3.254
 6459SOL     OW20275   6.315   3.768   2.375
 6459SOL    HW120276   6.343   3.754   2.280
 6459SOL    HW220277   6.230   3.719   2.393
 6460SOL     OW20278   0.778   5.892   5.879
 6460SOL    HW120279   0.852   5.846   5.829
 6460SOL    HW220280   0.720   5.941   5.814
 6461SOL     OW20281   2.111   5.661   1.268
 6461SOL    HW120282   2.078   5.577   1.312
 6461SOL    HW220283   2.083   5.740   1.321
 6462SOL     OW20284   1.727   4.018   5.371
 6462SOL    HW120285   1.642   3.967   5.355
 6462SOL    HW220286   1.795   3.990   5.303
 6463SOL     OW20287   4.781   1.934   1.684
 6463SOL    HW120288   4.865   1.905   1.729
 6463SOL    HW220289   4.732   1.998   1.743
 6464SOL     OW20290   1.006   4.459   4.200
 6464SOL    HW120291   0.995   4.499   4.109
 6464SOL    HW220292   0.939   4.386   4.212
 6465SOL     OW20293   4.122   0.997   3.258
 6465SOL    HW120294   4.087   0.964   3.171
 6465SOL    HW220295   4.045   1.022   3.317
 6466SOL     OW20296   0.518   3.067   0.408
 6466SOL    HW120297   0.536   3.159   0.443
 6466SOL    HW220298   0.579   3.002   0.452
 6467SOL     OW20299   2.907   2.512   0.759
 6467SOL    HW120300   2.915   2.433   0.697
 6467SOL    HW220301   2.998   2.545   0.782
 6468SOL     OW20302   2.452   1.426   0.659
 6468SOL    HW120303   2.388   1.361   0.700
 6468SOL    HW220304   2.479   1.494   0.728
 6469SOL     OW20305   3.285   1.440   2.936
 6469SOL    HW120306   3.210   1.482   2.988
 6469SOL    HW220307   3.302   1.493   2.853
 6470SOL     OW20308   6.574   2.110   6.956
 6470SOL    HW120309   6.653   2.056   6.986
 6470SOL    HW220310   6.504   2.107   0.009
 6471SOL     OW20311   0.762   6.336   6.077
 6471SOL    HW120312   0.838   6.273   6.063
 6471SOL    HW220313   0.710   6.308   6.158
 6472SOL     OW20314   6.721   6.438   2.988
 6472SOL    HW120315   6.672   6.514   3.031
 6472SOL    HW220316   6.658   6.361   2.976
 6473SOL     OW20317   2.694   1.621   4.165
 6473SOL    HW120318   2.635   1.610   4.245
 6473SOL    HW220319   2.700   1.535   4.115
 6474SOL     OW20320   3.535   5.526   4.981
 6474SOL    HW120321   3.545   5.623   5.006
 6474SOL    HW220322   3.578   5.469   5.050
 6475SOL     OW20323   6.028   5.260   2.671
 6475SOL    HW120324   5.970   5.304   2.603
 6475SOL    HW220325   6.044   5.323   2.747
 6476SOL     OW20326   3.914   1.860   6.426
 6476SOL    HW120327   3.851   1.796   6.470
 6476SOL    HW220328   4.007   1.823   6.430
 6477SOL     OW20329   6.496   5.964   1.758
 6477SOL    HW120330   6.466   5.937   1.850
 6477SOL    HW220331   6.563   6.038   1.766
 6478SOL     OW20332   3.402   5.589   1.704
 6478SOL    HW120333   3.379   5.500   1.664
 6478SOL    HW220334   3.330   5.617   1.767
 6479SOL     OW20335   3.102   5.782   3.866
 6479SOL    HW120336   3.167   5.832   3.808
 6479SOL    HW220337   3.151   5.716   3.922
 6480SOL     OW20338   3.781   1.944   6.747
 6480SOL    HW120339   3.748   2.011   6.814
 6480SOL    HW220340   3.774   1.982   6.655
 6481SOL     OW20341   3.426   2.758   1.833
 6481SOL    HW120342   3.332   2.726   1.842
 6481SOL    HW220343   3.481   2.689   1.786
 6482SOL     OW20344   5.599   4.130   5.592
 6482SOL    HW120345   5.506   4.153   5.564
 6482SOL    HW220346   5.664   4.194   5.551
 6483SOL     OW20347   0.971   5.964   5.056
 6483SOL    HW120348   0.903   5.948   5.127
 6483SOL    HW220349   0.927   5.954   4.966
 6484SOL     OW20350   2.549   0.874   4.030
 6484SOL    HW120351   2.487   0.802   3.999
 6484SOL    HW220352   2.579   0.856   4.123
 6485SOL     OW20353   2.308   6.447   4.481
 6485SOL    HW120354   2.297   6.540   4.515
 6485SOL    HW220355   2.287   6.445   4.383
 6486SOL     OW20356   1.696   4.774   3.437
 6486SOL    HW120357   1.736   4.796   3.349
 6486SOL    HW220358   1.665   4.678   3.437
 6487SOL     OW20359   6.025   4.660   3.333
 6487SOL    HW120360   5.978   4.737   3.374
 6487SOL    HW220361   6.091   4.692   3.265
 6488SOL     OW20362   4.714   5.423   4.596
 6488SOL    HW120363   4.809   5.430   4.566
 6488SOL    HW220364   4.709   5.366   4.678
 6489SOL     OW20365   4.489   3.019   5.792
 6489SOL    HW120366   4.389   3.008   5.792
 6489SOL    HW220367   4.514   3.098   5.848
 6490SOL     OW20368   1.636   2.403   0.194
 6490SOL    HW120369   1.655   2.389   0.097
 6490SOL    HW220370   1.564   2.472   0.204
 6491SOL     OW20371   3.023   0.278   1.269
 6491SOL    HW120372   3.072   0.348   1.216
 6491SOL    HW220373   2.935   0.259   1.226
 6492SOL     OW20374   3.510   3.487   4.715
 6492SOL    HW120375   3.581   3.475   4.646
 6492SOL    HW220376   3.541   3.553   4.784
 6493SOL     OW20377   0.487   3.979   5.610
 6493SOL    HW120378   0.513   4.046   5.540
 6493SOL    HW220379   0.569   3.935   5.646
 6494SOL     OW20380   6.022   0.551   1.480
 6494SOL    HW120381   5.936   0.579   1.438
 6494SOL    HW220382   6.075   0.498   1.414
 6495SOL     OW20383   6.139   0.187   3.693
 6495SOL    HW120384   6.080   0.128   3.639
 6495SOL    HW220385   6.089   0.219   3.774
 6496SOL     OW20386   3.419   1.541   1.479
 6496SOL    HW120387   3.442   1.628   1.523
 6496SOL    HW220388   3.350   1.493   1.534
 6497SOL     OW20389   0.303   1.412   0.636
 6497SOL    HW120390   0.274   1.470   0.559
 6497SOL    HW220391   0.320   1.319   0.603
 6498SOL     OW20392   0.780   4.317   4.322
 6498SOL    HW120393   0.752   4.376   4.398
 6498SOL    HW220394   0.786   4.222   4.354
 6499SOL     OW20395   5.140   3.825   3.029
 6499SOL    HW120396   5.046   3.846   3.053
 6499SOL    HW220397   5.167   3.876   2.947
 6500SOL     OW20398   1.392   4.401   3.029
 6500SOL    HW120399   1.363   4.317   2.985
 6500SOL    HW220400   1.417   4.382   3.124
 6501SOL     OW20401   6.258   2.224   1.199
 6501SOL    HW120402   6.311   2.193   1.120
 6501SOL    HW220403   6.238   2.321   1.190
 6502SOL     OW20404   6.579   3.750   1.988
 6502SOL    HW120405   6.667   3.766   2.033
 6502SOL    HW220406   6.593   3.693   1.908
 6503SOL     OW20407   6.544   3.303   5.517
 6503SOL    HW120408   6.481   3.255   5.456
 6503SOL    HW220409   6.534   3.267   5.610
 6504SOL     OW20410   4.686   5.902   6.631
 6504SOL    HW120411   4.670   5.983   6.686
 6504SOL    HW220412   4.752   5.923   6.558
 6505SOL     OW20413   0.257   5.974   0.881
 6505SOL    HW120414   0.303   6.048   0.928
 6505SOL    HW220415   0.201   6.011   0.806
 6506SOL     OW20416   6.982   4.235   2.252
 6506SOL    HW120417   0.009   4.229   2.163
 6506SOL    HW220418   7.005   4.154   2.306
 6507SOL     OW20419   3.567   4.301   6.611
 6507SOL    HW120420   3.576   4.398   6.587
 6507SOL    HW220421   3.653   4.268   6.649
 6508SOL     OW20422   0.809   0.113   2.685
 6508SOL    HW120423   0.859   0.120   2.599
 6508SOL    HW220424   0.861   0.158   2.758
 6509SOL     OW20425   3.160   1.934   6.292
 6509SOL    HW120426   3.181   1.924   6.389
 6509SOL    HW220427   3.066   1.965   6.281
 6510SOL     OW20428   3.787   5.840   5.885
 6510SOL    HW120429   3.884   5.847   5.862
 6510SOL    HW220430   3.768   5.750   5.924
 6511SOL     OW20431   3.309   0.942   0.164
 6511SOL    HW120432   3.367   0.900   0.234
 6511SOL    HW220433   3.221   0.968   0.205
 6512SOL     OW20434   4.050   1.588   0.481
 6512SOL    HW120435   3.990   1.533   0.424
 6512SOL    HW220436   4.118   1.634   0.423
 6513SOL     OW20437   2.099   5.002   3.305
 6513SOL    HW120438   2.064   4.911   3.324
 6513SOL    HW220439   2.143   5.039   3.387
 6514SOL     OW20440   5.517   0.011   5.731
 6514SOL    HW120441   5.491   0.100   5.693
 6514SOL    HW220442   5.606   7.003   5.695
 6515SOL     OW20443   2.217   5.361   2.173
 6515SOL    HW120444   2.249   5.266   2.165
 6515SOL    HW220445   2.238   5.410   2.089
 6516SOL     OW20446   6.748   4.116   1.255
 6516SOL    HW120447   6.708   4.167   1.179
 6516SOL    HW220448   6.807   4.177   1.308
 6517SOL     OW20449   6.776   2.943   0.611
 6517SOL    HW120450   6.861   2.890   0.605
 6517SOL    HW220451   6.760   2.969   0.706
 6518SOL     OW20452   1.083   1.940   3.151
 6518SOL    HW120453   1.056   2.020   3.203
 6518SOL    HW220454   1.141   1.967   3.074
 6519SOL     OW20455   1.560   1.154   2.939
 6519SOL    HW120456   1.572   1.127   2.844
 6519SOL    HW220457   1.494   1.093   2.983
 6520SOL     OW20458   0.508   5.432   0.066
 6520SOL    HW120459   0.453   5.359   0.025
 6520SOL    HW220460   0.589   5.394   0.110
 6521SOL     OW20461   0.862   3.889   3.958
 6521SOL    HW120462   0.790   3.849   4.015
 6521SOL    HW220463   0.949   3.842   3.975
 6522SOL     OW20464   2.995   3.176   5.039
 6522SOL    HW120465   2.971   3.080   5.051
 6522SOL    HW220466   3.094   3.184   5.026
 6523SOL     OW20467   5.480   6.924   0.421
 6523SOL    HW120468   5.557   6.978   0.388
 6523SOL    HW220469   5.423   6.896   0.345
 6524SOL     OW20470   2.558   2.684   1.324
 6524SOL    HW120471   2.488   2.623   1.288
 6524SOL    HW220472   2.588   2.747   1.253
 6525SOL     OW20473   1.039   4.652   3.532
 6525SOL    HW120474   1.070   4.635   3.438
 6525SOL    HW220475   0.977   4.579   3.561
 6526SOL     OW20476   0.831   6.500   0.056
 6526SOL    HW120477   0.779   6.495   0.141
 6526SOL    HW220478   0.839   6.409   0.016
 6527SOL     OW20479   0.385   2.119   0.475
 6527SOL    HW120480   0.369   2.154   0.383
 6527SOL    HW220481   0.300   2.080   0.511
 6528SOL     OW20482   4.920   0.380   6.574
 6528SOL    HW120483   4.902   0.313   6.502
 6528SOL    HW220484   5.009   0.422   6.558
 6529SOL     OW20485   6.521   1.210   2.279
 6529SOL    HW120486   6.522   1.130   2.339
 6529SOL    HW220487   6.615   1.232   2.252
 6530SOL     OW20488   1.006   3.088   2.589
 6530SOL    HW120489   1.068   3.114   2.515
 6530SOL    HW220490   0.942   3.163   2.607
 6531SOL     OW20491   3.851   4.107   4.903
 6531SOL    HW120492   3.907   4.190   4.901
 6531SOL    HW220493   3.791   4.105   4.823
 6532SOL     OW20494   1.143   0.734   0.799
 6532SOL    HW120495   1.235   0.703   0.776
 6532SOL    HW220496   1.097   0.767   0.717
 6533SOL     OW20497   4.798   3.625   0.903
 6533SOL    HW120498   4.790   3.540   0.850
 6533SOL    HW220499   4.797   3.603   1.001
 6534SOL     OW20500   6.743   4.301   3.102
 6534SOL    HW120501   6.660   4.263   3.061
 6534SOL    HW220502   6.805   4.330   3.030
 6535SOL     OW20503   5.978   2.980   5.300
 6535SOL    HW120504   5.986   2.938   5.209
 6535SOL    HW220505   6.037   2.932   5.364
 6536SOL     OW20506   0.624   3.745   5.426
 6536SOL    HW120507   0.580   3.709   5.344
 6536SOL    HW220508   0.561   3.741   5.503
 6537SOL     OW20509   6.008   5.371   4.154
 6537SOL    HW120510   5.938   5.427   4.109
 6537SOL    HW220511   5.972   5.334   4.239
 6538SOL     OW20512   2.707   3.196   5.642
 6538SOL    HW120513   2.624   3.143   5.623
 6538SOL    HW220514   2.718   3.265   5.571
 6539SOL     OW20515   5.817   1.008   5.547
 6539SOL    HW120516   5.837   0.935   5.482
 6539SOL    HW220517   5.743   1.065   5.509
 6540SOL     OW20518   6.431   2.896   5.709
 6540SOL    HW120519   6.436   2.797   5.696
 6540SOL    HW220520   6.402   2.915   5.803
 6541SOL     OW20521   5.971   0.568   4.741
 6541SOL    HW120522   6.008   0.648   4.693
 6541SOL    HW220523   6.010   0.564   4.833
 6542SOL     OW20524   1.376   4.355   3.491
 6542SOL    HW120525   1.299   4.319   3.544
 6542SOL    HW220526   1.364   4.332   3.395
 6543SOL     OW20527   4.022   1.855   4.877
 6543SOL    HW120528   3.949   1.918   4.905
 6543SOL    HW220529   4.110   1.899   4.890
 6544SOL     OW20530   1.289   6.610   1.254
 6544SOL    HW120531   1.372   6.555   1.248
 6544SOL    HW220532   1.299   6.678   1.328
 6545SOL     OW20533   4.105   6.980   0.246
 6545SOL    HW120534   4.166   6.910   0.283
 6545SOL    HW220535   4.136   7.006   0.155
 6546SOL     OW20536   4.703   3.346   6.518
 6546SOL    HW120537   4.752   3.418   6.566
 6546SOL    HW220538   4.609   3.375   6.501
 6547SOL     OW20539   6.726   5.299   6.689
 6547SOL    HW120540   6.765   5.310   6.598
 6547SOL    HW220541   6.799   5.293   6.757
 6548SOL     OW20542   0.386   1.645   5.444
 6548SOL    HW120543   0.310   1.589   5.410
 6548SOL    HW220544   0.351   1.733   5.477
 6549SOL     OW20545   4.871   0.496   1.881
 6549SOL    HW120546   4.937   0.555   1.834
 6549SOL    HW220547   4.888   0.400   1.856
 6550SOL     OW20548   6.035   0.225   3.242
 6550SOL    HW120549   6.060   0.165   3.167
 6550SOL    HW220550   5.949   0.273   3.220
 6551SOL     OW20551   2.886   4.018   0.482
 6551SOL    HW120552   2.982   4.039   0.496
 6551SOL    HW220553   2.845   3.989   0.569
 6552SOL     OW20554   1.996   6.228   0.309
 6552SOL    HW120555   1.947   6.141   0.317
 6552SOL    HW220556   1.930   6.301   0.288
 6553SOL     OW20557   0.451   1.686   4.115
 6553SOL    HW120558   0.403   1.699   4.202
 6553SOL    HW220559   0.512   1.763   4.099
 6554SOL     OW20560   2.576   1.130   4.438
 6554SOL    HW120561   2.619   1.145   4.528
 6554SOL    HW220562   2.603   1.203   4.376
 6555SOL     OW20563   6.744   3.755   3.816
 6555SOL    HW120564   6.782   3.797   3.899
 6555SOL    HW220565   6.769   3.658   3.814
 6556SOL     OW20566   4.913   2.918   2.944
 6556SOL    HW120567   4.931   2.910   2.846
 6556SOL    HW220568   4.897   2.828   2.982
 6557SOL     OW20569   2.336   0.128   1.842
 6557SOL    HW120570   2.294   0.037   1.845
 6557SOL    HW220571   2.311   0.179   1.925
 6558SOL     OW20572   5.259   5.271   0.402
 6558SOL    HW120573   5.351   5.306   0.421
 6558SOL    HW220574   5.208   5.265   0.487
 6559SOL     OW20575   0.170   2.359   6.272
 6559SOL    HW120576   0.183   2.438   6.332
 6559SOL    HW220577   0.254   2.341   6.222
 6560SOL     OW20578   5.837   5.193   0.686
 6560SOL    HW120579   5.801   5.283   0.660
 6560SOL    HW220580   5.820   5.127   0.614
 6561SOL     OW20581   3.841   4.273   0.398
 6561SOL    HW120582   3.754   4.278   0.447
 6561SOL    HW220583   3.887   4.187   0.419
 6562SOL     OW20584   5.611   3.234   1.276
 6562SOL    HW120585   5.634   3.264   1.184
 6562SOL    HW220586   5.623   3.135   1.283
 6563SOL     OW20587   5.055   5.970   5.319
 6563SOL    HW120588   5.068   5.958   5.418
 6563SOL    HW220589   4.978   5.913   5.289
 6564SOL     OW20590   6.538   3.718   2.994
 6564SOL    HW120591   6.510   3.787   2.928
 6564SOL    HW220592   6.482   3.725   3.076
 6565SOL     OW20593   5.500   0.581   3.063
 6565SOL    HW120594   5.531   0.676   3.076
 6565SOL    HW220595   5.535   0.525   3.138
 6566SOL     OW20596   4.878   6.125   2.833
 6566SOL    HW120597   4.915   6.035   2.810
 6566SOL    HW220598   4.949   6.194   2.824
 6567SOL     OW20599   4.405   0.648   1.267
 6567SOL    HW120600   4.380   0.742   1.288
 6567SOL    HW220601   4.480   0.647   1.202
 6568SOL     OW20602   4.452   1.150   1.184
 6568SOL    HW120603   4.400   1.140   1.098
 6568SOL    HW220604   4.390   1.175   1.258
 6569SOL     OW20605   6.836   4.302   5.841
 6569SOL    HW120606   6.742   4.278   5.866
 6569SOL    HW220607   6.866   4.382   5.894
 6570SOL     OW20608   4.176   6.814   1.875
 6570SOL    HW120609   4.104   6.755   1.838
 6570SOL    HW220610   4.192   6.790   1.971
 6571SOL     OW20611   3.139   6.006   2.482
 6571SOL    HW120612   3.230   6.006   2.439
 6571SOL    HW220613   3.090   5.922   2.457
 6572SOL     OW20614   1.024   5.635   3.800
 6572SOL    HW120615   1.123   5.648   3.793
 6572SOL    HW220616   0.977   5.705   3.747
 6573SOL     OW20617   1.621   1.460   3.889
 6573SOL    HW120618   1.652   1.370   3.919
 6573SOL    HW220619   1.632   1.468   3.790
 6574SOL     OW20620   1.512   6.115   1.982
 6574SOL    HW120621   1.424   6.159   1.966
 6574SOL    HW220622   1.583   6.163   1.931
 6575SOL     OW20623   6.745   1.089   2.912
 6575SOL    HW120624   6.734   1.099   3.010
 6575SOL    HW220625   6.675   1.027   2.876
 6576SOL     OW20626   4.457   6.278   1.190
 6576SOL    HW120627   4.513   6.250   1.268
 6576SOL    HW220628   4.364   6.298   1.221
 6577SOL     OW20629   2.605   1.016   3.807
 6577SOL    HW120630   2.578   0.967   3.724
 6577SOL    HW220631   2.565   0.970   3.887
 6578SOL     OW20632   1.635   5.056   1.905
 6578SOL    HW120633   1.557   4.996   1.926
 6578SOL    HW220634   1.625   5.142   1.955
 6579SOL     OW20635   6.574   0.799   4.086
 6579SOL    HW120636   6.508   0.851   4.141
 6579SOL    HW220637   6.632   0.863   4.035
 6580SOL     OW20638   1.420   1.280   6.984
 6580SOL    HW120639   1.505   1.243   6.946
 6580SOL    HW220640   1.342   1.245   6.933
 6581SOL     OW20641   1.182   2.369   0.104
 6581SOL    HW120642   1.239   2.433   0.053
 6581SOL    HW220643   1.157   2.408   0.192
 6582SOL     OW20644   6.820   1.525   3.326
 6582SOL    HW120645   6.728   1.503   3.292
 6582SOL    HW220646   6.888   1.495   3.260
 6583SOL     OW20647   4.083   5.968   6.341
 6583SOL    HW120648   4.024   6.040   6.377
 6583SOL    HW220649   4.079   5.968   6.241
 6584SOL     OW20650   3.811   2.890   0.521
 6584SOL    HW120651   3.798   2.798   0.558
 6584SOL    HW220652   3.866   2.885   0.437
 6585SOL     OW20653   6.208   6.599   0.730
 6585SOL    HW120654   6.307   6.615   0.735
 6585SOL    HW220655   6.184   6.525   0.792
 6586SOL     OW20656   6.288   2.263   6.577
 6586SOL    HW120657   6.307   2.200   6.502
 6586SOL    HW220658   6.266   2.211   6.660
 6587SOL     OW20659   1.323   4.895   5.759
 6587SOL    HW120660   1.407   4.879   5.707
 6587SOL    HW220661   1.255   4.826   5.735
 6588SOL     OW20662   6.489   3.650   0.506
 6588SOL    HW120663   6.433   3.730   0.526
 6588SOL    HW220664   6.553   3.635   0.581
 6589SOL     OW20665   0.282   0.592   2.127
 6589SOL    HW120666   0.184   0.599   2.148
 6589SOL    HW220667   0.324   0.524   2.187
 6590SOL     OW20668   1.421   0.194   3.869
 6590SOL    HW120669   1.339   0.161   3.821
 6590SOL    HW220670   1.495   0.129   3.854
 6591SOL     OW20671   5.577   4.194   4.334
 6591SOL    HW120672   5.536   4.283   4.353
 6591SOL    HW220673   5.663   4.186   4.385
 6592SOL     OW20674   6.186   6.809   2.351
 6592SOL    HW120675   6.269   6.821   2.297
 6592SOL    HW220676   6.113   6.770   2.295
 6593SOL     OW20677   2.834   2.087   1.936
 6593SOL    HW120678   2.853   2.173   1.983
 6593SOL    HW220679   2.775   2.031   1.995
 6594SOL     OW20680   4.647   1.214   6.568
 6594SOL    HW120681   4.655   1.178   6.475
 6594SOL    HW220682   4.662   1.313   6.567
 6595SOL     OW20683   1.524   2.608   5.723
 6595SOL    HW120684   1.506   2.664   5.804
 6595SOL    HW220685   1.619   2.620   5.695
 6596SOL     OW20686   6.105   6.187   2.771
 6596SOL    HW120687   6.083   6.118   2.702
 6596SOL    HW220688   6.021   6.232   2.801
 6597SOL     OW20689   1.592   4.704   2.113
 6597SOL    HW120690   1.657   4.752   2.054
 6597SOL    HW220691   1.544   4.771   2.171
 6598SOL     OW20692   2.068   4.740   4.385
 6598SOL    HW120693   2.118   4.819   4.350
 6598SOL    HW220694   1.996   4.714   4.321
 6599SOL     OW20695   6.050   5.403   6.531
 6599SOL    HW120696   6.098   5.321   6.500
 6599SOL    HW220697   6.007   5.448   6.452
 6600SOL     OW20698   4.620   0.176   5.125
 6600SOL    HW120699   4.548   0.127   5.175
 6600SOL    HW220700   4.628   0.138   5.033
 6601SOL     OW20701   1.623   1.800   1.575
 6601SOL    HW120702   1.531   1.783   1.539
 6601SOL    HW220703   1.690   1.790   1.501
 6602SOL     OW20704   1.938   6.441   1.454
 6602SOL    HW120705   2.011   6.464   1.389
 6602SOL    HW220706   1.860   6.403   1.404
 6603SOL     OW20707   0.067   3.694   2.768
 6603SOL    HW120708   7.003   3.646   2.797
 6603SOL    HW220709   0.146   3.655   2.816
 6604SOL     OW20710   2.230   6.263   2.145
 6604SOL    HW120711   2.146   6.227   2.103
 6604SOL    HW220712   2.207   6.340   2.205
 6605SOL     OW20713   0.174   5.786   1.048
 6605SOL    HW120714   0.160   5.704   0.994
 6605SOL    HW220715   0.205   5.861   0.989
 6606SOL     OW20716   1.786   3.886   3.367
 6606SOL    HW120717   1.748   3.851   3.452
 6606SOL    HW220718   1.721   3.870   3.292
 6607SOL     OW20719   5.992   4.168   3.459
 6607SOL    HW120720   5.940   4.180   3.543
 6607SOL    HW220721   5.972   4.243   3.396
 6608SOL     OW20722   1.171   5.973   5.937
 6608SOL    HW120723   1.206   5.978   5.844
 6608SOL    HW220724   1.106   5.897   5.944
 6609SOL     OW20725   4.486   1.830   6.117
 6609SOL    HW120726   4.521   1.880   6.196
 6609SOL    HW220727   4.559   1.817   6.050
 6610SOL     OW20728   3.231   4.965   1.148
 6610SOL    HW120729   3.170   5.042   1.167
 6610SOL    HW220730   3.318   4.979   1.196
 6611SOL     OW20731   4.448   1.875   3.917
 6611SOL    HW120732   4.458   1.796   3.977
 6611SOL    HW220733   4.379   1.854   3.847
 6612SOL     OW20734   6.963   1.383   6.020
 6612SOL    HW120735   6.893   1.374   6.091
 6612SOL    HW220736   6.934   1.451   5.953
 6613SOL     OW20737   4.623   6.717   6.888
 6613SOL    HW120738   4.619   6.644   6.819
 6613SOL    HW220739   4.586   6.801   6.850
 6614SOL     OW20740   4.271   5.427   1.337
 6614SOL    HW120741   4.366   5.395   1.332
 6614SOL    HW220742   4.244   5.464   1.248
 6615SOL     OW20743   3.139   4.424   6.792
 6615SOL    HW120744   3.082   4.360   6.844
 6615SOL    HW220745   3.225   4.439   6.840
 6616SOL     OW20746   4.240   1.021   5.589
 6616SOL    HW120747   4.235   1.072   5.504
 6616SOL    HW220748   4.208   1.078   5.665
 6617SOL     OW20749   3.733   0.175   4.019
 6617SOL    HW120750   3.805   0.184   3.951
 6617SOL    HW220751   3.755   0.098   4.080
 6618SOL     OW20752   6.576   2.232   2.551
 6618SOL    HW120753   6.567   2.323   2.512
 6618SOL    HW220754   6.537   2.232   2.643
 6619SOL     OW20755   4.843   6.322   3.877
 6619SOL    HW120756   4.763   6.382   3.877
 6619SOL    HW220757   4.827   6.246   3.814
 6620SOL     OW20758   0.747   3.527   3.038
 6620SOL    HW120759   0.753   3.435   3.078
 6620SOL    HW220760   0.704   3.522   2.949
 6621SOL     OW20761   3.950   3.435   4.751
 6621SOL    HW120762   3.883   3.449   4.824
 6621SOL    HW220763   4.015   3.511   4.750
 6622SOL     OW20764   0.719   5.485   0.704
 6622SOL    HW120765   0.761   5.427   0.634
 6622SOL    HW220766   0.644   5.537   0.663
 6623SOL     OW20767   3.559   3.991   5.933
 6623SOL    HW120768   3.561   3.891   5.945
 6623SOL    HW220769   3.609   4.015   5.850
 6624SOL     OW20770   1.784   2.233   3.858
 6624SOL    HW120771   1.765   2.136   3.868
 6624SOL    HW220772   1.763   2.280   3.944
 6625SOL     OW20773   5.900   3.286   6.038
 6625SOL    HW120774   5.817   3.239   6.008
 6625SOL    HW220775   5.931   3.350   5.968
 6626SOL     OW20776   2.420   6.364   4.887
 6626SOL    HW120777   2.489   6.436   4.876
 6626SOL    HW220778   2.463   6.275   4.877
 6627SOL     OW20779   1.830   5.962   4.402
 6627SOL    HW120780   1.912   5.970   4.346
 6627SOL    HW220781   1.835   5.879   4.457
 6628SOL     OW20782   4.544   6.191   4.477
 6628SOL    HW120783   4.578   6.130   4.549
 6628SOL    HW220784   4.480   6.257   4.517
 6629SOL     OW20785   5.393   5.526   6.510
 6629SOL    HW120786   5.487   5.542   6.537
 6629SOL    HW220787   5.335   5.602   6.541
 6630SOL     OW20788   2.205   1.824   1.777
 6630SOL    HW120789   2.251   1.738   1.754
 6630SOL    HW220790   2.107   1.813   1.764
 6631SOL     OW20791   2.229   4.457   6.652
 6631SOL    HW120792   2.296   4.430   6.582
 6631SOL    HW220793   2.139   4.464   6.610
 6632SOL     OW20794   1.334   1.091   1.123
 6632SOL    HW120795   1.303   1.045   1.040
 6632SOL    HW220796   1.280   1.061   1.201
 6633SOL     OW20797   3.695   5.595   5.962
 6633SOL    HW120798   3.599   5.581   5.984
 6633SOL    HW220799   3.724   5.527   5.895
 6634SOL     OW20800   4.420   1.990   4.295
 6634SOL    HW120801   4.478   2.063   4.330
 6634SOL    HW220802   4.426   1.911   4.356
 6635SOL     OW20803   5.091   4.811   3.086
 6635SOL    HW120804   5.001   4.769   3.099
 6635SOL    HW220805   5.159   4.739   3.072
 6636SOL     OW20806   3.859   0.371   0.507
 6636SOL    HW120807   3.918   0.292   0.492
 6636SOL    HW220808   3.767   0.340   0.532
 6637SOL     OW20809   1.629   1.156   1.381
 6637SOL    HW120810   1.696   1.202   1.440
 6637SOL    HW220811   1.587   1.222   1.319
 6638SOL     OW20812   3.011   3.140   3.672
 6638SOL    HW120813   3.039   3.236   3.663
 6638SOL    HW220814   2.925   3.126   3.624
 6639SOL     OW20815   4.947   3.115   1.401
 6639SOL    HW120816   4.943   3.066   1.314
 6639SOL    HW220817   4.897   3.202   1.394
 6640SOL     OW20818   0.921   2.600   4.751
 6640SOL    HW120819   0.907   2.607   4.850
 6640SOL    HW220820   0.837   2.624   4.704
 6641SOL     OW20821   4.617   2.057   0.913
 6641SOL    HW120822   4.648   2.150   0.896
 6641SOL    HW220823   4.518   2.057   0.924
 6642SOL     OW20824   1.070   5.968   0.836
 6642SOL    HW120825   1.057   5.940   0.931
 6642SOL    HW220826   0.985   5.954   0.786
 6643SOL     OW20827   4.432   6.316   6.659
 6643SOL    HW120828   4.458   6.301   6.563
 6643SOL    HW220829   4.334   6.336   6.664
 6644SOL     OW20830   1.924   6.636   3.369
 6644SOL    HW120831   1.828   6.661   3.377
 6644SOL    HW220832   1.980   6.719   3.362
 6645SOL     OW20833   5.826   2.772   0.607
 6645SOL    HW120834   5.823   2.680   0.569
 6645SOL    HW220835   5.744   2.822   0.580
 6646SOL     OW20836   4.743   0.035   6.157
 6646SOL    HW120837   4.715   0.064   6.065
 6646SOL    HW220838   4.828   7.001   6.151
 6647SOL     OW20839   4.579   4.726   1.242
 6647SOL    HW120840   4.543   4.809   1.199
 6647SOL    HW220841   4.507   4.683   1.296
 6648SOL     OW20842   2.604   6.063   5.633
 6648SOL    HW120843   2.598   6.016   5.545
 6648SOL    HW220844   2.567   6.004   5.705
 6649SOL     OW20845   5.671   2.885   6.785
 6649SOL    HW120846   5.659   2.980   6.757
 6649SOL    HW220847   5.697   2.882   6.882
 6650SOL     OW20848   2.424   1.731   5.353
 6650SOL    HW120849   2.331   1.732   5.389
 6650SOL    HW220850   2.475   1.654   5.393
 6651SOL     OW20851   6.586   1.929   6.448
 6651SOL    HW120852   6.660   1.932   6.380
 6651SOL    HW220853   6.506   1.884   6.408
 6652SOL     OW20854   0.199   4.594   0.523
 6652SOL    HW120855   0.131   4.657   0.560
 6652SOL    HW220856   0.166   4.500   0.533
 6653SOL     OW20857   5.349   4.269   0.441
 6653SOL    HW120858   5.254   4.257   0.411
 6653SOL    HW220859   5.387   4.180   0.464
 6654SOL     OW20860   0.350   4.517   2.890
 6654SOL    HW120861   0.296   4.523   2.806
 6654SOL    HW220862   0.317   4.586   2.955
 6655SOL     OW20863   6.502   5.357   1.922
 6655SOL    HW120864   6.507   5.434   1.858
 6655SOL    HW220865   6.473   5.275   1.874
 6656SOL     OW20866   4.057   1.655   2.751
 6656SOL    HW120867   4.026   1.681   2.659
 6656SOL    HW220868   4.053   1.735   2.811
 6657SOL     OW20869   5.467   2.025   3.771
 6657SOL    HW120870   5.375   2.062   3.784
 6657SOL    HW220871   5.525   2.054   3.846
 6658SOL     OW20872   6.036   5.768   4.992
 6658SOL    HW120873   6.019   5.805   4.900
 6658SOL    HW220874   6.040   5.668   4.987
 6659SOL     OW20875   0.987   5.108   2.225
 6659SOL    HW120876   1.063   5.094   2.161
 6659SOL    HW220877   0.907   5.141   2.175
 6660SOL     OW20878   6.595   6.006   3.413
 6660SOL    HW120879   6.561   6.081   3.357
 6660SOL    HW220880   6.693   5.993   3.397
 6661SOL     OW20881   3.861   6.486   4.378
 6661SOL    HW120882   3.854   6.488   4.478
 6661SOL    HW220883   3.907   6.403   4.349
 6662SOL     OW20884   3.160   0.080   2.761
 6662SOL    HW120885   3.258   0.065   2.746
 6662SOL    HW220886   3.133   0.167   2.720
 6663SOL     OW20887   0.779   4.377   5.926
 6663SOL    HW120888   0.685   4.345   5.918
 6663SOL    HW220889   0.827   4.323   5.995
 6664SOL     OW20890   2.748   0.530   1.533
 6664SOL    HW120891   2.704   0.559   1.448
 6664SOL    HW220892   2.804   0.450   1.517
 6665SOL     OW20893   2.235   0.602   5.520
 6665SOL    HW120894   2.261   0.531   5.454
 6665SOL    HW220895   2.162   0.566   5.579
 6666SOL     OW20896   4.360   6.870   5.518
 6666SOL    HW120897   4.428   6.924   5.568
 6666SOL    HW220898   4.346   6.783   5.565
 6667SOL     OW20899   0.432   6.056   6.522
 6667SOL    HW120900   0.425   6.031   6.619
 6667SOL    HW220901   0.419   5.975   6.465
 6668SOL     OW20902   0.239   6.099   0.641
 6668SOL    HW120903   0.338   6.104   0.648
 6668SOL    HW220904   0.213   6.085   0.546
 6669SOL     OW20905   1.830   1.072   3.001
 6669SOL    HW120906   1.739   1.093   2.965
 6669SOL    HW220907   1.848   0.975   2.990
 6670SOL     OW20908   4.048   2.577   0.930
 6670SOL    HW120909   3.989   2.541   0.859
 6670SOL    HW220910   4.142   2.580   0.898
 6671SOL     OW20911   4.454   5.965   0.435
 6671SOL    HW120912   4.396   5.884   0.431
 6671SOL    HW220913   4.401   6.042   0.470
 6672SOL     OW20914   1.583   2.655   1.157
 6672SOL    HW120915   1.593   2.725   1.086
 6672SOL    HW220916   1.490   2.618   1.154
 6673SOL     OW20917   5.470   3.666   4.259
 6673SOL    HW120918   5.499   3.728   4.186
 6673SOL    HW220919   5.418   3.717   4.327
 6674SOL     OW20920   7.003   2.769   0.016
 6674SOL    HW120921   6.930   2.704   0.036
 6674SOL    HW220922   0.045   2.776   0.096
 6675SOL     OW20923   5.150   2.050   6.991
 6675SOL    HW120924   5.122   2.051   6.895
 6675SOL    HW220925   5.250   2.046   6.997
 6676SOL     OW20926   1.426   3.724   3.433
 6676SOL    HW120927   1.433   3.733   3.334
 6676SOL    HW220928   1.515   3.699   3.471
 6677SOL     OW20929   0.495   2.094   0.728
 6677SOL    HW120930   0.453   2.106   0.638
 6677SOL    HW220931   0.560   2.019   0.724
 6678SOL     OW20932   1.792   4.655   0.194
 6678SOL    HW120933   1.767   4.638   0.099
 6678SOL    HW220934   1.728   4.720   0.235
 6679SOL     OW20935   2.147   1.361   3.735
 6679SOL    HW120936   2.097   1.378   3.820
 6679SOL    HW220937   2.222   1.297   3.752
 6680SOL     OW20938   5.980   6.710   1.216
 6680SOL    HW120939   6.061   6.743   1.166
 6680SOL    HW220940   6.009   6.645   1.287
 6681SOL     OW20941   3.532   6.102   1.176
 6681SOL    HW120942   3.563   6.041   1.250
 6681SOL    HW220943   3.611   6.148   1.137
 6682SOL     OW20944   2.938   5.305   6.386
 6682SOL    HW120945   2.997   5.360   6.446
 6682SOL    HW220946   2.993   5.238   6.337
 6683SOL     OW20947   6.342   3.860   6.530
 6683SOL    HW120948   6.339   3.841   6.628
 6683SOL    HW220949   6.253   3.839   6.490
 6684SOL     OW20950   2.891   6.636   1.195
 6684SOL    HW120951   2.929   6.682   1.275
 6684SOL    HW220952   2.961   6.627   1.125
 6685SOL     OW20953   4.716   3.284   6.930
 6685SOL    HW120954   4.713   3.323   6.838
 6685SOL    HW220955   4.622   3.272   6.965
 6686SOL     OW20956   5.540   5.446   3.703
 6686SOL    HW120957   5.633   5.408   3.708
 6686SOL    HW220958   5.516   5.486   3.791
 6687SOL     OW20959   6.745   2.306   1.499
 6687SOL    HW120960   6.799   2.222   1.493
 6687SOL    HW220961   6.690   2.305   1.582
 6688SOL     OW20962   3.898   5.747   0.307
 6688SOL    HW120963   3.892   5.784   0.214
 6688SOL    HW220964   3.916   5.822   0.371
 6689SOL     OW20965   1.882   4.631   6.136
 6689SOL    HW120966   1.897   4.730   6.125
 6689SOL    HW220967   1.906   4.585   6.051
 6690SOL     OW20968   1.172   6.999   6.213
 6690SOL    HW120969   1.172   6.899   6.221
 6690SOL    HW220970   1.248   0.009   6.155
 6691SOL     OW20971   2.448   2.559   2.930
 6691SOL    HW120972   2.363   2.614   2.929
 6691SOL    HW220973   2.488   2.559   2.839
 6692SOL     OW20974   4.902   5.261   1.410
 6692SOL    HW120975   4.889   5.222   1.501
 6692SOL    HW220976   4.872   5.195   1.341
 6693SOL     OW20977   4.334   1.763   4.760
 6693SOL    HW120978   4.263   1.715   4.708
 6693SOL    HW220979   4.409   1.699   4.780
 6694SOL     OW20980   3.559   5.046   0.735
 6694SOL    HW120981   3.462   5.024   0.729
 6694SOL    HW220982   3.582   5.072   0.829
 6695SOL     OW20983   2.650   2.137   6.523
 6695SOL    HW120984   2.711   2.120   6.445
 6695SOL    HW220985   2.561   2.167   6.490
 6696SOL     OW20986   4.019   3.845   4.080
 6696SOL    HW120987   4.077   3.766   4.059
 6696SOL    HW220988   4.013   3.857   4.179
 6697SOL     OW20989   4.583   2.576   2.284
 6697SOL    HW120990   4.680   2.599   2.273
 6697SOL    HW220991   4.528   2.659   2.278
 6698SOL     OW20992   3.641   4.009   1.570
 6698SOL    HW120993   3.659   4.055   1.656
 6698SOL    HW220994   3.543   4.011   1.550
 6699SOL     OW20995   1.416   4.748   5.527
 6699SOL    HW120996   1.420   4.746   5.427
 6699SOL    HW220997   1.339   4.693   5.559
 6700SOL     OW20998   5.699   6.938   6.977
 6700SOL    HW120999   5.741   0.003   7.010
 6700SOL    HW221000   5.609   6.958   6.939
 6701SOL     OW21001   6.132   0.444   1.231
 6701SOL    HW121002   6.081   0.359   1.215
 6701SOL    HW221003   6.205   0.452   1.164
 6702SOL     OW21004   3.140   2.616   0.841
 6702SOL    HW121005   3.210   2.595   0.773
 6702SOL    HW221006   3.183   2.635   0.929
 6703SOL     OW21007   0.602   1.548   6.961
 6703SOL    HW121008   0.603   1.449   6.975
 6703SOL    HW221009   0.538   1.590   0.006
 6704SOL     OW21010   3.480   0.927   5.059
 6704SOL    HW121011   3.465   0.907   5.156
 6704SOL    HW221012   3.533   1.011   5.049
 6705SOL     OW21013   6.343   3.728   2.094
 6705SOL    HW121014   6.437   3.710   2.065
 6705SOL    HW221015   6.279   3.687   2.028
 6706SOL     OW21016   0.355   6.746   1.978
 6706SOL    HW121017   0.259   6.724   1.959
 6706SOL    HW221018   0.375   6.728   2.074
 6707SOL     OW21019   5.913   0.461   2.145
 6707SOL    HW121020   5.851   0.428   2.074
 6707SOL    HW221021   5.860   0.494   2.223
 6708SOL     OW21022   0.202   3.965   1.789
 6708SOL    HW121023   0.286   3.939   1.741
 6708SOL    HW221024   0.152   4.032   1.735
 6709SOL     OW21025   1.679   5.006   2.400
 6709SOL    HW121026   1.686   5.016   2.500
 6709SOL    HW221027   1.758   4.954   2.367
 6710SOL     OW21028   4.664   1.299   1.671
 6710SOL    HW121029   4.679   1.332   1.578
 6710SOL    HW221030   4.717   1.215   1.684
 6711SOL     OW21031   4.105   6.038   6.046
 6711SOL    HW121032   4.128   5.983   5.966
 6711SOL    HW221033   4.182   6.099   6.068
 6712SOL     OW21034   6.304   3.481   1.362
 6712SOL    HW121035   6.352   3.466   1.275
 6712SOL    HW221036   6.278   3.577   1.370
 6713SOL     OW21037   1.457   6.289   4.457
 6713SOL    HW121038   1.504   6.340   4.386
 6713SOL    HW221039   1.429   6.200   4.421
 6714SOL     OW21040   5.408   0.955   0.597
 6714SOL    HW121041   5.394   1.036   0.541
 6714SOL    HW221042   5.331   0.892   0.586
 6715SOL     OW21043   0.962   1.068   0.254
 6715SOL    HW121044   0.992   1.128   0.180
 6715SOL    HW221045   0.987   0.974   0.233
 6716SOL     OW21046   6.805   5.348   2.810
 6716SOL    HW121047   6.810   5.263   2.862
 6716SOL    HW221048   6.713   5.358   2.773
 6717SOL     OW21049   4.201   2.558   6.193
 6717SOL    HW121050   4.198   2.534   6.096
 6717SOL    HW221051   4.178   2.655   6.204
 6718SOL     OW21052   3.752   0.083   1.630
 6718SOL    HW121053   3.772   0.146   1.705
 6718SOL    HW221054   3.666   0.108   1.587
 6719SOL     OW21055   1.935   0.982   0.047
 6719SOL    HW121056   1.837   0.962   0.049
 6719SOL    HW221057   1.950   1.075   0.079
 6720SOL     OW21058   1.990   0.536   6.106
 6720SOL    HW121059   2.062   0.468   6.120
 6720SOL    HW221060   2.014   0.595   6.028
 6721SOL     OW21061   0.657   1.680   0.916
 6721SOL    HW121062   0.595   1.752   0.945
 6721SOL    HW221063   0.685   1.697   0.821
 6722SOL     OW21064   6.482   3.253   0.542
 6722SOL    HW121065   6.416   3.326   0.526
 6722SOL    HW221066   6.436   3.175   0.585
 6723SOL     OW21067   1.978   2.154   0.026
 6723SOL    HW121068   1.885   2.133   7.016
 6723SOL    HW221069   2.042   2.089   7.005
 6724SOL     OW21070   2.321   3.402   5.774
 6724SOL    HW121071   2.264   3.420   5.694
 6724SOL    HW221072   2.295   3.463   5.849
 6725SOL     OW21073   5.800   2.568   3.444
 6725SOL    HW121074   5.780   2.662   3.417
 6725SOL    HW221075   5.895   2.560   3.474
 6726SOL     OW21076   6.980   0.845   5.353
 6726SOL    HW121077   6.951   0.864   5.260
 6726SOL    HW221078   0.007   0.756   5.357
 6727SOL     OW21079   0.972   4.943   5.661
 6727SOL    HW121080   1.012   5.024   5.705
 6727SOL    HW221081   0.921   4.971   5.580
 6728SOL     OW21082   3.923   1.817   3.609
 6728SOL    HW121083   3.978   1.872   3.546
 6728SOL    HW221084   3.858   1.875   3.657
 6729SOL     OW21085   5.228   1.661   1.273
 6729SOL    HW121086   5.195   1.736   1.330
 6729SOL    HW221087   5.245   1.695   1.181
 6730SOL     OW21088   0.915   1.167   1.520
 6730SOL    HW121089   0.958   1.253   1.548
 6730SOL    HW221090   0.901   1.109   1.600
 6731SOL     OW21091   3.374   6.442   6.855
 6731SOL    HW121092   3.360   6.409   6.948
 6731SOL    HW221093   3.366   6.365   6.791
 6732SOL     OW21094   5.904   5.172   4.392
 6732SOL    HW121095   5.931   5.078   4.369
 6732SOL    HW221096   5.930   5.191   4.487
 6733SOL     OW21097   4.265   4.927   6.415
 6733SOL    HW121098   4.345   4.906   6.359
 6733SOL    HW221099   4.289   4.919   6.512
 6734SOL     OW21100   5.564   1.234   4.902
 6734SOL    HW121101   5.628   1.300   4.862
 6734SOL    HW221102   5.611   1.148   4.920
 6735SOL     OW21103   5.886   3.096   3.535
 6735SOL    HW121104   5.838   3.128   3.454
 6735SOL    HW221105   5.864   3.155   3.613
 6736SOL     OW21106   3.179   3.966   0.573
 6736SOL    HW121107   3.124   3.901   0.625
 6736SOL    HW221108   3.275   3.939   0.576
 6737SOL     OW21109   0.859   3.529   1.152
 6737SOL    HW121110   0.814   3.586   1.220
 6737SOL    HW221111   0.941   3.575   1.118
 6738SOL     OW21112   2.078   6.032   2.988
 6738SOL    HW121113   2.166   6.061   2.951
 6738SOL    HW221114   2.010   6.028   2.915
 6739SOL     OW21115   6.903   0.005   4.760
 6739SOL    HW121116   6.989   0.037   4.800
 6739SOL    HW221117   6.915   7.010   4.662
 6740SOL     OW21118   0.064   6.549   4.274
 6740SOL    HW121119   0.049   6.517   4.181
 6740SOL    HW221120   6.998   6.539   4.326
 6741SOL     OW21121   4.885   2.111   5.872
 6741SOL    HW121122   4.907   2.045   5.943
 6741SOL    HW221123   4.956   2.181   5.868
 6742SOL     OW21124   5.551   4.344   3.750
 6742SOL    HW121125   5.528   4.357   3.654
 6742SOL    HW221126   5.528   4.427   3.801
 6743SOL     OW21127   4.022   4.129   1.203
 6743SOL    HW121128   3.940   4.107   1.256
 6743SOL    HW221129   4.054   4.047   1.156
 6744SOL     OW21130   0.274   5.655   5.726
 6744SOL    HW121131   0.211   5.595   5.676
 6744SOL    HW221132   0.346   5.601   5.767
 6745SOL     OW21133   6.817   6.505   4.397
 6745SOL    HW121134   6.869   6.443   4.455
 6745SOL    HW221135   6.759   6.451   4.335
 6746SOL     OW21136   1.585   1.349   2.516
 6746SOL    HW121137   1.611   1.436   2.558
 6746SOL    HW221138   1.666   1.292   2.503
 6747SOL     OW21139   1.148   6.553   6.927
 6747SOL    HW121140   1.203   6.615   6.871
 6747SOL    HW221141   1.071   6.519   6.873
 6748SOL     OW21142   2.346   1.822   4.290
 6748SOL    HW121143   2.281   1.894   4.266
 6748SOL    HW221144   2.401   1.799   4.210
 6749SOL     OW21145   3.792   4.740   1.229
 6749SOL    HW121146   3.853   4.677   1.181
 6749SOL    HW221147   3.715   4.688   1.267
 6750SOL     OW21148   3.237   1.842   4.564
 6750SOL    HW121149   3.264   1.751   4.596
 6750SOL    HW221150   3.309   1.879   4.505
 6751SOL     OW21151   4.092   6.664   3.840
 6751SOL    HW121152   4.181   6.645   3.881
 6751SOL    HW221153   4.025   6.682   3.912
 6752SOL     OW21154   1.934   6.229   2.524
 6752SOL    HW121155   1.921   6.326   2.543
 6752SOL    HW221156   1.901   6.208   2.432
 6753SOL     OW21157   3.903   2.830   5.367
 6753SOL    HW121158   3.921   2.764   5.294
 6753SOL    HW221159   3.869   2.915   5.328
 6754SOL     OW21160   6.094   1.435   1.568
 6754SOL    HW121161   6.187   1.472   1.563
 6754SOL    HW221162   6.081   1.366   1.497
 6755SOL     OW21163   2.363   5.207   6.246
 6755SOL    HW121164   2.289   5.161   6.196
 6755SOL    HW221165   2.449   5.159   6.228
 6756SOL     OW21166   2.419   2.323   5.872
 6756SOL    HW121167   2.393   2.246   5.930
 6756SOL    HW221168   2.338   2.356   5.822
 6757SOL     OW21169   3.648   0.886   0.569
 6757SOL    HW121170   3.580   0.874   0.641
 6757SOL    HW221171   3.640   0.812   0.503
 6758SOL     OW21172   6.148   2.713   1.663
 6758SOL    HW121173   6.156   2.794   1.604
 6758SOL    HW221174   6.083   2.731   1.737
 6759SOL     OW21175   0.789   3.297   3.205
 6759SOL    HW121176   0.879   3.284   3.246
 6759SOL    HW221177   0.721   3.311   3.277
 6760SOL     OW21178   5.396   3.078   2.705
 6760SOL    HW121179   5.421   3.102   2.612
 6760SOL    HW221180   5.302   3.106   2.723
 6761SOL     OW21181   4.833   2.040   4.564
 6761SOL    HW121182   4.826   2.126   4.615
 6761SOL    HW221183   4.835   1.963   4.629
 6762SOL     OW21184   6.466   5.403   3.855
 6762SOL    HW121185   6.403   5.360   3.790
 6762SOL    HW221186   6.445   5.371   3.947
 6763SOL     OW21187   4.858   4.965   4.933
 6763SOL    HW121188   4.932   4.919   4.981
 6763SOL    HW221189   4.893   5.008   4.850
 6764SOL     OW21190   1.419   5.657   1.827
 6764SOL    HW121191   1.391   5.563   1.848
 6764SOL    HW221192   1.518   5.666   1.836
 6765SOL     OW21193   6.620   4.579   2.960
 6765SOL    HW121194   6.607   4.557   2.863
 6765SOL    HW221195   6.699   4.641   2.970
 6766SOL     OW21196   5.028   6.775   0.665
 6766SOL    HW121197   5.046   6.837   0.588
 6766SOL    HW221198   5.084   6.693   0.656
 6767SOL     OW21199   3.074   1.306   0.418
 6767SOL    HW121200   3.072   1.394   0.466
 6767SOL    HW221201   2.981   1.268   0.414
 6768SOL     OW21202   1.990   0.846   1.090
 6768SOL    HW121203   1.907   0.833   1.144
 6768SOL    HW221204   2.043   0.761   1.091
 6769SOL     OW21205   4.006   2.529   1.202
 6769SOL    HW121206   4.007   2.572   1.112
 6769SOL    HW221207   4.013   2.430   1.191
 6770SOL     OW21208   6.958   0.375   1.806
 6770SOL    HW121209   6.945   0.300   1.742
 6770SOL    HW221210   6.922   0.350   1.896
 6771SOL     OW21211   4.007   2.115   2.742
 6771SOL    HW121212   4.088   2.095   2.687
 6771SOL    HW221213   3.938   2.044   2.728
 6772SOL     OW21214   3.256   1.754   2.391
 6772SOL    HW121215   3.236   1.792   2.300
 6772SOL    HW221216   3.275   1.656   2.382
 6773SOL     OW21217   6.573   3.962   1.795
 6773SOL    HW121218   6.563   3.924   1.887
 6773SOL    HW221219   6.670   3.972   1.773
 6774SOL     OW21220   0.615   2.732   6.304
 6774SOL    HW121221   0.693   2.746   6.366
 6774SOL    HW221222   0.567   2.818   6.290
 6775SOL     OW21223   2.670   4.197   1.000
 6775SOL    HW121224   2.629   4.261   1.065
 6775SOL    HW221225   2.704   4.116   1.048
 6776SOL     OW21226   5.603   4.943   0.070
 6776SOL    HW121227   5.547   4.950   0.152
 6776SOL    HW221228   5.658   4.859   0.074
 6777SOL     OW21229   4.301   5.069   5.818
 6777SOL    HW121230   4.356   5.149   5.791
 6777SOL    HW221231   4.353   4.986   5.800
 6778SOL     OW21232   0.821   4.232   2.466
 6778SOL    HW121233   0.781   4.147   2.429
 6778SOL    HW221234   0.820   4.229   2.566
 6779SOL     OW21235   7.002   4.409   0.372
 6779SOL    HW121236   7.012   4.383   0.468
 6779SOL    HW221237   6.930   4.478   0.363
 6780SOL     OW21238   0.066   2.358   3.091
 6780SOL    HW121239   0.087   2.369   3.188
 6780SOL    HW221240   0.101   2.270   3.058
 6781SOL     OW21241   5.169   6.545   5.678
 6781SOL    HW121242   5.132   6.526   5.587
 6781SOL    HW221243   5.186   6.459   5.726
 6782SOL     OW21244   0.348   1.143   2.502
 6782SOL    HW121245   0.322   1.223   2.557
 6782SOL    HW221246   0.414   1.172   2.432
 6783SOL     OW21247   0.049   6.297   6.394
 6783SOL    HW121248   0.090   6.245   6.320
 6783SOL    HW221249   0.116   6.310   6.467
 6784SOL     OW21250   3.858   4.274   6.972
 6784SOL    HW121251   3.829   4.312   0.041
 6784SOL    HW221252   3.923   4.199   6.988
 6785SOL     OW21253   6.257   5.570   1.645
 6785SOL    HW121254   6.305   5.627   1.578
 6785SOL    HW221255   6.184   5.519   1.600
 6786SOL     OW21256   1.514   2.192   6.968
 6786SOL    HW121257   1.586   2.143   7.017
 6786SOL    HW221258   1.551   2.278   6.933
 6787SOL     OW21259   1.392   3.642   1.390
 6787SOL    HW121260   1.488   3.659   1.369
 6787SOL    HW221261   1.356   3.572   1.328
 6788SOL     OW21262   2.882   3.974   1.737
 6788SOL    HW121263   2.926   3.910   1.800
 6788SOL    HW221264   2.804   3.929   1.693
 6789SOL     OW21265   0.457   6.544   2.269
 6789SOL    HW121266   0.450   6.610   2.345
 6789SOL    HW221267   0.370   6.496   2.259
 6790SOL     OW21268   1.991   2.946   0.243
 6790SOL    HW121269   1.951   2.860   0.211
 6790SOL    HW221270   2.086   2.929   0.272
 6791SOL     OW21271   4.263   2.959   7.011
 6791SOL    HW121272   4.287   3.016   6.933
 6791SOL    HW221273   4.210   2.880   6.981
 6792SOL     OW21274   6.375   6.023   6.689
 6792SOL    HW121275   6.386   5.965   6.608
 6792SOL    HW221276   6.358   5.966   6.769
 6793SOL     OW21277   0.900   2.360   0.242
 6793SOL    HW121278   0.900   2.282   0.305
 6793SOL    HW221279   0.985   2.411   0.252
 6794SOL     OW21280   4.855   1.154   4.173
 6794SOL    HW121281   4.878   1.057   4.176
 6794SOL    HW221282   4.772   1.171   4.227
 6795SOL     OW21283   2.866   5.872   0.549
 6795SOL    HW121284   2.805   5.871   0.628
 6795SOL    HW221285   2.915   5.959   0.545
 6796SOL     OW21286   5.218   1.392   2.511
 6796SOL    HW121287   5.214   1.471   2.451
 6796SOL    HW221288   5.159   1.319   2.475
 6797SOL     OW21289   5.283   3.702   1.875
 6797SOL    HW121290   5.300   3.649   1.958
 6797SOL    HW221291   5.358   3.689   1.811
 6798SOL     OW21292   5.727   5.447   2.802
 6798SOL    HW121293   5.747   5.448   2.704
 6798SOL    HW221294   5.790   5.384   2.848
 6799SOL     OW21295   4.958   5.461   0.427
 6799SOL    HW121296   4.930   5.523   0.354
 6799SOL    HW221297   5.058   5.451   0.425
 6800SOL     OW21298   1.786   4.279   0.586
 6800SOL    HW121299   1.781   4.213   0.660
 6800SOL    HW221300   1.750   4.367   0.616
 6801SOL     OW21301   1.485   2.182   2.114
 6801SOL    HW121302   1.412   2.245   2.087
 6801SOL    HW221303   1.494   2.110   2.045
 6802SOL     OW21304   2.153   5.752   0.772
 6802SOL    HW121305   2.190   5.796   0.690
 6802SOL    HW221306   2.214   5.679   0.801
 6803SOL     OW21307   5.229   1.985   6.086
 6803SOL    HW121308   5.272   2.075   6.094
 6803SOL    HW221309   5.218   1.945   6.177
 6804SOL     OW21310   1.612   5.615   3.311
 6804SOL    HW121311   1.567   5.540   3.359
 6804SOL    HW221312   1.648   5.583   3.224
 6805SOL     OW21313   5.920   6.995   4.428
 6805SOL    HW121314   5.969   6.929   4.372
 6805SOL    HW221315   5.935   6.974   4.525
 6806SOL     OW21316   4.722   1.342   4.549
 6806SOL    HW121317   4.662   1.378   4.619
 6806SOL    HW221318   4.788   1.413   4.521
 6807SOL     OW21319   2.744   3.182   0.071
 6807SOL    HW121320   2.819   3.115   0.067
 6807SOL    HW221321   2.657   3.135   0.055
 6808SOL     OW21322   0.457   2.603   4.962
 6808SOL    HW121323   0.461   2.648   4.872
 6808SOL    HW221324   0.408   2.517   4.954
 6809SOL     OW21325   1.283   4.744   6.890
 6809SOL    HW121326   1.349   4.777   6.823
 6809SOL    HW221327   1.243   4.658   6.857
 6810SOL     OW21328   0.629   1.280   2.632
 6810SOL    HW121329   0.720   1.244   2.650
 6810SOL    HW221330   0.631   1.337   2.551
 6811SOL     OW21331   6.399   4.495   0.756
 6811SOL    HW121332   6.339   4.503   0.676
 6811SOL    HW221333   6.395   4.579   0.809
 6812SOL     OW21334   3.893   4.005   3.231
 6812SOL    HW121335   3.936   3.958   3.307
 6812SOL    HW221336   3.831   4.075   3.265
 6813SOL     OW21337   4.730   1.960   1.405
 6813SOL    HW121338   4.684   1.889   1.352
 6813SOL    HW221339   4.740   1.930   1.500
 6814SOL     OW21340   2.818   3.171   1.006
 6814SOL    HW121341   2.726   3.173   0.967
 6814SOL    HW221342   2.885   3.176   0.933
 6815SOL     OW21343   3.064   0.180   1.787
 6815SOL    HW121344   2.979   0.126   1.783
 6815SOL    HW221345   3.042   0.277   1.785
 6816SOL     OW21346   6.476   5.233   0.044
 6816SOL    HW121347   6.463   5.207   0.140
 6816SOL    HW221348   6.417   5.177   7.005
 6817SOL     OW21349   6.587   1.537   5.372
 6817SOL    HW121350   6.575   1.464   5.306
 6817SOL    HW221351   6.617   1.620   5.325
 6818SOL     OW21352   3.637   6.557   1.931
 6818SOL    HW121353   3.546   6.517   1.926
 6818SOL    HW221354   3.705   6.488   1.908
 6819SOL     OW21355   3.213   0.644   3.615
 6819SOL    HW121356   3.220   0.696   3.530
 6819SOL    HW221357   3.254   0.696   3.690
 6820SOL     OW21358   0.617   4.647   3.434
 6820SOL    HW121359   0.597   4.557   3.395
 6820SOL    HW221360   0.576   4.655   3.524
 6821SOL     OW21361   2.516   2.331   5.091
 6821SOL    HW121362   2.568   2.333   5.176
 6821SOL    HW221363   2.577   2.354   5.015
 6822SOL     OW21364   5.595   1.350   5.827
 6822SOL    HW121365   5.609   1.416   5.901
 6822SOL    HW221366   5.542   1.393   5.754
 6823SOL     OW21367   3.300   3.274   3.654
 6823SOL    HW121368   3.256   3.315   3.575
 6823SOL    HW221369   3.382   3.224   3.625
 6824SOL     OW21370   0.233   3.800   6.046
 6824SOL    HW121371   0.228   3.700   6.055
 6824SOL    HW221372   0.141   3.838   6.044
 6825SOL     OW21373   5.482   6.995   2.157
 6825SOL    HW121374   5.548   6.932   2.198
 6825SOL    HW221375   5.397   6.946   2.137
 6826SOL     OW21376   2.133   3.587   2.634
 6826SOL    HW121377   2.150   3.678   2.597
 6826SOL    HW221378   2.190   3.520   2.587
 6827SOL     OW21379   4.976   6.137   6.759
 6827SOL    HW121380   4.881   6.145   6.789
 6827SOL    HW221381   4.985   6.174   6.667
 6828SOL     OW21382   1.563   2.117   1.502
 6828SOL    HW121383   1.518   2.203   1.526
 6828SOL    HW221384   1.517   2.042   1.550
 6829SOL     OW21385   5.244   6.721   3.427
 6829SOL    HW121386   5.309   6.790   3.460
 6829SOL    HW221387   5.209   6.748   3.337
 6830SOL     OW21388   5.333   1.731   3.049
 6830SOL    HW121389   5.398   1.658   3.070
 6830SOL    HW221390   5.358   1.813   3.100
 6831SOL     OW21391   0.747   0.895   5.968
 6831SOL    HW121392   0.648   0.883   5.964
 6831SOL    HW221393   0.769   0.992   5.969
 6832SOL     OW21394   2.880   4.844   1.800
 6832SOL    HW121395   2.872   4.756   1.846
 6832SOL    HW221396   2.798   4.861   1.746
 6833SOL     OW21397   3.682   4.893   6.491
 6833SOL    HW121398   3.708   4.984   6.458
 6833SOL    HW221399   3.764   4.845   6.522
 6834SOL     OW21400   4.597   0.076   1.925
 6834SOL    HW121401   4.651   7.016   1.896
 6834SOL    HW221402   4.616   0.153   1.864
 6835SOL     OW21403   4.075   0.344   4.497
 6835SOL    HW121404   4.010   0.268   4.501
 6835SOL    HW221405   4.078   0.390   4.586
 6836SOL     OW21406   2.892   6.670   0.664
 6836SOL    HW121407   2.935   6.729   0.732
 6836SOL    HW221408   2.946   6.670   0.580
 6837SOL     OW21409   1.737   3.490   1.892
 6837SOL    HW121410   1.691   3.575   1.868
 6837SOL    HW221411   1.836   3.503   1.887
 6838SOL     OW21412   2.729   1.021   0.419
 6838SOL    HW121413   2.646   1.072   0.441
 6838SOL    HW221414   2.729   0.999   0.321
 6839SOL     OW21415   4.448   0.951   0.876
 6839SOL    HW121416   4.364   0.983   0.833
 6839SOL    HW221417   4.498   1.030   0.913
 6840SOL     OW21418   2.828   1.345   6.294
 6840SOL    HW121419   2.734   1.342   6.262
 6840SOL    HW221420   2.849   1.436   6.330
 6841SOL     OW21421   6.215   3.077   6.271
 6841SOL    HW121422   6.193   3.154   6.212
 6841SOL    HW221423   6.292   3.102   6.331
 6842SOL     OW21424   2.041   5.434   1.407
 6842SOL    HW121425   2.024   5.489   1.488
 6842SOL    HW221426   2.050   5.337   1.433
 6843SOL     OW21427   5.218   6.749   6.585
 6843SOL    HW121428   5.251   6.776   6.495
 6843SOL    HW221429   5.279   6.785   6.655
 6844SOL     OW21430   5.006   0.603   3.592
 6844SOL    HW121431   4.945   0.546   3.537
 6844SOL    HW221432   4.961   0.628   3.678
 6845SOL     OW21433   5.027   2.657   2.719
 6845SOL    HW121434   4.980   2.744   2.703
 6845SOL    HW221435   5.047   2.613   2.631
 6846SOL     OW21436   2.855   3.902   0.224
 6846SOL    HW121437   2.909   3.817   0.227
 6846SOL    HW221438   2.837   3.933   0.317
 6847SOL     OW21439   5.823   3.861   4.595
 6847SOL    HW121440   5.810   3.825   4.502
 6847SOL    HW221441   5.736   3.861   4.644
 6848SOL     OW21442   4.757   4.541   3.860
 6848SOL    HW121443   4.846   4.536   3.906
 6848SOL    HW221444   4.770   4.563   3.764
 6849SOL     OW21445   4.258   3.724   6.037
 6849SOL    HW121446   4.348   3.680   6.033
 6849SOL    HW221447   4.186   3.655   6.030
 6850SOL     OW21448   4.412   2.359   3.443
 6850SOL    HW121449   4.348   2.329   3.372
 6850SOL    HW221450   4.504   2.326   3.422
 6851SOL     OW21451   1.599   3.011   2.880
 6851SOL    HW121452   1.678   3.038   2.935
 6851SOL    HW221453   1.515   3.040   2.927
 6852SOL     OW21454   2.452   5.402   0.757
 6852SOL    HW121455   2.443   5.303   0.762
 6852SOL    HW221456   2.494   5.428   0.670
 6853SOL     OW21457   5.228   3.264   6.561
 6853SOL    HW121458   5.180   3.193   6.510
 6853SOL    HW221459   5.325   3.239   6.571
 6854SOL     OW21460   5.085   6.503   6.077
 6854SOL    HW121461   5.180   6.522   6.102
 6854SOL    HW221462   5.049   6.576   6.019
 6855SOL     OW21463   3.777   5.082   3.487
 6855SOL    HW121464   3.780   5.046   3.580
 6855SOL    HW221465   3.729   5.170   3.486
 6856SOL     OW21466   0.891   2.299   6.325
 6856SOL    HW121467   0.900   2.247   6.409
 6856SOL    HW221468   0.811   2.267   6.274
 6857SOL     OW21469   1.207   3.444   6.539
 6857SOL    HW121470   1.131   3.504   6.565
 6857SOL    HW221471   1.208   3.433   6.440
 6858SOL     OW21472   3.249   4.293   1.692
 6858SOL    HW121473   3.153   4.264   1.684
 6858SOL    HW221474   3.263   4.376   1.638
 6859SOL     OW21475   1.114   1.320   2.260
 6859SOL    HW121476   1.061   1.399   2.231
 6859SOL    HW221477   1.206   1.349   2.287
 6860SOL     OW21478   0.013   5.905   1.863
 6860SOL    HW121479   6.958   5.944   1.809
 6860SOL    HW221480   0.049   5.824   1.816
 6861SOL     OW21481   5.068   2.958   5.245
 6861SOL    HW121482   5.011   3.033   5.212
 6861SOL    HW221483   5.036   2.929   5.336
 6862SOL     OW21484   0.264   4.687   5.910
 6862SOL    HW121485   0.339   4.649   5.856
 6862SOL    HW221486   0.240   4.622   5.983
 6863SOL     OW21487   0.096   6.539   5.221
 6863SOL    HW121488   0.082   6.504   5.128
 6863SOL    HW221489   0.182   6.503   5.257
 6864SOL     OW21490   1.825   3.816   5.758
 6864SOL    HW121491   1.921   3.843   5.750
 6864SOL    HW221492   1.791   3.788   5.668
 6865SOL     OW21493   1.669   0.106   4.404
 6865SOL    HW121494   1.574   0.113   4.434
 6865SOL    HW221495   1.680   0.151   4.315
 6866SOL     OW21496   7.014   4.657   1.837
 6866SOL    HW121497   6.934   4.601   1.817
 6866SOL    HW221498   0.037   4.628   1.923
 6867SOL     OW21499   1.986   3.307   0.696
 6867SOL    HW121500   2.016   3.260   0.613
 6867SOL    HW221501   1.893   3.340   0.684
 6868SOL     OW21502   2.094   5.230   4.787
 6868SOL    HW121503   2.014   5.282   4.816
 6868SOL    HW221504   2.079   5.192   4.696
 6869SOL     OW21505   3.376   0.007   5.457
 6869SOL    HW121506   3.414   0.089   5.414
 6869SOL    HW221507   3.421   6.945   5.418
 6870SOL     OW21508   0.149   2.727   0.224
 6870SOL    HW121509   0.170   2.817   0.263
 6870SOL    HW221510   0.223   2.700   0.162
 6871SOL     OW21511   6.711   3.703   2.515
 6871SOL    HW121512   6.635   3.677   2.575
 6871SOL    HW221513   6.774   3.626   2.506
 6872SOL     OW21514   1.292   2.652   1.860
 6872SOL    HW121515   1.212   2.701   1.826
 6872SOL    HW221516   1.332   2.703   1.936
 6873SOL     OW21517   0.997   4.116   4.563
 6873SOL    HW121518   1.035   4.199   4.522
 6873SOL    HW221519   0.901   4.133   4.588
 6874SOL     OW21520   5.657   5.900   2.647
 6874SOL    HW121521   5.579   5.870   2.702
 6874SOL    HW221522   5.631   5.982   2.595
 6875SOL     OW21523   1.236   2.918   1.104
 6875SOL    HW121524   1.226   3.017   1.115
 6875SOL    HW221525   1.151   2.880   1.068
 6876SOL     OW21526   4.358   5.836   3.453
 6876SOL    HW121527   4.269   5.792   3.438
 6876SOL    HW221528   4.411   5.784   3.519
 6877SOL     OW21529   2.309   4.238   2.167
 6877SOL    HW121530   2.373   4.239   2.090
 6877SOL    HW221531   2.304   4.329   2.208
 6878SOL     OW21532   2.514   1.146   4.071
 6878SOL    HW121533   2.506   1.047   4.062
 6878SOL    HW221534   2.596   1.178   4.024
 6879SOL     OW21535   2.275   2.394   0.833
 6879SOL    HW121536   2.289   2.300   0.864
 6879SOL    HW221537   2.218   2.393   0.750
 6880SOL     OW21538   1.777   5.654   6.317
 6880SOL    HW121539   1.798   5.625   6.411
 6880SOL    HW221540   1.690   5.704   6.316
 6881SOL     OW21541   1.453   3.569   0.214
 6881SOL    HW121542   1.544   3.581   0.173
 6881SOL    HW221543   1.414   3.659   0.233
 6882SOL     OW21544   3.019   6.655   0.430
 6882SOL    HW121545   2.968   6.702   0.358
 6882SOL    HW221546   3.066   6.576   0.390
 6883SOL     OW21547   4.891   0.213   6.364
 6883SOL    HW121548   4.796   0.207   6.333
 6883SOL    HW221549   4.944   0.268   6.299
 6884SOL     OW21550   2.089   3.632   2.931
 6884SOL    HW121551   2.003   3.584   2.945
 6884SOL    HW221552   2.107   3.640   2.832
 6885SOL     OW21553   5.261   5.341   3.405
 6885SOL    HW121554   5.263   5.301   3.313
 6885SOL    HW221555   5.289   5.437   3.401
 6886SOL     OW21556   5.070   1.040   5.932
 6886SOL    HW121557   5.006   1.096   5.984
 6886SOL    HW221558   5.115   1.095   5.863
 6887SOL     OW21559   5.295   6.192   6.777
 6887SOL    HW121560   5.210   6.230   6.813
 6887SOL    HW221561   5.302   6.213   6.680
 6888SOL     OW21562   5.388   4.609   6.678
 6888SOL    HW121563   5.467   4.642   6.628
 6888SOL    HW221564   5.341   4.686   6.722
 6889SOL     OW21565   0.924   2.570   6.026
 6889SOL    HW121566   0.985   2.612   5.959
 6889SOL    HW221567   0.976   2.546   6.108
 6890SOL     OW21568   3.529   5.072   2.570
 6890SOL    HW121569   3.463   5.071   2.645
 6890SOL    HW221570   3.505   5.144   2.505
 6891SOL     OW21571   2.107   2.676   1.132
 6891SOL    HW121572   2.016   2.711   1.152
 6891SOL    HW221573   2.159   2.745   1.081
 6892SOL     OW21574   3.776   1.277   3.907
 6892SOL    HW121575   3.782   1.302   3.811
 6892SOL    HW221576   3.680   1.264   3.932
 6893SOL     OW21577   6.274   2.724   6.799
 6893SOL    HW121578   6.333   2.677   6.733
 6893SOL    HW221579   6.178   2.710   6.773
 6894SOL     OW21580   5.670   5.027   1.257
 6894SOL    HW121581   5.704   4.937   1.227
 6894SOL    HW221582   5.574   5.035   1.232
 6895SOL     OW21583   1.512   6.347   1.353
 6895SOL    HW121584   1.459   6.345   1.438
 6895SOL    HW221585   1.450   6.338   1.275
 6896SOL     OW21586   3.823   2.113   4.624
 6896SOL    HW121587   3.808   2.179   4.697
 6896SOL    HW221588   3.922   2.105   4.607
 6897SOL     OW21589   4.947   3.925   5.292
 6897SOL    HW121590   4.971   3.833   5.261
 6897SOL    HW221591   4.872   3.919   5.358
 6898SOL     OW21592   2.660   1.542   1.641
 6898SOL    HW121593   2.668   1.641   1.633
 6898SOL    HW221594   2.637   1.518   1.735
 6899SOL     OW21595   6.298   5.901   2.600
 6899SOL    HW121596   6.344   5.872   2.684
 6899SOL    HW221597   6.366   5.909   2.527
 6900SOL     OW21598   6.337   4.565   6.155
 6900SOL    HW121599   6.292   4.488   6.108
 6900SOL    HW221600   6.275   4.601   6.225
 6901SOL     OW21601   4.683   5.108   6.655
 6901SOL    HW121602   4.730   5.086   6.570
 6901SOL    HW221603   4.630   5.192   6.643
 6902SOL     OW21604   0.358   5.888   5.969
 6902SOL    HW121605   0.327   5.859   6.059
 6902SOL    HW221606   0.420   5.819   5.931
 6903SOL     OW21607   2.835   5.105   4.806
 6903SOL    HW121608   2.844   5.012   4.842
 6903SOL    HW221609   2.831   5.102   4.706
 6904SOL     OW21610   0.207   6.031   4.326
 6904SOL    HW121611   0.253   6.119   4.332
 6904SOL    HW221612   0.146   6.020   4.404
 6905SOL     OW21613   5.686   5.596   6.153
 6905SOL    HW121614   5.598   5.622   6.113
 6905SOL    HW221615   5.760   5.635   6.099
 6906SOL     OW21616   4.018   1.069   3.510
 6906SOL    HW121617   3.980   1.161   3.510
 6906SOL    HW221618   4.089   1.063   3.580
 6907SOL     OW21619   6.305   1.786   1.191
 6907SOL    HW121620   6.217   1.754   1.157
 6907SOL    HW221621   6.370   1.710   1.192
 6908SOL     OW21622   2.607   4.354   6.881
 6908SOL    HW121623   2.508   4.360   6.873
 6908SOL    HW221624   2.635   4.259   6.872
 6909SOL     OW21625   5.740   5.474   1.925
 6909SOL    HW121626   5.699   5.440   2.009
 6909SOL    HW221627   5.686   5.550   1.889
 6910SOL     OW21628   1.215   2.605   3.312
 6910SOL    HW121629   1.264   2.548   3.245
 6910SOL    HW221630   1.269   2.687   3.332
 6911SOL     OW21631   3.060   0.303   5.468
 6911SOL    HW121632   3.006   0.262   5.542
 6911SOL    HW221633   3.150   0.329   5.502
 6912SOL     OW21634   2.375   3.644   6.550
 6912SOL    HW121635   2.323   3.687   6.624
 6912SOL    HW221636   2.473   3.658   6.566
 6913SOL     OW21637   4.417   6.101   5.706
 6913SOL    HW121638   4.341   6.149   5.750
 6913SOL    HW221639   4.417   6.006   5.735
 6914SOL     OW21640   6.212   3.411   2.109
 6914SOL    HW121641   6.185   3.490   2.054
 6914SOL    HW221642   6.274   3.353   2.056
 6915SOL     OW21643   1.324   3.386   2.124
 6915SOL    HW121644   1.248   3.409   2.184
 6915SOL    HW221645   1.392   3.332   2.174
 6916SOL     OW21646   4.707   6.652   6.324
 6916SOL    HW121647   4.789   6.691   6.368
 6916SOL    HW221648   4.676   6.712   6.251
 6917SOL     OW21649   5.543   5.708   1.370
 6917SOL    HW121650   5.622   5.701   1.309
 6917SOL    HW221651   5.504   5.800   1.364
 6918SOL     OW21652   0.841   3.107   1.763
 6918SOL    HW121653   0.888   3.020   1.774
 6918SOL    HW221654   0.887   3.161   1.692
 6919SOL     OW21655   6.462   6.574   2.707
 6919SOL    HW121656   6.557   6.607   2.711
 6919SOL    HW221657   6.403   6.637   2.758
 6920SOL     OW21658   4.573   0.730   5.189
 6920SOL    HW121659   4.611   0.756   5.278
 6920SOL    HW221660   4.559   0.631   5.186
 6921SOL     OW21661   3.115   0.376   4.666
 6921SOL    HW121662   3.144   0.282   4.686
 6921SOL    HW221663   3.128   0.395   4.569
 6922SOL     OW21664   1.372   6.051   5.448
 6922SOL    HW121665   1.424   6.041   5.363
 6922SOL    HW221666   1.303   6.123   5.436
 6923SOL     OW21667   6.524   0.080   2.024
 6923SOL    HW121668   6.589   0.032   2.083
 6923SOL    HW221669   6.433   0.078   2.065
 6924SOL     OW21670   3.688   6.879   0.534
 6924SOL    HW121671   3.731   6.958   0.577
 6924SOL    HW221672   3.729   6.865   0.443
 6925SOL     OW21673   5.583   6.230   6.613
 6925SOL    HW121674   5.639   6.313   6.611
 6925SOL    HW221675   5.487   6.254   6.595
 6926SOL     OW21676   2.988   1.928   0.709
 6926SOL    HW121677   3.071   1.873   0.701
 6926SOL    HW221678   3.000   1.997   0.780
 6927SOL     OW21679   4.258   0.923   0.488
 6927SOL    HW121680   4.215   0.920   0.579
 6927SOL    HW221681   4.196   0.966   0.423
 6928SOL     OW21682   4.616   5.168   0.927
 6928SOL    HW121683   4.569   5.176   0.839
 6928SOL    HW221684   4.714   5.181   0.914
 6929SOL     OW21685   5.418   5.469   1.314
 6929SOL    HW121686   5.450   5.558   1.346
 6929SOL    HW221687   5.342   5.439   1.372
 6930SOL     OW21688   0.286   1.164   0.192
 6930SOL    HW121689   0.382   1.170   0.220
 6930SOL    HW221690   0.258   1.068   0.191
 6931SOL     OW21691   2.753   2.464   1.149
 6931SOL    HW121692   2.706   2.463   1.060
 6931SOL    HW221693   2.772   2.558   1.175
 6932SOL     OW21694   4.668   5.746   0.286
 6932SOL    HW121695   4.652   5.648   0.298
 6932SOL    HW221696   4.697   5.785   0.374
 6933SOL     OW21697   3.032   5.688   6.558
 6933SOL    HW121698   3.081   5.664   6.475
 6933SOL    HW221699   3.097   5.720   6.628
 6934SOL     OW21700   4.739   4.098   6.369
 6934SOL    HW121701   4.750   4.135   6.277
 6934SOL    HW221702   4.652   4.050   6.376
 6935SOL     OW21703   5.470   5.411   1.757
 6935SOL    HW121704   5.504   5.465   1.679
 6935SOL    HW221705   5.438   5.322   1.725
 6936SOL     OW21706   1.033   1.526   4.540
 6936SOL    HW121707   0.937   1.501   4.536
 6936SOL    HW221708   1.068   1.539   4.447
 6937SOL     OW21709   5.290   5.766   0.605
 6937SOL    HW121710   5.304   5.760   0.507
 6937SOL    HW221711   5.202   5.810   0.624
 6938SOL     OW21712   0.412   0.581   4.915
 6938SOL    HW121713   0.495   0.525   4.914
 6938SOL    HW221714   0.331   0.522   4.911
 6939SOL     OW21715   6.416   4.591   3.180
 6939SOL    HW121716   6.471   4.600   3.097
 6939SOL    HW221717   6.463   4.533   3.246
 6940SOL     OW21718   4.317   6.893   0.589
 6940SOL    HW121719   4.278   6.881   0.680
 6940SOL    HW221720   4.339   6.989   0.574
 6941SOL     OW21721   3.041   3.474   3.038
 6941SOL    HW121722   3.129   3.458   2.993
 6941SOL    HW221723   3.022   3.397   3.100
 6942SOL     OW21724   6.743   6.348   2.009
 6942SOL    HW121725   6.667   6.407   2.037
 6942SOL    HW221726   6.797   6.323   2.090
 6943SOL     OW21727   4.035   4.824   6.790
 6943SOL    HW121728   4.034   4.861   6.697
 6943SOL    HW221729   3.970   4.748   6.796
 6944SOL     OW21730   1.049   3.661   5.522
 6944SOL    HW121731   1.030   3.686   5.617
 6944SOL    HW221732   0.963   3.656   5.471
 6945SOL     OW21733   5.599   2.924   0.519
 6945SOL    HW121734   5.506   2.919   0.480
 6945SOL    HW221735   5.628   3.019   0.523
 6946SOL     OW21736   4.148   5.953   2.450
 6946SOL    HW121737   4.080   5.916   2.514
 6946SOL    HW221738   4.203   5.878   2.413
 6947SOL     OW21739   5.259   5.351   5.599
 6947SOL    HW121740   5.228   5.308   5.684
 6947SOL    HW221741   5.260   5.450   5.609
 6948SOL     OW21742   0.483   5.994   0.364
 6948SOL    HW121743   0.469   5.946   0.278
 6948SOL    HW221744   0.471   6.092   0.351
 6949SOL     OW21745   2.742   2.286   3.567
 6949SOL    HW121746   2.687   2.365   3.542
 6949SOL    HW221747   2.783   2.301   3.657
 6950SOL     OW21748   1.129   6.779   4.981
 6950SOL    HW121749   1.180   6.699   5.013
 6950SOL    HW221750   1.035   6.773   5.015
 6951SOL     OW21751   6.895   5.017   6.502
 6951SOL    HW121752   6.814   5.010   6.561
 6951SOL    HW221753   6.866   5.040   6.409
 6952SOL     OW21754   3.386   4.935   2.872
 6952SOL    HW121755   3.369   5.024   2.831
 6952SOL    HW221756   3.315   4.870   2.844
 6953SOL     OW21757   5.444   0.785   1.109
 6953SOL    HW121758   5.468   0.760   1.203
 6953SOL    HW221759   5.357   0.741   1.084
 6954SOL     OW21760   6.865   3.694   0.413
 6954SOL    HW121761   6.825   3.785   0.421
 6954SOL    HW221762   6.812   3.640   0.349
 6955SOL     OW21763   5.125   6.554   2.262
 6955SOL    HW121764   5.079   6.507   2.337
 6955SOL    HW221765   5.106   6.652   2.268
 6956SOL     OW21766   5.438   5.714   2.161
 6956SOL    HW121767   5.367   5.747   2.224
 6956SOL    HW221768   5.395   5.664   2.086
 6957SOL     OW21769   5.510   5.171   6.472
 6957SOL    HW121770   5.451   5.133   6.544
 6957SOL    HW221771   5.514   5.270   6.481
 6958SOL     OW21772   3.776   2.921   3.414
 6958SOL    HW121773   3.746   3.000   3.360
 6958SOL    HW221774   3.704   2.897   3.479
 6959SOL     OW21775   1.145   4.659   3.236
 6959SOL    HW121776   1.093   4.574   3.230
 6959SOL    HW221777   1.134   4.712   3.152
 6960SOL     OW21778   2.419   4.304   0.536
 6960SOL    HW121779   2.506   4.262   0.508
 6960SOL    HW221780   2.413   4.396   0.499
 6961SOL     OW21781   4.262   2.011   5.279
 6961SOL    HW121782   4.271   1.925   5.330
 6961SOL    HW221783   4.281   1.995   5.182
 6962SOL     OW21784   3.141   6.895   6.064
 6962SOL    HW121785   3.174   6.972   6.119
 6962SOL    HW221786   3.181   6.810   6.098
 6963SOL     OW21787   5.322   6.658   1.232
 6963SOL    HW121788   5.228   6.678   1.207
 6963SOL    HW221789   5.369   6.614   1.155
 6964SOL     OW21790   2.191   0.331   6.137
 6964SOL    HW121791   2.208   0.297   6.044
 6964SOL    HW221792   2.268   0.388   6.166
 6965SOL     OW21793   0.634   1.957   0.146
 6965SOL    HW121794   0.715   1.903   0.125
 6965SOL    HW221795   0.651   2.053   0.127
 6966SOL     OW21796   0.868   1.016   1.741
 6966SOL    HW121797   0.795   0.959   1.704
 6966SOL    HW221798   0.839   1.054   1.829
 6967SOL     OW21799   4.090   1.902   5.990
 6967SOL    HW121800   4.014   1.961   5.963
 6967SOL    HW221801   4.153   1.891   5.914
 6968SOL     OW21802   3.694   6.794   2.707
 6968SOL    HW121803   3.723   6.889   2.708
 6968SOL    HW221804   3.594   6.789   2.713
 6969SOL     OW21805   2.249   1.913   2.023
 6969SOL    HW121806   2.245   1.879   1.929
 6969SOL    HW221807   2.324   1.979   2.031
 6970SOL     OW21808   3.879   4.237   5.941
 6970SOL    HW121809   3.852   4.263   5.849
 6970SOL    HW221810   3.939   4.157   5.937
 6971SOL     OW21811   6.554   4.430   0.458
 6971SOL    HW121812   6.623   4.362   0.483
 6971SOL    HW221813   6.594   4.497   0.395
 6972SOL     OW21814   5.083   3.742   2.474
 6972SOL    HW121815   5.141   3.711   2.549
 6972SOL    HW221816   5.079   3.671   2.404
 6973SOL     OW21817   1.237   2.508   3.046
 6973SOL    HW121818   1.262   2.486   2.952
 6973SOL    HW221819   1.180   2.591   3.047
 6974SOL     OW21820   3.436   3.851   2.601
 6974SOL    HW121821   3.387   3.929   2.564
 6974SOL    HW221822   3.374   3.797   2.659
 6975SOL     OW21823   3.261   5.981   4.956
 6975SOL    HW121824   3.329   6.048   4.984
 6975SOL    HW221825   3.222   6.007   4.868
 6976SOL     OW21826   4.892   4.538   5.836
 6976SOL    HW121827   4.851   4.458   5.792
 6976SOL    HW221828   4.982   4.556   5.794
 6977SOL     OW21829   4.244   4.580   1.619
 6977SOL    HW121830   4.300   4.497   1.624
 6977SOL    HW221831   4.166   4.571   1.681
 6978SOL     OW21832   5.572   3.296   1.710
 6978SOL    HW121833   5.550   3.349   1.628
 6978SOL    HW221834   5.656   3.331   1.751
 6979SOL     OW21835   1.124   3.879   1.241
 6979SOL    HW121836   1.155   3.971   1.268
 6979SOL    HW221837   1.132   3.817   1.319
 6980SOL     OW21838   1.162   6.917   3.288
 6980SOL    HW121839   1.183   6.969   3.206
 6980SOL    HW221840   1.154   6.820   3.265
 6981SOL     OW21841   3.505   3.259   6.705
 6981SOL    HW121842   3.502   3.239   6.803
 6981SOL    HW221843   3.436   3.204   6.657
 6982SOL     OW21844   0.997   1.311   3.977
 6982SOL    HW121845   1.084   1.298   4.024
 6982SOL    HW221846   0.954   1.222   3.960
 6983SOL     OW21847   5.083   0.701   3.979
 6983SOL    HW121848   5.162   0.655   4.020
 6983SOL    HW221849   5.051   0.650   3.900
 6984SOL     OW21850   0.750   2.668   3.096
 6984SOL    HW121851   0.838   2.696   3.135
 6984SOL    HW221852   0.699   2.615   3.163
 6985SOL     OW21853   6.441   3.659   7.012
 6985SOL    HW121854   6.428   3.562   0.014
 6985SOL    HW221855   6.537   3.677   6.994
 6986SOL     OW21856   3.815   5.209   5.383
 6986SOL    HW121857   3.732   5.157   5.360
 6986SOL    HW221858   3.891   5.177   5.327
 6987SOL     OW21859   0.513   1.869   6.665
 6987SOL    HW121860   0.545   1.857   6.571
 6987SOL    HW221861   0.415   1.892   6.664
 6988SOL     OW21862   3.059   1.664   6.115
 6988SOL    HW121863   3.144   1.669   6.168
 6988SOL    HW221864   2.984   1.637   6.176
 6989SOL     OW21865   0.233   4.819   2.634
 6989SOL    HW121866   0.202   4.913   2.651
 6989SOL    HW221867   0.191   4.758   2.701
 6990SOL     OW21868   3.553   3.013   1.817
 6990SOL    HW121869   3.485   2.939   1.811
 6990SOL    HW221870   3.571   3.034   1.913
 6991SOL     OW21871   5.692   3.962   2.563
 6991SOL    HW121872   5.769   4.016   2.597
 6991SOL    HW221873   5.606   4.009   2.584
 6992SOL     OW21874   1.091   0.288   6.578
 6992SOL    HW121875   1.049   0.366   6.625
 6992SOL    HW221876   1.069   0.292   6.481
 6993SOL     OW21877   5.305   1.247   1.385
 6993SOL    HW121878   5.220   1.194   1.376
 6993SOL    HW221879   5.373   1.211   1.322
 6994SOL     OW21880   1.982   0.071   4.088
 6994SOL    HW121881   1.974   0.057   3.989
 6994SOL    HW221882   1.896   0.048   4.132
 6995SOL     OW21883   0.518   3.354   0.572
 6995SOL    HW121884   0.476   3.441   0.599
 6995SOL    HW221885   0.447   3.283   0.565
 6996SOL     OW21886   1.215   1.158   0.159
 6996SOL    HW121887   1.297   1.117   0.119
 6996SOL    HW221888   1.226   1.165   0.258
 6997SOL     OW21889   6.568   5.003   5.047
 6997SOL    HW121890   6.512   4.921   5.062
 6997SOL    HW221891   6.654   4.978   5.003
 6998SOL     OW21892   0.414   1.152   1.175
 6998SOL    HW121893   0.389   1.060   1.146
 6998SOL    HW221894   0.337   1.214   1.156
 6999SOL     OW21895   1.117   2.802   6.937
 6999SOL    HW121896   1.133   2.886   6.885
 6999SOL    HW221897   1.186   2.734   6.913
 7000SOL     OW21898   6.616   0.146   2.700
 7000SOL    HW121899   6.595   0.241   2.678
 7000SOL    HW221900   6.714   0.131   2.694
 7001SOL     OW21901   1.294   1.692   4.391
 7001SOL    HW121902   1.332   1.673   4.300
 7001SOL    HW221903   1.286   1.791   4.404
 7002SOL     OW21904   0.649   5.765   3.390
 7002SOL    HW121905   0.649   5.666   3.407
 7002SOL    HW221906   0.562   5.792   3.349
 7003SOL     OW21907   6.013   4.057   1.437
 7003SOL    HW121908   5.972   4.029   1.524
 7003SOL    HW221909   6.000   3.984   1.370
 7004SOL     OW21910   1.949   5.627   0.373
 7004SOL    HW121911   2.012   5.589   0.440
 7004SOL    HW221912   1.876   5.561   0.354
 7005SOL     OW21913   1.699   0.257   6.792
 7005SOL    HW121914   1.770   0.306   6.742
 7005SOL    HW221915   1.609   0.296   6.770
 7006SOL     OW21916   0.315   0.136   3.926
 7006SOL    HW121917   0.332   0.215   3.867
 7006SOL    HW221918   0.269   0.065   3.873
 7007SOL     OW21919   3.950   0.690   5.786
 7007SOL    HW121920   3.851   0.690   5.774
 7007SOL    HW221921   3.994   0.705   5.697
 7008SOL     OW21922   6.593   4.215   3.467
 7008SOL    HW121923   6.533   4.143   3.433
 7008SOL    HW221924   6.597   4.289   3.400
 7009SOL     OW21925   4.387   5.780   1.849
 7009SOL    HW121926   4.290   5.757   1.845
 7009SOL    HW221927   4.400   5.857   1.912
 7010SOL     OW21928   5.119   3.909   1.937
 7010SOL    HW121929   5.186   3.835   1.931
 7010SOL    HW221930   5.133   3.972   1.861
 7011SOL     OW21931   3.878   6.630   0.067
 7011SOL    HW121932   3.789   6.671   0.045
 7011SOL    HW221933   3.916   6.675   0.148
 7012SOL     OW21934   0.692   2.290   0.854
 7012SOL    HW121935   0.655   2.210   0.902
 7012SOL    HW221936   0.672   2.282   0.756
 7013SOL     OW21937   2.700   1.654   0.067
 7013SOL    HW121938   2.618   1.683   0.018
 7013SOL    HW221939   2.741   1.734   0.113
 7014SOL     OW21940   6.528   3.583   1.753
 7014SOL    HW121941   6.567   3.550   1.667
 7014SOL    HW221942   6.472   3.664   1.734
 7015SOL     OW21943   5.193   5.208   1.173
 7015SOL    HW121944   5.170   5.131   1.114
 7015SOL    HW221945   5.242   5.176   1.254
 7016SOL     OW21946   3.361   4.808   0.604
 7016SOL    HW121947   3.282   4.852   0.563
 7016SOL    HW221948   3.331   4.752   0.681
 7017SOL     OW21949   4.484   5.288   3.664
 7017SOL    HW121950   4.489   5.216   3.733
 7017SOL    HW221951   4.393   5.287   3.623
 7018SOL     OW21952   4.915   2.918   4.118
 7018SOL    HW121953   4.922   3.013   4.146
 7018SOL    HW221954   4.855   2.868   4.181
 7019SOL     OW21955   4.997   4.883   1.872
 7019SOL    HW121956   5.014   4.786   1.852
 7019SOL    HW221957   4.904   4.894   1.908
 7020SOL     OW21958   0.610   3.451   6.787
 7020SOL    HW121959   0.646   3.520   6.850
 7020SOL    HW221960   0.679   3.380   6.771
 7021SOL     OW21961   1.250   2.286   4.699
 7021SOL    HW121962   1.221   2.361   4.758
 7021SOL    HW221963   1.170   2.244   4.655
 7022SOL     OW21964   4.077   1.115   1.064
 7022SOL    HW121965   4.062   1.212   1.085
 7022SOL    HW221966   3.995   1.063   1.087
 7023SOL     OW21967   0.670   1.795   1.852
 7023SOL    HW121968   0.745   1.833   1.908
 7023SOL    HW221969   0.709   1.745   1.775
 7024SOL     OW21970   3.819   3.712   3.633
 7024SOL    HW121971   3.919   3.705   3.636
 7024SOL    HW221972   3.779   3.623   3.654
 7025SOL     OW21973   3.206   0.068   0.345
 7025SOL    HW121974   3.210   0.122   0.261
 7025SOL    HW221975   3.277   7.017   0.343
 7026SOL     OW21976   3.204   2.296   1.343
 7026SOL    HW121977   3.178   2.237   1.420
 7026SOL    HW221978   3.121   2.325   1.295
 7027SOL     OW21979   2.233   5.683   1.572
 7027SOL    HW121980   2.283   5.608   1.529
 7027SOL    HW221981   2.273   5.770   1.543
 7028SOL     OW21982   3.294   0.357   3.632
 7028SOL    HW121983   3.228   0.428   3.656
 7028SOL    HW221984   3.381   0.374   3.678
 7029SOL     OW21985   3.297   3.243   5.147
 7029SOL    HW121986   3.385   3.196   5.158
 7029SOL    HW221987   3.243   3.232   5.230
 7030SOL     OW21988   6.769   1.566   4.684
 7030SOL    HW121989   6.773   1.563   4.584
 7030SOL    HW221990   6.698   1.504   4.717
 7031SOL     OW21991   4.509   6.681   0.615
 7031SOL    HW121992   4.599   6.701   0.577
 7031SOL    HW221993   4.441   6.741   0.571
 7032SOL     OW21994   3.873   0.170   4.549
 7032SOL    HW121995   3.879   0.200   4.644
 7032SOL    HW221996   3.780   0.183   4.516
 7033SOL     OW21997   1.339   2.423   5.641
 7033SOL    HW121998   1.373   2.372   5.562
 7033SOL    HW221999   1.396   2.503   5.656
 7034SOL     OW22000   6.356   1.723   2.906
 7034SOL    HW122001   6.415   1.646   2.929
 7034SOL    HW222002   6.412   1.799   2.873
 7035SOL     OW22003   2.118   0.617   1.033
 7035SOL    HW122004   2.181   0.619   0.955
 7035SOL    HW222005   2.080   0.525   1.041
 7036SOL     OW22006   0.071   1.246   2.169
 7036SOL    HW122007   0.092   1.223   2.263
 7036SOL    HW222008   0.146   1.298   2.129
 7037SOL     OW22009   0.578   0.447   6.111
 7037SOL    HW122010   0.560   0.348   6.114
 7037SOL    HW222011   0.665   0.463   6.064
 7038SOL     OW22012   1.963   3.325   6.423
 7038SOL    HW122013   2.025   3.397   6.391
 7038SOL    HW222014   1.885   3.319   6.361
 7039SOL     OW22015   0.217   5.895   3.116
 7039SOL    HW122016   0.187   5.982   3.079
 7039SOL    HW222017   0.220   5.827   3.043
 7040SOL     OW22018   4.263   2.167   5.510
 7040SOL    HW122019   4.277   2.121   5.423
 7040SOL    HW222020   4.188   2.123   5.559
 7041SOL     OW22021   1.206   0.626   4.182
 7041SOL    HW122022   1.241   0.586   4.267
 7041SOL    HW222023   1.282   0.639   4.118
 7042SOL     OW22024   4.527   6.352   5.107
 7042SOL    HW122025   4.603   6.289   5.118
 7042SOL    HW222026   4.545   6.414   5.030
 7043SOL     OW22027   2.365   4.766   3.002
 7043SOL    HW122028   2.278   4.717   3.005
 7043SOL    HW222029   2.362   4.845   3.062
 7044SOL     OW22030   5.431   6.100   4.137
 7044SOL    HW122031   5.495   6.166   4.177
 7044SOL    HW222032   5.352   6.149   4.100
 7045SOL     OW22033   6.259   5.470   2.410
 7045SOL    HW122034   6.327   5.419   2.462
 7045SOL    HW222035   6.255   5.434   2.316
 7046SOL     OW22036   3.077   2.060   4.323
 7046SOL    HW122037   3.020   1.987   4.359
 7046SOL    HW222038   3.158   2.071   4.381
 7047SOL     OW22039   0.317   0.026   0.235
 7047SOL    HW122040   0.415   0.015   0.250
 7047SOL    HW222041   0.299   0.033   0.137
 7048SOL     OW22042   6.956   5.584   4.831
 7048SOL    HW122043   6.870   5.609   4.785
 7048SOL    HW222044   6.942   5.501   4.885
 7049SOL     OW22045   3.855   1.222   2.249
 7049SOL    HW122046   3.848   1.138   2.302
 7049SOL    HW222047   3.869   1.199   2.153
 7050SOL     OW22048   4.033   4.316   0.788
 7050SOL    HW122049   4.104   4.324   0.719
 7050SOL    HW222050   3.956   4.264   0.751
 7051SOL     OW22051   0.169   6.885   0.960
 7051SOL    HW122052   0.201   6.940   1.037
 7051SOL    HW222053   0.247   6.839   0.917
 7052SOL     OW22054   6.171   6.990   2.683
 7052SOL    HW122055   6.145   0.042   2.617
 7052SOL    HW222056   6.261   7.010   2.720
 7053SOL     OW22057   1.582   2.829   3.576
 7053SOL    HW122058   1.666   2.881   3.593
 7053SOL    HW222059   1.601   2.756   3.510
 7054SOL     OW22060   6.557   0.246   0.584
 7054SOL    HW122061   6.469   0.276   0.547
 7054SOL    HW222062   6.624   0.320   0.576
 7055SOL     OW22063   2.311   0.801   6.784
 7055SOL    HW122064   2.276   0.799   6.877
 7055SOL    HW222065   2.258   0.867   6.730
 7056SOL     OW22066   0.176   5.332   1.512
 7056SOL    HW122067   0.130   5.256   1.558
 7056SOL    HW222068   0.187   5.309   1.415
 7057SOL     OW22069   3.118   4.967   5.122
 7057SOL    HW122070   3.196   4.966   5.185
 7057SOL    HW222071   3.141   5.022   5.042
 7058SOL     OW22072   5.341   2.639   5.952
 7058SOL    HW122073   5.309   2.552   5.915
 7058SOL    HW222074   5.379   2.695   5.878
 7059SOL     OW22075   1.949   0.861   4.507
 7059SOL    HW122076   2.037   0.903   4.527
 7059SOL    HW222077   1.875   0.921   4.539
 7060SOL     OW22078   3.303   0.503   2.016
 7060SOL    HW122079   3.347   0.550   2.093
 7060SOL    HW222080   3.363   0.509   1.936
 7061SOL     OW22081   0.702   2.214   2.974
 7061SOL    HW122082   0.777   2.238   2.912
 7061SOL    HW222083   0.725   2.244   3.067
 7062SOL     OW22084   4.181   1.967   3.252
 7062SOL    HW122085   4.239   1.971   3.170
 7062SOL    HW222086   4.088   1.942   3.225
 7063SOL     OW22087   0.531   0.894   1.845
 7063SOL    HW122088   0.511   0.956   1.920
 7063SOL    HW222089   0.601   0.828   1.873
 7064SOL     OW22090   4.921   1.925   5.423
 7064SOL    HW122091   4.821   1.918   5.427
 7064SOL    HW222092   4.953   1.900   5.331
 7065SOL     OW22093   3.588   4.291   5.565
 7065SOL    HW122094   3.547   4.378   5.594
 7065SOL    HW222095   3.604   4.293   5.467
 7066SOL     OW22096   4.034   0.546   0.119
 7066SOL    HW122097   4.022   0.627   0.062
 7066SOL    HW222098   3.998   0.565   0.211
 7067SOL     OW22099   2.133   3.124   0.006
 7067SOL    HW122100   2.147   3.055   6.954
 7067SOL    HW222101   2.073   3.087   0.077
 7068SOL     OW22102   4.743   4.439   4.414
 7068SOL    HW122103   4.708   4.374   4.482
 7068SOL    HW222104   4.821   4.398   4.366
 7069SOL     OW22105   5.780   0.199   6.510
 7069SOL    HW122106   5.747   0.113   6.549
 7069SOL    HW222107   5.725   0.275   6.545
 7070SOL     OW22108   0.348   6.418   5.333
 7070SOL    HW122109   0.411   6.495   5.328
 7070SOL    HW222110   0.372   6.360   5.411
 7071SOL     OW22111   5.431   5.978   6.889
 7071SOL    HW122112   5.514   5.940   6.846
 7071SOL    HW222113   5.408   6.065   6.845
 7072SOL     OW22114   0.417   3.871   6.735
 7072SOL    HW122115   0.323   3.840   6.750
 7072SOL    HW222116   0.420   3.971   6.743
 7073SOL     OW22117   5.453   1.191   2.967
 7073SOL    HW122118   5.355   1.200   2.986
 7073SOL    HW222119   5.485   1.101   2.998
 7074SOL     OW22120   5.878   4.121   2.810
 7074SOL    HW122121   5.787   4.162   2.807
 7074SOL    HW222122   5.937   4.167   2.744
 7075SOL     OW22123   3.342   5.284   4.224
 7075SOL    HW122124   3.244   5.261   4.220
 7075SOL    HW222125   3.373   5.311   4.133
 7076SOL     OW22126   5.714   3.218   3.012
 7076SOL    HW122127   5.632   3.268   3.038
 7076SOL    HW222128   5.792   3.281   3.008
 7077SOL     OW22129   3.028   5.082   1.306
 7077SOL    HW122130   3.054   5.058   1.399
 7077SOL    HW222131   2.930   5.069   1.293
 7078SOL     OW22132   5.003   0.168   0.502
 7078SOL    HW122133   5.018   0.230   0.425
 7078SOL    HW222134   5.045   0.080   0.482
 7079SOL     OW22135   1.077   6.944   4.313
 7079SOL    HW122136   1.031   6.988   4.236
 7079SOL    HW222137   1.021   6.953   4.396
 7080SOL     OW22138   3.794   1.748   5.303
 7080SOL    HW122139   3.888   1.726   5.280
 7080SOL    HW222140   3.754   1.804   5.231
 7081SOL     OW22141   1.611   1.200   6.802
 7081SOL    HW122142   1.643   1.154   6.719
 7081SOL    HW222143   1.683   1.260   6.837
 7082SOL     OW22144   6.613   4.124   2.637
 7082SOL    HW122145   6.572   4.122   2.545
 7082SOL    HW222146   6.567   4.056   2.694
 7083SOL     OW22147   6.862   3.473   2.393
 7083SOL    HW122148   6.956   3.481   2.362
 7083SOL    HW222149   6.800   3.483   2.314
 7084SOL     OW22150   1.020   5.859   0.198
 7084SOL    HW122151   0.951   5.787   0.202
 7084SOL    HW222152   0.998   5.930   0.265
 7085SOL     OW22153   0.557   3.190   2.596
 7085SOL    HW122154   0.476   3.214   2.649
 7085SOL    HW222155   0.619   3.136   2.653
 7086SOL     OW22156   5.677   0.990   4.886
 7086SOL    HW122157   5.771   0.968   4.859
 7086SOL    HW222158   5.613   0.935   4.833
 7087SOL     OW22159   5.544   3.398   3.367
 7087SOL    HW122160   5.549   3.457   3.448
 7087SOL    HW222161   5.498   3.446   3.293
 7088SOL     OW22162   5.832   1.659   4.829
 7088SOL    HW122163   5.923   1.683   4.861
 7088SOL    HW222164   5.786   1.741   4.794
 7089SOL     OW22165   3.226   5.412   2.078
 7089SOL    HW122166   3.213   5.325   2.030
 7089SOL    HW222167   3.150   5.428   2.141
 7090SOL     OW22168   4.007   2.050   1.124
 7090SOL    HW122169   3.944   2.073   1.198
 7090SOL    HW222170   4.056   2.132   1.096
 7091SOL     OW22171   0.208   6.875   6.422
 7091SOL    HW122172   0.227   6.793   6.476
 7091SOL    HW222173   0.197   6.953   6.483
 7092SOL     OW22174   4.564   2.384   6.762
 7092SOL    HW122175   4.505   2.310   6.731
 7092SOL    HW222176   4.627   2.409   6.688
 7093SOL     OW22177   3.207   4.139   0.901
 7093SOL    HW122178   3.130   4.188   0.943
 7093SOL    HW222179   3.173   4.082   0.827
 7094SOL     OW22180   2.539   6.736   5.700
 7094SOL    HW122181   2.542   6.829   5.664
 7094SOL    HW222182   2.577   6.673   5.632
 7095SOL     OW22183   2.792   4.252   5.331
 7095SOL    HW122184   2.745   4.340   5.336
 7095SOL    HW222185   2.866   4.250   5.398
 7096SOL     OW22186   7.002   0.933   1.185
 7096SOL    HW122187   6.975   0.878   1.264
 7096SOL    HW222188   0.081   0.954   1.190
 7097SOL     OW22189   4.725   0.837   1.575
 7097SOL    HW122190   4.777   0.922   1.564
 7097SOL    HW222191   4.750   0.773   1.503
 7098SOL     OW22192   0.669   6.918   4.551
 7098SOL    HW122193   0.573   6.918   4.580
 7098SOL    HW222194   0.722   6.859   4.611
 7099SOL     OW22195   2.847   2.302   3.842
 7099SOL    HW122196   2.753   2.335   3.836
 7099SOL    HW222197   2.873   2.294   3.939
 7100SOL     OW22198   6.542   3.897   0.743
 7100SOL    HW122199   6.464   3.936   0.694
 7100SOL    HW222200   6.532   3.916   0.841
 7101SOL     OW22201   2.200   6.171   5.316
 7101SOL    HW122202   2.256   6.121   5.250
 7101SOL    HW222203   2.232   6.151   5.409
 7102SOL     OW22204   5.582   0.817   1.427
 7102SOL    HW122205   5.609   0.902   1.383
 7102SOL    HW222206   5.540   0.838   1.516
 7103SOL     OW22207   4.799   4.276   2.884
 7103SOL    HW122208   4.789   4.177   2.895
 7103SOL    HW222209   4.710   4.320   2.892
 7104SOL     OW22210   4.874   3.548   3.440
 7104SOL    HW122211   4.860   3.633   3.388
 7104SOL    HW222212   4.880   3.569   3.537
 7105SOL     OW22213   2.893   3.503   3.919
 7105SOL    HW122214   2.893   3.575   3.989
 7105SOL    HW222215   2.923   3.417   3.960
 7106SOL     OW22216   2.749   3.276   1.242
 7106SOL    HW122217   2.685   3.214   1.286
 7106SOL    HW222218   2.752   3.257   1.144
 7107SOL     OW22219   4.272   0.588   6.906
 7107SOL    HW122220   4.324   0.616   6.825
 7107SOL    HW222221   4.267   0.664   6.971
 7108SOL     OW22222   3.306   0.361   2.402
 7108SOL    HW122223   3.319   0.449   2.356
 7108SOL    HW222224   3.395   0.318   2.417
 7109SOL     OW22225   1.881   6.986   5.672
 7109SOL    HW122226   1.917   6.914   5.613
 7109SOL    HW222227   1.922   6.979   5.763
 7110SOL     OW22228   3.427   6.118   4.677
 7110SOL    HW122229   3.455   6.064   4.757
 7110SOL    HW222230   3.381   6.058   4.611
 7111SOL     OW22231   0.040   0.571   4.116
 7111SOL    HW122232   0.137   0.549   4.122
 7111SOL    HW222233   7.010   0.524   4.189
 7112SOL     OW22234   1.755   5.089   4.505
 7112SOL    HW122235   1.717   5.024   4.571
 7112SOL    HW222236   1.705   5.175   4.512
 7113SOL     OW22237   3.162   4.995   5.501
 7113SOL    HW122238   3.131   5.090   5.500
 7113SOL    HW222239   3.244   4.985   5.445
 7114SOL     OW22240   4.839   5.031   0.311
 7114SOL    HW122241   4.747   5.016   0.347
 7114SOL    HW222242   4.835   5.037   0.211
 7115SOL     OW22243   6.293   4.371   0.307
 7115SOL    HW122244   6.210   4.418   0.337
 7115SOL    HW222245   6.369   4.396   0.366
 7116SOL     OW22246   6.698   3.665   4.533
 7116SOL    HW122247   6.710   3.636   4.438
 7116SOL    HW222248   6.604   3.695   4.547
 7117SOL     OW22249   6.141   0.056   3.036
 7117SOL    HW122250   6.082   6.996   3.017
 7117SOL    HW222251   6.232   0.040   2.998
 7118SOL     OW22252   4.013   4.782   5.468
 7118SOL    HW122253   4.063   4.742   5.391
 7118SOL    HW222254   3.925   4.818   5.437
 7119SOL     OW22255   4.270   0.125   4.550
 7119SOL    HW122256   4.273   0.216   4.508
 7119SOL    HW222257   4.267   0.135   4.649
 7120SOL     OW22258   5.049   1.028   1.038
 7120SOL    HW122259   4.984   1.002   0.967
 7120SOL    HW222260   5.141   1.002   1.011
 7121SOL     OW22261   1.236   6.326   2.953
 7121SOL    HW122262   1.191   6.271   3.023
 7121SOL    HW222263   1.173   6.395   2.918
 7122SOL     OW22264   2.537   0.543   6.023
 7122SOL    HW122265   2.573   0.462   5.976
 7122SOL    HW222266   2.582   0.553   6.111
 7123SOL     OW22267   5.345   5.309   6.165
 7123SOL    HW122268   5.371   5.227   6.215
 7123SOL    HW222269   5.355   5.294   6.067
 7124SOL     OW22270   1.085   2.083   1.613
 7124SOL    HW122271   1.069   2.137   1.696
 7124SOL    HW222272   1.071   2.141   1.533
 7125SOL     OW22273   1.336   0.036   1.210
 7125SOL    HW122274   1.433   0.055   1.225
 7125SOL    HW222275   1.303   6.992   1.280
 7126SOL     OW22276   4.064   5.989   1.401
 7126SOL    HW122277   3.996   6.024   1.465
 7126SOL    HW222278   4.018   5.934   1.331
 7127SOL     OW22279   2.869   6.400   5.318
 7127SOL    HW122280   2.788   6.401   5.259
 7127SOL    HW222281   2.843   6.363   5.408
 7128SOL     OW22282   4.010   4.267   6.577
 7128SOL    HW122283   4.108   4.281   6.563
 7128SOL    HW222284   3.964   4.265   6.488
 7129SOL     OW22285   0.271   0.106   0.676
 7129SOL    HW122286   0.312   0.137   0.762
 7129SOL    HW222287   0.205   0.033   0.696
 7130SOL     OW22288   3.543   6.366   4.314
 7130SOL    HW122289   3.454   6.343   4.273
 7130SOL    HW222290   3.608   6.388   4.242
 7131SOL     OW22291   4.240   0.770   2.500
 7131SOL    HW122292   4.191   0.737   2.581
 7131SOL    HW222293   4.201   0.729   2.418
 7132SOL     OW22294   5.459   4.021   0.449
 7132SOL    HW122295   5.396   3.945   0.465
 7132SOL    HW222296   5.550   3.996   0.483
 7133SOL     OW22297   3.531   5.746   3.443
 7133SOL    HW122298   3.532   5.765   3.344
 7133SOL    HW222299   3.495   5.655   3.459
 7134SOL     OW22300   5.851   5.199   1.390
 7134SOL    HW122301   5.796   5.143   1.329
 7134SOL    HW222302   5.828   5.179   1.485
 7135SOL     OW22303   2.136   2.999   1.576
 7135SOL    HW122304   2.144   2.944   1.493
 7135SOL    HW222305   2.043   2.992   1.612
 7136SOL     OW22306   2.347   1.566   1.721
 7136SOL    HW122307   2.433   1.521   1.697
 7136SOL    HW222308   2.272   1.522   1.671
 7137SOL     OW22309   2.577   2.127   1.262
 7137SOL    HW122310   2.661   2.177   1.283
 7137SOL    HW222311   2.587   2.032   1.291
 7138SOL     OW22312   1.367   2.611   0.858
 7138SOL    HW122313   1.393   2.517   0.882
 7138SOL    HW222314   1.413   2.675   0.920
 7139SOL     OW22315   6.159   5.760   1.351
 7139SOL    HW122316   6.228   5.763   1.424
 7139SOL    HW222317   6.188   5.695   1.281
 7140SOL     OW22318   6.734   3.180   0.494
 7140SOL    HW122319   6.637   3.201   0.498
 7140SOL    HW222320   6.753   3.100   0.552
 7141SOL     OW22321   3.947   0.155   1.045
 7141SOL    HW122322   3.859   0.165   1.091
 7141SOL    HW222323   3.977   0.243   1.010
 7142SOL     OW22324   2.728   0.354   4.867
 7142SOL    HW122325   2.659   0.373   4.938
 7142SOL    HW222326   2.774   0.440   4.843
 7143SOL     OW22327   2.725   4.571   6.985
 7143SOL    HW122328   2.682   4.504   6.924
 7143SOL    HW222329   2.735   4.531   0.057
 7144SOL     OW22330   6.481   0.306   5.350
 7144SOL    HW122331   6.534   0.329   5.269
 7144SOL    HW222332   6.435   0.218   5.336
 7145SOL     OW22333   4.918   2.310   6.388
 7145SOL    HW122334   4.911   2.217   6.421
 7145SOL    HW222335   4.840   2.364   6.420
 7146SOL     OW22336   1.695   1.451   5.231
 7146SOL    HW122337   1.615   1.488   5.182
 7146SOL    HW222338   1.665   1.404   5.314
 7147SOL     OW22339   5.899   5.668   1.667
 7147SOL    HW122340   5.881   5.697   1.761
 7147SOL    HW222341   5.966   5.594   1.667
 7148SOL     OW22342   0.032   6.418   1.070
 7148SOL    HW122343   0.125   6.384   1.056
 7148SOL    HW222344   0.029   6.516   1.052
 7149SOL     OW22345   6.507   5.037   4.665
 7149SOL    HW122346   6.525   5.004   4.572
 7149SOL    HW222347   6.586   5.090   4.697
 7150SOL     OW22348   3.965   3.493   0.003
 7150SOL    HW122349   3.904   3.495   0.082
 7150SOL    HW222350   4.002   3.585   7.007
 7151SOL     OW22351   3.853   0.764   0.921
 7151SOL    HW122352   3.836   0.704   0.999
 7151SOL    HW222353   3.812   0.854   0.938
 7152SOL     OW22354   6.550   1.614   6.647
 7152SOL    HW122355   6.614   1.610   6.725
 7152SOL    HW222356   6.601   1.602   6.562
 7153SOL     OW22357   3.796   6.141   1.036
 7153SOL    HW122358   3.775   6.213   0.970
 7153SOL    HW222359   3.827   6.182   1.122
 7154SOL     OW22360   3.949   1.583   1.484
 7154SOL    HW122361   3.919   1.633   1.566
 7154SOL    HW222362   3.875   1.523   1.453
 7155SOL     OW22363   2.598   1.278   2.388
 7155SOL    HW122364   2.599   1.378   2.394
 7155SOL    HW222365   2.543   1.240   2.462
 7156SOL     OW22366   5.944   4.355   0.132
 7156SOL    HW122367   5.856   4.328   0.171
 7156SOL    HW222368   5.980   4.281   0.076
 7157SOL     OW22369   6.002   4.600   6.538
 7157SOL    HW122370   5.926   4.579   6.600
 7157SOL    HW222371   6.071   4.528   6.545
 7158SOL     OW22372   4.970   6.751   3.825
 7158SOL    HW122373   5.065   6.769   3.802
 7158SOL    HW222374   4.957   6.757   3.924
 7159SOL     OW22375   0.726   6.038   3.499
 7159SOL    HW122376   0.660   6.106   3.469
 7159SOL    HW222377   0.707   5.951   3.454
 7160SOL     OW22378   6.456   6.914   3.140
 7160SOL    HW122379   6.399   6.865   3.206
 7160SOL    HW222380   6.488   7.000   3.180
 7161SOL     OW22381   4.076   3.291   3.549
 7161SOL    HW122382   4.067   3.192   3.559
 7161SOL    HW222383   3.989   3.330   3.521
 7162SOL     OW22384   0.099   5.243   2.249
 7162SOL    HW122385   0.006   5.273   2.269
 7162SOL    HW222386   0.099   5.187   2.166
 7163SOL     OW22387   1.147   1.649   2.380
 7163SOL    HW122388   1.215   1.717   2.407
 7163SOL    HW222389   1.100   1.680   2.297
 7164SOL     OW22390   1.898   1.110   6.572
 7164SOL    HW122391   1.922   1.199   6.535
 7164SOL    HW222392   1.931   1.102   6.666
 7165SOL     OW22393   5.736   1.417   0.476
 7165SOL    HW122394   5.791   1.334   0.464
 7165SOL    HW222395   5.662   1.417   0.408
 7166SOL     OW22396   6.096   6.173   5.810
 7166SOL    HW122397   6.122   6.250   5.752
 7166SOL    HW222398   6.084   6.204   5.904
 7167SOL     OW22399   5.803   2.310   4.880
 7167SOL    HW122400   5.775   2.233   4.938
 7167SOL    HW222401   5.750   2.391   4.904
 7168SOL     OW22402   2.791   0.878   2.087
 7168SOL    HW122403   2.764   0.921   2.001
 7168SOL    HW222404   2.790   0.945   2.160
 7169SOL     OW22405   1.653   4.232   6.585
 7169SOL    HW122406   1.561   4.269   6.599
 7169SOL    HW222407   1.670   4.220   6.487
 7170SOL     OW22408   3.690   1.461   1.447
 7170SOL    HW122409   3.591   1.477   1.446
 7170SOL    HW222410   3.725   1.464   1.353
 7171SOL     OW22411   6.885   4.503   0.775
 7171SOL    HW122412   6.815   4.435   0.798
 7171SOL    HW222413   6.848   4.594   0.791
 7172SOL     OW22414   1.287   1.028   4.111
 7172SOL    HW122415   1.252   1.121   4.111
 7172SOL    HW222416   1.211   0.964   4.119
 7173SOL     OW22417   4.978   6.000   6.372
 7173SOL    HW122418   5.003   6.083   6.422
 7173SOL    HW222419   5.021   5.920   6.415
 7174SOL     OW22420   6.065   4.644   1.797
 7174SOL    HW122421   5.992   4.664   1.864
 7174SOL    HW222422   6.072   4.545   1.785
 7175SOL     OW22423   5.449   3.903   5.852
 7175SOL    HW122424   5.524   3.946   5.802
 7175SOL    HW222425   5.455   3.927   5.949
 7176SOL     OW22426   0.850   0.635   5.496
 7176SOL    HW122427   0.936   0.677   5.525
 7176SOL    HW222428   0.820   0.569   5.564
 7177SOL     OW22429   1.788   4.946   3.829
 7177SOL    HW122430   1.753   4.866   3.780
 7177SOL    HW222431   1.826   5.011   3.764
 7178SOL     OW22432   1.551   1.017   5.501
 7178SOL    HW122433   1.617   1.023   5.576
 7178SOL    HW222434   1.579   0.943   5.440
 7179SOL     OW22435   3.176   5.910   6.275
 7179SOL    HW122436   3.207   5.815   6.266
 7179SOL    HW222437   3.256   5.970   6.283
 7180SOL     OW22438   1.418   4.246   0.624
 7180SOL    HW122439   1.504   4.211   0.660
 7180SOL    HW222440   1.430   4.340   0.592
 7181SOL     OW22441   2.249   1.301   6.250
 7181SOL    HW122442   2.252   1.235   6.325
 7181SOL    HW222443   2.207   1.386   6.282
 7182SOL     OW22444   1.313   2.517   4.367
 7182SOL    HW122445   1.329   2.615   4.365
 7182SOL    HW222446   1.397   2.468   4.342
 7183SOL     OW22447   0.403   6.397   1.935
 7183SOL    HW122448   0.363   6.471   1.881
 7183SOL    HW222449   0.489   6.427   1.975
 7184SOL     OW22450   6.229   0.358   3.510
 7184SOL    HW122451   6.206   0.289   3.579
 7184SOL    HW222452   6.183   0.335   3.424
 7185SOL     OW22453   4.555   0.934   4.375
 7185SOL    HW122454   4.564   1.031   4.356
 7185SOL    HW222455   4.618   0.908   4.449
 7186SOL     OW22456   0.160   6.897   6.836
 7186SOL    HW122457   0.173   6.969   6.768
 7186SOL    HW222458   0.186   6.931   6.926
 7187SOL     OW22459   3.501   2.908   4.110
 7187SOL    HW122460   3.561   2.954   4.175
 7187SOL    HW222461   3.405   2.924   4.136
 7188SOL     OW22462   3.970   4.515   6.827
 7188SOL    HW122463   4.069   4.527   6.814
 7188SOL    HW222464   3.949   4.418   6.838
 7189SOL     OW22465   6.332   2.855   5.965
 7189SOL    HW122466   6.239   2.822   5.976
 7189SOL    HW222467   6.364   2.896   6.050
 7190SOL     OW22468   5.733   5.733   1.146
 7190SOL    HW122469   5.764   5.667   1.078
 7190SOL    HW222470   5.650   5.778   1.114
 7191SOL     OW22471   0.202   4.186   3.833
 7191SOL    HW122472   0.154   4.211   3.748
 7191SOL    HW222473   0.301   4.190   3.817
 7192SOL     OW22474   1.451   4.891   6.689
 7192SOL    HW122475   1.486   4.805   6.652
 7192SOL    HW222476   1.436   4.955   6.614
 7193SOL     OW22477   2.337   2.749   2.679
 7193SOL    HW122478   2.282   2.666   2.678
 7193SOL    HW222479   2.377   2.765   2.589
 7194SOL     OW22480   2.770   2.545   6.102
 7194SOL    HW122481   2.811   2.524   6.014
 7194SOL    HW222482   2.810   2.488   6.173
 7195SOL     OW22483   6.881   3.780   5.825
 7195SOL    HW122484   6.898   3.825   5.737
 7195SOL    HW222485   6.924   3.690   5.825
 7196SOL     OW22486   3.304   3.665   2.162
 7196SOL    HW122487   3.301   3.757   2.123
 7196SOL    HW222488   3.271   3.668   2.256
 7197SOL     OW22489   2.467   3.674   5.965
 7197SOL    HW122490   2.538   3.711   6.025
 7197SOL    HW222491   2.506   3.653   5.875
 7198SOL     OW22492   0.177   0.499   1.487
 7198SOL    HW122493   0.215   0.413   1.522
 7198SOL    HW222494   0.100   0.526   1.544
 7199SOL     OW22495   0.815   1.091   1.987
 7199SOL    HW122496   0.741   1.078   2.053
 7199SOL    HW222497   0.900   1.053   2.025
 7200SOL     OW22498   1.237   2.457   0.567
 7200SOL    HW122499   1.151   2.468   0.617
 7200SOL    HW222500   1.311   2.501   0.618
 7201SOL     OW22501   5.794   5.425   3.801
 7201SOL    HW122502   5.784   5.331   3.834
 7201SOL    HW222503   5.872   5.467   3.845
 7202SOL     OW22504   5.015   0.537   5.733
 7202SOL    HW122505   4.955   0.602   5.780
 7202SOL    HW222506   4.980   0.522   5.640
 7203SOL     OW22507   0.577   1.455   2.058
 7203SOL    HW122508   0.602   1.412   2.146
 7203SOL    HW222509   0.660   1.470   2.004
 7204SOL     OW22510   6.796   6.992   1.174
 7204SOL    HW122511   6.770   0.055   1.223
 7204SOL    HW222512   6.722   6.966   1.111
 7205SOL     OW22513   2.371   2.077   5.004
 7205SOL    HW122514   2.390   2.057   4.908
 7205SOL    HW222515   2.408   2.167   5.028
 7206SOL     OW22516   1.850   2.816   1.178
 7206SOL    HW122517   1.789   2.738   1.193
 7206SOL    HW222518   1.796   2.901   1.179
 7207SOL     OW22519   1.829   1.453   4.252
 7207SOL    HW122520   1.841   1.495   4.162
 7207SOL    HW222521   1.734   1.422   4.261
 7208SOL     OW22522   2.728   0.278   4.059
 7208SOL    HW122523   2.731   0.291   4.158
 7208SOL    HW222524   2.694   0.362   4.016
 7209SOL     OW22525   2.770   1.879   2.447
 7209SOL    HW122526   2.753   1.908   2.353
 7209SOL    HW222527   2.685   1.884   2.499
 7210SOL     OW22528   2.709   1.357   3.025
 7210SOL    HW122529   2.681   1.289   2.957
 7210SOL    HW222530   2.756   1.311   3.101
 7211SOL     OW22531   3.158   5.589   4.840
 7211SOL    HW122532   3.197   5.556   4.926
 7211SOL    HW222533   3.068   5.628   4.857
 7212SOL     OW22534   5.952   4.460   6.144
 7212SOL    HW122535   5.990   4.484   6.055
 7212SOL    HW222536   5.973   4.532   6.211
 7213SOL     OW22537   4.079   1.219   0.681
 7213SOL    HW122538   4.014   1.164   0.629
 7213SOL    HW222539   4.168   1.219   0.634
 7214SOL     OW22540   7.017   1.368   6.689
 7214SOL    HW122541   0.068   1.420   6.739
 7214SOL    HW222542   6.929   1.414   6.698
 7215SOL     OW22543   6.973   2.626   2.474
 7215SOL    HW122544   6.876   2.637   2.454
 7215SOL    HW222545   6.989   2.536   2.513
 7216SOL     OW22546   3.156   6.113   2.912
 7216SOL    HW122547   3.198   6.032   2.872
 7216SOL    HW222548   3.223   6.161   2.968
 7217SOL     OW22549   1.176   4.379   3.868
 7217SOL    HW122550   1.211   4.323   3.793
 7217SOL    HW222551   1.248   4.442   3.899
 7218SOL     OW22552   6.059   3.869   4.298
 7218SOL    HW122553   6.038   3.967   4.307
 7218SOL    HW222554   5.973   3.817   4.298
 7219SOL     OW22555   3.961   6.129   1.953
 7219SOL    HW122556   3.993   6.187   2.028
 7219SOL    HW222557   4.039   6.090   1.905
 7220SOL     OW22558   6.220   4.921   4.328
 7220SOL    HW122559   6.235   4.998   4.391
 7220SOL    HW222560   6.121   4.906   4.317
 7221SOL     OW22561   3.486   5.826   5.087
 7221SOL    HW122562   3.387   5.837   5.093
 7221SOL    HW222563   3.531   5.895   5.143
 7222SOL     OW22564   6.873   6.931   4.294
 7222SOL    HW122565   6.964   6.916   4.334
 7222SOL    HW222566   6.868   6.884   4.206
 7223SOL     OW22567   0.998   2.442   0.723
 7223SOL    HW122568   0.967   2.446   0.818
 7223SOL    HW222569   1.029   2.349   0.701
 7224SOL     OW22570   3.981   2.139   3.492
 7224SOL    HW122571   3.976   2.153   3.393
 7224SOL    HW222572   3.888   2.127   3.527
 7225SOL     OW22573   1.492   0.113   0.782
 7225SOL    HW122574   1.415   0.166   0.819
 7225SOL    HW222575   1.466   0.075   0.693
 7226SOL     OW22576   5.950   6.657   0.149
 7226SOL    HW122577   5.996   6.724   0.090
 7226SOL    HW222578   5.852   6.656   0.129
 7227SOL     OW22579   2.746   1.243   2.059
 7227SOL    HW122580   2.825   1.288   2.017
 7227SOL    HW222581   2.778   1.171   2.121
 7228SOL     OW22582   0.796   3.077   2.316
 7228SOL    HW122583   0.806   3.156   2.377
 7228SOL    HW222584   0.797   3.109   2.221
 7229SOL     OW22585   6.727   0.388   5.174
 7229SOL    HW122586   6.774   0.474   5.194
 7229SOL    HW222587   6.675   0.397   5.089
 7230SOL     OW22588   1.919   5.116   4.258
 7230SOL    HW122589   1.870   5.124   4.344
 7230SOL    HW222590   2.011   5.080   4.275
 7231SOL     OW22591   4.551   1.810   6.416
 7231SOL    HW122592   4.557   1.821   6.515
 7231SOL    HW222593   4.485   1.738   6.394
 7232SOL     OW22594   5.875   6.730   3.172
 7232SOL    HW122595   5.791   6.734   3.117
 7232SOL    HW222596   5.943   6.675   3.124
 7233SOL     OW22597   6.544   1.330   5.191
 7233SOL    HW122598   6.628   1.310   5.242
 7233SOL    HW222599   6.515   1.248   5.141
 7234SOL     OW22600   5.217   3.688   2.697
 7234SOL    HW122601   5.316   3.685   2.685
 7234SOL    HW222602   5.185   3.599   2.730
 7235SOL     OW22603   0.121   5.958   1.483
 7235SOL    HW122604   0.036   5.907   1.491
 7235SOL    HW222605   0.188   5.904   1.433
 7236SOL     OW22606   2.517   2.623   3.311
 7236SOL    HW122607   2.500   2.570   3.394
 7236SOL    HW222608   2.572   2.568   3.248
 7237SOL     OW22609   5.027   0.364   0.051
 7237SOL    HW122610   5.105   0.405   0.004
 7237SOL    HW222611   5.038   0.376   0.150
 7238SOL     OW22612   4.475   3.370   0.278
 7238SOL    HW122613   4.564   3.356   0.321
 7238SOL    HW222614   4.444   3.463   0.294
 7239SOL     OW22615   0.761   3.542   2.326
 7239SOL    HW122616   0.804   3.616   2.377
 7239SOL    HW222617   0.785   3.549   2.229
 7240SOL     OW22618   6.619   1.766   5.978
 7240SOL    HW122619   6.566   1.753   5.894
 7240SOL    HW222620   6.621   1.863   6.002
 7241SOL     OW22621   2.668   1.545   1.920
 7241SOL    HW122622   2.734   1.577   1.987
 7241SOL    HW222623   2.619   1.465   1.956
 7242SOL     OW22624   0.028   5.096   4.218
 7242SOL    HW122625   7.012   5.084   4.311
 7242SOL    HW222626   6.975   5.132   4.159
 7243SOL     OW22627   6.269   4.148   6.198
 7243SOL    HW122628   6.186   4.183   6.241
 7243SOL    HW222629   6.327   4.105   6.267
 7244SOL     OW22630   0.408   6.502   6.956
 7244SOL    HW122631   0.401   6.600   6.973
 7244SOL    HW222632   0.318   6.466   6.931
 7245SOL     OW22633   1.938   2.467   6.866
 7245SOL    HW122634   1.868   2.411   6.912
 7245SOL    HW222635   1.955   2.431   6.774
 7246SOL     OW22636   2.756   0.403   3.539
 7246SOL    HW122637   2.827   0.467   3.569
 7246SOL    HW222638   2.772   0.313   3.580
 7247SOL     OW22639   2.531   2.612   5.298
 7247SOL    HW122640   2.560   2.664   5.379
 7247SOL    HW222641   2.465   2.542   5.326
 7248SOL     OW22642   3.425   0.641   4.384
 7248SOL    HW122643   3.326   0.632   4.378
 7248SOL    HW222644   3.463   0.660   4.293
 7249SOL     OW22645   4.080   5.189   2.017
 7249SOL    HW122646   4.069   5.254   2.092
 7249SOL    HW222647   4.106   5.100   2.054
 7250SOL     OW22648   5.039   6.008   5.626
 7250SOL    HW122649   5.114   5.943   5.632
 7250SOL    HW222650   4.963   5.978   5.684
 7251SOL     OW22651   0.563   6.145   5.349
 7251SOL    HW122652   0.613   6.160   5.435
 7251SOL    HW222653   0.482   6.089   5.367
 7252SOL     OW22654   3.025   3.919   2.496
 7252SOL    HW122655   3.074   3.971   2.566
 7252SOL    HW222656   2.959   3.859   2.539
 7253SOL     OW22657   1.140   5.872   5.508
 7253SOL    HW122658   1.118   5.801   5.441
 7253SOL    HW222659   1.234   5.902   5.496
 7254SOL     OW22660   5.279   4.305   4.235
 7254SOL    HW122661   5.251   4.331   4.327
 7254SOL    HW222662   5.283   4.206   4.227
 7255SOL     OW22663   5.057   2.750   6.604
 7255SOL    HW122664   5.100   2.839   6.589
 7255SOL    HW222665   5.014   2.719   6.519
 7256SOL     OW22666   3.616   6.710   6.208
 7256SOL    HW122667   3.639   6.657   6.126
 7256SOL    HW222668   3.630   6.653   6.289
 7257SOL     OW22669   0.472   1.468   4.590
 7257SOL    HW122670   0.462   1.394   4.656
 7257SOL    HW222671   0.381   1.498   4.560
 7258SOL     OW22672   6.210   2.131   2.569
 7258SOL    HW122673   6.279   2.202   2.556
 7258SOL    HW222674   6.177   2.134   2.664
 7259SOL     OW22675   0.963   3.631   3.249
 7259SOL    HW122676   0.939   3.725   3.271
 7259SOL    HW222677   0.885   3.585   3.207
 7260SOL     OW22678   5.148   2.711   0.654
 7260SOL    HW122679   5.130   2.646   0.579
 7260SOL    HW222680   5.063   2.730   0.703
 7261SOL     OW22681   0.319   3.943   0.106
 7261SOL    HW122682   0.381   3.967   0.180
 7261SOL    HW222683   0.324   3.844   0.088
 7262SOL     OW22684   5.535   2.140   5.688
 7262SOL    HW122685   5.512   2.225   5.640
 7262SOL    HW222686   5.456   2.079   5.690
 7263SOL     OW22687   0.143   5.909   0.236
 7263SOL    HW122688   0.045   5.898   0.220
 7263SOL    HW222689   0.158   5.968   0.314
 7264SOL     OW22690   5.702   1.270   0.163
 7264SOL    HW122691   5.619   1.326   0.172
 7264SOL    HW222692   5.680   1.187   0.112
 7265SOL     OW22693   4.808   5.796   4.972
 7265SOL    HW122694   4.750   5.741   4.912
 7265SOL    HW222695   4.790   5.893   4.955
 7266SOL     OW22696   6.769   0.986   3.969
 7266SOL    HW122697   6.829   1.011   3.893
 7266SOL    HW222698   6.824   0.953   4.045
 7267SOL     OW22699   6.579   5.934   5.161
 7267SOL    HW122700   6.495   5.986   5.176
 7267SOL    HW222701   6.614   5.951   5.069
 7268SOL     OW22702   6.329   5.986   4.653
 7268SOL    HW122703   6.238   5.946   4.665
 7268SOL    HW222704   6.333   6.075   4.699
 7269SOL     OW22705   2.058   5.159   5.586
 7269SOL    HW122706   2.055   5.150   5.685
 7269SOL    HW222707   1.991   5.096   5.545
 7270SOL     OW22708   0.612   1.515   4.228
 7270SOL    HW122709   0.556   1.446   4.272
 7270SOL    HW222710   0.553   1.578   4.176
 7271SOL     OW22711   0.292   5.036   4.261
 7271SOL    HW122712   0.228   5.072   4.193
 7271SOL    HW222713   0.244   5.019   4.347
 7272SOL     OW22714   6.304   6.132   2.318
 7272SOL    HW122715   6.332   6.187   2.240
 7272SOL    HW222716   6.352   6.044   2.316
 7273SOL     OW22717   6.177   3.296   6.090
 7273SOL    HW122718   6.229   3.271   6.008
 7273SOL    HW222719   6.080   3.280   6.075
 7274SOL     OW22720   0.198   4.642   7.011
 7274SOL    HW122721   0.276   4.674   0.046
 7274SOL    HW222722   0.230   4.607   6.923
 7275SOL     OW22723   6.584   0.138   3.266
 7275SOL    HW122724   6.671   0.160   3.310
 7275SOL    HW222725   6.538   0.222   3.240
 7276SOL     OW22726   5.094   6.976   3.600
 7276SOL    HW122727   5.066   6.907   3.533
 7276SOL    HW222728   5.106   6.932   3.689
 7277SOL     OW22729   4.424   0.824   5.625
 7277SOL    HW122730   4.363   0.892   5.584
 7277SOL    HW222731   4.414   0.737   5.577
 7278SOL     OW22732   3.091   3.988   2.237
 7278SOL    HW122733   3.015   4.041   2.201
 7278SOL    HW222734   3.085   3.983   2.337
 7279SOL     OW22735   4.246   5.903   0.192
 7279SOL    HW122736   4.322   5.847   0.157
 7279SOL    HW222737   4.209   5.862   0.275
 7280SOL     OW22738   4.554   6.575   4.832
 7280SOL    HW122739   4.558   6.653   4.769
 7280SOL    HW222740   4.613   6.502   4.797
 7281SOL     OW22741   3.917   2.315   6.468
 7281SOL    HW122742   3.966   2.353   6.389
 7281SOL    HW222743   3.981   2.264   6.525
 7282SOL     OW22744   5.553   5.437   2.133
 7282SOL    HW122745   5.494   5.490   2.073
 7282SOL    HW222746   5.587   5.494   2.207
 7283SOL     OW22747   2.667   0.828   2.827
 7283SOL    HW122748   2.683   0.757   2.759
 7283SOL    HW222749   2.749   0.884   2.837
 7284SOL     OW22750   6.733   3.909   5.568
 7284SOL    HW122751   6.709   4.006   5.563
 7284SOL    HW222752   6.808   3.890   5.503
 7285SOL     OW22753   4.554   5.048   2.231
 7285SOL    HW122754   4.579   5.018   2.323
 7285SOL    HW222755   4.599   4.989   2.163
 7286SOL     OW22756   2.403   2.631   0.881
 7286SOL    HW122757   2.352   2.549   0.859
 7286SOL    HW222758   2.496   2.606   0.910
 7287SOL     OW22759   6.447   1.170   6.433
 7287SOL    HW122760   6.484   1.160   6.525
 7287SOL    HW222761   6.353   1.205   6.438
 7288SOL     OW22762   3.948   0.630   6.368
 7288SOL    HW122763   3.972   0.536   6.394
 7288SOL    HW222764   3.876   0.627   6.298
 7289SOL     OW22765   5.580   1.233   3.345
 7289SOL    HW122766   5.646   1.266   3.277
 7289SOL    HW222767   5.514   1.172   3.301
 7290SOL     OW22768   2.643   5.251   5.757
 7290SOL    HW122769   2.695   5.290   5.681
 7290SOL    HW222770   2.554   5.220   5.724
 7291SOL     OW22771   1.859   0.175   1.337
 7291SOL    HW122772   1.899   0.083   1.336
 7291SOL    HW222773   1.861   0.212   1.430
 7292SOL     OW22774   2.912   6.762   3.392
 7292SOL    HW122775   2.895   6.668   3.421
 7292SOL    HW222776   2.972   6.807   3.457
 7293SOL     OW22777   1.900   1.636   4.920
 7293SOL    HW122778   1.965   1.564   4.894
 7293SOL    HW222779   1.807   1.600   4.917
 7294SOL     OW22780   2.788   5.413   0.082
 7294SOL    HW122781   2.730   5.336   0.108
 7294SOL    HW222782   2.731   5.487   0.046
 7295SOL     OW22783   0.685   2.025   0.994
 7295SOL    HW122784   0.761   1.984   0.945
 7295SOL    HW222785   0.618   1.955   1.018
 7296SOL     OW22786   3.115   4.710   1.108
 7296SOL    HW122787   3.153   4.802   1.105
 7296SOL    HW222788   3.153   4.661   1.187
 7297SOL     OW22789   3.888   6.198   0.553
 7297SOL    HW122790   3.790   6.209   0.562
 7297SOL    HW222791   3.930   6.191   0.643
 7298SOL     OW22792   5.201   4.194   4.520
 7298SOL    HW122793   5.108   4.186   4.555
 7298SOL    HW222794   5.267   4.181   4.594
 7299SOL     OW22795   6.985   2.147   0.304
 7299SOL    HW122796   6.901   2.159   0.250
 7299SOL    HW222797   6.996   2.226   0.365
 7300SOL     OW22798   5.286   5.791   1.085
 7300SOL    HW122799   5.304   5.699   1.050
 7300SOL    HW222800   5.229   5.785   1.167
 7301SOL     OW22801   6.873   0.425   5.476
 7301SOL    HW122802   6.804   0.368   5.520
 7301SOL    HW222803   6.828   0.502   5.429
 7302SOL     OW22804   0.220   1.456   0.254
 7302SOL    HW122805   0.235   1.358   0.239
 7302SOL    HW222806   0.173   1.470   0.341
 7303SOL     OW22807   4.592   0.323   6.911
 7303SOL    HW122808   4.688   0.325   6.883
 7303SOL    HW222809   4.537   0.377   6.847
 7304SOL     OW22810   4.224   4.045   6.616
 7304SOL    HW122811   4.188   4.092   6.697
 7304SOL    HW222812   4.175   4.076   6.535
 7305SOL     OW22813   5.295   2.310   0.556
 7305SOL    HW122814   5.248   2.239   0.609
 7305SOL    HW222815   5.373   2.270   0.508
 7306SOL     OW22816   5.133   3.666   1.601
 7306SOL    HW122817   5.079   3.686   1.683
 7306SOL    HW222818   5.220   3.623   1.628
 7307SOL     OW22819   2.858   6.388   1.848
 7307SOL    HW122820   2.876   6.331   1.768
 7307SOL    HW222821   2.937   6.446   1.866
 7308SOL     OW22822   6.705   3.523   4.906
 7308SOL    HW122823   6.769   3.577   4.961
 7308SOL    HW222824   6.754   3.480   4.831
 7309SOL     OW22825   4.844   6.142   0.676
 7309SOL    HW122826   4.758   6.175   0.637
 7309SOL    HW222827   4.884   6.075   0.613
 7310SOL     OW22828   2.162   5.125   0.799
 7310SOL    HW122829   2.144   5.073   0.882
 7310SOL    HW222830   2.259   5.120   0.777
 7311SOL     OW22831   2.979   1.960   2.161
 7311SOL    HW122832   3.008   1.989   2.070
 7311SOL    HW222833   3.056   1.968   2.225
 7312SOL     OW22834   6.890   2.324   5.628
 7312SOL    HW122835   6.850   2.410   5.661
 7312SOL    HW222836   6.977   2.308   5.677
 7313SOL     OW22837   4.455   2.766   6.067
 7313SOL    HW122838   4.536   2.803   6.112
 7313SOL    HW222839   4.479   2.733   5.976
 7314SOL     OW22840   6.061   3.530   5.071
 7314SOL    HW122841   6.110   3.456   5.116
 7314SOL    HW222842   5.963   3.507   5.064
 7315SOL     OW22843   6.020   6.975   3.921
 7315SOL    HW122844   5.991   7.013   4.009
 7315SOL    HW222845   5.971   0.001   3.847
 7316SOL     OW22846   3.546   3.092   5.160
 7316SOL    HW122847   3.600   3.084   5.244
 7316SOL    HW222848   3.592   3.154   5.096
 7317SOL     OW22849   4.384   0.499   2.175
 7317SOL    HW122850   4.392   0.533   2.268
 7317SOL    HW222851   4.459   0.435   2.157
 7318SOL     OW22852   1.272   1.371   1.593
 7318SOL    HW122853   1.278   1.408   1.500
 7318SOL    HW222854   1.269   1.271   1.588
 7319SOL     OW22855   6.713   4.473   6.898
 7319SOL    HW122856   6.645   4.455   6.969
 7319SOL    HW222857   6.804   4.447   6.931
 7320SOL     OW22858   6.728   3.500   2.147
 7320SOL    HW122859   6.664   3.560   2.101
 7320SOL    HW222860   6.803   3.477   2.085
 7321SOL     OW22861   2.592   0.954   4.808
 7321SOL    HW122862   2.649   0.932   4.728
 7321SOL    HW222863   2.650   0.989   4.881
 7322SOL     OW22864   1.306   3.278   2.621
 7322SOL    HW122865   1.259   3.225   2.550
 7322SOL    HW222866   1.247   3.287   2.701
 7323SOL     OW22867   1.690   1.747   3.228
 7323SOL    HW122868   1.767   1.720   3.286
 7323SOL    HW222869   1.617   1.679   3.235
 7324SOL     OW22870   5.406   0.180   3.130
 7324SOL    HW122871   5.411   0.147   3.224
 7324SOL    HW222872   5.496   0.213   3.101
 7325SOL     OW22873   4.034   0.247   6.131
 7325SOL    HW122874   4.116   0.301   6.151
 7325SOL    HW222875   4.018   0.245   6.032
 7326SOL     OW22876   2.545   5.838   5.434
 7326SOL    HW122877   2.531   5.757   5.491
 7326SOL    HW222878   2.642   5.848   5.413
 7327SOL     OW22879   0.192   2.740   5.524
 7327SOL    HW122880   0.239   2.798   5.457
 7327SOL    HW222881   0.245   2.656   5.538
 7328SOL     OW22882   3.688   0.482   6.986
 7328SOL    HW122883   3.730   0.452   0.052
 7328SOL    HW222884   3.696   0.410   6.917
 7329SOL     OW22885   4.444   3.640   1.148
 7329SOL    HW122886   4.383   3.681   1.215
 7329SOL    HW222887   4.480   3.554   1.184
 7330SOL     OW22888   3.277   1.818   0.319
 7330SOL    HW122889   3.287   1.729   0.274
 7330SOL    HW222890   3.363   1.867   0.315
 7331SOL     OW22891   5.059   1.064   1.991
 7331SOL    HW122892   4.981   1.127   2.001
 7331SOL    HW222893   5.143   1.118   1.980
 7332SOL     OW22894   2.563   6.102   0.146
 7332SOL    HW122895   2.574   6.195   0.110
 7332SOL    HW222896   2.483   6.060   0.104
 7333SOL     OW22897   0.554   3.875   3.813
 7333SOL    HW122898   0.572   3.844   3.906
 7333SOL    HW222899   0.641   3.890   3.765
 7334SOL     OW22900   4.034   6.046   5.716
 7334SOL    HW122901   4.097   6.114   5.754
 7334SOL    HW222902   4.050   5.958   5.760
 7335SOL     OW22903   1.599   2.848   2.653
 7335SOL    HW122904   1.689   2.807   2.635
 7335SOL    HW222905   1.603   2.899   2.739
 7336SOL     OW22906   1.184   6.917   3.564
 7336SOL    HW122907   1.195   6.939   3.468
 7336SOL    HW222908   1.267   6.874   3.599
 7337SOL     OW22909   1.301   2.928   2.054
 7337SOL    HW122910   1.309   3.012   1.999
 7337SOL    HW222911   1.204   2.908   2.068
 7338SOL     OW22912   6.390   2.552   1.364
 7338SOL    HW122913   6.363   2.600   1.448
 7338SOL    HW222914   6.409   2.456   1.386
 7339SOL     OW22915   6.171   6.377   3.997
 7339SOL    HW122916   6.087   6.416   4.034
 7339SOL    HW222917   6.167   6.377   3.897
 7340SOL     OW22918   2.075   0.459   0.452
 7340SOL    HW122919   2.003   0.398   0.419
 7340SOL    HW222920   2.140   0.407   0.508
 7341SOL     OW22921   6.649   1.717   0.385
 7341SOL    HW122922   6.704   1.798   0.404
 7341SOL    HW222923   6.587   1.700   0.462
 7342SOL     OW22924   6.728   0.094   2.230
 7342SOL    HW122925   6.816   0.139   2.244
 7342SOL    HW222926   6.743   0.001   2.198
 7343SOL     OW22927   4.563   2.641   0.171
 7343SOL    HW122928   4.632   2.641   0.099
 7343SOL    HW222929   4.510   2.726   0.166
 7344SOL     OW22930   1.375   0.037   5.999
 7344SOL    HW122931   1.471   0.058   6.013
 7344SOL    HW222932   1.366   6.964   5.959
 7345SOL     OW22933   3.823   3.415   5.376
 7345SOL    HW122934   3.733   3.442   5.344
 7345SOL    HW222935   3.834   3.440   5.473
 7346SOL     OW22936   3.512   6.016   2.817
 7346SOL    HW122937   3.458   6.064   2.748
 7346SOL    HW222938   3.519   6.072   2.900
 7347SOL     OW22939   0.049   2.444   0.018
 7347SOL    HW122940   7.012   2.515   0.061
 7347SOL    HW222941   0.135   2.485   7.004
 7348SOL     OW22942   1.426   4.026   3.424
 7348SOL    HW122943   1.447   4.034   3.521
 7348SOL    HW222944   1.438   3.931   3.394
 7349SOL     OW22945   4.097   0.410   1.068
 7349SOL    HW122946   4.082   0.482   1.000
 7349SOL    HW222947   4.185   0.366   1.051
 7350SOL     OW22948   2.516   0.486   5.623
 7350SOL    HW122949   2.584   0.544   5.666
 7350SOL    HW222950   2.443   0.542   5.584
 7351SOL     OW22951   4.801   4.916   3.794
 7351SOL    HW122952   4.732   4.846   3.810
 7351SOL    HW222953   4.776   4.971   3.715
 7352SOL     OW22954   0.390   2.056   3.191
 7352SOL    HW122955   0.481   2.041   3.152
 7352SOL    HW222956   0.391   2.030   3.288
 7353SOL     OW22957   5.606   0.426   6.568
 7353SOL    HW122958   5.639   0.516   6.539
 7353SOL    HW222959   5.570   0.433   6.662
 7354SOL     OW22960   1.518   0.864   3.589
 7354SOL    HW122961   1.426   0.866   3.549
 7354SOL    HW222962   1.527   0.938   3.654
 7355SOL     OW22963   6.966   1.963   6.506
 7355SOL    HW122964   6.977   2.063   6.505
 7355SOL    HW222965   6.945   1.933   6.599
 7356SOL     OW22966   4.013   3.559   5.938
 7356SOL    HW122967   3.915   3.558   5.961
 7356SOL    HW222968   4.033   3.640   5.884
 7357SOL     OW22969   4.628   6.112   1.349
 7357SOL    HW122970   4.616   6.051   1.427
 7357SOL    HW222971   4.719   6.154   1.353
 7358SOL     OW22972   6.317   2.587   2.147
 7358SOL    HW122973   6.331   2.676   2.190
 7358SOL    HW222974   6.403   2.556   2.106
 7359SOL     OW22975   4.144   1.093   6.236
 7359SOL    HW122976   4.044   1.092   6.223
 7359SOL    HW222977   4.188   1.058   6.153
 7360SOL     OW22978   2.686   3.359   5.434
 7360SOL    HW122979   2.634   3.444   5.425
 7360SOL    HW222980   2.740   3.343   5.352
 7361SOL     OW22981   5.290   0.200   2.464
 7361SOL    HW122982   5.313   0.111   2.502
 7361SOL    HW222983   5.191   0.209   2.457
 7362SOL     OW22984   4.417   5.300   5.753
 7362SOL    HW122985   4.338   5.337   5.704
 7362SOL    HW222986   4.431   5.352   5.837
 7363SOL     OW22987   4.107   1.263   1.689
 7363SOL    HW122988   4.174   1.330   1.658
 7363SOL    HW222989   4.038   1.308   1.746
 7364SOL     OW22990   4.678   6.864   1.823
 7364SOL    HW122991   4.698   6.890   1.729
 7364SOL    HW222992   4.580   6.856   1.836
 7365SOL     OW22993   6.161   4.827   2.924
 7365SOL    HW122994   6.095   4.757   2.895
 7365SOL    HW222995   6.245   4.817   2.872
 7366SOL     OW22996   2.420   0.619   4.180
 7366SOL    HW122997   2.382   0.645   4.091
 7366SOL    HW222998   2.355   0.645   4.253
 7367SOL     OW22999   4.684   1.810   6.669
 7367SOL    HW123000   4.762   1.767   6.714
 7367SOL    HW223001   4.602   1.795   6.724
 7368SOL     OW23002   3.875   3.484   2.653
 7368SOL    HW123003   3.785   3.507   2.689
 7368SOL    HW223004   3.866   3.411   2.585
 7369SOL     OW23005   4.335   2.614   0.878
 7369SOL    HW123006   4.363   2.656   0.791
 7369SOL    HW223007   4.415   2.580   0.926
 7370SOL     OW23008   2.726   1.810   4.954
 7370SOL    HW123009   2.644   1.860   4.980
 7370SOL    HW223010   2.793   1.815   5.028
 7371SOL     OW23011   3.648   6.947   3.732
 7371SOL    HW123012   3.656   6.908   3.824
 7371SOL    HW223013   3.691   6.886   3.666
 7372SOL     OW23014   3.318   6.980   4.593
 7372SOL    HW123015   3.244   0.020   4.625
 7372SOL    HW223016   3.352   7.014   4.505
 7373SOL     OW23017   4.508   2.153   4.655
 7373SOL    HW123018   4.586   2.202   4.617
 7373SOL    HW223019   4.427   2.213   4.655
 7374SOL     OW23020   1.267   1.771   4.692
 7374SOL    HW123021   1.288   1.868   4.684
 7374SOL    HW223022   1.290   1.739   4.784
 7375SOL     OW23023   2.134   3.251   2.364
 7375SOL    HW123024   2.141   3.203   2.277
 7375SOL    HW223025   2.120   3.349   2.347
 7376SOL     OW23026   0.540   3.625   0.855
 7376SOL    HW123027   0.619   3.642   0.796
 7376SOL    HW223028   0.541   3.530   0.885
 7377SOL     OW23029   3.157   4.939   0.489
 7377SOL    HW123030   3.194   5.021   0.445
 7377SOL    HW223031   3.091   4.965   0.559
 7378SOL     OW23032   1.857   6.361   3.960
 7378SOL    HW123033   1.775   6.312   3.933
 7378SOL    HW223034   1.832   6.445   4.008
 7379SOL     OW23035   3.639   0.510   1.247
 7379SOL    HW123036   3.709   0.580   1.260
 7379SOL    HW223037   3.646   0.441   1.319
 7380SOL     OW23038   6.245   4.188   3.161
 7380SOL    HW123039   6.233   4.113   3.227
 7380SOL    HW223040   6.160   4.239   3.154
 7381SOL     OW23041   4.386   1.372   0.359
 7381SOL    HW123042   4.377   1.302   0.431
 7381SOL    HW223043   4.399   1.461   0.402
 7382SOL     OW23044   0.232   1.542   6.057
 7382SOL    HW123045   0.244   1.505   5.965
 7382SOL    HW223046   0.184   1.475   6.113
 7383SOL     OW23047   1.672   6.831   1.634
 7383SOL    HW123048   1.720   6.816   1.547
 7383SOL    HW223049   1.717   6.905   1.685
 7384SOL     OW23050   0.598   6.745   0.730
 7384SOL    HW123051   0.611   6.835   0.687
 7384SOL    HW223052   0.640   6.746   0.821
 7385SOL     OW23053   3.787   5.286   2.652
 7385SOL    HW123054   3.799   5.197   2.695
 7385SOL    HW223055   3.861   5.303   2.587
 7386SOL     OW23056   6.322   3.399   0.399
 7386SOL    HW123057   6.249   3.435   0.458
 7386SOL    HW223058   6.375   3.475   0.361
 7387SOL     OW23059   6.332   4.642   5.779
 7387SOL    HW123060   6.321   4.584   5.699
 7387SOL    HW223061   6.312   4.737   5.755
 7388SOL     OW23062   1.523   6.288   2.248
 7388SOL    HW123063   1.501   6.269   2.152
 7388SOL    HW223064   1.595   6.357   2.253
 7389SOL     OW23065   6.910   3.396   0.518
 7389SOL    HW123066   6.829   3.339   0.529
 7389SOL    HW223067   6.883   3.489   0.494
 7390SOL     OW23068   2.264   1.795   3.169
 7390SOL    HW123069   2.189   1.820   3.109
 7390SOL    HW223070   2.278   1.867   3.237
 7391SOL     OW23071   3.957   3.000   2.576
 7391SOL    HW123072   4.055   3.009   2.559
 7391SOL    HW223073   3.939   3.004   2.674
 7392SOL     OW23074   3.937   5.693   6.599
 7392SOL    HW123075   4.027   5.714   6.639
 7392SOL    HW223076   3.899   5.611   6.642
 7393SOL     OW23077   6.356   4.707   4.172
 7393SOL    HW123078   6.411   4.706   4.088
 7393SOL    HW223079   6.333   4.801   4.196
 7394SOL     OW23080   2.012   2.581   6.317
 7394SOL    HW123081   2.054   2.632   6.242
 7394SOL    HW223082   1.935   2.633   6.354
 7395SOL     OW23083   2.557   3.733   1.130
 7395SOL    HW123084   2.588   3.657   1.187
 7395SOL    HW223085   2.507   3.799   1.187
 7396SOL     OW23086   3.000   5.168   1.767
 7396SOL    HW123087   3.016   5.100   1.696
 7396SOL    HW223088   2.953   5.247   1.728
 7397SOL     OW23089   5.464   3.850   4.474
 7397SOL    HW123090   5.488   3.874   4.568
 7397SOL    HW223091   5.447   3.933   4.421
 7398SOL     OW23092   2.075   4.246   3.455
 7398SOL    HW123093   1.986   4.212   3.424
 7398SOL    HW223094   2.075   4.346   3.449
 7399SOL     OW23095   5.739   2.567   4.946
 7399SOL    HW123096   5.712   2.619   5.027
 7399SOL    HW223097   5.797   2.623   4.888
 7400SOL     OW23098   5.634   2.610   5.215
 7400SOL    HW123099   5.620   2.628   5.312
 7400SOL    HW223100   5.548   2.622   5.166
 7401SOL     OW23101   1.359   3.141   3.529
 7401SOL    HW123102   1.396   3.201   3.457
 7401SOL    HW223103   1.325   3.057   3.488
 7402SOL     OW23104   2.680   5.476   4.986
 7402SOL    HW123105   2.677   5.429   4.897
 7402SOL    HW223106   2.661   5.573   4.973
 7403SOL     OW23107   1.367   2.777   3.720
 7403SOL    HW123108   1.435   2.812   3.656
 7403SOL    HW223109   1.379   2.678   3.730
 7404SOL     OW23110   3.089   3.897   1.590
 7404SOL    HW123111   3.043   3.937   1.669
 7404SOL    HW223112   3.095   3.798   1.602
 7405SOL     OW23113   2.812   5.790   5.353
 7405SOL    HW123114   2.849   5.865   5.298
 7405SOL    HW223115   2.872   5.775   5.432
 7406SOL     OW23116   0.634   1.066   4.866
 7406SOL    HW123117   0.551   1.009   4.869
 7406SOL    HW223118   0.658   1.093   4.960
 7407SOL     OW23119   0.768   5.978   0.003
 7407SOL    HW123120   0.677   6.002   6.988
 7407SOL    HW223121   0.773   5.879   0.016
 7408SOL     OW23122   3.633   4.267   5.250
 7408SOL    HW123123   3.614   4.312   5.162
 7408SOL    HW223124   3.615   4.169   5.242
 7409SOL     OW23125   6.169   4.244   0.743
 7409SOL    HW123126   6.233   4.201   0.679
 7409SOL    HW223127   6.155   4.339   0.717
 7410SOL     OW23128   0.017   0.209   0.760
 7410SOL    HW123129   0.039   0.116   0.729
 7410SOL    HW223130   6.997   0.206   0.852
 7411SOL     OW23131   0.669   1.555   5.912
 7411SOL    HW123132   0.761   1.533   5.881
 7411SOL    HW223133   0.643   1.645   5.876
 7412SOL     OW23134   3.858   7.015   0.053
 7412SOL    HW123135   3.837   6.933   0.106
 7412SOL    HW223136   3.821   0.076   0.100
 7413SOL     OW23137   3.799   5.528   3.616
 7413SOL    HW123138   3.786   5.616   3.571
 7413SOL    HW223139   3.893   5.498   3.604
 7414SOL     OW23140   2.477   1.856   4.534
 7414SOL    HW123141   2.572   1.886   4.526
 7414SOL    HW223142   2.440   1.837   4.443
 7415SOL     OW23143   3.670   6.739   6.597
 7415SOL    HW123144   3.571   6.751   6.598
 7415SOL    HW223145   3.711   6.803   6.531
 7416SOL     OW23146   0.672   2.022   2.657
 7416SOL    HW123147   0.618   1.996   2.737
 7416SOL    HW223148   0.649   2.115   2.629
 7417SOL     OW23149   0.728   2.455   3.629
 7417SOL    HW123150   0.798   2.492   3.568
 7417SOL    HW223151   0.675   2.385   3.580
 7418SOL     OW23152   1.544   3.659   6.477
 7418SOL    HW123153   1.590   3.634   6.562
 7418SOL    HW223154   1.586   3.742   6.440
 7419SOL     OW23155   6.529   4.260   3.723
 7419SOL    HW123156   6.587   4.200   3.778
 7419SOL    HW223157   6.548   4.244   3.626
 7420SOL     OW23158   0.087   6.633   1.956
 7420SOL    HW123159   0.082   6.534   1.959
 7420SOL    HW223160   0.022   6.668   1.888
 7421SOL     OW23161   4.792   3.502   1.701
 7421SOL    HW123162   4.755   3.591   1.673
 7421SOL    HW223163   4.730   3.429   1.673
 7422SOL     OW23164   5.999   2.832   1.871
 7422SOL    HW123165   5.945   2.843   1.954
 7422SOL    HW223166   6.086   2.880   1.880
 7423SOL     OW23167   5.841   2.270   5.468
 7423SOL    HW123168   5.891   2.220   5.398
 7423SOL    HW223169   5.798   2.205   5.531
 7424SOL     OW23170   6.783   0.751   4.859
 7424SOL    HW123171   6.691   0.781   4.886
 7424SOL    HW223172   6.837   0.735   4.942
 7425SOL     OW23173   5.375   0.020   0.653
 7425SOL    HW123174   5.422   6.993   0.577
 7425SOL    HW223175   5.410   0.114   0.661
 7426SOL     OW23176   3.897   2.642   5.954
 7426SOL    HW123177   3.980   2.594   5.926
 7426SOL    HW223178   3.837   2.652   5.875
 7427SOL     OW23179   3.638   1.193   3.573
 7427SOL    HW123180   3.552   1.234   3.604
 7427SOL    HW223181   3.654   1.107   3.622
 7428SOL     OW23182   4.081   6.813   5.668
 7428SOL    HW123183   4.001   6.820   5.609
 7428SOL    HW223184   4.134   6.732   5.644
 7429SOL     OW23185   1.312   7.005   2.337
 7429SOL    HW123186   1.248   7.010   2.413
 7429SOL    HW223187   1.389   6.946   2.362
 7430SOL     OW23188   0.192   4.717   3.114
 7430SOL    HW123189   0.185   4.812   3.144
 7430SOL    HW223190   0.213   4.659   3.193
 7431SOL     OW23191   2.001   2.098   4.898
 7431SOL    HW123192   2.045   2.020   4.853
 7431SOL    HW223193   1.976   2.166   4.829
 7432SOL     OW23194   2.009   6.918   3.540
 7432SOL    HW123195   2.094   6.911   3.487
 7432SOL    HW223196   2.013   6.998   3.600
 7433SOL     OW23197   2.946   6.841   6.304
 7433SOL    HW123198   2.953   6.925   6.250
 7433SOL    HW223199   2.933   6.763   6.242
 7434SOL     OW23200   4.191   6.245   5.795
 7434SOL    HW123201   4.231   6.290   5.874
 7434SOL    HW223202   4.152   6.313   5.733
 7435SOL     OW23203   4.629   6.480   2.622
 7435SOL    HW123204   4.655   6.575   2.605
 7435SOL    HW223205   4.659   6.453   2.714
 7436SOL     OW23206   5.051   3.497   6.343
 7436SOL    HW123207   4.968   3.453   6.309
 7436SOL    HW223208   5.043   3.513   6.441
 7437SOL     OW23209   3.803   6.314   1.253
 7437SOL    HW123210   3.741   6.309   1.331
 7437SOL    HW223211   3.826   6.409   1.234
 7438SOL     OW23212   2.443   1.095   0.404
 7438SOL    HW123213   2.376   1.069   0.474
 7438SOL    HW223214   2.441   1.027   0.330
 7439SOL     OW23215   1.590   4.865   6.393
 7439SOL    HW123216   1.623   4.897   6.304
 7439SOL    HW223217   1.529   4.787   6.381
 7440SOL     OW23218   4.898   2.938   3.605
 7440SOL    HW123219   4.927   3.032   3.589
 7440SOL    HW223220   4.978   2.877   3.602
 7441SOL     OW23221   5.982   6.153   1.952
 7441SOL    HW123222   5.965   6.113   2.042
 7441SOL    HW223223   6.078   6.182   1.946
 7442SOL     OW23224   5.468   0.463   5.942
 7442SOL    HW123225   5.533   0.395   5.975
 7442SOL    HW223226   5.434   0.436   5.852
 7443SOL     OW23227   0.245   6.384   2.368
 7443SOL    HW123228   0.194   6.451   2.422
 7443SOL    HW223229   0.208   6.382   2.275
 7444SOL     OW23230   1.018   0.211   6.260
 7444SOL    HW123231   1.040   0.115   6.242
 7444SOL    HW223232   0.959   0.217   6.340
 7445SOL     OW23233   4.562   5.995   2.353
 7445SOL    HW123234   4.495   6.066   2.330
 7445SOL    HW223235   4.654   6.034   2.351
 7446SOL     OW23236   5.343   3.390   0.582
 7446SOL    HW123237   5.414   3.426   0.523
 7446SOL    HW223238   5.282   3.331   0.530
 7447SOL     OW23239   0.417   4.407   0.775
 7447SOL    HW123240   0.391   4.312   0.755
 7447SOL    HW223241   0.342   4.452   0.822
 7448SOL     OW23242   4.820   5.657   6.231
 7448SOL    HW123243   4.917   5.676   6.218
 7448SOL    HW223244   4.801   5.561   6.209
 7449SOL     OW23245   0.378   4.123   6.774
 7449SOL    HW123246   0.350   4.145   6.868
 7449SOL    HW223247   0.298   4.122   6.715
 7450SOL     OW23248   5.586   1.648   5.419
 7450SOL    HW123249   5.579   1.557   5.458
 7450SOL    HW223250   5.542   1.650   5.329
 7451SOL     OW23251   5.893   5.020   2.561
 7451SOL    HW123252   5.939   5.075   2.631
 7451SOL    HW223253   5.798   5.052   2.551
 7452SOL     OW23254   4.940   6.373   5.126
 7452SOL    HW123255   4.867   6.412   5.181
 7452SOL    HW223256   5.026   6.376   5.177
 7453SOL     OW23257   4.404   5.377   6.314
 7453SOL    HW123258   4.395   5.461   6.367
 7453SOL    HW223259   4.500   5.351   6.308
 7454SOL     OW23260   3.651   2.421   0.523
 7454SOL    HW123261   3.635   2.416   0.424
 7454SOL    HW223262   3.630   2.332   0.564
 7455SOL     OW23263   5.914   2.738   2.729
 7455SOL    HW123264   5.880   2.832   2.735
 7455SOL    HW223265   5.861   2.687   2.661
 7456SOL     OW23266   2.764   1.921   5.581
 7456SOL    HW123267   2.783   1.891   5.675
 7456SOL    HW223268   2.792   2.016   5.570
 7457SOL     OW23269   2.908   0.054   3.178
 7457SOL    HW123270   2.928   6.982   3.141
 7457SOL    HW223271   2.922   0.122   3.106
 7458SOL     OW23272   0.871   6.393   5.383
 7458SOL    HW123273   0.941   6.332   5.344
 7458SOL    HW223274   0.906   6.487   5.382
 7459SOL     OW23275   6.083   1.126   2.767
 7459SOL    HW123276   6.086   1.146   2.669
 7459SOL    HW223277   5.988   1.129   2.798
 7460SOL     OW23278   0.972   6.804   1.034
 7460SOL    HW123279   0.970   6.735   1.107
 7460SOL    HW223280   1.056   6.793   0.981
 7461SOL     OW23281   0.852   5.938   6.140
 7461SOL    HW123282   0.886   6.018   6.190
 7461SOL    HW223283   0.850   5.958   6.042
 7462SOL     OW23284   1.212   5.518   1.406
 7462SOL    HW123285   1.309   5.539   1.416
 7462SOL    HW223286   1.169   5.511   1.496
 7463SOL     OW23287   4.417   4.707   0.231
 7463SOL    HW123288   4.336   4.750   0.189
 7463SOL    HW223289   4.499   4.736   0.183
 7464SOL     OW23290   6.430   5.234   5.093
 7464SOL    HW123291   6.487   5.151   5.090
 7464SOL    HW223292   6.474   5.302   5.152
 7465SOL     OW23293   2.305   4.988   0.179
 7465SOL    HW123294   2.296   5.057   0.107
 7465SOL    HW223295   2.383   4.928   0.158
 7466SOL     OW23296   0.684   6.495   4.668
 7466SOL    HW123297   0.734   6.581   4.659
 7466SOL    HW223298   0.595   6.512   4.710
 7467SOL     OW23299   0.278   3.104   6.153
 7467SOL    HW123300   0.255   3.020   6.203
 7467SOL    HW223301   0.207   3.122   6.084
 7468SOL     OW23302   5.699   3.000   5.353
 7468SOL    HW123303   5.685   3.075   5.289
 7468SOL    HW223304   5.796   2.994   5.377
 7469SOL     OW23305   6.671   2.275   0.390
 7469SOL    HW123306   6.700   2.370   0.375
 7469SOL    HW223307   6.724   2.215   0.330
 7470SOL     OW23308   5.810   3.628   4.114
 7470SOL    HW123309   5.765   3.712   4.083
 7470SOL    HW223310   5.875   3.597   4.045
 7471SOL     OW23311   5.817   5.446   6.889
 7471SOL    HW123312   5.750   5.402   6.949
 7471SOL    HW223313   5.907   5.404   6.902
 7472SOL     OW23314   6.413   6.317   5.380
 7472SOL    HW123315   6.453   6.311   5.289
 7472SOL    HW223316   6.407   6.413   5.409
 7473SOL     OW23317   4.170   0.069   3.878
 7473SOL    HW123318   4.172   6.996   3.838
 7473SOL    HW223319   4.077   0.090   3.907
 7474SOL     OW23320   5.925   1.814   5.727
 7474SOL    HW123321   6.013   1.863   5.729
 7474SOL    HW223322   5.890   1.806   5.820
 7475SOL     OW23323   4.581   2.212   1.385
 7475SOL    HW123324   4.648   2.247   1.320
 7475SOL    HW223325   4.613   2.125   1.423
 7476SOL     OW23326   2.364   1.323   3.102
 7476SOL    HW123327   2.399   1.231   3.117
 7476SOL    HW223328   2.398   1.359   3.015
 7477SOL     OW23329   0.839   4.147   5.636
 7477SOL    HW123330   0.917   4.198   5.673
 7477SOL    HW223331   0.873   4.070   5.582
 7478SOL     OW23332   6.714   1.841   5.026
 7478SOL    HW123333   6.748   1.935   5.015
 7478SOL    HW223334   6.650   1.821   4.952
 7479SOL     OW23335   6.279   3.339   6.746
 7479SOL    HW123336   6.258   3.418   6.688
 7479SOL    HW223337   6.378   3.334   6.761
 7480SOL     OW23338   3.641   4.897   2.194
 7480SOL    HW123339   3.636   4.835   2.115
 7480SOL    HW223340   3.583   4.863   2.267
 7481SOL     OW23341   6.417   4.072   6.831
 7481SOL    HW123342   6.450   4.062   6.924
 7481SOL    HW223343   6.472   4.139   6.782
 7482SOL     OW23344   3.880   2.141   2.381
 7482SOL    HW123345   3.869   2.155   2.282
 7482SOL    HW223346   3.949   2.071   2.398
 7483SOL     OW23347   4.395   2.528   5.314
 7483SOL    HW123348   4.475   2.571   5.272
 7483SOL    HW223349   4.334   2.494   5.242
 7484SOL     OW23350   2.822   6.386   4.404
 7484SOL    HW123351   2.761   6.332   4.460
 7484SOL    HW223352   2.917   6.358   4.420
 7485SOL     OW23353   2.732   0.139   3.678
 7485SOL    HW123354   2.815   0.113   3.726
 7485SOL    HW223355   2.654   0.088   3.714
 7486SOL     OW23356   1.438   6.356   0.157
 7486SOL    HW123357   1.499   6.391   0.086
 7486SOL    HW223358   1.360   6.417   0.167
 7487SOL     OW23359   4.309   6.886   3.563
 7487SOL    HW123360   4.215   6.864   3.587
 7487SOL    HW223361   4.311   6.968   3.506
 7488SOL     OW23362   1.017   5.975   3.943
 7488SOL    HW123363   1.034   5.934   4.033
 7488SOL    HW223364   0.919   5.983   3.928
 7489SOL     OW23365   5.868   4.075   6.653
 7489SOL    HW123366   5.965   4.049   6.660
 7489SOL    HW223367   5.859   4.150   6.588
 7490SOL     OW23368   1.018   2.195   2.769
 7490SOL    HW123369   1.019   2.261   2.694
 7490SOL    HW223370   0.976   2.109   2.737
 7491SOL     OW23371   4.521   3.033   0.434
 7491SOL    HW123372   4.576   3.020   0.516
 7491SOL    HW223373   4.440   3.086   0.457
 7492SOL     OW23374   1.597   0.492   4.405
 7492SOL    HW123375   1.639   0.574   4.366
 7492SOL    HW223376   1.668   0.429   4.435
 7493SOL     OW23377   5.850   3.782   5.229
 7493SOL    HW123378   5.762   3.740   5.206
 7493SOL    HW223379   5.914   3.769   5.154
 7494SOL     OW23380   5.697   1.472   2.891
 7494SOL    HW123381   5.614   1.442   2.844
 7494SOL    HW223382   5.739   1.394   2.937
 7495SOL     OW23383   2.080   3.463   4.833
 7495SOL    HW123384   2.092   3.540   4.896
 7495SOL    HW223385   2.134   3.385   4.864
 7496SOL     OW23386   5.776   3.701   2.682
 7496SOL    HW123387   5.739   3.773   2.624
 7496SOL    HW223388   5.719   3.619   2.674
 7497SOL     OW23389   0.401   6.645   0.262
 7497SOL    HW123390   0.427   6.602   0.348
 7497SOL    HW223391   0.483   6.678   0.215
 7498SOL     OW23392   3.219   0.501   3.215
 7498SOL    HW123393   3.284   0.434   3.251
 7498SOL    HW223394   3.167   0.540   3.290
 7499SOL     OW23395   3.516   2.137   3.732
 7499SOL    HW123396   3.484   2.135   3.637
 7499SOL    HW223397   3.437   2.139   3.793
 7500SOL     OW23398   4.313   0.325   3.729
 7500SOL    HW123399   4.245   0.370   3.787
 7500SOL    HW223400   4.307   0.359   3.636
 7501SOL     OW23401   5.889   2.524   4.517
 7501SOL    HW123402   5.905   2.463   4.438
 7501SOL    HW223403   5.809   2.581   4.499
 7502SOL     OW23404   3.393   0.073   4.326
 7502SOL    HW123405   3.430   0.005   4.264
 7502SOL    HW223406   3.333   0.136   4.276
 7503SOL     OW23407   2.318   6.153   1.376
 7503SOL    HW123408   2.407   6.116   1.349
 7503SOL    HW223409   2.257   6.154   1.297
 7504SOL     OW23410   6.987   6.830   3.606
 7504SOL    HW123411   6.935   6.908   3.642
 7504SOL    HW223412   6.937   6.746   3.627
 7505SOL     OW23413   0.153   0.489   4.843
 7505SOL    HW123414   0.096   0.444   4.911
 7505SOL    HW223415   0.110   0.482   4.753
 7506SOL     OW23416   3.129   1.819   3.278
 7506SOL    HW123417   3.048   1.856   3.324
 7506SOL    HW223418   3.118   1.721   3.266
 7507SOL     OW23419   6.251   3.791   4.536
 7507SOL    HW123420   6.193   3.833   4.466
 7507SOL    HW223421   6.273   3.697   4.509
 7508SOL     OW23422   1.950   5.947   6.898
 7508SOL    HW123423   1.998   5.993   6.972
 7508SOL    HW223424   1.851   5.956   6.912
 7509SOL     OW23425   5.015   3.752   0.487
 7509SOL    HW123426   5.109   3.744   0.520
 7509SOL    HW223427   4.955   3.778   0.562
 7510SOL     OW23428   3.507   4.008   3.785
 7510SOL    HW123429   3.544   4.067   3.857
 7510SOL    HW223430   3.542   3.915   3.797
 7511SOL     OW23431   3.310   5.741   3.053
 7511SOL    HW123432   3.255   5.775   2.977
 7511SOL    HW223433   3.252   5.686   3.114
 7512SOL     OW23434   3.159   6.493   6.047
 7512SOL    HW123435   3.226   6.558   6.083
 7512SOL    HW223436   3.178   6.475   5.950
 7513SOL     OW23437   1.771   1.957   3.751
 7513SOL    HW123438   1.865   1.980   3.728
 7513SOL    HW223439   1.709   2.021   3.705
 7514SOL     OW23440   2.192   4.146   2.694
 7514SOL    HW123441   2.154   4.115   2.607
 7514SOL    HW223442   2.180   4.076   2.764
 7515SOL     OW23443   6.678   3.892   4.915
 7515SOL    HW123444   6.596   3.895   4.972
 7515SOL    HW223445   6.737   3.818   4.945
 7516SOL     OW23446   1.017   5.230   5.510
 7516SOL    HW123447   0.920   5.243   5.488
 7516SOL    HW223448   1.055   5.316   5.542
 7517SOL     OW23449   0.671   2.083   6.754
 7517SOL    HW123450   0.707   2.021   6.823
 7517SOL    HW223451   0.643   2.032   6.673
 7518SOL     OW23452   4.829   2.820   3.870
 7518SOL    HW123453   4.883   2.848   3.950
 7518SOL    HW223454   4.844   2.885   3.795
 7519SOL     OW23455   3.823   6.905   5.076
 7519SOL    HW123456   3.920   6.928   5.081
 7519SOL    HW223457   3.781   6.953   4.999
 7520SOL     OW23458   1.978   2.101   2.109
 7520SOL    HW123459   2.036   2.043   2.167
 7520SOL    HW223460   1.949   2.048   2.029
 7521SOL     OW23461   4.543   1.264   4.818
 7521SOL    HW123462   4.508   1.192   4.878
 7521SOL    HW223463   4.640   1.278   4.835
 7522SOL     OW23464   1.474   6.332   2.881
 7522SOL    HW123465   1.530   6.328   2.964
 7522SOL    HW223466   1.378   6.347   2.906
 7523SOL     OW23467   5.652   1.424   6.157
 7523SOL    HW123468   5.629   1.476   6.074
 7523SOL    HW223469   5.718   1.477   6.212
 7524SOL     OW23470   0.144   2.380   4.612
 7524SOL    HW123471   0.067   2.417   4.663
 7524SOL    HW223472   0.168   2.290   4.649
 7525SOL     OW23473   4.547   6.135   6.216
 7525SOL    HW123474   4.577   6.043   6.241
 7525SOL    HW223475   4.585   6.159   6.127
 7526SOL     OW23476   2.017   3.485   1.856
 7526SOL    HW123477   2.081   3.456   1.784
 7526SOL    HW223478   2.069   3.516   1.936
 7527SOL     OW23479   4.221   5.643   3.706
 7527SOL    HW123480   4.314   5.660   3.673
 7527SOL    HW223481   4.158   5.644   3.628
 7528SOL     OW23482   6.440   2.598   6.253
 7528SOL    HW123483   6.371   2.582   6.324
 7528SOL    HW223484   6.462   2.695   6.249
 7529SOL     OW23485   6.077   2.244   3.872
 7529SOL    HW123486   5.994   2.247   3.817
 7529SOL    HW223487   6.156   2.257   3.813
 7530SOL     OW23488   6.928   1.591   2.160
 7530SOL    HW123489   6.886   1.501   2.144
 7530SOL    HW223490   6.933   1.609   2.258
 7531SOL     OW23491   4.551   1.972   3.639
 7531SOL    HW123492   4.588   2.061   3.664
 7531SOL    HW223493   4.500   1.979   3.553
 7532SOL     OW23494   4.370   5.564   6.848
 7532SOL    HW123495   4.454   5.512   6.860
 7532SOL    HW223496   4.291   5.502   6.850
 7533SOL     OW23497   4.599   3.274   1.696
 7533SOL    HW123498   4.577   3.197   1.755
 7533SOL    HW223499   4.517   3.329   1.681
 7534SOL     OW23500   4.846   0.102   3.822
 7534SOL    HW123501   4.894   0.143   3.745
 7534SOL    HW223502   4.749   0.126   3.817
 7535SOL     OW23503   0.994   5.818   4.267
 7535SOL    HW123504   0.975   5.915   4.283
 7535SOL    HW223505   0.927   5.763   4.317
 7536SOL     OW23506   4.900   5.667   3.650
 7536SOL    HW123507   4.861   5.695   3.562
 7536SOL    HW223508   5.000   5.668   3.643
 7537SOL     OW23509   2.802   5.987   2.524
 7537SOL    HW123510   2.831   6.081   2.541
 7537SOL    HW223511   2.873   5.924   2.556
 7538SOL     OW23512   0.670   3.690   1.338
 7538SOL    HW123513   0.635   3.751   1.409
 7538SOL    HW223514   0.612   3.699   1.256
 7539SOL     OW23515   0.139   5.505   3.661
 7539SOL    HW123516   0.083   5.494   3.580
 7539SOL    HW223517   0.190   5.421   3.678
 7540SOL     OW23518   5.846   5.571   4.077
 7540SOL    HW123519   5.873   5.666   4.091
 7540SOL    HW223520   5.754   5.568   4.039
 7541SOL     OW23521   0.648   3.885   6.579
 7541SOL    HW123522   0.634   3.807   6.518
 7541SOL    HW223523   0.563   3.904   6.628
 7542SOL     OW23524   5.953   5.424   6.214
 7542SOL    HW123525   6.018   5.354   6.184
 7542SOL    HW223526   5.862   5.401   6.180
 7543SOL     OW23527   2.620   0.897   5.195
 7543SOL    HW123528   2.528   0.872   5.166
 7543SOL    HW223529   2.616   0.967   5.266
 7544SOL     OW23530   0.025   2.818   3.762
 7544SOL    HW123531   0.024   2.918   3.767
 7544SOL    HW223532   0.024   2.790   3.666
 7545SOL     OW23533   0.845   5.396   0.109
 7545SOL    HW123534   0.913   5.391   0.182
 7545SOL    HW223535   0.850   5.314   0.053
 7546SOL     OW23536   3.142   3.162   1.697
 7546SOL    HW123537   3.230   3.209   1.693
 7546SOL    HW223538   3.139   3.104   1.778
 7547SOL     OW23539   4.288   0.361   1.919
 7547SOL    HW123540   4.309   0.433   1.985
 7547SOL    HW223541   4.241   0.286   1.966
 7548SOL     OW23542   4.789   2.428   6.096
 7548SOL    HW123543   4.865   2.409   6.158
 7548SOL    HW223544   4.766   2.344   6.046
 7549SOL     OW23545   4.465   2.477   4.994
 7549SOL    HW123546   4.380   2.501   5.041
 7549SOL    HW223547   4.474   2.377   4.992
 7550SOL     OW23548   1.731   3.758   3.952
 7550SOL    HW123549   1.825   3.743   3.920
 7550SOL    HW223550   1.730   3.832   4.019
 7551SOL     OW23551   5.818   1.929   5.190
 7551SOL    HW123552   5.810   1.866   5.267
 7551SOL    HW223553   5.869   1.886   5.116
 7552SOL     OW23554   2.478   5.775   5.171
 7552SOL    HW123555   2.405   5.707   5.175
 7552SOL    HW223556   2.491   5.815   5.262
 7553SOL     OW23557   5.415   6.452   6.413
 7553SOL    HW123558   5.338   6.432   6.473
 7553SOL    HW223559   5.477   6.516   6.459
 7554SOL     OW23560   5.150   1.151   0.736
 7554SOL    HW123561   5.054   1.125   0.752
 7554SOL    HW223562   5.208   1.106   0.803
 7555SOL     OW23563   3.591   5.216   6.239
 7555SOL    HW123564   3.610   5.134   6.185
 7555SOL    HW223565   3.504   5.206   6.288
 7556SOL     OW23566   0.568   0.496   0.559
 7556SOL    HW123567   0.474   0.482   0.591
 7556SOL    HW223568   0.632   0.473   0.632
 7557SOL     OW23569   4.732   0.369   0.415
 7557SOL    HW123570   4.787   0.300   0.462
 7557SOL    HW223571   4.736   0.455   0.466
 7558SOL     OW23572   1.744   2.279   4.286
 7558SOL    HW123573   1.650   2.269   4.253
 7558SOL    HW223574   1.757   2.371   4.323
 7559SOL     OW23575   3.976   2.168   4.931
 7559SOL    HW123576   3.963   2.141   5.027
 7559SOL    HW223577   4.048   2.236   4.925
 7560SOL     OW23578   6.749   0.674   6.326
 7560SOL    HW123579   6.681   0.716   6.266
 7560SOL    HW223580   6.721   0.580   6.347
 7561SOL     OW23581   5.710   2.354   5.221
 7561SOL    HW123582   5.732   2.331   5.316
 7561SOL    HW223583   5.684   2.450   5.215
 7562SOL     OW23584   1.325   5.001   4.239
 7562SOL    HW123585   1.241   4.954   4.210
 7562SOL    HW223586   1.365   5.049   4.161
 7563SOL     OW23587   3.608   6.128   2.207
 7563SOL    HW123588   3.668   6.061   2.163
 7563SOL    HW223589   3.627   6.219   2.170
 7564SOL     OW23590   4.541   1.256   3.924
 7564SOL    HW123591   4.610   1.185   3.926
 7564SOL    HW223592   4.565   1.327   3.991
 7565SOL     OW23593   5.532   3.404   6.423
 7565SOL    HW123594   5.629   3.386   6.405
 7565SOL    HW223595   5.523   3.487   6.479
 7566SOL     OW23596   4.596   4.241   1.448
 7566SOL    HW123597   4.695   4.226   1.446
 7566SOL    HW223598   4.563   4.252   1.354
 7567SOL     OW23599   0.616   0.737   4.738
 7567SOL    HW123600   0.649   0.645   4.761
 7567SOL    HW223601   0.689   0.787   4.692
 7568SOL     OW23602   6.152   5.519   1.072
 7568SOL    HW123603   6.218   5.493   1.142
 7568SOL    HW223604   6.060   5.495   1.103
 7569SOL     OW23605   3.961   3.818   0.043
 7569SOL    HW123606   4.002   3.904   0.014
 7569SOL    HW223607   3.865   3.815   0.012
 7570SOL     OW23608   6.451   2.728   3.078
 7570SOL    HW123609   6.363   2.690   3.048
 7570SOL    HW223610   6.435   2.812   3.129
 7571SOL     OW23611   5.193   3.254   2.610
 7571SOL    HW123612   5.097   3.276   2.593
 7571SOL    HW223613   5.247   3.271   2.527
 7572SOL     OW23614   5.155   6.245   2.433
 7572SOL    HW123615   5.109   6.240   2.344
 7572SOL    HW223616   5.109   6.314   2.489
 7573SOL     OW23617   5.634   6.672   5.835
 7573SOL    HW123618   5.575   6.615   5.778
 7573SOL    HW223619   5.722   6.626   5.848
 7574SOL     OW23620   6.674   1.482   4.119
 7574SOL    HW123621   6.714   1.468   4.210
 7574SOL    HW223622   6.658   1.394   4.075
 7575SOL     OW23623   6.869   6.144   1.379
 7575SOL    HW123624   6.912   6.141   1.290
 7575SOL    HW223625   6.819   6.230   1.390
 7576SOL     OW23626   5.346   2.813   0.459
 7576SOL    HW123627   5.258   2.826   0.414
 7576SOL    HW223628   5.351   2.720   0.497
 7577SOL     OW23629   0.590   6.969   6.717
 7577SOL    HW123630   0.537   0.035   6.711
 7577SOL    HW223631   0.685   6.987   6.689
 7578SOL     OW23632   6.498   5.547   3.490
 7578SOL    HW123633   6.575   5.586   3.441
 7578SOL    HW223634   6.436   5.620   3.519
 7579SOL     OW23635   6.767   1.265   0.767
 7579SOL    HW123636   6.727   1.174   0.781
 7579SOL    HW223637   6.793   1.304   0.855
 7580SOL     OW23638   2.323   4.930   3.743
 7580SOL    HW123639   2.422   4.937   3.729
 7580SOL    HW223640   2.299   4.834   3.756
 7581SOL     OW23641   0.041   1.002   1.886
 7581SOL    HW123642   0.021   0.975   1.980
 7581SOL    HW223643   0.125   0.957   1.855
 7582SOL     OW23644   3.494   2.069   4.369
 7582SOL    HW123645   3.594   2.068   4.376
 7582SOL    HW223646   3.455   2.097   4.457
 7583SOL     OW23647   5.059   3.410   3.689
 7583SOL    HW123648   5.006   3.491   3.715
 7583SOL    HW223649   5.146   3.439   3.648
 7584SOL     OW23650   0.664   1.094   3.135
 7584SOL    HW123651   0.725   1.150   3.079
 7584SOL    HW223652   0.689   0.998   3.126
 7585SOL     OW23653   1.034   2.196   6.988
 7585SOL    HW123654   1.089   2.264   0.019
 7585SOL    HW223655   0.961   2.163   0.029
 7586SOL     OW23656   1.124   1.191   2.488
 7586SOL    HW123657   1.190   1.253   2.531
 7586SOL    HW223658   1.088   1.234   2.405
 7587SOL     OW23659   3.212   1.550   0.814
 7587SOL    HW123660   3.242   1.486   0.743
 7587SOL    HW223661   3.244   1.518   0.903
 7588SOL     OW23662   1.603   2.695   4.680
 7588SOL    HW123663   1.515   2.733   4.706
 7588SOL    HW223664   1.663   2.768   4.646
 7589SOL     OW23665   0.023   1.026   2.917
 7589SOL    HW123666   0.085   1.035   2.839
 7589SOL    HW223667   6.959   1.078   2.901
 7590SOL     OW23668   0.029   1.543   0.453
 7590SOL    HW123669   6.975   1.488   0.414
 7590SOL    HW223670   7.015   1.637   0.467
 7591SOL     OW23671   4.207   2.816   6.162
 7591SOL    HW123672   4.160   2.880   6.101
 7591SOL    HW223673   4.298   2.796   6.126
 7592SOL     OW23674   6.873   6.247   4.998
 7592SOL    HW123675   6.833   6.250   4.906
 7592SOL    HW223676   6.937   6.170   5.004
 7593SOL     OW23677   0.215   1.389   5.817
 7593SOL    HW123678   0.299   1.338   5.799
 7593SOL    HW223679   0.137   1.326   5.816
 7594SOL     OW23680   0.336   4.089   1.145
 7594SOL    HW123681   0.291   4.053   1.063
 7594SOL    HW223682   0.435   4.077   1.137
 7595SOL     OW23683   6.181   2.363   6.084
 7595SOL    HW123684   6.133   2.451   6.082
 7595SOL    HW223685   6.277   2.377   6.060
 7596SOL     OW23686   2.820   1.052   5.028
 7596SOL    HW123687   2.751   1.009   5.087
 7596SOL    HW223688   2.911   1.023   5.056
 7597SOL     OW23689   1.874   5.009   2.065
 7597SOL    HW123690   1.913   4.917   2.071
 7597SOL    HW223691   1.807   5.012   1.991
 7598SOL     OW23692   5.759   0.821   3.330
 7598SOL    HW123693   5.666   0.792   3.354
 7598SOL    HW223694   5.766   0.921   3.341
 7599SOL     OW23695   3.819   3.083   0.986
 7599SOL    HW123696   3.782   3.101   1.077
 7599SOL    HW223697   3.862   2.993   0.985
 7600SOL     OW23698   1.213   1.299   4.128
 7600SOL    HW123699   1.249   1.337   4.213
 7600SOL    HW223700   1.247   1.353   4.051
 7601SOL     OW23701   3.694   5.703   2.038
 7601SOL    HW123702   3.750   5.621   2.054
 7601SOL    HW223703   3.676   5.713   1.940
 7602SOL     OW23704   0.406   1.548   0.847
 7602SOL    HW123705   0.490   1.503   0.878
 7602SOL    HW223706   0.377   1.507   0.761
 7603SOL     OW23707   2.186   0.253   5.881
 7603SOL    HW123708   2.163   0.288   5.791
 7603SOL    HW223709   2.215   0.158   5.873
 7604SOL     OW23710   1.235   1.985   4.920
 7604SOL    HW123711   1.178   2.066   4.907
 7604SOL    HW223712   1.297   1.976   4.842
 7605SOL     OW23713   2.910   6.934   6.839
 7605SOL    HW123714   2.987   6.996   6.822
 7605SOL    HW223715   2.882   6.940   6.934
 7606SOL     OW23716   6.313   1.538   3.589
 7606SOL    HW123717   6.400   1.574   3.622
 7606SOL    HW223718   6.248   1.613   3.575
 7607SOL     OW23719   3.078   5.721   5.868
 7607SOL    HW123720   3.062   5.796   5.932
 7607SOL    HW223721   3.167   5.680   5.886
 7608SOL     OW23722   5.849   2.905   6.032
 7608SOL    HW123723   5.867   2.977   6.100
 7608SOL    HW223724   5.799   2.944   5.955
 7609SOL     OW23725   0.329   2.135   4.640
 7609SOL    HW123726   0.281   2.056   4.601
 7609SOL    HW223727   0.424   2.135   4.609
 7610SOL     OW23728   3.527   4.604   6.044
 7610SOL    HW123729   3.605   4.665   6.031
 7610SOL    HW223730   3.446   4.658   6.066
 7611SOL     OW23731   4.674   3.208   1.390
 7611SOL    HW123732   4.652   3.227   1.486
 7611SOL    HW223733   4.677   3.109   1.376
 7612SOL     OW23734   3.023   1.914   3.013
 7612SOL    HW123735   3.085   1.951   3.081
 7612SOL    HW223736   2.936   1.891   3.056
 7613SOL     OW23737   1.317   1.905   2.338
 7613SOL    HW123738   1.352   1.947   2.422
 7613SOL    HW223739   1.253   1.968   2.294
 7614SOL     OW23740   5.061   3.435   0.680
 7614SOL    HW123741   5.157   3.447   0.653
 7614SOL    HW223742   5.055   3.437   0.780
 7615SOL     OW23743   5.232   3.110   4.483
 7615SOL    HW123744   5.224   3.083   4.387
 7615SOL    HW223745   5.303   3.180   4.492
 7616SOL     OW23746   6.547   6.942   3.470
 7616SOL    HW123747   6.474   6.901   3.525
 7616SOL    HW223748   6.510   0.001   3.419
 7617SOL     OW23749   5.198   5.354   3.050
 7617SOL    HW123750   5.292   5.372   3.078
 7617SOL    HW223751   5.179   5.256   3.061
 7618SOL     OW23752   2.767   2.559   0.421
 7618SOL    HW123753   2.691   2.532   0.362
 7618SOL    HW223754   2.843   2.495   0.408
 7619SOL     OW23755   0.673   2.201   4.220
 7619SOL    HW123756   0.748   2.229   4.280
 7619SOL    HW223757   0.586   2.208   4.270
 7620SOL     OW23758   4.070   3.975   1.507
 7620SOL    HW123759   3.983   3.990   1.461
 7620SOL    HW223760   4.102   4.061   1.547
 7621SOL     OW23761   0.630   5.753   0.884
 7621SOL    HW123762   0.565   5.733   0.810
 7621SOL    HW223763   0.721   5.720   0.859
 7622SOL     OW23764   3.770   4.547   0.651
 7622SOL    HW123765   3.829   4.561   0.730
 7622SOL    HW223766   3.719   4.631   0.632
 7623SOL     OW23767   4.966   5.022   1.232
 7623SOL    HW123768   5.023   5.092   1.189
 7623SOL    HW223769   4.996   5.007   1.326
 7624SOL     OW23770   0.417   2.695   2.211
 7624SOL    HW123771   0.379   2.604   2.225
 7624SOL    HW223772   0.443   2.705   2.115
 7625SOL     OW23773   5.363   1.945   0.284
 7625SOL    HW123774   5.398   1.945   0.191
 7625SOL    HW223775   5.394   1.863   0.332
 7626SOL     OW23776   5.358   0.442   4.961
 7626SOL    HW123777   5.342   0.395   4.875
 7626SOL    HW223778   5.396   0.533   4.942
 7627SOL     OW23779   3.215   1.764   0.021
 7627SOL    HW123780   3.125   1.803   0.041
 7627SOL    HW223781   3.280   1.839   0.007
 7628SOL     OW23782   3.559   3.081   0.837
 7628SOL    HW123783   3.470   3.068   0.880
 7628SOL    HW223784   3.624   3.117   0.905
 7629SOL     OW23785   5.825   3.143   4.363
 7629SOL    HW123786   5.920   3.128   4.387
 7629SOL    HW223787   5.806   3.241   4.364
 7630SOL     OW23788   1.670   0.184   5.145
 7630SOL    HW123789   1.744   0.221   5.201
 7630SOL    HW223790   1.704   0.167   5.052
 7631SOL     OW23791   2.052   6.985   5.178
 7631SOL    HW123792   2.144   6.975   5.218
 7631SOL    HW223793   2.020   0.060   5.191
 7632SOL     OW23794   4.843   5.722   1.133
 7632SOL    HW123795   4.898   5.644   1.102
 7632SOL    HW223796   4.874   5.805   1.086
 7633SOL     OW23797   6.167   1.213   0.932
 7633SOL    HW123798   6.187   1.232   1.028
 7633SOL    HW223799   6.082   1.160   0.925
 7634SOL     OW23800   1.005   2.166   0.713
 7634SOL    HW123801   0.923   2.158   0.769
 7634SOL    HW223802   1.071   2.096   0.741
 7635SOL     OW23803   2.612   5.094   6.177
 7635SOL    HW123804   2.546   5.024   6.151
 7635SOL    HW223805   2.651   5.136   6.095
 7636SOL     OW23806   0.821   3.771   4.926
 7636SOL    HW123807   0.880   3.746   4.849
 7636SOL    HW223808   0.859   3.733   5.010
 7637SOL     OW23809   0.564   6.344   4.312
 7637SOL    HW123810   0.604   6.296   4.234
 7637SOL    HW223811   0.629   6.344   4.388
 7638SOL     OW23812   0.949   5.328   1.926
 7638SOL    HW123813   0.895   5.257   1.971
 7638SOL    HW223814   1.000   5.287   1.850
 7639SOL     OW23815   1.180   1.121   0.435
 7639SOL    HW123816   1.115   1.088   0.367
 7639SOL    HW223817   1.234   1.044   0.468
 7640SOL     OW23818   3.240   1.236   6.242
 7640SOL    HW123819   3.182   1.225   6.161
 7640SOL    HW223820   3.181   1.252   6.322
 7641SOL     OW23821   6.961   3.956   2.706
 7641SOL    HW123822   7.000   3.866   2.686
 7641SOL    HW223823   6.910   3.951   2.792
 7642SOL     OW23824   5.932   1.220   3.732
 7642SOL    HW123825   5.922   1.308   3.685
 7642SOL    HW223826   5.986   1.158   3.675
 7643SOL     OW23827   5.202   2.860   2.954
 7643SOL    HW123828   5.143   2.927   2.908
 7643SOL    HW223829   5.186   2.865   3.053
 7644SOL     OW23830   4.893   3.706   1.427
 7644SOL    HW123831   4.809   3.701   1.479
 7644SOL    HW223832   4.970   3.675   1.483
 7645SOL     OW23833   3.081   3.694   6.114
 7645SOL    HW123834   3.025   3.700   6.031
 7645SOL    HW223835   3.065   3.775   6.170
 7646SOL     OW23836   0.609   2.292   3.427
 7646SOL    HW123837   0.694   2.290   3.374
 7646SOL    HW223838   0.543   2.353   3.382
 7647SOL     OW23839   6.944   2.862   5.127
 7647SOL    HW123840   6.865   2.873   5.187
 7647SOL    HW223841   7.015   2.927   5.153
 7648SOL     OW23842   2.256   2.109   2.608
 7648SOL    HW123843   2.320   2.181   2.634
 7648SOL    HW223844   2.205   2.079   2.689
 7649SOL     OW23845   6.167   0.791   5.433
 7649SOL    HW123846   6.076   0.754   5.452
 7649SOL    HW223847   6.225   0.780   5.513
 7650SOL     OW23848   4.001   1.451   1.108
 7650SOL    HW123849   4.040   1.453   1.016
 7650SOL    HW223850   4.049   1.517   1.166
 7651SOL     OW23851   2.352   4.924   5.008
 7651SOL    HW123852   2.346   4.883   5.098
 7651SOL    HW223853   2.344   5.024   5.016
 7652SOL     OW23854   5.676   1.737   4.324
 7652SOL    HW123855   5.659   1.670   4.253
 7652SOL    HW223856   5.609   1.812   4.317
 7653SOL     OW23857   0.455   2.211   6.821
 7653SOL    HW123858   0.534   2.151   6.809
 7653SOL    HW223859   0.486   2.303   6.842
 7654SOL     OW23860   5.954   3.073   5.619
 7654SOL    HW123861   6.039   3.027   5.597
 7654SOL    HW223862   5.892   3.010   5.666
 7655SOL     OW23863   3.165   0.794   3.379
 7655SOL    HW123864   3.143   0.818   3.285
 7655SOL    HW223865   3.259   0.824   3.400
 7656SOL     OW23866   6.394   3.364   0.012
 7656SOL    HW123867   6.453   3.292   6.994
 7656SOL    HW223868   6.299   3.340   7.015
 7657SOL     OW23869   1.587   3.760   4.715
 7657SOL    HW123870   1.585   3.855   4.684
 7657SOL    HW223871   1.496   3.735   4.749
 7658SOL     OW23872   2.680   0.951   0.831
 7658SOL    HW123873   2.682   1.040   0.785
 7658SOL    HW223874   2.602   0.898   0.799
 7659SOL     OW23875   4.401   3.934   5.358
 7659SOL    HW123876   4.478   3.981   5.315
 7659SOL    HW223877   4.422   3.917   5.454
 7660SOL     OW23878   0.057   4.578   4.519
 7660SOL    HW123879   0.053   4.486   4.558
 7660SOL    HW223880   0.102   4.640   4.584
 7661SOL     OW23881   4.667   2.937   5.586
 7661SOL    HW123882   4.627   2.871   5.523
 7661SOL    HW223883   4.601   2.959   5.657
 7662SOL     OW23884   0.888   2.268   2.382
 7662SOL    HW123885   0.976   2.227   2.406
 7662SOL    HW223886   0.898   2.368   2.379
 7663SOL     OW23887   6.285   5.270   5.456
 7663SOL    HW123888   6.217   5.344   5.462
 7663SOL    HW223889   6.375   5.309   5.433
 7664SOL     OW23890   3.491   1.980   2.869
 7664SOL    HW123891   3.447   2.050   2.926
 7664SOL    HW223892   3.433   1.899   2.865
 7665SOL     OW23893   4.131   1.814   4.423
 7665SOL    HW123894   4.053   1.830   4.483
 7665SOL    HW223895   4.107   1.839   4.330
 7666SOL     OW23896   6.124   5.476   3.827
 7666SOL    HW123897   6.102   5.512   3.918
 7666SOL    HW223898   6.129   5.552   3.762
 7667SOL     OW23899   5.244   6.121   1.959
 7667SOL    HW123900   5.270   6.133   1.863
 7667SOL    HW223901   5.323   6.088   2.011
 7668SOL     OW23902   2.210   5.151   1.184
 7668SOL    HW123903   2.128   5.201   1.159
 7668SOL    HW223904   2.283   5.215   1.209
 7669SOL     OW23905   2.746   6.444   5.794
 7669SOL    HW123906   2.702   6.383   5.861
 7669SOL    HW223907   2.752   6.536   5.832
 7670SOL     OW23908   0.208   6.652   0.094
 7670SOL    HW123909   0.150   6.571   0.093
 7670SOL    HW223910   0.276   6.644   0.166
 7671SOL     OW23911   4.877   0.661   1.264
 7671SOL    HW123912   4.808   0.615   1.319
 7671SOL    HW223913   4.914   0.739   1.314
 7672SOL     OW23914   5.312   4.775   2.852
 7672SOL    HW123915   5.230   4.826   2.881
 7672SOL    HW223916   5.291   4.677   2.850
 7673SOL     OW23917   0.519   5.387   3.899
 7673SOL    HW123918   0.578   5.432   3.966
 7673SOL    HW223919   0.572   5.364   3.818
 7674SOL     OW23920   4.243   6.928   4.389
 7674SOL    HW123921   4.257   7.006   4.450
 7674SOL    HW223922   4.327   6.874   4.383
 7675SOL     OW23923   3.409   6.934   2.483
 7675SOL    HW123924   3.346   6.991   2.430
 7675SOL    HW223925   3.443   6.985   2.561
 7676SOL     OW23926   2.955   2.781   5.629
 7676SOL    HW123927   2.945   2.745   5.536
 7676SOL    HW223928   2.868   2.771   5.678
 7677SOL     OW23929   5.822   4.690   1.940
 7677SOL    HW123930   5.787   4.596   1.937
 7677SOL    HW223931   5.760   4.751   1.891
 7678SOL     OW23932   1.266   1.271   5.509
 7678SOL    HW123933   1.265   1.312   5.418
 7678SOL    HW223934   1.310   1.182   5.505
 7679SOL     OW23935   1.518   5.277   5.350
 7679SOL    HW123936   1.455   5.354   5.359
 7679SOL    HW223937   1.612   5.309   5.364
 7680SOL     OW23938   1.675   0.785   5.351
 7680SOL    HW123939   1.737   0.707   5.360
 7680SOL    HW223940   1.699   0.838   5.269
 7681SOL     OW23941   2.998   3.236   6.208
 7681SOL    HW123942   2.996   3.335   6.216
 7681SOL    HW223943   2.911   3.198   6.238
 7682SOL     OW23944   3.184   1.593   2.679
 7682SOL    HW123945   3.147   1.683   2.702
 7682SOL    HW223946   3.130   1.523   2.724
 7683SOL     OW23947   0.770   1.110   4.604
 7683SOL    HW123948   0.838   1.160   4.551
 7683SOL    HW223949   0.776   1.137   4.700
 7684SOL     OW23950   3.811   2.041   1.344
 7684SOL    HW123951   3.821   2.124   1.399
 7684SOL    HW223952   3.739   1.984   1.383
 7685SOL     OW23953   3.061   0.990   0.274
 7685SOL    HW123954   3.016   1.078   0.256
 7685SOL    HW223955   3.089   0.986   0.370
 7686SOL     OW23956   5.552   0.754   4.077
 7686SOL    HW123957   5.526   0.753   4.174
 7686SOL    HW223958   5.649   0.778   4.070
 7687SOL     OW23959   5.698   5.301   4.931
 7687SOL    HW123960   5.696   5.241   5.011
 7687SOL    HW223961   5.733   5.250   4.852
 7688SOL     OW23962   0.960   5.029   6.711
 7688SOL    HW123963   0.976   5.105   6.649
 7688SOL    HW223964   0.917   4.953   6.662
 7689SOL     OW23965   4.901   0.237   1.796
 7689SOL    HW123966   4.917   0.211   1.891
 7689SOL    HW223967   4.855   0.161   1.749
 7690SOL     OW23968   6.608   5.379   0.830
 7690SOL    HW123969   6.554   5.461   0.810
 7690SOL    HW223970   6.561   5.323   0.898
 7691SOL     OW23971   4.411   4.914   3.226
 7691SOL    HW123972   4.348   4.842   3.253
 7691SOL    HW223973   4.367   4.973   3.158
 7692SOL     OW23974   1.707   6.500   2.230
 7692SOL    HW123975   1.768   6.516   2.152
 7692SOL    HW223976   1.623   6.553   2.219
 7693SOL     OW23977   2.665   1.608   1.068
 7693SOL    HW123978   2.758   1.641   1.051
 7693SOL    HW223979   2.668   1.532   1.132
 7694SOL     OW23980   6.064   2.188   4.592
 7694SOL    HW123981   6.030   2.105   4.636
 7694SOL    HW223982   6.037   2.267   4.647
 7695SOL     OW23983   6.160   0.794   2.537
 7695SOL    HW123984   6.102   0.833   2.467
 7695SOL    HW223985   6.109   0.725   2.589
 7696SOL     OW23986   0.368   2.880   6.488
 7696SOL    HW123987   0.360   2.972   6.526
 7696SOL    HW223988   0.412   2.820   6.554
 7697SOL     OW23989   4.175   0.215   3.002
 7697SOL    HW123990   4.258   0.188   2.953
 7697SOL    HW223991   4.103   0.147   2.986
 7698SOL     OW23992   6.272   1.729   6.890
 7698SOL    HW123993   6.252   1.632   6.907
 7698SOL    HW223994   6.187   1.776   6.868
 7699SOL     OW23995   3.410   5.422   5.673
 7699SOL    HW123996   3.438   5.347   5.732
 7699SOL    HW223997   3.311   5.419   5.659
 7700SOL     OW23998   5.062   5.047   2.458
 7700SOL    HW123999   5.041   4.964   2.407
 7700SOL    HW224000   5.002   5.055   2.537
 7701SOL     OW24001   0.117   2.589   5.961
 7701SOL    HW124002   0.199   2.588   6.017
 7701SOL    HW224003   0.049   2.651   6.001
 7702SOL     OW24004   4.920   6.983   4.702
 7702SOL    HW124005   4.975   6.899   4.692
 7702SOL    HW224006   4.860   6.992   4.623
 7703SOL     OW24007   6.614   6.355   4.690
 7703SOL    HW124008   6.661   6.441   4.710
 7703SOL    HW224009   6.581   6.356   4.596
 7704SOL     OW24010   6.367   1.320   4.312
 7704SOL    HW124011   6.376   1.307   4.214
 7704SOL    HW224012   6.285   1.272   4.345
 7705SOL     OW24013   2.196   5.267   0.391
 7705SOL    HW124014   2.162   5.314   0.473
 7705SOL    HW224015   2.127   5.272   0.319
 7706SOL     OW24016   3.597   3.242   2.318
 7706SOL    HW124017   3.588   3.334   2.281
 7706SOL    HW224018   3.588   3.175   2.245
 7707SOL     OW24019   6.617   5.685   6.794
 7707SOL    HW124020   6.712   5.709   6.813
 7707SOL    HW224021   6.588   5.611   6.854
 7708SOL     OW24022   2.167   6.657   4.852
 7708SOL    HW124023   2.150   6.561   4.873
 7708SOL    HW224024   2.085   6.711   4.874
 7709SOL     OW24025   0.445   4.786   1.487
 7709SOL    HW124026   0.364   4.750   1.533
 7709SOL    HW224027   0.418   4.858   1.424
 7710SOL     OW24028   1.398   3.888   0.872
 7710SOL    HW124029   1.421   3.798   0.909
 7710SOL    HW224030   1.442   3.900   0.783
 7711SOL     OW24031   6.912   5.152   5.121
 7711SOL    HW124032   6.944   5.061   5.148
 7711SOL    HW224033   6.880   5.202   5.202
 7712SOL     OW24034   6.525   4.609   5.967
 7712SOL    HW124035   6.477   4.644   5.886
 7712SOL    HW224036   6.459   4.591   6.039
 7713SOL     OW24037   1.931   4.934   0.298
 7713SOL    HW124038   1.874   4.875   0.240
 7713SOL    HW224039   1.886   4.946   0.387
 7714SOL     OW24040   6.591   0.547   4.601
 7714SOL    HW124041   6.616   0.591   4.515
 7714SOL    HW224042   6.670   0.498   4.638
 7715SOL     OW24043   2.419   2.774   5.832
 7715SOL    HW124044   2.406   2.705   5.902
 7715SOL    HW224045   2.416   2.865   5.873
 7716SOL     OW24046   1.048   5.500   5.563
 7716SOL    HW124047   0.981   5.574   5.550
 7716SOL    HW224048   1.134   5.539   5.595
 7717SOL     OW24049   1.631   1.722   0.086
 7717SOL    HW124050   1.602   1.727   0.181
 7717SOL    HW224051   1.551   1.717   0.026
 7718SOL     OW24052   1.101   4.344   2.619
 7718SOL    HW124053   1.001   4.347   2.626
 7718SOL    HW224054   1.139   4.433   2.646
 7719SOL     OW24055   1.522   3.870   5.272
 7719SOL    HW124056   1.434   3.878   5.318
 7719SOL    HW224057   1.516   3.799   5.201
 7720SOL     OW24058   5.878   1.588   6.839
 7720SOL    HW124059   5.843   1.553   6.753
 7720SOL    HW224060   5.936   1.668   6.822
 7721SOL     OW24061   0.550   0.778   2.621
 7721SOL    HW124062   0.634   0.725   2.635
 7721SOL    HW224063   0.537   0.841   2.698
 7722SOL     OW24064   2.233   5.919   3.770
 7722SOL    HW124065   2.234   5.922   3.670
 7722SOL    HW224066   2.196   5.831   3.800
 7723SOL     OW24067   4.960   4.094   0.672
 7723SOL    HW124068   4.882   4.050   0.717
 7723SOL    HW224069   5.045   4.055   0.706
 7724SOL     OW24070   2.398   4.146   1.853
 7724SOL    HW124071   2.376   4.049   1.845
 7724SOL    HW224072   2.315   4.201   1.842
 7725SOL     OW24073   5.452   3.159   3.529
 7725SOL    HW124074   5.356   3.152   3.556
 7725SOL    HW224075   5.462   3.231   3.460
 7726SOL     OW24076   0.066   3.247   6.316
 7726SOL    HW124077   0.104   3.209   6.232
 7726SOL    HW224078   0.123   3.324   6.346
 7727SOL     OW24079   5.354   2.384   2.529
 7727SOL    HW124080   5.336   2.380   2.628
 7727SOL    HW224081   5.452   2.384   2.513
 7728SOL     OW24082   2.174   3.224   4.982
 7728SOL    HW124083   2.145   3.150   5.043
 7728SOL    HW224084   2.265   3.255   5.007
 7729SOL     OW24085   6.126   1.935   3.696
 7729SOL    HW124086   6.087   1.968   3.783
 7729SOL    HW224087   6.107   2.002   3.624
 7730SOL     OW24088   6.178   3.948   5.252
 7730SOL    HW124089   6.126   3.970   5.169
 7730SOL    HW224090   6.254   4.012   5.262
 7731SOL     OW24091   6.196   6.904   0.258
 7731SOL    HW124092   6.227   6.898   0.163
 7731SOL    HW224093   6.250   6.843   0.315
 7732SOL     OW24094   4.578   0.228   6.358
 7732SOL    HW124095   4.554   0.186   6.271
 7732SOL    HW224096   4.552   0.167   6.433
 7733SOL     OW24097   6.784   5.903   2.324
 7733SOL    HW124098   6.745   5.942   2.240
 7733SOL    HW224099   6.857   5.963   2.358
 7734SOL     OW24100   3.253   3.812   5.299
 7734SOL    HW124101   3.301   3.818   5.386
 7734SOL    HW224102   3.248   3.903   5.257
 7735SOL     OW24103   6.732   6.192   0.935
 7735SOL    HW124104   6.673   6.119   0.901
 7735SOL    HW224105   6.745   6.260   0.863
 7736SOL     OW24106   3.097   3.245   0.545
 7736SOL    HW124107   3.011   3.283   0.581
 7736SOL    HW224108   3.095   3.248   0.445
 7737SOL     OW24109   4.020   4.566   1.783
 7737SOL    HW124110   3.965   4.649   1.774
 7737SOL    HW224111   3.959   4.488   1.798
 7738SOL     OW24112   2.622   6.619   6.836
 7738SOL    HW124113   2.663   6.683   6.771
 7738SOL    HW224114   2.664   6.529   6.825
 7739SOL     OW24115   1.378   2.069   0.899
 7739SOL    HW124116   1.456   2.100   0.844
 7739SOL    HW224117   1.310   2.028   0.839
 7740SOL     OW24118   1.495   0.817   4.283
 7740SOL    HW124119   1.454   0.777   4.201
 7740SOL    HW224120   1.443   0.788   4.364
 7741SOL     OW24121   1.648   4.159   6.302
 7741SOL    HW124122   1.549   4.155   6.297
 7741SOL    HW224123   1.688   4.120   6.219
 7742SOL     OW24124   4.031   1.585   4.136
 7742SOL    HW124125   3.944   1.579   4.087
 7742SOL    HW224126   4.055   1.681   4.149
 7743SOL     OW24127   4.912   1.320   5.986
 7743SOL    HW124128   5.010   1.336   5.971
 7743SOL    HW224129   4.861   1.342   5.903
 7744SOL     OW24130   0.263   6.293   4.306
 7744SOL    HW124131   0.233   6.371   4.250
 7744SOL    HW224132   0.359   6.305   4.330
 7745SOL     OW24133   1.722   6.484   0.383
 7745SOL    HW124134   1.791   6.541   0.338
 7745SOL    HW224135   1.720   6.393   0.340
 7746SOL     OW24136   1.308   6.394   0.842
 7746SOL    HW124137   1.345   6.316   0.791
 7746SOL    HW224138   1.368   6.415   0.919
 7747SOL     OW24139   0.980   6.296   0.696
 7747SOL    HW124140   0.911   6.224   0.693
 7747SOL    HW224141   1.055   6.273   0.634
 7748SOL     OW24142   4.249   2.851   5.466
 7748SOL    HW124143   4.190   2.923   5.503
 7748SOL    HW224144   4.197   2.798   5.398
 7749SOL     OW24145   3.470   3.420   4.223
 7749SOL    HW124146   3.506   3.347   4.165
 7749SOL    HW224147   3.370   3.417   4.221
 7750SOL     OW24148   5.517   4.828   5.490
 7750SOL    HW124149   5.507   4.739   5.534
 7750SOL    HW224150   5.455   4.894   5.532
 7751SOL     OW24151   6.920   0.913   5.106
 7751SOL    HW124152   6.905   1.010   5.089
 7751SOL    HW224153   6.982   0.876   5.036
 7752SOL     OW24154   5.920   5.675   5.345
 7752SOL    HW124155   5.860   5.679   5.265
 7752SOL    HW224156   5.970   5.762   5.353
 7753SOL     OW24157   1.744   0.709   4.360
 7753SOL    HW124158   1.822   0.759   4.396
 7753SOL    HW224159   1.685   0.771   4.308
 7754SOL     OW24160   5.824   0.480   0.777
 7754SOL    HW124161   5.727   0.478   0.803
 7754SOL    HW224162   5.878   0.433   0.846
 7755SOL     OW24163   0.343   6.009   5.272
 7755SOL    HW124164   0.298   5.921   5.257
 7755SOL    HW224165   0.277   6.083   5.262
 7756SOL     OW24166   3.212   4.956   2.271
 7756SOL    HW124167   3.230   4.959   2.173
 7756SOL    HW224168   3.115   4.937   2.287
 7757SOL     OW24169   4.316   6.632   5.614
 7757SOL    HW124170   4.388   6.570   5.583
 7757SOL    HW224171   4.264   6.590   5.688
 7758SOL     OW24172   2.336   2.141   6.076
 7758SOL    HW124173   2.409   2.072   6.084
 7758SOL    HW224174   2.250   2.102   6.110
 7759SOL     OW24175   2.022   0.511   4.176
 7759SOL    HW124176   1.926   0.499   4.200
 7759SOL    HW224177   2.075   0.526   4.260
 7760SOL     OW24178   5.109   2.970   2.183
 7760SOL    HW124179   5.049   2.955   2.105
 7760SOL    HW224180   5.199   3.000   2.151
 7761SOL     OW24181   3.113   0.086   6.772
 7761SOL    HW124182   3.177   0.163   6.783
 7761SOL    HW224183   3.119   0.050   6.679
 7762SOL     OW24184   4.206   1.777   0.342
 7762SOL    HW124185   4.269   1.792   0.265
 7762SOL    HW224186   4.186   1.865   0.386
 7763SOL     OW24187   1.962   2.008   0.675
 7763SOL    HW124188   1.928   2.077   0.739
 7763SOL    HW224189   1.977   2.051   0.586
 7764SOL     OW24190   3.800   2.985   2.157
 7764SOL    HW124191   3.870   3.056   2.147
 7764SOL    HW224192   3.790   2.962   2.254
 7765SOL     OW24193   6.668   2.869   2.992
 7765SOL    HW124194   6.742   2.805   3.013
 7765SOL    HW224195   6.581   2.819   2.990
 7766SOL     OW24196   6.029   1.823   6.805
 7766SOL    HW124197   6.015   1.872   6.890
 7766SOL    HW224198   5.987   1.874   6.730
 7767SOL     OW24199   4.308   6.002   4.084
 7767SOL    HW124200   4.383   5.946   4.048
 7767SOL    HW224201   4.296   6.083   4.026
 7768SOL     OW24202   3.897   4.949   2.293
 7768SOL    HW124203   3.813   4.899   2.273
 7768SOL    HW224204   3.877   5.027   2.351
 7769SOL     OW24205   5.356   2.507   0.716
 7769SOL    HW124206   5.316   2.598   0.732
 7769SOL    HW224207   5.318   2.469   0.632
 7770SOL     OW24208   3.057   4.973   1.544
 7770SOL    HW124209   2.993   4.910   1.589
 7770SOL    HW224210   3.149   4.960   1.582
 7771SOL     OW24211   2.823   2.193   5.830
 7771SOL    HW124212   2.838   2.291   5.838
 7771SOL    HW224213   2.792   2.171   5.738
 7772SOL     OW24214   4.899   0.556   3.839
 7772SOL    HW124215   4.853   0.619   3.903
 7772SOL    HW224216   4.833   0.488   3.807
 7773SOL     OW24217   4.501   3.854   5.603
 7773SOL    HW124218   4.523   3.917   5.678
 7773SOL    HW224219   4.441   3.782   5.637
 7774SOL     OW24220   5.298   1.610   5.807
 7774SOL    HW124221   5.367   1.654   5.748
 7774SOL    HW224222   5.288   1.663   5.891
 7775SOL     OW24223   3.319   6.838   1.993
 7775SOL    HW124224   3.403   6.836   2.048
 7775SOL    HW224225   3.344   6.842   1.896
 7776SOL     OW24226   3.814   3.514   6.187
 7776SOL    HW124227   3.827   3.435   6.247
 7776SOL    HW224228   3.882   3.584   6.209
 7777SOL     OW24229   2.571   0.980   6.926
 7777SOL    HW124230   2.635   0.982   6.849
 7777SOL    HW224231   2.591   0.900   6.984
 7778SOL     OW24232   5.660   0.285   6.889
 7778SOL    HW124233   5.629   0.378   6.872
 7778SOL    HW224234   5.753   0.274   6.855
 7779SOL     OW24235   3.731   2.671   0.641
 7779SOL    HW124236   3.709   2.707   0.732
 7779SOL    HW224237   3.696   2.579   0.633
 7780SOL     OW24238   1.571   5.976   4.592
 7780SOL    HW124239   1.596   6.042   4.663
 7780SOL    HW224240   1.607   6.006   4.504
 7781SOL     OW24241   1.627   3.781   5.554
 7781SOL    HW124242   1.543   3.827   5.582
 7781SOL    HW224243   1.647   3.802   5.458
 7782SOL     OW24244   2.364   4.397   6.427
 7782SOL    HW124245   2.333   4.405   6.332
 7782SOL    HW224246   2.432   4.467   6.447
 7783SOL     OW24247   2.329   6.122   6.987
 7783SOL    HW124248   2.384   6.054   6.939
 7783SOL    HW224249   2.360   6.214   6.960
 7784SOL     OW24250   0.873   2.842   6.745
 7784SOL    HW124251   0.908   2.903   6.674
 7784SOL    HW224252   0.937   2.839   6.822
 7785SOL     OW24253   2.256   6.408   4.227
 7785SOL    HW124254   2.247   6.502   4.195
 7785SOL    HW224255   2.171   6.358   4.212
 7786SOL     OW24256   3.003   4.775   5.264
 7786SOL    HW124257   3.039   4.854   5.213
 7786SOL    HW224258   2.979   4.702   5.199
 7787SOL     OW24259   2.253   2.846   4.840
 7787SOL    HW124260   2.236   2.764   4.894
 7787SOL    HW224261   2.311   2.909   4.891
 7788SOL     OW24262   1.007   1.370   1.675
 7788SOL    HW124263   1.025   1.324   1.761
 7788SOL    HW224264   1.085   1.356   1.613
 7789SOL     OW24265   3.005   0.683   1.183
 7789SOL    HW124266   2.932   0.715   1.122
 7789SOL    HW224267   2.979   0.700   1.278
 7790SOL     OW24268   6.131   3.536   2.894
 7790SOL    HW124269   6.129   3.442   2.859
 7790SOL    HW224270   6.136   3.600   2.818
 7791SOL     OW24271   2.739   4.979   4.566
 7791SOL    HW124272   2.744   4.889   4.608
 7791SOL    HW224273   2.663   4.982   4.502
 7792SOL     OW24274   2.503   5.956   6.102
 7792SOL    HW124275   2.447   5.992   6.177
 7792SOL    HW224276   2.592   5.929   6.137
 7793SOL     OW24277   1.298   1.267   5.990
 7793SOL    HW124278   1.291   1.188   5.928
 7793SOL    HW224279   1.207   1.301   6.010
 7794SOL     OW24280   5.449   5.278   4.459
 7794SOL    HW124281   5.372   5.261   4.521
 7794SOL    HW224282   5.432   5.234   4.371
 7795SOL     OW24283   2.242   3.844   5.939
 7795SOL    HW124284   2.171   3.803   5.881
 7795SOL    HW224285   2.325   3.788   5.935
 7796SOL     OW24286   3.703   4.101   3.391
 7796SOL    HW124287   3.610   4.137   3.397
 7796SOL    HW224288   3.739   4.084   3.483
 7797SOL     OW24289   0.140   6.410   3.075
 7797SOL    HW124290   0.186   6.494   3.103
 7797SOL    HW224291   0.050   6.405   3.119
 7798SOL     OW24292   3.364   5.658   0.467
 7798SOL    HW124293   3.358   5.602   0.550
 7798SOL    HW224294   3.460   5.680   0.449
 7799SOL     OW24295   0.024   5.344   0.982
 7799SOL    HW124296   6.956   5.391   0.965
 7799SOL    HW224297   0.077   5.340   0.897
 7800SOL     OW24298   0.239   5.078   1.751
 7800SOL    HW124299   0.291   5.027   1.819
 7800SOL    HW224300   0.297   5.148   1.710
 7801SOL     OW24301   2.131   1.552   0.086
 7801SOL    HW124302   2.087   1.616   0.023
 7801SOL    HW224303   2.085   1.556   0.175
 7802SOL     OW24304   5.399   2.413   1.571
 7802SOL    HW124305   5.322   2.472   1.548
 7802SOL    HW224306   5.427   2.430   1.665
 7803SOL     OW24307   3.915   3.975   6.185
 7803SOL    HW124308   3.823   4.010   6.202
 7803SOL    HW224309   3.938   3.985   6.088
 7804SOL     OW24310   5.016   1.838   5.176
 7804SOL    HW124311   5.098   1.861   5.123
 7804SOL    HW224312   4.995   1.741   5.165
 7805SOL     OW24313   5.466   2.527   1.823
 7805SOL    HW124314   5.513   2.469   1.890
 7805SOL    HW224315   5.472   2.623   1.853
 7806SOL     OW24316   5.675   2.797   6.229
 7806SOL    HW124317   5.737   2.803   6.150
 7806SOL    HW224318   5.599   2.737   6.207
 7807SOL     OW24319   6.777   3.898   6.519
 7807SOL    HW124320   6.723   3.832   6.467
 7807SOL    HW224321   6.801   3.975   6.460
 7808SOL     OW24322   0.487   1.027   4.590
 7808SOL    HW124323   0.573   1.078   4.601
 7808SOL    HW224324   0.499   0.933   4.624
 7809SOL     OW24325   2.293   5.364   4.635
 7809SOL    HW124326   2.216   5.334   4.691
 7809SOL    HW224327   2.364   5.294   4.634
 7810SOL     OW24328   2.755   0.663   5.178
 7810SOL    HW124329   2.852   0.687   5.189
 7810SOL    HW224330   2.699   0.745   5.188
 7811SOL     OW24331   5.285   4.523   3.269
 7811SOL    HW124332   5.196   4.566   3.284
 7811SOL    HW224333   5.334   4.516   3.356
 7812SOL     OW24334   2.225   1.630   4.455
 7812SOL    HW124335   2.254   1.694   4.383
 7812SOL    HW224336   2.212   1.539   4.415
 7813SOL     OW24337   5.930   2.730   6.807
 7813SOL    HW124338   5.962   2.729   6.712
 7813SOL    HW224339   5.858   2.661   6.819
 7814SOL     OW24340   6.770   2.966   3.651
 7814SOL    HW124341   6.752   2.986   3.748
 7814SOL    HW224342   6.842   2.896   3.645
 7815SOL     OW24343   6.590   1.513   6.031
 7815SOL    HW124344   6.566   1.494   6.126
 7815SOL    HW224345   6.575   1.610   6.011
 7816SOL     OW24346   0.261   3.367   5.776
 7816SOL    HW124347   0.247   3.361   5.677
 7816SOL    HW224348   0.346   3.416   5.794
 7817SOL     OW24349   5.408   4.143   4.685
 7817SOL    HW124350   5.496   4.105   4.712
 7817SOL    HW224351   5.374   4.205   4.756
 7818SOL     OW24352   6.304   6.706   1.831
 7818SOL    HW124353   6.294   6.648   1.912
 7818SOL    HW224354   6.218   6.708   1.781
 7819SOL     OW24355   6.754   2.358   1.193
 7819SOL    HW124356   6.746   2.366   1.293
 7819SOL    HW224357   6.690   2.289   1.160
 7820SOL     OW24358   1.631   1.803   6.678
 7820SOL    HW124359   1.639   1.771   6.584
 7820SOL    HW224360   1.536   1.797   6.708
 7821SOL     OW24361   3.531   5.468   1.180
 7821SOL    HW124362   3.445   5.466   1.232
 7821SOL    HW224363   3.516   5.428   1.089
 7822SOL     OW24364   1.086   5.674   5.329
 7822SOL    HW124365   0.994   5.675   5.290
 7822SOL    HW224366   1.120   5.580   5.330
 7823SOL     OW24367   2.310   4.295   5.109
 7823SOL    HW124368   2.276   4.215   5.060
 7823SOL    HW224369   2.374   4.267   5.180
 7824SOL     OW24370   0.360   2.517   5.544
 7824SOL    HW124371   0.332   2.485   5.454
 7824SOL    HW224372   0.448   2.475   5.569
 7825SOL     OW24373   2.422   1.766   6.717
 7825SOL    HW124374   2.463   1.857   6.729
 7825SOL    HW224375   2.369   1.742   6.798
 7826SOL     OW24376   6.630   2.540   6.758
 7826SOL    HW124377   6.708   2.602   6.760
 7826SOL    HW224378   6.624   2.491   6.844
 7827SOL     OW24379   0.051   6.135   3.292
 7827SOL    HW124380   7.009   6.210   3.267
 7827SOL    HW224381   0.080   6.086   3.210
 7828SOL     OW24382   0.006   3.708   6.509
 7828SOL    HW124383   0.003   3.674   6.415
 7828SOL    HW224384   6.982   3.798   6.513
 7829SOL     OW24385   3.346   2.913   1.562
 7829SOL    HW124386   3.410   2.990   1.556
 7829SOL    HW224387   3.397   2.828   1.551
 7830SOL     OW24388   2.685   5.043   4.112
 7830SOL    HW124389   2.709   4.980   4.187
 7830SOL    HW224390   2.640   4.992   4.039
 7831SOL     OW24391   1.943   2.219   0.882
 7831SOL    HW124392   1.927   2.311   0.918
 7831SOL    HW224393   1.954   2.155   0.957
 7832SOL     OW24394   5.476   0.671   4.862
 7832SOL    HW124395   5.388   0.695   4.821
 7832SOL    HW224396   5.539   0.642   4.790
 7833SOL     OW24397   1.973   0.669   3.932
 7833SOL    HW124398   1.874   0.673   3.942
 7833SOL    HW224399   2.015   0.650   4.021
 7834SOL     OW24400   6.237   2.774   4.859
 7834SOL    HW124401   6.215   2.777   4.761
 7834SOL    HW224402   6.274   2.862   4.887
 7835SOL     OW24403   4.348   1.861   5.056
 7835SOL    HW124404   4.377   1.892   4.965
 7835SOL    HW224405   4.274   1.794   5.046
 7836SOL     OW24406   3.942   4.077   5.166
 7836SOL    HW124407   3.842   4.071   5.173
 7836SOL    HW224408   3.972   4.036   5.080
 7837SOL     OW24409   5.987   6.456   6.719
 7837SOL    HW124410   5.972   6.503   6.632
 7837SOL    HW224411   6.079   6.475   6.751
 7838SOL     OW24412   5.380   5.538   1.034
 7838SOL    HW124413   5.389   5.511   1.129
 7838SOL    HW224414   5.469   5.530   0.988
 7839SOL     OW24415   6.068   4.363   4.839
 7839SOL    HW124416   5.971   4.386   4.836
 7839SOL    HW224417   6.087   4.286   4.779
 7840SOL     OW24418   2.123   3.635   3.212
 7840SOL    HW124419   2.121   3.540   3.243
 7840SOL    HW224420   2.106   3.638   3.114
 7841SOL     OW24421   5.521   2.395   5.556
 7841SOL    HW124422   5.562   2.486   5.549
 7841SOL    HW224423   5.450   2.384   5.487
 7842SOL     OW24424   1.841   1.462   2.442
 7842SOL    HW124425   1.809   1.380   2.395
 7842SOL    HW224426   1.776   1.536   2.429
 7843SOL     OW24427   0.459   6.681   3.202
 7843SOL    HW124428   0.528   6.749   3.225
 7843SOL    HW224429   0.447   6.618   3.279
 7844SOL     OW24430   3.797   0.997   2.368
 7844SOL    HW124431   3.699   0.982   2.380
 7844SOL    HW224432   3.846   0.952   2.443
 7845SOL     OW24433   6.033   1.887   1.550
 7845SOL    HW124434   5.967   1.957   1.576
 7845SOL    HW224435   6.115   1.930   1.512
 7846SOL     OW24436   0.846   2.547   0.038
 7846SOL    HW124437   0.882   2.638   0.052
 7846SOL    HW224438   0.870   2.489   0.116
 7847SOL     OW24439   5.506   2.439   4.346
 7847SOL    HW124440   5.556   2.422   4.261
 7847SOL    HW224441   5.431   2.502   4.328
 7848SOL     OW24442   2.685   4.875   0.800
 7848SOL    HW124443   2.717   4.895   0.893
 7848SOL    HW224444   2.585   4.869   0.800
 7849SOL     OW24445   4.880   3.984   6.036
 7849SOL    HW124446   4.925   3.920   6.099
 7849SOL    HW224447   4.805   4.030   6.084
 7850SOL     OW24448   6.579   1.499   3.192
 7850SOL    HW124449   6.554   1.490   3.095
 7850SOL    HW224450   6.514   1.447   3.248
 7851SOL     OW24451   1.094   4.568   1.831
 7851SOL    HW124452   1.134   4.646   1.878
 7851SOL    HW224453   1.009   4.596   1.786
 7852SOL     OW24454   2.001   2.106   0.430
 7852SOL    HW124455   1.910   2.122   0.390
 7852SOL    HW224456   2.060   2.062   0.363
 7853SOL     OW24457   3.972   2.889   1.652
 7853SOL    HW124458   3.903   2.914   1.721
 7853SOL    HW224459   4.061   2.924   1.681
 7854SOL     OW24460   5.049   1.856   5.665
 7854SOL    HW124461   4.992   1.888   5.589
 7854SOL    HW224462   5.016   1.896   5.751
 7855SOL     OW24463   5.310   0.007   4.379
 7855SOL    HW124464   5.304   6.972   4.295
 7855SOL    HW224465   5.393   0.062   4.378
 7856SOL     OW24466   1.884   5.416   4.818
 7856SOL    HW124467   1.921   5.508   4.801
 7856SOL    HW224468   1.799   5.405   4.767
 7857SOL     OW24469   5.112   3.955   0.208
 7857SOL    HW124470   5.098   4.039   0.155
 7857SOL    HW224471   5.083   3.876   0.154
 7858SOL     OW24472   0.549   5.261   5.951
 7858SOL    HW124473   0.462   5.262   5.903
 7858SOL    HW224474   0.621   5.233   5.887
 7859SOL     OW24475   5.037   2.497   6.737
 7859SOL    HW124476   4.937   2.493   6.743
 7859SOL    HW224477   5.066   2.592   6.723
 7860SOL     OW24478   2.782   0.864   4.589
 7860SOL    HW124479   2.791   0.765   4.593
 7860SOL    HW224480   2.851   0.902   4.528
 7861SOL     OW24481   2.618   6.629   1.196
 7861SOL    HW124482   2.615   6.631   1.096
 7861SOL    HW224483   2.711   6.648   1.227
 7862SOL     OW24484   2.650   6.673   0.901
 7862SOL    HW124485   2.723   6.635   0.844
 7862SOL    HW224486   2.636   6.769   0.877
 7863SOL     OW24487   6.902   4.007   3.705
 7863SOL    HW124488   6.834   3.967   3.644
 7863SOL    HW224489   6.986   3.952   3.701
 7864SOL     OW24490   2.558   6.342   5.571
 7864SOL    HW124491   2.605   6.287   5.640
 7864SOL    HW224492   2.552   6.291   5.485
 7865SOL     OW24493   6.297   6.106   4.048
 7865SOL    HW124494   6.392   6.099   4.018
 7865SOL    HW224495   6.264   6.200   4.031
 7866SOL     OW24496   1.227   0.593   6.064
 7866SOL    HW124497   1.317   0.558   6.091
 7866SOL    HW224498   1.167   0.516   6.043
 7867SOL     OW24499   5.591   0.213   3.692
 7867SOL    HW124500   5.639   0.229   3.778
 7867SOL    HW224501   5.522   0.142   3.705
 7868SOL     OW24502   3.493   6.388   1.011
 7868SOL    HW124503   3.435   6.363   1.089
 7868SOL    HW224504   3.554   6.463   1.037
 7869SOL     OW24505   4.988   4.059   5.785
 7869SOL    HW124506   4.941   4.024   5.866
 7869SOL    HW224507   5.075   4.011   5.773
 7870SOL     OW24508   4.762   6.108   5.064
 7870SOL    HW124509   4.858   6.135   5.053
 7870SOL    HW224510   4.739   6.107   5.162
 7871SOL     OW24511   5.308   1.649   1.836
 7871SOL    HW124512   5.267   1.568   1.793
 7871SOL    HW224513   5.250   1.681   1.911
 7872SOL     OW24514   1.910   5.962   2.770
 7872SOL    HW124515   1.933   5.909   2.688
 7872SOL    HW224516   1.838   6.027   2.747
 7873SOL     OW24517   6.740   1.179   0.467
 7873SOL    HW124518   6.654   1.231   0.473
 7873SOL    HW224519   6.791   1.188   0.553
 7874SOL     OW24520   5.864   2.443   1.167
 7874SOL    HW124521   5.790   2.376   1.159
 7874SOL    HW224522   5.927   2.413   1.239
 7875SOL     OW24523   4.294   4.306   6.442
 7875SOL    HW124524   4.360   4.235   6.470
 7875SOL    HW224525   4.274   4.295   6.345
 7876SOL     OW24526   0.302   0.349   2.629
 7876SOL    HW124527   0.372   0.413   2.598
 7876SOL    HW224528   0.340   0.288   2.698
 7877SOL     OW24529   6.505   1.481   2.932
 7877SOL    HW124530   6.594   1.442   2.907
 7877SOL    HW224531   6.436   1.453   2.866
 7878SOL     OW24532   4.745   4.761   3.416
 7878SOL    HW124533   4.738   4.841   3.476
 7878SOL    HW224534   4.709   4.785   3.325
 7879SOL     OW24535   2.628   4.652   3.277
 7879SOL    HW124536   2.644   4.648   3.375
 7879SOL    HW224537   2.597   4.563   3.244
 7880SOL     OW24538   1.420   3.971   1.743
 7880SOL    HW124539   1.447   4.035   1.671
 7880SOL    HW224540   1.418   3.878   1.706
 7881SOL     OW24541   5.003   3.810   3.958
 7881SOL    HW124542   5.101   3.817   3.937
 7881SOL    HW224543   4.987   3.727   4.011
 7882SOL     OW24544   2.034   3.289   1.585
 7882SOL    HW124545   2.027   3.242   1.673
 7882SOL    HW224546   2.087   3.233   1.521
 7883SOL     OW24547   0.940   1.351   4.903
 7883SOL    HW124548   0.923   1.252   4.902
 7883SOL    HW224549   0.999   1.375   4.826
 7884SOL     OW24550   0.419   3.273   4.695
 7884SOL    HW124551   0.389   3.293   4.601
 7884SOL    HW224552   0.360   3.203   4.735
 7885SOL     OW24553   6.001   5.633   0.261
 7885SOL    HW124554   5.904   5.627   0.235
 7885SOL    HW224555   6.052   5.678   0.188
 7886SOL     OW24556   4.656   5.442   0.375
 7886SOL    HW124557   4.749   5.425   0.409
 7886SOL    HW224558   4.638   5.384   0.296
 7887SOL     OW24559   4.522   1.918   0.463
 7887SOL    HW124560   4.433   1.955   0.435
 7887SOL    HW224561   4.546   1.955   0.553
 7888SOL     OW24562   4.448   0.792   4.164
 7888SOL    HW124563   4.414   0.845   4.086
 7888SOL    HW224564   4.480   0.855   4.235
 7889SOL     OW24565   0.119   6.144   2.450
 7889SOL    HW124566   0.165   6.232   2.439
 7889SOL    HW224567   0.187   6.071   2.457
 7890SOL     OW24568   1.650   3.873   2.578
 7890SOL    HW124569   1.730   3.816   2.558
 7890SOL    HW224570   1.677   3.969   2.575
 7891SOL     OW24571   2.450   4.567   2.175
 7891SOL    HW124572   2.531   4.570   2.233
 7891SOL    HW224573   2.478   4.555   2.080
 7892SOL     OW24574   2.147   2.360   6.037
 7892SOL    HW124575   2.166   2.288   6.103
 7892SOL    HW224576   2.157   2.323   5.944
 7893SOL     OW24577   6.127   6.464   0.934
 7893SOL    HW124578   6.184   6.475   1.016
 7893SOL    HW224579   6.036   6.501   0.952
 7894SOL     OW24580   2.638   6.530   1.945
 7894SOL    HW124581   2.666   6.613   1.993
 7894SOL    HW224582   2.718   6.486   1.904
 7895SOL     OW24583   6.687   1.115   4.621
 7895SOL    HW124584   6.774   1.165   4.613
 7895SOL    HW224585   6.633   1.128   4.538
 7896SOL     OW24586   4.774   4.265   5.787
 7896SOL    HW124587   4.800   4.170   5.801
 7896SOL    HW224588   4.678   4.270   5.762
 7897SOL     OW24589   2.450   3.007   6.634
 7897SOL    HW124590   2.428   3.102   6.656
 7897SOL    HW224591   2.507   3.004   6.552
 7898SOL     OW24592   4.207   2.196   3.635
 7898SOL    HW124593   4.258   2.277   3.606
 7898SOL    HW224594   4.127   2.185   3.577
 7899SOL     OW24595   5.784   2.392   2.800
 7899SOL    HW124596   5.698   2.341   2.800
 7899SOL    HW224597   5.822   2.394   2.708
 7900SOL     OW24598   2.113   5.924   1.375
 7900SOL    HW124599   2.192   5.950   1.320
 7900SOL    HW224600   2.079   6.004   1.424
 7901SOL     OW24601   6.498   6.578   6.386
 7901SOL    HW124602   6.471   6.661   6.337
 7901SOL    HW224603   6.504   6.502   6.321
 7902SOL     OW24604   4.530   4.063   0.399
 7902SOL    HW124605   4.629   4.065   0.411
 7902SOL    HW224606   4.507   4.090   0.306
 7903SOL     OW24607   6.205   1.642   0.150
 7903SOL    HW124608   6.164   1.732   0.170
 7903SOL    HW224609   6.284   1.654   0.091
 7904SOL     OW24610   6.758   1.153   2.150
 7904SOL    HW124611   6.793   1.234   2.104
 7904SOL    HW224612   6.834   1.106   2.195
 7905SOL     OW24613   3.848   0.733   1.238
 7905SOL    HW124614   3.943   0.759   1.221
 7905SOL    HW224615   3.805   0.802   1.296
 7906SOL     OW24616   5.289   6.117   0.067
 7906SOL    HW124617   5.259   6.196   0.013
 7906SOL    HW224618   5.344   6.057   0.009
 7907SOL     OW24619   6.953   3.006   3.301
 7907SOL    HW124620   6.930   3.076   3.369
 7907SOL    HW224621   0.033   2.993   3.297
 7908SOL     OW24622   6.442   2.033   3.731
 7908SOL    HW124623   6.534   2.064   3.705
 7908SOL    HW224624   6.417   1.953   3.676
 7909SOL     OW24625   4.639   4.257   4.827
 7909SOL    HW124626   4.649   4.179   4.889
 7909SOL    HW224627   4.549   4.298   4.841
 7910SOL     OW24628   4.888   3.340   5.846
 7910SOL    HW124629   4.954   3.266   5.857
 7910SOL    HW224630   4.833   3.349   5.929
 7911SOL     OW24631   6.442   4.443   0.072
 7911SOL    HW124632   6.405   4.383   0.142
 7911SOL    HW224633   6.384   4.438   7.009
 7912SOL     OW24634   5.559   4.416   6.346
 7912SOL    HW124635   5.476   4.373   6.309
 7912SOL    HW224636   5.545   4.514   6.354
 7913SOL     OW24637   6.560   5.503   6.431
 7913SOL    HW124638   6.516   5.437   6.369
 7913SOL    HW224639   6.646   5.464   6.465
 7914SOL     OW24640   6.209   3.720   1.298
 7914SOL    HW124641   6.190   3.681   1.208
 7914SOL    HW224642   6.166   3.810   1.305
 7915SOL     OW24643   3.921   1.831   3.244
 7915SOL    HW124644   3.970   1.747   3.220
 7915SOL    HW224645   3.822   1.812   3.246
 7916SOL     OW24646   5.642   3.654   5.733
 7916SOL    HW124647   5.736   3.690   5.731
 7916SOL    HW224648   5.621   3.613   5.645
 7917SOL     OW24649   3.415   3.772   4.476
 7917SOL    HW124650   3.367   3.712   4.539
 7917SOL    HW224651   3.370   3.771   4.387
 7918SOL     OW24652   5.706   1.745   2.885
 7918SOL    HW124653   5.690   1.649   2.904
 7918SOL    HW224654   5.636   1.779   2.822
 7919SOL     OW24655   5.331   5.094   1.922
 7919SOL    HW124656   5.304   5.074   1.828
 7919SOL    HW224657   5.429   5.074   1.934
 7920SOL     OW24658   0.624   5.068   1.376
 7920SOL    HW124659   0.577   5.129   1.313
 7920SOL    HW224660   0.559   5.032   1.443
 7921SOL     OW24661   2.232   6.793   1.334
 7921SOL    HW124662   2.205   6.701   1.306
 7921SOL    HW224663   2.153   6.853   1.332
 7922SOL     OW24664   1.043   5.528   6.380
 7922SOL    HW124665   1.110   5.602   6.378
 7922SOL    HW224666   1.089   5.442   6.401
 7923SOL     OW24667   1.329   1.295   3.624
 7923SOL    HW124668   1.307   1.391   3.604
 7923SOL    HW224669   1.245   1.242   3.629
 7924SOL     OW24670   2.835   6.706   3.736
 7924SOL    HW124671   2.824   6.648   3.655
 7924SOL    HW224672   2.931   6.731   3.747
 7925SOL     OW24673   6.231   1.726   5.891
 7925SOL    HW124674   6.222   1.700   5.795
 7925SOL    HW224675   6.323   1.706   5.923
 7926SOL     OW24676   4.257   0.284   2.318
 7926SOL    HW124677   4.247   0.328   2.229
 7926SOL    HW224678   4.270   0.186   2.305
 7927SOL     OW24679   4.277   5.075   4.883
 7927SOL    HW124680   4.195   5.032   4.922
 7927SOL    HW224681   4.356   5.051   4.939
 7928SOL     OW24682   1.700   5.405   2.055
 7928SOL    HW124683   1.765   5.352   2.110
 7928SOL    HW224684   1.607   5.381   2.082
 7929SOL     OW24685   3.878   3.508   4.207
 7929SOL    HW124686   3.812   3.537   4.277
 7929SOL    HW224687   3.848   3.540   4.118
 7930SOL     OW24688   4.895   5.364   3.399
 7930SOL    HW124689   4.978   5.399   3.442
 7930SOL    HW224690   4.914   5.274   3.359
 7931SOL     OW24691   2.529   1.766   0.558
 7931SOL    HW124692   2.612   1.802   0.602
 7931SOL    HW224693   2.468   1.842   0.536
 7932SOL     OW24694   2.307   0.084   0.444
 7932SOL    HW124695   2.314   7.016   0.493
 7932SOL    HW224696   2.237   0.076   0.373
 7933SOL     OW24697   1.200   0.693   6.686
 7933SOL    HW124698   1.240   0.607   6.716
 7933SOL    HW224699   1.228   0.711   6.592
 7934SOL     OW24700   2.644   3.660   6.607
 7934SOL    HW124701   2.639   3.565   6.637
 7934SOL    HW224702   2.724   3.673   6.548
 7935SOL     OW24703   4.506   6.593   1.822
 7935SOL    HW124704   4.441   6.649   1.874
 7935SOL    HW224705   4.473   6.499   1.816
 7936SOL     OW24706   4.202   5.730   3.197
 7936SOL    HW124707   4.237   5.752   3.106
 7936SOL    HW224708   4.124   5.668   3.189
 7937SOL     OW24709   6.486   6.466   5.759
 7937SOL    HW124710   6.511   6.413   5.840
 7937SOL    HW224711   6.566   6.514   5.724
 7938SOL     OW24712   4.692   5.261   4.816
 7938SOL    HW124713   4.636   5.193   4.767
 7938SOL    HW224714   4.648   5.281   4.904
 7939SOL     OW24715   1.282   0.685   5.824
 7939SOL    HW124716   1.348   0.630   5.774
 7939SOL    HW224717   1.255   0.638   5.909
 7940SOL     OW24718   2.342   5.720   1.103
 7940SOL    HW124719   2.334   5.629   1.062
 7940SOL    HW224720   2.268   5.734   1.169
 7941SOL     OW24721   0.250   0.806   0.789
 7941SOL    HW124722   0.282   0.900   0.772
 7941SOL    HW224723   0.155   0.798   0.760
 7942SOL     OW24724   0.478   0.123   1.489
 7942SOL    HW124725   0.543   0.069   1.542
 7942SOL    HW224726   0.509   0.127   1.393
 7943SOL     OW24727   5.377   2.071   1.005
 7943SOL    HW124728   5.410   2.157   0.966
 7943SOL    HW224729   5.320   2.089   1.085
 7944SOL     OW24730   0.767   4.391   0.963
 7944SOL    HW124731   0.840   4.412   1.028
 7944SOL    HW224732   0.700   4.465   0.962
 7945SOL     OW24733   5.934   6.591   2.730
 7945SOL    HW124734   5.980   6.670   2.690
 7945SOL    HW224735   5.883   6.543   2.658
 7946SOL     OW24736   1.888   2.068   5.989
 7946SOL    HW124737   1.890   2.122   5.904
 7946SOL    HW224738   1.795   2.034   6.004
 7947SOL     OW24739   4.398   3.198   6.563
 7947SOL    HW124740   4.423   3.101   6.561
 7947SOL    HW224741   4.368   3.226   6.472
 7948SOL     OW24742   6.952   6.592   0.725
 7948SOL    HW124743   6.968   6.574   0.822
 7948SOL    HW224744   0.021   6.603   0.678
 7949SOL     OW24745   5.278   4.735   3.789
 7949SOL    HW124746   5.184   4.716   3.760
 7949SOL    HW224747   5.287   4.833   3.807
 7950SOL     OW24748   3.983   5.186   4.111
 7950SOL    HW124749   3.968   5.220   4.018
 7950SOL    HW224750   4.041   5.250   4.161
 7951SOL     OW24751   3.479   3.532   1.077
 7951SOL    HW124752   3.532   3.494   1.001
 7951SOL    HW224753   3.381   3.519   1.058
 7952SOL     OW24754   6.063   3.168   0.712
 7952SOL    HW124755   5.985   3.116   0.745
 7952SOL    HW224756   6.052   3.186   0.614
 7953SOL     OW24757   2.317   2.780   3.210
 7953SOL    HW124758   2.340   2.803   3.115
 7953SOL    HW224759   2.388   2.719   3.247
 7954SOL     OW24760   4.080   5.302   4.776
 7954SOL    HW124761   4.108   5.311   4.680
 7954SOL    HW224762   4.120   5.219   4.815
 7955SOL     OW24763   0.646   6.248   6.528
 7955SOL    HW124764   0.564   6.193   6.513
 7955SOL    HW224765   0.686   6.273   6.440
 7956SOL     OW24766   6.212   6.068   4.410
 7956SOL    HW124767   6.279   6.046   4.481
 7956SOL    HW224768   6.217   6.000   4.337
 7957SOL     OW24769   1.244   1.474   1.354
 7957SOL    HW124770   1.201   1.451   1.267
 7957SOL    HW224771   1.288   1.563   1.348
 7958SOL     OW24772   2.849   4.765   2.879
 7958SOL    HW124773   2.832   4.713   2.796
 7958SOL    HW224774   2.936   4.813   2.872
 7959SOL     OW24775   6.396   4.845   0.623
 7959SOL    HW124776   6.392   4.945   0.621
 7959SOL    HW224777   6.375   4.813   0.715
 7960SOL     OW24778   2.490   1.571   1.410
 7960SOL    HW124779   2.499   1.548   1.507
 7960SOL    HW224780   2.552   1.513   1.357
 7961SOL     OW24781   1.499   5.850   6.168
 7961SOL    HW124782   1.435   5.916   6.206
 7961SOL    HW224783   1.590   5.891   6.163
 7962SOL     OW24784   1.635   0.820   2.001
 7962SOL    HW124785   1.584   0.816   2.087
 7962SOL    HW224786   1.651   0.916   1.976
 7963SOL     OW24787   0.915   0.973   5.750
 7963SOL    HW124788   0.996   1.028   5.768
 7963SOL    HW224789   0.875   0.944   5.837
 7964SOL     OW24790   5.952   5.448   3.567
 7964SOL    HW124791   5.879   5.436   3.634
 7964SOL    HW224792   6.015   5.370   3.572
 7965SOL     OW24793   4.949   2.432   0.243
 7965SOL    HW124794   5.010   2.387   0.178
 7965SOL    HW224795   4.856   2.395   0.232
 7966SOL     OW24796   6.986   4.827   4.173
 7966SOL    HW124797   0.046   4.767   4.160
 7966SOL    HW224798   7.017   4.915   4.211
 7967SOL     OW24799   3.060   6.811   2.248
 7967SOL    HW124800   3.046   6.714   2.271
 7967SOL    HW224801   3.061   6.822   2.149
 7968SOL     OW24802   1.884   2.351   3.044
 7968SOL    HW124803   1.953   2.420   3.065
 7968SOL    HW224804   1.875   2.341   2.944
 7969SOL     OW24805   3.409   1.541   3.271
 7969SOL    HW124806   3.438   1.636   3.282
 7969SOL    HW224807   3.466   1.482   3.329
 7970SOL     OW24808   0.495   4.300   2.932
 7970SOL    HW124809   0.461   4.213   2.898
 7970SOL    HW224810   0.460   4.375   2.875
 7971SOL     OW24811   3.292   0.243   0.950
 7971SOL    HW124812   3.248   0.326   0.982
 7971SOL    HW224813   3.384   0.236   0.990
 7972SOL     OW24814   0.275   4.603   1.761
 7972SOL    HW124815   0.322   4.577   1.845
 7972SOL    HW224816   0.193   4.656   1.783
 7973SOL     OW24817   5.004   3.183   3.550
 7973SOL    HW124818   4.976   3.279   3.563
 7973SOL    HW224819   5.088   3.181   3.497
 7974SOL     OW24820   5.263   0.531   4.095
 7974SOL    HW124821   5.197   0.456   4.089
 7974SOL    HW224822   5.355   0.494   4.095
 7975SOL     OW24823   3.371   1.434   4.072
 7975SOL    HW124824   3.450   1.374   4.089
 7975SOL    HW224825   3.383   1.519   4.122
 7976SOL     OW24826   0.968   6.073   5.479
 7976SOL    HW124827   1.033   5.999   5.496
 7976SOL    HW224828   0.923   6.098   5.565
 7977SOL     OW24829   5.306   6.147   1.709
 7977SOL    HW124830   5.374   6.198   1.656
 7977SOL    HW224831   5.245   6.098   1.647
 7978SOL     OW24832   4.677   3.746   5.938
 7978SOL    HW124833   4.730   3.741   5.854
 7978SOL    HW224834   4.738   3.769   6.014
 7979SOL     OW24835   2.889   0.112   3.899
 7979SOL    HW124836   2.816   0.156   3.953
 7979SOL    HW224837   2.953   0.067   3.961
 7980SOL     OW24838   3.277   6.126   0.263
 7980SOL    HW124839   3.245   6.032   0.254
 7980SOL    HW224840   3.342   6.132   0.339
 7981SOL     OW24841   1.077   5.212   2.479
 7981SOL    HW124842   1.065   5.132   2.538
 7981SOL    HW224843   1.038   5.192   2.388
 7982SOL     OW24844   6.501   2.148   0.552
 7982SOL    HW124845   6.574   2.183   0.494
 7982SOL    HW224846   6.497   2.200   0.637
 7983SOL     OW24847   5.436   2.009   2.398
 7983SOL    HW124848   5.455   1.984   2.494
 7983SOL    HW224849   5.519   2.049   2.358
 7984SOL     OW24850   0.410   2.172   2.162
 7984SOL    HW124851   0.391   2.106   2.090
 7984SOL    HW224852   0.466   2.247   2.124
 7985SOL     OW24853   0.992   1.525   2.568
 7985SOL    HW124854   1.068   1.526   2.633
 7985SOL    HW224855   1.014   1.583   2.490
 7986SOL     OW24856   4.157   0.954   6.518
 7986SOL    HW124857   4.143   1.029   6.582
 7986SOL    HW224858   4.172   0.990   6.427
 7987SOL     OW24859   0.710   2.682   5.411
 7987SOL    HW124860   0.698   2.675   5.312
 7987SOL    HW224861   0.807   2.681   5.433
 7988SOL     OW24862   2.742   1.958   4.495
 7988SOL    HW124863   2.791   1.939   4.410
 7988SOL    HW224864   2.803   1.946   4.573
 7989SOL     OW24865   3.126   2.457   5.679
 7989SOL    HW124866   3.159   2.538   5.728
 7989SOL    HW224867   3.174   2.449   5.592
 7990SOL     OW24868   1.207   2.513   4.855
 7990SOL    HW124869   1.115   2.538   4.886
 7990SOL    HW224870   1.248   2.591   4.808
 7991SOL     OW24871   0.332   2.593   6.140
 7991SOL    HW124872   0.371   2.502   6.150
 7991SOL    HW224873   0.285   2.619   6.224
 7992SOL     OW24874   1.974   0.252   0.695
 7992SOL    HW124875   1.932   0.194   0.625
 7992SOL    HW224876   1.923   0.338   0.701
 7993SOL     OW24877   1.973   6.059   6.655
 7993SOL    HW124878   2.047   6.010   6.608
 7993SOL    HW224879   1.982   6.045   6.754
 7994SOL     OW24880   4.849   1.361   3.715
 7994SOL    HW124881   4.855   1.432   3.784
 7994SOL    HW224882   4.754   1.332   3.703
 7995SOL     OW24883   2.943   5.173   3.949
 7995SOL    HW124884   2.857   5.223   3.959
 7995SOL    HW224885   2.925   5.085   3.904
 7996SOL     OW24886   3.703   6.999   4.822
 7996SOL    HW124887   3.640   0.037   4.874
 7996SOL    HW224888   3.653   6.929   4.772
 7997SOL     OW24889   5.846   2.461   0.899
 7997SOL    HW124890   5.752   2.477   0.867
 7997SOL    HW224891   5.853   2.488   0.995
 7998SOL     OW24892   5.529   4.695   0.422
 7998SOL    HW124893   5.464   4.698   0.346
 7998SOL    HW224894   5.622   4.704   0.387
 7999SOL     OW24895   1.802   6.922   5.333
 7999SOL    HW124896   1.890   6.952   5.295
 7999SOL    HW224897   1.782   6.974   5.416
 8000SOL     OW24898   6.066   6.935   5.758
 8000SOL    HW124899   6.075   0.014   5.774
 8000SOL    HW224900   6.007   6.919   5.679
 8001SOL     OW24901   1.978   6.920   1.315
 8001SOL    HW124902   1.989   6.935   1.217
 8001SOL    HW224903   1.902   6.857   1.331
 8002SOL     OW24904   5.847   2.860   4.943
 8002SOL    HW124905   5.936   2.858   4.989
 8002SOL    HW224906   5.856   2.824   4.850
 8003SOL     OW24907   3.380   5.220   3.235
 8003SOL    HW124908   3.424   5.213   3.324
 8003SOL    HW224909   3.365   5.129   3.197
 8004SOL     OW24910   2.149   3.987   2.897
 8004SOL    HW124911   2.207   4.022   2.970
 8004SOL    HW224912   2.163   3.889   2.886
 8005SOL     OW24913   3.281   0.740   1.308
 8005SOL    HW124914   3.293   0.765   1.404
 8005SOL    HW224915   3.189   0.704   1.294
 8006SOL     OW24916   2.829   5.742   0.326
 8006SOL    HW124917   2.876   5.799   0.259
 8006SOL    HW224918   2.855   5.771   0.419
 8007SOL     OW24919   0.219   0.304   4.364
 8007SOL    HW124920   0.190   0.241   4.292
 8007SOL    HW224921   0.218   0.257   4.452
 8008SOL     OW24922   6.084   6.611   0.414
 8008SOL    HW124923   6.081   6.516   0.446
 8008SOL    HW224924   6.045   6.617   0.322
 8009SOL     OW24925   6.867   6.928   4.001
 8009SOL    HW124926   6.961   6.897   4.014
 8009SOL    HW224927   6.859   0.004   4.029
 8010SOL     OW24928   2.114   2.338   0.561
 8010SOL    HW124929   2.029   2.386   0.583
 8010SOL    HW224930   2.092   2.255   0.509
 8011SOL     OW24931   3.206   2.558   1.117
 8011SOL    HW124932   3.167   2.641   1.157
 8011SOL    HW224933   3.147   2.480   1.138
 8012SOL     OW24934   2.341   6.598   1.556
 8012SOL    HW124935   2.346   6.607   1.457
 8012SOL    HW224936   2.433   6.589   1.593
 8013SOL     OW24937   5.621   4.708   4.535
 8013SOL    HW124938   5.551   4.768   4.573
 8013SOL    HW224939   5.645   4.739   4.443
 8014SOL     OW24940   2.155   6.679   6.911
 8014SOL    HW124941   2.161   6.622   6.993
 8014SOL    HW224942   2.241   6.675   6.861
 8015SOL     OW24943   2.395   2.750   0.425
 8015SOL    HW124944   2.432   2.683   0.360
 8015SOL    HW224945   2.426   2.727   0.517
 8016SOL     OW24946   4.239   6.532   6.872
 8016SOL    HW124947   4.140   6.541   6.866
 8016SOL    HW224948   4.282   6.608   6.823
 8017SOL     OW24949   6.242   3.980   4.803
 8017SOL    HW124950   6.300   3.945   4.730
 8017SOL    HW224951   6.163   3.919   4.816
 8018SOL     OW24952   4.702   1.742   5.452
 8018SOL    HW124953   4.731   1.650   5.426
 8018SOL    HW224954   4.660   1.788   5.374
 8019SOL     OW24955   1.797   5.770   0.565
 8019SOL    HW124956   1.845   5.850   0.600
 8019SOL    HW224957   1.841   5.738   0.481
 8020SOL     OW24958   5.053   5.202   6.945
 8020SOL    HW124959   5.103   5.187   0.012
 8020SOL    HW224960   5.018   5.114   6.912
 8021SOL     OW24961   0.779   0.830   0.736
 8021SOL    HW124962   0.797   0.734   0.713
 8021SOL    HW224963   0.740   0.836   0.827
 8022SOL     OW24964   4.481   6.481   3.084
 8022SOL    HW124965   4.387   6.455   3.059
 8022SOL    HW224966   4.531   6.400   3.115
 8023SOL     OW24967   6.103   5.636   2.550
 8023SOL    HW124968   6.136   5.549   2.513
 8023SOL    HW224969   6.180   5.701   2.553
 8024SOL     OW24970   4.818   5.423   5.506
 8024SOL    HW124971   4.818   5.438   5.407
 8024SOL    HW224972   4.895   5.365   5.531
 8025SOL     OW24973   3.791   5.722   6.349
 8025SOL    HW124974   3.865   5.719   6.417
 8025SOL    HW224975   3.764   5.629   6.325
 8026SOL     OW24976   1.683   3.316   6.741
 8026SOL    HW124977   1.751   3.264   6.792
 8026SOL    HW224978   1.725   3.400   6.705
 8027SOL     OW24979   4.605   1.835   5.202
 8027SOL    HW124980   4.657   1.783   5.134
 8027SOL    HW224981   4.510   1.843   5.172
 8028SOL     OW24982   4.945   4.809   6.630
 8028SOL    HW124983   4.870   4.833   6.569
 8028SOL    HW224984   5.020   4.768   6.577
 8029SOL     OW24985   3.653   4.300   0.583
 8029SOL    HW124986   3.691   4.389   0.608
 8029SOL    HW224987   3.563   4.289   0.625
 8030SOL     OW24988   5.741   4.256   6.032
 8030SOL    HW124989   5.791   4.310   6.100
 8030SOL    HW224990   5.642   4.263   6.050
 8031SOL     OW24991   3.880   5.273   1.759
 8031SOL    HW124992   3.851   5.178   1.752
 8031SOL    HW224993   3.801   5.333   1.745
 8032SOL     OW24994   5.261   4.208   5.599
 8032SOL    HW124995   5.224   4.302   5.598
 8032SOL    HW224996   5.276   4.178   5.505
 8033SOL     OW24997   6.002   2.287   0.325
 8033SOL    HW124998   6.073   2.356   0.313
 8033SOL    HW224999   5.921   2.312   0.272
 8034SOL     OW25000   5.411   6.937   4.647
 8034SOL    HW125001   5.510   6.935   4.645
 8034SOL    HW225002   5.376   6.980   4.564
 8035SOL     OW25003   5.455   6.775   6.778
 8035SOL    HW125004   5.467   6.862   6.827
 8035SOL    HW225005   5.438   6.702   6.844
 8036SOL     OW25006   1.882   3.956   1.962
 8036SOL    HW125007   1.788   3.983   1.985
 8036SOL    HW225008   1.946   4.026   1.995
 8037SOL     OW25009   1.497   2.837   0.968
 8037SOL    HW125010   1.420   2.890   1.005
 8037SOL    HW225011   1.537   2.885   0.891
 8038SOL     OW25012   0.300   2.227   3.695
 8038SOL    HW125013   0.393   2.260   3.712
 8038SOL    HW225014   0.261   2.192   3.781
 8039SOL     OW25015   2.222   6.855   3.378
 8039SOL    HW125016   2.227   6.788   3.304
 8039SOL    HW225017   2.247   6.945   3.343
 8040SOL     OW25018   0.547   5.568   1.090
 8040SOL    HW125019   0.547   5.629   1.010
 8040SOL    HW225020   0.576   5.620   1.170
 8041SOL     OW25021   4.399   1.206   0.564
 8041SOL    HW125022   4.366   1.158   0.645
 8041SOL    HW225023   4.486   1.251   0.585
 8042SOL     OW25024   3.271   2.916   2.357
 8042SOL    HW125025   3.256   2.913   2.258
 8042SOL    HW225026   3.365   2.889   2.376
 8043SOL     OW25027   2.597   0.218   1.464
 8043SOL    HW125028   2.537   0.286   1.422
 8043SOL    HW225029   2.589   0.224   1.563
 8044SOL     OW25030   2.949   3.631   1.287
 8044SOL    HW125031   3.004   3.649   1.368
 8044SOL    HW225032   3.006   3.636   1.206
 8045SOL     OW25033   5.583   2.574   3.276
 8045SOL    HW125034   5.637   2.575   3.192
 8045SOL    HW225035   5.641   2.596   3.354
 8046SOL     OW25036   6.007   4.640   5.619
 8046SOL    HW125037   5.931   4.697   5.588
 8046SOL    HW225038   6.093   4.675   5.583
 8047SOL     OW25039   3.767   5.866   4.495
 8047SOL    HW125040   3.727   5.774   4.496
 8047SOL    HW225041   3.807   5.883   4.405
 8048SOL     OW25042   6.393   0.050   5.384
 8048SOL    HW125043   6.296   0.059   5.406
 8048SOL    HW225044   6.443   0.022   5.466
 8049SOL     OW25045   1.358   6.766   1.044
 8049SOL    HW125046   1.302   6.717   1.111
 8049SOL    HW225047   1.380   6.857   1.080
 8050SOL     OW25048   1.761   3.095   0.965
 8050SOL    HW125049   1.741   3.103   1.062
 8050SOL    HW225050   1.852   3.135   0.947
 8051SOL     OW25051   4.778   1.077   3.294
 8051SOL    HW125052   4.731   1.132   3.225
 8051SOL    HW225053   4.845   1.134   3.342
 8052SOL     OW25054   3.067   1.827   2.771
 8052SOL    HW125055   3.053   1.849   2.867
 8052SOL    HW225056   2.979   1.831   2.723
 8053SOL     OW25057   3.794   4.029   2.962
 8053SOL    HW125058   3.722   3.966   2.991
 8053SOL    HW225059   3.856   4.047   3.039
 8054SOL     OW25060   4.765   6.758   4.334
 8054SOL    HW125061   4.787   6.712   4.420
 8054SOL    HW225062   4.753   6.856   4.350
 8055SOL     OW25063   1.693   6.853   5.859
 8055SOL    HW125064   1.709   6.937   5.910
 8055SOL    HW225065   1.754   6.850   5.780
 8056SOL     OW25066   4.304   1.573   2.880
 8056SOL    HW125067   4.296   1.539   2.974
 8056SOL    HW225068   4.215   1.565   2.835
 8057SOL     OW25069   3.469   6.944   3.306
 8057SOL    HW125070   3.487   0.021   3.287
 8057SOL    HW225071   3.441   6.933   3.401
 8058SOL     OW25072   3.091   0.747   2.291
 8058SOL    HW125073   3.017   0.683   2.270
 8058SOL    HW225074   3.075   0.790   2.379
 8059SOL     OW25075   3.185   2.199   4.580
 8059SOL    HW125076   3.197   2.129   4.651
 8059SOL    HW225077   3.235   2.282   4.607
 8060SOL     OW25078   6.500   0.723   4.904
 8060SOL    HW125079   6.473   0.670   4.823
 8060SOL    HW225080   6.469   0.818   4.893
 8061SOL     OW25081   6.691   5.753   3.167
 8061SOL    HW125082   6.706   5.683   3.096
 8061SOL    HW225083   6.728   5.721   3.254
 8062SOL     OW25084   1.160   4.145   4.030
 8062SOL    HW125085   1.170   4.195   3.944
 8062SOL    HW225086   1.213   4.060   4.026
 8063SOL     OW25087   3.023   3.040   6.706
 8063SOL    HW125088   3.110   3.045   6.657
 8063SOL    HW225089   2.989   2.946   6.705
 8064SOL     OW25090   0.208   3.406   0.360
 8064SOL    HW125091   0.144   3.393   0.435
 8064SOL    HW225092   0.182   3.487   0.308
 8065SOL     OW25093   4.937   0.062   4.268
 8065SOL    HW125094   5.030   0.088   4.291
 8065SOL    HW225095   4.927   0.058   4.168
 8066SOL     OW25096   1.868   0.889   1.409
 8066SOL    HW125097   1.951   0.938   1.432
 8066SOL    HW225098   1.843   0.827   1.483
 8067SOL     OW25099   4.854   2.497   1.570
 8067SOL    HW125100   4.887   2.405   1.592
 8067SOL    HW225101   4.754   2.496   1.563
 8068SOL     OW25102   1.093   4.168   4.911
 8068SOL    HW125103   1.150   4.246   4.937
 8068SOL    HW225104   1.150   4.086   4.901
 8069SOL     OW25105   1.302   6.251   1.532
 8069SOL    HW125106   1.280   6.340   1.572
 8069SOL    HW225107   1.301   6.258   1.433
 8070SOL     OW25108   3.898   6.588   1.447
 8070SOL    HW125109   3.942   6.498   1.450
 8070SOL    HW225110   3.811   6.584   1.495
 8071SOL     OW25111   3.515   0.315   6.104
 8071SOL    HW125112   3.565   0.242   6.151
 8071SOL    HW225113   3.508   0.292   6.007
 8072SOL     OW25114   5.161   1.611   0.476
 8072SOL    HW125115   5.238   1.641   0.533
 8072SOL    HW225116   5.132   1.520   0.505
 8073SOL     OW25117   4.149   6.551   5.799
 8073SOL    HW125118   4.201   6.597   5.870
 8073SOL    HW225119   4.052   6.548   5.824
 8074SOL     OW25120   3.373   3.527   0.048
 8074SOL    HW125121   3.363   3.585   6.986
 8074SOL    HW225122   3.397   3.584   0.127
 8075SOL     OW25123   6.692   1.323   2.786
 8075SOL    HW125124   6.712   1.230   2.817
 8075SOL    HW225125   6.681   1.323   2.686
 8076SOL     OW25126   5.811   2.760   5.447
 8076SOL    HW125127   5.755   2.838   5.420
 8076SOL    HW225128   5.881   2.745   5.377
 8077SOL     OW25129   1.266   0.127   0.925
 8077SOL    HW125130   1.173   0.147   0.956
 8077SOL    HW225131   1.324   0.106   1.003
 8078SOL     OW25132   6.257   2.515   1.125
 8078SOL    HW125133   6.271   2.597   1.069
 8078SOL    HW225134   6.294   2.529   1.216
 8079SOL     OW25135   6.767   1.844   2.342
 8079SOL    HW125136   6.697   1.847   2.413
 8079SOL    HW225137   6.825   1.764   2.356
 8080SOL     OW25138   3.032   4.369   0.310
 8080SOL    HW125139   3.064   4.289   0.260
 8080SOL    HW225140   3.109   4.413   0.357
 8081SOL     OW25141   5.849   0.602   5.180
 8081SOL    HW125142   5.787   0.541   5.228
 8081SOL    HW225143   5.919   0.549   5.132
 8082SOL     OW25144   6.923   2.417   3.678
 8082SOL    HW125145   6.866   2.446   3.601
 8082SOL    HW225146   6.868   2.359   3.739
 8083SOL     OW25147   4.598   2.555   3.298
 8083SOL    HW125148   4.569   2.648   3.277
 8083SOL    HW225149   4.604   2.543   3.397
 8084SOL     OW25150   6.930   6.692   1.614
 8084SOL    HW125151   6.900   6.772   1.664
 8084SOL    HW225152   6.894   6.609   1.658
 8085SOL     OW25153   5.907   0.626   1.027
 8085SOL    HW125154   5.832   0.691   1.016
 8085SOL    HW225155   5.886   0.564   1.102
 8086SOL     OW25156   3.844   1.003   5.022
 8086SOL    HW125157   3.869   0.995   4.926
 8086SOL    HW225158   3.785   1.082   5.035
 8087SOL     OW25159   2.742   2.371   1.418
 8087SOL    HW125160   2.698   2.418   1.342
 8087SOL    HW225161   2.715   2.414   1.505
 8088SOL     OW25162   4.646   1.066   2.501
 8088SOL    HW125163   4.624   1.135   2.571
 8088SOL    HW225164   4.565   1.049   2.445
 8089SOL     OW25165   5.518   3.076   0.240
 8089SOL    HW125166   5.588   3.136   0.199
 8089SOL    HW225167   5.497   3.001   0.176
 8090SOL     OW25168   5.058   1.580   5.585
 8090SOL    HW125169   5.052   1.677   5.607
 8090SOL    HW225170   5.128   1.537   5.642
 8091SOL     OW25171   2.415   4.694   5.773
 8091SOL    HW125172   2.360   4.671   5.854
 8091SOL    HW225173   2.445   4.610   5.729
 8092SOL     OW25174   1.484   1.604   4.629
 8092SOL    HW125175   1.555   1.634   4.565
 8092SOL    HW225176   1.404   1.664   4.621
 8093SOL     OW25177   5.603   5.578   0.847
 8093SOL    HW125178   5.697   5.545   0.851
 8093SOL    HW225179   5.598   5.662   0.794
 8094SOL     OW25180   1.004   4.174   5.982
 8094SOL    HW125181   1.054   4.201   6.065
 8094SOL    HW225182   1.040   4.226   5.904
 8095SOL     OW25183   5.450   3.272   4.483
 8095SOL    HW125184   5.487   3.363   4.504
 8095SOL    HW225185   5.427   3.268   4.386
 8096SOL     OW25186   3.859   6.377   1.783
 8096SOL    HW125187   3.894   6.293   1.824
 8096SOL    HW225188   3.787   6.354   1.717
 8097SOL     OW25189   4.972   1.143   3.593
 8097SOL    HW125190   4.935   1.213   3.655
 8097SOL    HW225191   5.040   1.088   3.641
 8098SOL     OW25192   2.983   6.383   3.967
 8098SOL    HW125193   3.035   6.442   3.904
 8098SOL    HW225194   2.915   6.438   4.016
 8099SOL     OW25195   4.437   0.044   5.309
 8099SOL    HW125196   4.428   0.123   5.369
 8099SOL    HW225197   4.427   6.978   5.362
 8100SOL     OW25198   0.167   6.667   0.606
 8100SOL    HW125199   0.177   6.754   0.557
 8100SOL    HW225200   0.179   6.591   0.542
 8101SOL     OW25201   1.647   6.322   3.547
 8101SOL    HW125202   1.718   6.253   3.529
 8101SOL    HW225203   1.591   6.334   3.465
 8102SOL     OW25204   6.580   5.739   6.177
 8102SOL    HW125205   6.621   5.701   6.260
 8102SOL    HW225206   6.577   5.669   6.106
 8103SOL     OW25207   3.388   1.260   2.526
 8103SOL    HW125208   3.462   1.314   2.566
 8103SOL    HW225209   3.395   1.261   2.427
 8104SOL     OW25210   2.647   0.026   6.526
 8104SOL    HW125211   2.637   0.047   6.429
 8104SOL    HW225212   2.680   0.107   6.575
 8105SOL     OW25213   2.370   1.940   3.385
 8105SOL    HW125214   2.450   2.000   3.388
 8105SOL    HW225215   2.367   1.885   3.468
 8106SOL     OW25216   0.898   4.174   3.967
 8106SOL    HW125217   0.870   4.078   3.970
 8106SOL    HW225218   0.988   4.183   4.011
 8107SOL     OW25219   2.152   6.541   5.760
 8107SOL    HW125220   2.104   6.458   5.733
 8107SOL    HW225221   2.251   6.526   5.754
 8108SOL     OW25222   1.015   3.156   4.295
 8108SOL    HW125223   1.054   3.210   4.221
 8108SOL    HW225224   1.078   3.154   4.373
 8109SOL     OW25225   1.502   4.690   4.690
 8109SOL    HW125226   1.458   4.715   4.776
 8109SOL    HW225227   1.514   4.591   4.686
 8110SOL     OW25228   2.501   5.808   0.500
 8110SOL    HW125229   2.414   5.853   0.521
 8110SOL    HW225230   2.556   5.800   0.583
 8111SOL     OW25231   2.936   5.104   4.421
 8111SOL    HW125232   3.014   5.041   4.417
 8111SOL    HW225233   2.853   5.053   4.441
 8112SOL     OW25234   2.319   0.952   4.871
 8112SOL    HW125235   2.254   1.028   4.865
 8112SOL    HW225236   2.408   0.981   4.837
 8113SOL     OW25237   3.687   2.605   6.124
 8113SOL    HW125238   3.703   2.676   6.193
 8113SOL    HW225239   3.772   2.587   6.075
 8114SOL     OW25240   2.133   3.150   2.094
 8114SOL    HW125241   2.149   3.051   2.093
 8114SOL    HW225242   2.150   3.187   2.003
 8115SOL     OW25243   3.252   1.833   1.279
 8115SOL    HW125244   3.221   1.750   1.231
 8115SOL    HW225245   3.210   1.836   1.370
 8116SOL     OW25246   5.873   0.399   5.409
 8116SOL    HW125247   5.814   0.335   5.458
 8116SOL    HW225248   5.923   0.456   5.475
 8117SOL     OW25249   1.490   1.786   5.253
 8117SOL    HW125250   1.543   1.825   5.328
 8117SOL    HW225251   1.539   1.797   5.167
 8118SOL     OW25252   0.729   3.301   5.357
 8118SOL    HW125253   0.758   3.214   5.397
 8118SOL    HW225254   0.749   3.301   5.259
 8119SOL     OW25255   0.736   6.430   2.868
 8119SOL    HW125256   0.795   6.376   2.928
 8119SOL    HW225257   0.678   6.369   2.814
 8120SOL     OW25258   4.316   4.155   1.261
 8120SOL    HW125259   4.351   4.108   1.342
 8120SOL    HW225260   4.223   4.124   1.241
 8121SOL     OW25261   6.530   0.967   2.750
 8121SOL    HW125262   6.534   0.874   2.784
 8121SOL    HW225263   6.471   1.022   2.809
 8122SOL     OW25264   6.545   6.357   2.345
 8122SOL    HW125265   6.487   6.290   2.392
 8122SOL    HW225266   6.488   6.433   2.312
 8123SOL     OW25267   1.762   6.273   6.837
 8123SOL    HW125268   1.776   6.175   6.824
 8123SOL    HW225269   1.728   6.314   6.752
 8124SOL     OW25270   1.025   6.019   1.669
 8124SOL    HW125271   0.928   6.026   1.690
 8124SOL    HW225272   1.048   6.082   1.595
 8125SOL     OW25273   5.755   4.968   2.872
 8125SOL    HW125274   5.745   4.925   2.962
 8125SOL    HW225275   5.851   4.991   2.857
 8126SOL     OW25276   5.646   4.548   2.633
 8126SOL    HW125277   5.605   4.620   2.689
 8126SOL    HW225278   5.635   4.570   2.536
 8127SOL     OW25279   2.222   4.928   6.816
 8127SOL    HW125280   2.280   4.871   6.758
 8127SOL    HW225281   2.172   4.869   6.880
 8128SOL     OW25282   3.682   2.523   5.422
 8128SOL    HW125283   3.772   2.566   5.417
 8128SOL    HW225284   3.614   2.585   5.381
 8129SOL     OW25285   5.374   0.502   6.276
 8129SOL    HW125286   5.406   0.543   6.190
 8129SOL    HW225287   5.390   0.565   6.351
 8130SOL     OW25288   1.693   6.007   6.894
 8130SOL    HW125289   1.672   5.920   6.939
 8130SOL    HW225290   1.615   6.069   6.904
 8131SOL     OW25291   2.928   0.884   0.520
 8131SOL    HW125292   2.855   0.937   0.476
 8131SOL    HW225293   2.918   0.889   0.619
 8132SOL     OW25294   6.342   4.976   3.884
 8132SOL    HW125295   6.262   5.027   3.915
 8132SOL    HW225296   6.424   5.015   3.926
 8133SOL     OW25297   2.169   5.458   2.516
 8133SOL    HW125298   2.114   5.450   2.432
 8133SOL    HW225299   2.161   5.550   2.553
 8134SOL     OW25300   2.360   2.535   3.740
 8134SOL    HW125301   2.351   2.501   3.833
 8134SOL    HW225302   2.270   2.565   3.707
 8135SOL     OW25303   4.209   5.446   1.851
 8135SOL    HW125304   4.192   5.530   1.799
 8135SOL    HW225305   4.225   5.468   1.947
 8136SOL     OW25306   4.088   5.662   2.134
 8136SOL    HW125307   4.017   5.675   2.204
 8136SOL    HW225308   4.140   5.579   2.155
 8137SOL     OW25309   2.297   4.277   4.811
 8137SOL    HW125310   2.249   4.359   4.842
 8137SOL    HW225311   2.331   4.226   4.891
 8138SOL     OW25312   4.845   0.950   2.674
 8138SOL    HW125313   4.775   0.991   2.615
 8138SOL    HW225314   4.920   1.014   2.686
 8139SOL     OW25315   1.525   1.927   3.420
 8139SOL    HW125316   1.572   1.996   3.476
 8139SOL    HW225317   1.465   1.973   3.354
 8140SOL     OW25318   4.846   0.984   0.832
 8140SOL    HW125319   4.768   1.045   0.847
 8140SOL    HW225320   4.856   0.967   0.734
 8141SOL     OW25321   5.049   1.191   5.586
 8141SOL    HW125322   5.031   1.099   5.553
 8141SOL    HW225323   4.963   1.238   5.605
 8142SOL     OW25324   2.154   5.449   0.632
 8142SOL    HW125325   2.248   5.417   0.640
 8142SOL    HW225326   2.094   5.392   0.687
 8143SOL     OW25327   5.646   4.633   0.791
 8143SOL    HW125328   5.594   4.592   0.866
 8143SOL    HW225329   5.605   4.606   0.703
 8144SOL     OW25330   6.942   4.652   6.120
 8144SOL    HW125331   0.010   4.697   6.139
 8144SOL    HW225332   6.922   4.587   6.193
 8145SOL     OW25333   5.020   5.681   6.944
 8145SOL    HW125334   4.955   5.729   7.003
 8145SOL    HW225335   5.061   5.747   6.881
 8146SOL     OW25336   5.969   0.314   4.608
 8146SOL    HW125337   5.974   0.400   4.659
 8146SOL    HW225338   5.945   0.239   4.670
 8147SOL     OW25339   1.656   0.879   5.959
 8147SOL    HW125340   1.597   0.907   6.034
 8147SOL    HW225341   1.752   0.892   5.985
 8148SOL     OW25342   3.808   4.904   0.276
 8148SOL    HW125343   3.809   4.957   0.191
 8148SOL    HW225344   3.716   4.866   0.291
 8149SOL     OW25345   1.109   5.893   4.653
 8149SOL    HW125346   1.046   5.941   4.715
 8149SOL    HW225347   1.082   5.910   4.558
 8150SOL     OW25348   1.052   2.735   0.624
 8150SOL    HW125349   1.007   2.740   0.534
 8150SOL    HW225350   0.983   2.718   0.695
 8151SOL     OW25351   6.459   4.725   3.506
 8151SOL    HW125352   6.374   4.672   3.501
 8151SOL    HW225353   6.438   4.822   3.520
 8152SOL     OW25354   4.551   1.819   3.177
 8152SOL    HW125355   4.541   1.762   3.258
 8152SOL    HW225356   4.596   1.905   3.201
 8153SOL     OW25357   0.181   2.107   3.909
 8153SOL    HW125358   0.122   2.186   3.922
 8153SOL    HW225359   0.158   2.037   3.976
 8154SOL     OW25360   2.065   1.362   3.480
 8154SOL    HW125361   2.072   1.357   3.580
 8154SOL    HW225362   2.056   1.269   3.443
 8155SOL     OW25363   1.501   5.239   2.378
 8155SOL    HW125364   1.567   5.163   2.375
 8155SOL    HW225365   1.432   5.219   2.448
 8156SOL     OW25366   6.365   5.288   1.390
 8156SOL    HW125367   6.336   5.216   1.452
 8156SOL    HW225368   6.464   5.302   1.399
 8157SOL     OW25369   6.837   2.540   6.071
 8157SOL    HW125370   6.811   2.513   6.164
 8157SOL    HW225371   6.883   2.628   6.073
 8158SOL     OW25372   5.554   4.721   6.452
 8158SOL    HW125373   5.625   4.787   6.426
 8158SOL    HW225374   5.468   4.768   6.467
 8159SOL     OW25375   2.937   6.084   5.328
 8159SOL    HW125376   2.917   6.124   5.418
 8159SOL    HW225377   3.019   6.028   5.334
 8160SOL     OW25378   5.127   1.494   3.189
 8160SOL    HW125379   5.143   1.583   3.233
 8160SOL    HW225380   5.090   1.430   3.256
 8161SOL     OW25381   5.859   2.995   0.874
 8161SOL    HW125382   5.922   3.018   0.947
 8161SOL    HW225383   5.860   2.897   0.858
 8162SOL     OW25384   0.174   4.684   6.348
 8162SOL    HW125385   0.262   4.671   6.394
 8162SOL    HW225386   0.101   4.642   6.404
 8163SOL     OW25387   4.730   4.720   5.167
 8163SOL    HW125388   4.779   4.662   5.233
 8163SOL    HW225389   4.762   4.814   5.176
 8164SOL     OW25390   5.364   1.196   6.986
 8164SOL    HW125391   5.438   1.132   7.006
 8164SOL    HW225392   5.326   1.176   6.896
 8165SOL     OW25393   6.885   1.937   6.764
 8165SOL    HW125394   6.855   1.918   6.857
 8165SOL    HW225395   6.842   2.020   6.730
 8166SOL     OW25396   1.612   2.100   4.815
 8166SOL    HW125397   1.667   2.110   4.732
 8166SOL    HW225398   1.634   2.174   4.879
 8167SOL     OW25399   0.467   2.685   4.311
 8167SOL    HW125400   0.409   2.753   4.267
 8167SOL    HW225401   0.489   2.613   4.246
 8168SOL     OW25402   2.539   0.776   1.839
 8168SOL    HW125403   2.607   0.848   1.823
 8168SOL    HW225404   2.578   0.687   1.815
 8169SOL     OW25405   5.383   2.962   1.293
 8169SOL    HW125406   5.483   2.962   1.289
 8169SOL    HW225407   5.350   3.054   1.311
 8170SOL     OW25408   6.392   4.942   2.499
 8170SOL    HW125409   6.295   4.962   2.509
 8170SOL    HW225410   6.419   4.950   2.403
 8171SOL     OW25411   1.770   1.030   0.613
 8171SOL    HW125412   1.675   1.052   0.634
 8171SOL    HW225413   1.828   1.108   0.634
 8172SOL     OW25414   0.659   2.869   1.731
 8172SOL    HW125415   0.758   2.867   1.719
 8172SOL    HW225416   0.638   2.854   1.828
 8173SOL     OW25417   5.399   1.215   1.665
 8173SOL    HW125418   5.469   1.286   1.677
 8173SOL    HW225419   5.348   1.233   1.581
 8174SOL     OW25420   2.865   5.100   2.557
 8174SOL    HW125421   2.787   5.056   2.601
 8174SOL    HW225422   2.851   5.199   2.556
 8175SOL     OW25423   0.529   1.705   4.674
 8175SOL    HW125424   0.489   1.614   4.672
 8175SOL    HW225425   0.567   1.727   4.584
 8176SOL     OW25426   1.994   4.277   0.893
 8176SOL    HW125427   1.993   4.202   0.827
 8176SOL    HW225428   2.086   4.287   0.930
 8177SOL     OW25429   3.827   1.280   2.848
 8177SOL    HW125430   3.919   1.312   2.867
 8177SOL    HW225431   3.815   1.188   2.886
 8178SOL     OW25432   2.016   6.578   0.780
 8178SOL    HW125433   2.006   6.609   0.875
 8178SOL    HW225434   2.004   6.656   0.719
 8179SOL     OW25435   5.327   1.085   3.341
 8179SOL    HW125436   5.367   1.141   3.414
 8179SOL    HW225437   5.369   0.994   3.343
 8180SOL     OW25438   4.488   6.544   0.016
 8180SOL    HW125439   4.553   6.608   6.995
 8180SOL    HW225440   4.399   6.552   6.990
 8181SOL     OW25441   0.437   0.710   1.047
 8181SOL    HW125442   0.469   0.691   0.954
 8181SOL    HW225443   0.506   0.764   1.096
 8182SOL     OW25444   2.910   3.509   4.423
 8182SOL    HW125445   2.848   3.586   4.407
 8182SOL    HW225446   2.996   3.543   4.461
 8183SOL     OW25447   6.784   0.076   5.230
 8183SOL    HW125448   6.769   0.174   5.217
 8183SOL    HW225449   6.744   0.026   5.153
 8184SOL     OW25450   0.789   6.126   6.731
 8184SOL    HW125451   0.829   6.184   6.802
 8184SOL    HW225452   0.746   6.183   6.661
 8185SOL     OW25453   0.743   6.909   6.944
 8185SOL    HW125454   0.690   6.916   6.859
 8185SOL    HW225455   0.806   6.832   6.938
 8186SOL     OW25456   1.390   5.310   6.850
 8186SOL    HW125457   1.439   5.313   6.763
 8186SOL    HW225458   1.448   5.270   6.920
 8187SOL     OW25459   1.096   0.841   6.126
 8187SOL    HW125460   1.151   0.758   6.116
 8187SOL    HW225461   1.001   0.816   6.143
 8188SOL     OW25462   2.669   2.016   3.529
 8188SOL    HW125463   2.758   1.973   3.543
 8188SOL    HW225464   2.668   2.106   3.573
 8189SOL     OW25465   5.012   4.550   3.966
 8189SOL    HW125466   5.007   4.611   3.887
 8189SOL    HW225467   5.099   4.502   3.966
 8190SOL     OW25468   6.314   3.758   3.190
 8190SOL    HW125469   6.261   3.673   3.188
 8190SOL    HW225470   6.339   3.779   3.284
 8191SOL     OW25471   4.064   4.998   1.712
 8191SOL    HW125472   4.082   4.977   1.616
 8191SOL    HW225473   4.006   4.927   1.752
 8192SOL     OW25474   1.193   5.166   3.848
 8192SOL    HW125475   1.241   5.079   3.859
 8192SOL    HW225476   1.259   5.239   3.833
 8193SOL     OW25477   0.671   3.983   4.987
 8193SOL    HW125478   0.726   3.903   4.965
 8193SOL    HW225479   0.652   3.985   5.086
 8194SOL     OW25480   4.773   6.571   1.956
 8194SOL    HW125481   4.789   6.627   2.037
 8194SOL    HW225482   4.690   6.602   1.910
 8195SOL     OW25483   5.492   6.595   3.240
 8195SOL    HW125484   5.516   6.691   3.226
 8195SOL    HW225485   5.574   6.542   3.261
 8196SOL     OW25486   4.260   6.981   7.009
 8196SOL    HW125487   4.352   6.980   0.031
 8196SOL    HW225488   4.239   0.054   6.977
 8197SOL     OW25489   4.975   1.844   1.875
 8197SOL    HW125490   5.035   1.783   1.927
 8197SOL    HW225491   4.972   1.933   1.920
 8198SOL     OW25492   1.960   0.549   2.311
 8198SOL    HW125493   1.864   0.530   2.331
 8198SOL    HW225494   2.001   0.599   2.386
 8199SOL     OW25495   5.462   2.767   5.756
 8199SOL    HW125496   5.556   2.737   5.772
 8199SOL    HW225497   5.462   2.845   5.693
 8200SOL     OW25498   4.353   2.982   1.339
 8200SOL    HW125499   4.280   2.955   1.275
 8200SOL    HW225500   4.315   3.045   1.407
 8201SOL     OW25501   0.170   7.016   5.475
 8201SOL    HW125502   0.265   0.019   5.497
 8201SOL    HW225503   0.141   0.050   5.395
 8202SOL     OW25504   0.671   6.095   2.275
 8202SOL    HW125505   0.579   6.094   2.313
 8202SOL    HW225506   0.718   6.009   2.297
 8203SOL     OW25507   1.181   3.339   0.842
 8203SOL    HW125508   1.142   3.252   0.813
 8203SOL    HW225509   1.126   3.414   0.805
 8204SOL     OW25510   4.305   3.211   1.503
 8204SOL    HW125511   4.223   3.266   1.519
 8204SOL    HW225512   4.333   3.167   1.589
 8205SOL     OW25513   1.041   3.493   0.439
 8205SOL    HW125514   1.053   3.489   0.340
 8205SOL    HW225515   1.027   3.401   0.475
 8206SOL     OW25516   4.138   1.191   6.656
 8206SOL    HW125517   4.157   1.208   6.752
 8206SOL    HW225518   4.157   1.274   6.603
 8207SOL     OW25519   3.969   3.233   4.558
 8207SOL    HW125520   3.995   3.311   4.614
 8207SOL    HW225521   4.005   3.245   4.465
 8208SOL     OW25522   1.519   1.153   0.207
 8208SOL    HW125523   1.488   1.208   0.130
 8208SOL    HW225524   1.617   1.169   0.222
 8209SOL     OW25525   6.562   0.616   5.594
 8209SOL    HW125526   6.515   0.529   5.583
 8209SOL    HW225527   6.632   0.625   5.523
 8210SOL     OW25528   1.818   3.046   0.457
 8210SOL    HW125529   1.872   3.017   0.537
 8210SOL    HW225530   1.854   3.001   0.375
 8211SOL     OW25531   2.948   4.286   0.950
 8211SOL    HW125532   2.956   4.306   1.047
 8211SOL    HW225533   2.852   4.274   0.926
 8212SOL     OW25534   1.641   2.337   3.465
 8212SOL    HW125535   1.695   2.272   3.412
 8212SOL    HW225536   1.548   2.340   3.429
 8213SOL     OW25537   0.371   4.509   2.015
 8213SOL    HW125538   0.402   4.582   2.076
 8213SOL    HW225539   0.426   4.427   2.031
 8214SOL     OW25540   5.828   4.213   3.116
 8214SOL    HW125541   5.899   4.175   3.057
 8214SOL    HW225542   5.753   4.247   3.059
 8215SOL     OW25543   3.707   5.018   4.998
 8215SOL    HW125544   3.765   5.085   4.952
 8215SOL    HW225545   3.760   4.934   5.014
 8216SOL     OW25546   4.883   4.697   4.146
 8216SOL    HW125547   4.943   4.634   4.097
 8216SOL    HW225548   4.806   4.646   4.184
 8217SOL     OW25549   2.262   5.909   0.559
 8217SOL    HW125550   2.213   5.892   0.473
 8217SOL    HW225551   2.215   5.981   0.610
 8218SOL     OW25552   0.383   1.628   0.131
 8218SOL    HW125553   0.317   1.576   0.185
 8218SOL    HW225554   0.364   1.726   0.141
 8219SOL     OW25555   5.534   1.857   6.068
 8219SOL    HW125556   5.580   1.859   5.979
 8219SOL    HW225557   5.480   1.773   6.076
 8220SOL     OW25558   3.659   3.685   2.429
 8220SOL    HW125559   3.591   3.700   2.501
 8220SOL    HW225560   3.741   3.739   2.447
 8221SOL     OW25561   5.451   5.926   3.561
 8221SOL    HW125562   5.482   6.021   3.561
 8221SOL    HW225563   5.521   5.868   3.602
 8222SOL     OW25564   5.836   1.396   1.661
 8222SOL    HW125565   5.824   1.443   1.748
 8222SOL    HW225566   5.931   1.403   1.632
 8223SOL     OW25567   0.801   4.467   6.286
 8223SOL    HW125568   0.809   4.457   6.385
 8223SOL    HW225569   0.705   4.479   6.261
 8224SOL     OW25570   0.859   2.892   2.732
 8224SOL    HW125571   0.771   2.932   2.759
 8224SOL    HW225572   0.926   2.965   2.719
 8225SOL     OW25573   4.976   1.622   6.430
 8225SOL    HW125574   5.022   1.607   6.517
 8225SOL    HW225575   4.920   1.542   6.408
 8226SOL     OW25576   4.920   0.337   1.192
 8226SOL    HW125577   4.827   0.371   1.186
 8226SOL    HW225578   4.979   0.407   1.233
 8227SOL     OW25579   6.362   2.985   3.196
 8227SOL    HW125580   6.389   3.070   3.240
 8227SOL    HW225581   6.266   2.990   3.168
 8228SOL     OW25582   0.165   2.452   5.027
 8228SOL    HW125583   0.208   2.419   4.943
 8228SOL    HW225584   0.089   2.392   5.051
 8229SOL     OW25585   3.275   5.576   6.985
 8229SOL    HW125586   3.208   5.527   0.023
 8229SOL    HW225587   3.367   5.541   7.004
 8230SOL     OW25588   4.745   0.310   4.791
 8230SOL    HW125589   4.802   0.343   4.716
 8230SOL    HW225590   4.796   0.244   4.846
 8231SOL     OW25591   5.494   5.172   0.949
 8231SOL    HW125592   5.407   5.220   0.964
 8231SOL    HW225593   5.483   5.076   0.974
 8232SOL     OW25594   3.866   1.382   6.992
 8232SOL    HW125595   3.964   1.382   6.972
 8232SOL    HW225596   3.850   1.344   0.064
 8233SOL     OW25597   0.839   5.413   6.025
 8233SOL    HW125598   0.867   5.502   6.061
 8233SOL    HW225599   0.836   5.346   6.099
 8234SOL     OW25600   3.287   2.197   6.611
 8234SOL    HW125601   3.325   2.161   6.526
 8234SOL    HW225602   3.254   2.290   6.597
 8235SOL     OW25603   3.831   3.648   1.226
 8235SOL    HW125604   3.879   3.631   1.312
 8235SOL    HW225605   3.751   3.706   1.243
 8236SOL     OW25606   6.439   2.685   0.207
 8236SOL    HW125607   6.447   2.663   0.304
 8236SOL    HW225608   6.507   2.754   0.183
 8237SOL     OW25609   4.006   5.851   5.224
 8237SOL    HW125610   4.061   5.870   5.143
 8237SOL    HW225611   4.059   5.872   5.306
 8238SOL     OW25612   2.460   3.494   6.895
 8238SOL    HW125613   2.385   3.433   6.868
 8238SOL    HW225614   2.541   3.474   6.839
 8239SOL     OW25615   6.889   1.763   5.440
 8239SOL    HW125616   6.916   1.668   5.450
 8239SOL    HW225617   6.809   1.769   5.380
 8240SOL     OW25618   3.153   4.028   2.796
 8240SOL    HW125619   3.225   4.096   2.784
 8240SOL    HW225620   3.149   4.000   2.892
 8241SOL     OW25621   3.352   6.879   0.263
 8241SOL    HW125622   3.313   6.788   0.251
 8241SOL    HW225623   3.450   6.876   0.244
 8242SOL     OW25624   0.582   4.700   5.970
 8242SOL    HW125625   0.609   4.642   5.893
 8242SOL    HW225626   0.643   4.780   5.975
 8243SOL     OW25627   0.378   2.789   5.915
 8243SOL    HW125628   0.452   2.735   5.874
 8243SOL    HW225629   0.353   2.749   6.003
 8244SOL     OW25630   0.695   6.596   3.848
 8244SOL    HW125631   0.616   6.555   3.893
 8244SOL    HW225632   0.708   6.555   3.758
 8245SOL     OW25633   4.639   1.767   0.937
 8245SOL    HW125634   4.639   1.863   0.908
 8245SOL    HW225635   4.728   1.746   0.979
 8246SOL     OW25636   5.717   3.944   6.108
 8246SOL    HW125637   5.751   3.999   6.031
 8246SOL    HW225638   5.675   3.861   6.073
 8247SOL     OW25639   0.786   0.377   1.062
 8247SOL    HW125640   0.717   0.315   1.025
 8247SOL    HW225641   0.742   0.441   1.126
 8248SOL     OW25642   5.874   4.319   3.653
 8248SOL    HW125643   5.806   4.356   3.589
 8248SOL    HW225644   5.859   4.358   3.744
 8249SOL     OW25645   1.838   4.523   4.412
 8249SOL    HW125646   1.849   4.567   4.500
 8249SOL    HW225647   1.901   4.445   4.406
 8250SOL     OW25648   3.280   4.136   3.227
 8250SOL    HW125649   3.332   4.139   3.142
 8250SOL    HW225650   3.254   4.228   3.254
 8251SOL     OW25651   5.214   1.898   4.962
 8251SOL    HW125652   5.209   1.985   4.913
 8251SOL    HW225653   5.308   1.882   4.991
 8252SOL     OW25654   2.743   2.754   5.847
 8252SOL    HW125655   2.654   2.799   5.842
 8252SOL    HW225656   2.798   2.798   5.918
 8253SOL     OW25657   3.315   2.732   5.151
 8253SOL    HW125658   3.262   2.669   5.207
 8253SOL    HW225659   3.410   2.702   5.149
 8254SOL     OW25660   4.103   4.858   4.467
 8254SOL    HW125661   4.176   4.802   4.507
 8254SOL    HW225662   4.129   4.886   4.375
 8255SOL     OW25663   4.218   5.609   4.168
 8255SOL    HW125664   4.133   5.662   4.172
 8255SOL    HW225665   4.292   5.667   4.134
 8256SOL     OW25666   5.104   1.161   4.040
 8256SOL    HW125667   5.015   1.162   4.085
 8256SOL    HW225668   5.109   1.236   3.975
 8257SOL     OW25669   5.399   4.519   3.515
 8257SOL    HW125670   5.463   4.579   3.562
 8257SOL    HW225671   5.443   4.431   3.495
 8258SOL     OW25672   4.868   1.327   0.483
 8258SOL    HW125673   4.945   1.349   0.543
 8258SOL    HW225674   4.887   1.242   0.435
 8259SOL     OW25675   3.273   1.915   3.698
 8259SOL    HW125676   3.273   1.996   3.756
 8259SOL    HW225677   3.193   1.918   3.637
 8260SOL     OW25678   2.767   6.772   2.051
 8260SOL    HW125679   2.677   6.814   2.040
 8260SOL    HW225680   2.833   6.840   2.080
 8261SOL     OW25681   5.616   1.343   1.199
 8261SOL    HW125682   5.706   1.299   1.198
 8261SOL    HW225683   5.607   1.401   1.117
 8262SOL     OW25684   1.080   2.338   1.420
 8262SOL    HW125685   1.008   2.388   1.371
 8262SOL    HW225686   1.150   2.403   1.450
 8263SOL     OW25687   6.882   1.330   1.425
 8263SOL    HW125688   6.972   1.287   1.433
 8263SOL    HW225689   6.890   1.413   1.370
 8264SOL     OW25690   1.213   5.873   2.272
 8264SOL    HW125691   1.181   5.841   2.183
 8264SOL    HW225692   1.307   5.907   2.263
 8265SOL     OW25693   1.649   0.468   1.485
 8265SOL    HW125694   1.553   0.452   1.507
 8265SOL    HW225695   1.659   0.478   1.386
 8266SOL     OW25696   2.466   6.642   2.889
 8266SOL    HW125697   2.395   6.708   2.913
 8266SOL    HW225698   2.555   6.677   2.917
 8267SOL     OW25699   1.632   3.480   1.158
 8267SOL    HW125700   1.648   3.568   1.203
 8267SOL    HW225701   1.719   3.435   1.141
 8268SOL     OW25702   2.354   0.028   6.317
 8268SOL    HW125703   2.277   0.081   6.353
 8268SOL    HW225704   2.358   6.958   6.362
 8269SOL     OW25705   5.503   1.803   1.054
 8269SOL    HW125706   5.593   1.836   1.081
 8269SOL    HW225707   5.440   1.880   1.048
 8270SOL     OW25708   3.623   6.592   3.933
 8270SOL    HW125709   3.580   6.525   3.872
 8270SOL    HW225710   3.571   6.597   4.018
 8271SOL     OW25711   6.794   1.740   2.832
 8271SOL    HW125712   6.865   1.798   2.791
 8271SOL    HW225713   6.781   1.765   2.928
 8272SOL     OW25714   4.585   0.294   2.122
 8272SOL    HW125715   4.637   0.364   2.073
 8272SOL    HW225716   4.565   0.218   2.060
 8273SOL     OW25717   2.046   0.319   1.144
 8273SOL    HW125718   2.129   0.264   1.135
 8273SOL    HW225719   1.986   0.277   1.212
 8274SOL     OW25720   4.154   5.132   3.339
 8274SOL    HW125721   4.060   5.134   3.306
 8274SOL    HW225722   4.209   5.199   3.289
 8275SOL     OW25723   4.639   2.180   5.911
 8275SOL    HW125724   4.597   2.098   5.950
 8275SOL    HW225725   4.736   2.163   5.893
 8276SOL     OW25726   0.879   2.040   4.053
 8276SOL    HW125727   0.848   2.121   4.103
 8276SOL    HW225728   0.917   1.973   4.117
 8277SOL     OW25729   6.635   0.811   6.553
 8277SOL    HW125730   6.691   0.763   6.486
 8277SOL    HW225731   6.559   0.858   6.507
 8278SOL     OW25732   2.574   2.020   0.080
 8278SOL    HW125733   2.665   2.014   0.122
 8278SOL    HW225734   2.504   2.004   0.149
 8279SOL     OW25735   0.746   6.176   4.144
 8279SOL    HW125736   0.814   6.129   4.201
 8279SOL    HW225737   0.793   6.231   4.075
 8280SOL     OW25738   3.204   2.680   6.797
 8280SOL    HW125739   3.257   2.764   6.784
 8280SOL    HW225740   3.202   2.657   6.895
 8281SOL     OW25741   1.066   5.495   1.648
 8281SOL    HW125742   1.010   5.565   1.693
 8281SOL    HW225743   1.098   5.430   1.716
 8282SOL     OW25744   5.365   2.919   6.314
 8282SOL    HW125745   5.363   2.833   6.263
 8282SOL    HW225746   5.459   2.936   6.345
 8283SOL     OW25747   1.003   4.517   5.881
 8283SOL    HW125748   1.018   4.565   5.967
 8283SOL    HW225749   0.906   4.523   5.857
 8284SOL     OW25750   0.569   3.993   1.931
 8284SOL    HW125751   0.566   4.091   1.910
 8284SOL    HW225752   0.532   3.941   1.854
 8285SOL     OW25753   4.172   3.609   5.046
 8285SOL    HW125754   4.096   3.552   5.078
 8285SOL    HW225755   4.258   3.574   5.084
 8286SOL     OW25756   6.528   2.650   5.645
 8286SOL    HW125757   6.604   2.691   5.695
 8286SOL    HW225758   6.507   2.560   5.683
 8287SOL     OW25759   1.263   5.359   4.367
 8287SOL    HW125760   1.335   5.362   4.298
 8287SOL    HW225761   1.193   5.427   4.345
 8288SOL     OW25762   2.616   2.438   3.115
 8288SOL    HW125763   2.615   2.342   3.088
 8288SOL    HW225764   2.535   2.484   3.078
 8289SOL     OW25765   0.817   0.409   0.281
 8289SOL    HW125766   0.767   0.329   0.248
 8289SOL    HW225767   0.849   0.392   0.375
 8290SOL     OW25768   6.408   1.687   0.539
 8290SOL    HW125769   6.376   1.778   0.510
 8290SOL    HW225770   6.334   1.639   0.585
 8291SOL     OW25771   4.524   0.422   6.664
 8291SOL    HW125772   4.607   0.393   6.616
 8291SOL    HW225773   4.449   0.359   6.643
 8292SOL     OW25774   2.554   6.756   0.557
 8292SOL    HW125775   2.632   6.720   0.609
 8292SOL    HW225776   2.578   6.847   0.521
 8293SOL     OW25777   4.189   6.912   6.039
 8293SOL    HW125778   4.145   6.927   6.127
 8293SOL    HW225779   4.201   6.814   6.025
 8294SOL     OW25780   6.064   2.693   6.569
 8294SOL    HW125781   6.102   2.602   6.557
 8294SOL    HW225782   6.066   2.742   6.482
 8295SOL     OW25783   5.617   4.850   1.828
 8295SOL    HW125784   5.604   4.821   1.733
 8295SOL    HW225785   5.599   4.948   1.836
 8296SOL     OW25786   1.479   6.183   6.714
 8296SOL    HW125787   1.407   6.172   6.645
 8296SOL    HW225788   1.446   6.151   6.803
 8297SOL     OW25789   6.573   2.530   3.248
 8297SOL    HW125790   6.535   2.612   3.204
 8297SOL    HW225791   6.543   2.449   3.199
 8298SOL     OW25792   4.925   1.556   1.570
 8298SOL    HW125793   4.906   1.544   1.668
 8298SOL    HW225794   4.995   1.490   1.541
 8299SOL     OW25795   0.269   3.136   1.818
 8299SOL    HW125796   0.176   3.166   1.837
 8299SOL    HW225797   0.333   3.193   1.869
 8300SOL     OW25798   0.913   4.489   5.068
 8300SOL    HW125799   0.946   4.437   5.147
 8300SOL    HW225800   0.902   4.585   5.093
 8301SOL     OW25801   4.367   2.304   1.281
 8301SOL    HW125802   4.438   2.262   1.337
 8301SOL    HW225803   4.375   2.403   1.285
 8302SOL     OW25804   5.922   6.599   6.497
 8302SOL    HW125805   6.011   6.636   6.474
 8302SOL    HW225806   5.851   6.667   6.476
 8303SOL     OW25807   0.307   0.212   4.619
 8303SOL    HW125808   0.383   0.267   4.654
 8303SOL    HW225809   0.342   0.123   4.589
 8304SOL     OW25810   0.590   3.739   6.341
 8304SOL    HW125811   0.578   3.643   6.314
 8304SOL    HW225812   0.508   3.791   6.317
 8305SOL     OW25813   3.213   5.086   3.816
 8305SOL    HW125814   3.258   5.021   3.877
 8305SOL    HW225815   3.120   5.103   3.848
 8306SOL     OW25816   0.609   2.386   5.650
 8306SOL    HW125817   0.585   2.481   5.672
 8306SOL    HW225818   0.628   2.337   5.735
 8307SOL     OW25819   3.631   5.093   0.993
 8307SOL    HW125820   3.670   5.184   0.982
 8307SOL    HW225821   3.555   5.097   1.058
 8308SOL     OW25822   4.278   6.654   1.586
 8308SOL    HW125823   4.364   6.703   1.603
 8308SOL    HW225824   4.201   6.717   1.593
 8309SOL     OW25825   6.132   6.015   2.988
 8309SOL    HW125826   6.107   6.043   2.895
 8309SOL    HW225827   6.060   5.956   3.025
 8310SOL     OW25828   0.776   4.480   0.698
 8310SOL    HW125829   0.785   4.442   0.790
 8310SOL    HW225830   0.691   4.447   0.657
 8311SOL     OW25831   0.122   0.904   6.547
 8311SOL    HW125832   0.201   0.862   6.591
 8311SOL    HW225833   0.059   0.937   6.617
 8312SOL     OW25834   4.785   6.485   1.670
 8312SOL    HW125835   4.690   6.501   1.641
 8312SOL    HW225836   4.787   6.411   1.738
 8313SOL     OW25837   3.669   1.570   2.983
 8313SOL    HW125838   3.742   1.502   2.986
 8313SOL    HW225839   3.676   1.623   2.898
 8314SOL     OW25840   5.460   6.520   1.038
 8314SOL    HW125841   5.522   6.444   1.056
 8314SOL    HW225842   5.457   6.538   0.940
 8315SOL     OW25843   4.639   2.977   1.025
 8315SOL    HW125844   4.709   2.980   0.955
 8315SOL    HW225845   4.548   2.977   0.982
 8316SOL     OW25846   0.759   4.145   0.842
 8316SOL    HW125847   0.766   4.221   0.906
 8316SOL    HW225848   0.841   4.087   0.850
 8317SOL     OW25849   1.825   3.544   2.906
 8317SOL    HW125850   1.808   3.451   2.939
 8317SOL    HW225851   1.784   3.556   2.815
 8318SOL     OW25852   4.233   1.617   5.085
 8318SOL    HW125853   4.319   1.584   5.124
 8318SOL    HW225854   4.210   1.564   5.004
 8319SOL     OW25855   3.463   1.298   5.379
 8319SOL    HW125856   3.510   1.338   5.300
 8319SOL    HW225857   3.366   1.322   5.376
 8320SOL     OW25858   3.552   4.680   1.340
 8320SOL    HW125859   3.505   4.763   1.311
 8320SOL    HW225860   3.523   4.604   1.282
 8321SOL     OW25861   0.481   1.279   6.951
 8321SOL    HW125862   0.497   1.185   6.982
 8321SOL    HW225863   0.399   1.315   6.997
 8322SOL     OW25864   6.892   0.375   6.699
 8322SOL    HW125865   6.811   0.320   6.679
 8322SOL    HW225866   6.967   0.315   6.727
 8323SOL     OW25867   0.907   0.594   2.358
 8323SOL    HW125868   0.825   0.547   2.324
 8323SOL    HW225869   0.891   0.693   2.356
 8324SOL     OW25870   6.340   0.653   2.388
 8324SOL    HW125871   6.302   0.663   2.297
 8324SOL    HW225872   6.320   0.735   2.442
 8325SOL     OW25873   4.023   3.272   4.098
 8325SOL    HW125874   3.955   3.344   4.108
 8325SOL    HW225875   4.064   3.277   4.007
 8326SOL     OW25876   4.564   3.503   5.552
 8326SOL    HW125877   4.477   3.499   5.600
 8326SOL    HW225878   4.556   3.562   5.472
 8327SOL     OW25879   5.257   2.397   5.806
 8327SOL    HW125880   5.158   2.398   5.815
 8327SOL    HW225881   5.283   2.355   5.719
 8328SOL     OW25882   2.357   3.899   6.218
 8328SOL    HW125883   2.293   3.870   6.290
 8328SOL    HW225884   2.312   3.896   6.129
 8329SOL     OW25885   0.359   3.027   5.127
 8329SOL    HW125886   0.428   3.068   5.067
 8329SOL    HW225887   0.318   2.948   5.082
 8330SOL     OW25888   1.699   6.514   0.852
 8330SOL    HW125889   1.787   6.535   0.894
 8330SOL    HW225890   1.713   6.448   0.777
 8331SOL     OW25891   3.537   6.994   1.169
 8331SOL    HW125892   3.464   0.010   1.110
 8331SOL    HW225893   3.612   0.041   1.172
 8332SOL     OW25894   4.756   5.021   1.958
 8332SOL    HW125895   4.668   5.068   1.958
 8332SOL    HW225896   4.817   5.064   2.024
 8333SOL     OW25897   0.322   5.965   6.772
 8333SOL    HW125898   0.232   5.964   6.817
 8333SOL    HW225899   0.332   5.881   6.718
 8334SOL     OW25900   5.543   1.604   3.872
 8334SOL    HW125901   5.509   1.515   3.900
 8334SOL    HW225902   5.507   1.674   3.933
 8335SOL     OW25903   6.206   5.739   5.820
 8335SOL    HW125904   6.300   5.772   5.830
 8335SOL    HW225905   6.143   5.811   5.847
 8336SOL     OW25906   6.909   1.403   2.562
 8336SOL    HW125907   6.815   1.439   2.563
 8336SOL    HW225908   6.965   1.455   2.627
 8337SOL     OW25909   0.725   6.373   3.478
 8337SOL    HW125910   0.801   6.381   3.414
 8337SOL    HW225911   0.654   6.314   3.438
 8338SOL     OW25912   1.906   4.817   1.289
 8338SOL    HW125913   1.876   4.782   1.377
 8338SOL    HW225914   1.841   4.886   1.257
 8339SOL     OW25915   6.337   1.043   2.908
 8339SOL    HW125916   6.321   1.025   3.005
 8339SOL    HW225917   6.249   1.048   2.860
 8340SOL     OW25918   4.903   3.893   1.035
 8340SOL    HW125919   4.944   3.842   1.110
 8340SOL    HW225920   4.881   3.829   0.960
 8341SOL     OW25921   1.888   6.813   0.373
 8341SOL    HW125922   1.788   6.815   0.381
 8341SOL    HW225923   1.914   6.830   0.278
 8342SOL     OW25924   3.719   0.510   0.827
 8342SOL    HW125925   3.759   0.601   0.821
 8342SOL    HW225926   3.789   0.441   0.812
 8343SOL     OW25927   1.700   5.240   6.080
 8343SOL    HW125928   1.701   5.265   6.176
 8343SOL    HW225929   1.606   5.242   6.046
 8344SOL     OW25930   4.304   6.231   6.082
 8344SOL    HW125931   4.299   6.330   6.097
 8344SOL    HW225932   4.391   6.196   6.115
 8345SOL     OW25933   5.685   1.906   3.325
 8345SOL    HW125934   5.685   1.920   3.424
 8345SOL    HW225935   5.766   1.949   3.286
 8346SOL     OW25936   2.382   4.804   0.475
 8346SOL    HW125937   2.480   4.822   0.463
 8346SOL    HW225938   2.370   4.714   0.516
 8347SOL     OW25939   2.640   6.405   5.164
 8347SOL    HW125940   2.606   6.476   5.101
 8347SOL    HW225941   2.562   6.358   5.205
 8348SOL     OW25942   1.142   0.724   1.250
 8348SOL    HW125943   1.094   0.637   1.235
 8348SOL    HW225944   1.240   0.706   1.259
 8349SOL     OW25945   5.978   3.660   0.809
 8349SOL    HW125946   6.002   3.719   0.886
 8349SOL    HW225947   5.972   3.714   0.725
 8350SOL     OW25948   6.084   0.942   4.855
 8350SOL    HW125949   6.026   0.886   4.914
 8350SOL    HW225950   6.120   0.885   4.781
 8351SOL     OW25951   3.723   5.668   4.212
 8351SOL    HW125952   3.624   5.680   4.206
 8351SOL    HW225953   3.743   5.592   4.274
 8352SOL     OW25954   6.443   0.114   1.781
 8352SOL    HW125955   6.464   0.094   1.876
 8352SOL    HW225956   6.352   0.080   1.758
 8353SOL     OW25957   5.846   3.436   2.266
 8353SOL    HW125958   5.807   3.506   2.206
 8353SOL    HW225959   5.882   3.361   2.210
 8354SOL     OW25960   3.267   1.604   6.514
 8354SOL    HW125961   3.225   1.612   6.605
 8354SOL    HW225962   3.234   1.521   6.470
 8355SOL     OW25963   3.092   0.490   0.185
 8355SOL    HW125964   3.045   0.578   0.190
 8355SOL    HW225965   3.043   0.422   0.239
 8356SOL     OW25966   1.136   6.331   0.248
 8356SOL    HW125967   1.092   6.421   0.253
 8356SOL    HW225968   1.164   6.303   0.340
 8357SOL     OW25969   3.426   5.241   5.031
 8357SOL    HW125970   3.434   5.164   4.968
 8357SOL    HW225971   3.436   5.327   4.980
 8358SOL     OW25972   1.832   2.257   5.501
 8358SOL    HW125973   1.735   2.246   5.479
 8358SOL    HW225974   1.841   2.311   5.584
 8359SOL     OW25975   4.018   5.812   4.669
 8359SOL    HW125976   3.941   5.757   4.637
 8359SOL    HW225977   4.067   5.851   4.591
 8360SOL     OW25978   3.999   7.015   3.007
 8360SOL    HW125979   4.000   6.927   2.959
 8360SOL    HW225980   3.907   0.035   3.002
 8361SOL     OW25981   1.739   1.719   2.321
 8361SOL    HW125982   1.821   1.742   2.374
 8361SOL    HW225983   1.760   1.720   2.224
 8362SOL     OW25984   2.559   2.710   0.656
 8362SOL    HW125985   2.514   2.648   0.721
 8362SOL    HW225986   2.607   2.782   0.706
 8363SOL     OW25987   1.269   2.842   0.712
 8363SOL    HW125988   1.324   2.784   0.772
 8363SOL    HW225989   1.189   2.790   0.680
 8364SOL     OW25990   6.424   3.369   2.667
 8364SOL    HW125991   6.519   3.340   2.655
 8364SOL    HW225992   6.366   3.288   2.676
 8365SOL     OW25993   1.841   3.625   0.684
 8365SOL    HW125994   1.804   3.539   0.648
 8365SOL    HW225995   1.933   3.639   0.649
 8366SOL     OW25996   4.829   6.062   2.471
 8366SOL    HW125997   4.868   6.018   2.551
 8366SOL    HW225998   4.831   6.161   2.483
 8367SOL     OW25999   4.503   6.192   3.605
 8367SOL    HW126000   4.549   6.112   3.645
 8367SOL    HW226001   4.541   6.209   3.514
 8368SOL     OW26002   2.842   5.580   6.042
 8368SOL    HW126003   2.767   5.632   6.082
 8368SOL    HW226004   2.839   5.588   5.942
 8369SOL     OW26005   2.155   0.685   0.300
 8369SOL    HW126006   2.127   0.602   0.347
 8369SOL    HW226007   2.111   0.764   0.342
 8370SOL     OW26008   2.095   2.073   6.179
 8370SOL    HW126009   2.104   2.106   6.273
 8370SOL    HW226010   1.998   2.071   6.153
 8371SOL     OW26011   1.265   3.160   0.260
 8371SOL    HW126012   1.343   3.216   0.289
 8371SOL    HW226013   1.249   3.087   0.326
 8372SOL     OW26014   0.569   0.259   2.709
 8372SOL    HW126015   0.578   0.233   2.805
 8372SOL    HW226016   0.653   0.236   2.660
 8373SOL     OW26017   1.072   6.447   5.679
 8373SOL    HW126018   0.984   6.457   5.724
 8373SOL    HW226019   1.111   6.537   5.660
 8374SOL     OW26020   6.484   0.978   0.281
 8374SOL    HW126021   6.577   0.941   0.285
 8374SOL    HW226022   6.457   1.013   0.370
 8375SOL     OW26023   3.395   5.658   5.837
 8375SOL    HW126024   3.391   5.587   5.908
 8375SOL    HW226025   3.374   5.617   5.748
 8376SOL     OW26026   2.647   0.535   4.026
 8376SOL    HW126027   2.715   0.608   4.023
 8376SOL    HW226028   2.589   0.548   4.107
 8377SOL     OW26029   5.882   5.979   1.188
 8377SOL    HW126030   5.858   6.038   1.111
 8377SOL    HW226031   5.839   5.890   1.177
 8378SOL     OW26032   5.471   3.384   3.078
 8378SOL    HW126033   5.401   3.451   3.054
 8378SOL    HW226034   5.435   3.292   3.061
 8379SOL     OW26035   6.244   3.990   2.035
 8379SOL    HW126036   6.277   3.901   2.066
 8379SOL    HW226037   6.242   3.993   1.935
 8380SOL     OW26038   5.827   1.341   2.512
 8380SOL    HW126039   5.729   1.358   2.496
 8380SOL    HW226040   5.857   1.393   2.592
 8381SOL     OW26041   1.039   5.306   4.661
 8381SOL    HW126042   1.023   5.222   4.712
 8381SOL    HW226043   1.110   5.291   4.593
 8382SOL     OW26044   1.507   1.963   2.619
 8382SOL    HW126045   1.458   2.033   2.670
 8382SOL    HW226046   1.471   1.873   2.643
 8383SOL     OW26047   2.860   2.469   6.655
 8383SOL    HW126048   2.764   2.481   6.630
 8383SOL    HW226049   2.911   2.554   6.638
 8384SOL     OW26050   6.776   6.411   1.090
 8384SOL    HW126051   6.876   6.417   1.093
 8384SOL    HW226052   6.749   6.331   1.036
 8385SOL     OW26053   4.949   2.077   2.069
 8385SOL    HW126054   5.036   2.098   2.114
 8385SOL    HW226055   4.886   2.038   2.136
 8386SOL     OW26056   0.786   4.239   2.734
 8386SOL    HW126057   0.705   4.290   2.761
 8386SOL    HW226058   0.820   4.186   2.811
 8387SOL     OW26059   1.821   1.344   1.169
 8387SOL    HW126060   1.749   1.398   1.125
 8387SOL    HW226061   1.814   1.354   1.268
 8388SOL     OW26062   2.912   6.190   1.650
 8388SOL    HW126063   2.937   6.106   1.700
 8388SOL    HW226064   2.834   6.172   1.591
 8389SOL     OW26065   5.541   2.851   2.021
 8389SOL    HW126066   5.501   2.830   1.931
 8389SOL    HW226067   5.495   2.930   2.061
 8390SOL     OW26068   4.021   2.091   5.659
 8390SOL    HW126069   3.973   2.003   5.658
 8390SOL    HW226070   3.962   2.161   5.619
 8391SOL     OW26071   6.296   0.008   0.686
 8391SOL    HW126072   6.320   0.102   0.711
 8391SOL    HW226073   6.279   6.974   0.769
 8392SOL     OW26074   5.947   3.584   4.507
 8392SOL    HW126075   5.996   3.612   4.590
 8392SOL    HW226076   5.913   3.666   4.460
 8393SOL     OW26077   4.959   0.186   2.059
 8393SOL    HW126078   4.913   0.112   2.107
 8393SOL    HW226079   5.055   0.188   2.085
 8394SOL     OW26080   5.974   3.868   2.250
 8394SOL    HW126081   5.992   3.770   2.260
 8394SOL    HW226082   6.034   3.920   2.311
 8395SOL     OW26083   1.999   0.631   5.021
 8395SOL    HW126084   2.034   0.590   5.105
 8395SOL    HW226085   1.899   0.627   5.022
 8396SOL     OW26086   4.685   5.613   4.805
 8396SOL    HW126087   4.697   5.543   4.735
 8396SOL    HW226088   4.587   5.630   4.819
 8397SOL     OW26089   6.702   1.300   3.636
 8397SOL    HW126090   6.759   1.236   3.584
 8397SOL    HW226091   6.747   1.389   3.641
 8398SOL     OW26092   5.333   1.919   5.637
 8398SOL    HW126093   5.323   1.966   5.549
 8398SOL    HW226094   5.259   1.853   5.648
 8399SOL     OW26095   0.085   5.955   6.906
 8399SOL    HW126096   0.110   5.969   7.001
 8399SOL    HW226097   0.075   6.044   6.861
 8400SOL     OW26098   1.887   2.059   4.277
 8400SOL    HW126099   1.914   2.045   4.372
 8400SOL    HW226100   1.835   2.144   4.269
 8401SOL     OW26101   2.669   0.244   5.504
 8401SOL    HW126102   2.749   0.266   5.449
 8401SOL    HW226103   2.626   0.328   5.537
 8402SOL     OW26104   4.653   0.913   5.805
 8402SOL    HW126105   4.652   0.970   5.887
 8402SOL    HW226106   4.567   0.862   5.798
 8403SOL     OW26107   6.360   4.400   4.167
 8403SOL    HW126108   6.348   4.497   4.148
 8403SOL    HW226109   6.347   4.383   4.265
 8404SOL     OW26110   2.484   1.780   6.261
 8404SOL    HW126111   2.404   1.770   6.321
 8404SOL    HW226112   2.459   1.837   6.183
 8405SOL     OW26113   3.819   1.574   5.512
 8405SOL    HW126114   3.745   1.585   5.578
 8405SOL    HW226115   3.804   1.636   5.434
 8406SOL     OW26116   4.804   0.985   6.312
 8406SOL    HW126117   4.716   1.033   6.320
 8406SOL    HW226118   4.813   0.919   6.386
 8407SOL     OW26119   3.547   6.413   3.529
 8407SOL    HW126120   3.631   6.374   3.567
 8407SOL    HW226121   3.565   6.507   3.499
 8408SOL     OW26122   5.023   6.998   0.824
 8408SOL    HW126123   4.990   0.059   0.774
 8408SOL    HW226124   5.019   6.918   0.765
 8409SOL     OW26125   4.322   2.438   1.917
 8409SOL    HW126126   4.362   2.418   2.006
 8409SOL    HW226127   4.378   2.506   1.870
 8410SOL     OW26128   6.897   1.677   1.742
 8410SOL    HW126129   6.972   1.698   1.679
 8410SOL    HW226130   6.876   1.580   1.738
 8411SOL     OW26131   0.438   6.191   0.938
 8411SOL    HW126132   0.419   6.274   0.885
 8411SOL    HW226133   0.450   6.216   1.034
 8412SOL     OW26134   2.873   3.360   0.650
 8412SOL    HW126135   2.877   3.402   0.740
 8412SOL    HW226136   2.824   3.420   0.587
 8413SOL     OW26137   4.107   5.636   5.662
 8413SOL    HW126138   4.185   5.589   5.620
 8413SOL    HW226139   4.023   5.587   5.638
 8414SOL     OW26140   1.707   0.924   2.386
 8414SOL    HW126141   1.669   0.886   2.301
 8414SOL    HW226142   1.684   0.864   2.462
 8415SOL     OW26143   2.545   0.101   4.277
 8415SOL    HW126144   2.586   0.041   4.345
 8415SOL    HW226145   2.608   0.177   4.258
 8416SOL     OW26146   6.137   1.760   4.435
 8416SOL    HW126147   6.199   1.761   4.513
 8416SOL    HW226148   6.187   1.784   4.352
 8417SOL     OW26149   1.149   3.019   5.195
 8417SOL    HW126150   1.099   2.946   5.241
 8417SOL    HW226151   1.167   2.993   5.101
 8418SOL     OW26152   0.724   5.762   2.086
 8418SOL    HW126153   0.767   5.691   2.030
 8418SOL    HW226154   0.640   5.725   2.126
 8419SOL     OW26155   5.018   0.688   3.048
 8419SOL    HW126156   5.006   0.786   3.032
 8419SOL    HW226157   5.090   0.652   2.989
 8420SOL     OW26158   3.306   6.488   2.318
 8420SOL    HW126159   3.371   6.417   2.291
 8420SOL    HW226160   3.355   6.570   2.348
 8421SOL     OW26161   3.861   6.258   5.759
 8421SOL    HW126162   3.771   6.249   5.716
 8421SOL    HW226163   3.911   6.173   5.748
 8422SOL     OW26164   4.548   2.556   2.554
 8422SOL    HW126165   4.565   2.557   2.455
 8422SOL    HW226166   4.470   2.496   2.574
 8423SOL     OW26167   5.265   4.465   5.895
 8423SOL    HW126168   5.239   4.383   5.945
 8423SOL    HW226169   5.352   4.500   5.929
 8424SOL     OW26170   2.046   0.367   3.192
 8424SOL    HW126171   2.116   0.427   3.152
 8424SOL    HW226172   2.055   0.366   3.291
 8425SOL     OW26173   3.204   3.345   3.417
 8425SOL    HW126174   3.120   3.393   3.391
 8425SOL    HW226175   3.276   3.365   3.351
 8426SOL     OW26176   3.804   2.886   2.395
 8426SOL    HW126177   3.862   2.921   2.468
 8426SOL    HW226178   3.851   2.813   2.346
 8427SOL     OW26179   3.165   3.101   3.335
 8427SOL    HW126180   3.187   3.191   3.372
 8427SOL    HW226181   3.226   3.032   3.375
 8428SOL     OW26182   0.100   0.489   0.782
 8428SOL    HW126183   0.076   0.395   0.757
 8428SOL    HW226184   0.024   0.550   0.760
 8429SOL     OW26185   1.945   5.633   6.114
 8429SOL    HW126186   2.032   5.672   6.144
 8429SOL    HW226187   1.874   5.653   6.183
 8430SOL     OW26188   4.623   6.002   4.064
 8430SOL    HW126189   4.595   6.090   4.101
 8430SOL    HW226190   4.630   5.935   4.138
 8431SOL     OW26191   2.565   2.943   6.360
 8431SOL    HW126192   2.640   2.887   6.325
 8431SOL    HW226193   2.488   2.939   6.297
 8432SOL     OW26194   6.862   5.425   5.858
 8432SOL    HW126195   6.778   5.444   5.910
 8432SOL    HW226196   6.940   5.427   5.920
 8433SOL     OW26197   4.734   2.324   1.190
 8433SOL    HW126198   4.778   2.413   1.177
 8433SOL    HW226199   4.764   2.261   1.119
 8434SOL     OW26200   2.020   5.681   4.748
 8434SOL    HW126201   2.032   5.777   4.773
 8434SOL    HW226202   2.003   5.675   4.649
 8435SOL     OW26203   4.955   0.493   2.721
 8435SOL    HW126204   4.877   0.545   2.687
 8435SOL    HW226205   5.039   0.531   2.683
 8436SOL     OW26206   2.382   6.504   3.694
 8436SOL    HW126207   2.290   6.538   3.676
 8436SOL    HW226208   2.406   6.522   3.789
 8437SOL     OW26209   2.214   2.985   2.472
 8437SOL    HW126210   2.210   3.081   2.446
 8437SOL    HW226211   2.145   2.966   2.542
 8438SOL     OW26212   1.493   4.217   3.246
 8438SOL    HW126213   1.485   4.129   3.292
 8438SOL    HW226214   1.545   4.205   3.161
 8439SOL     OW26215   5.991   5.217   3.286
 8439SOL    HW126216   5.996   5.297   3.346
 8439SOL    HW226217   6.050   5.232   3.206
 8440SOL     OW26218   2.227   1.614   3.531
 8440SOL    HW126219   2.177   1.543   3.482
 8440SOL    HW226220   2.293   1.571   3.593
 8441SOL     OW26221   5.479   6.284   5.583
 8441SOL    HW126222   5.507   6.189   5.593
 8441SOL    HW226223   5.433   6.296   5.495
 8442SOL     OW26224   3.708   0.631   5.058
 8442SOL    HW126225   3.644   0.642   4.982
 8442SOL    HW226226   3.798   0.665   5.031
 8443SOL     OW26227   1.483   4.965   3.510
 8443SOL    HW126228   1.565   4.910   3.496
 8443SOL    HW226229   1.413   4.910   3.557
 8444SOL     OW26230   4.174   6.021   3.238
 8444SOL    HW126231   4.223   5.939   3.209
 8444SOL    HW226232   4.076   6.003   3.237
 8445SOL     OW26233   3.459   0.004   6.523
 8445SOL    HW126234   3.411   6.953   6.576
 8445SOL    HW226235   3.556   0.005   6.549
 8446SOL     OW26236   0.399   6.301   5.587
 8446SOL    HW126237   0.496   6.327   5.584
 8446SOL    HW226238   0.380   6.253   5.672
 8447SOL     OW26239   4.168   1.424   2.598
 8447SOL    HW126240   4.252   1.422   2.544
 8447SOL    HW226241   4.147   1.517   2.625
 8448SOL     OW26242   4.807   6.596   2.959
 8448SOL    HW126243   4.904   6.618   2.963
 8448SOL    HW226244   4.757   6.646   3.030
 8449SOL     OW26245   1.771   2.651   3.397
 8449SOL    HW126246   1.862   2.667   3.434
 8449SOL    HW226247   1.747   2.555   3.410
 8450SOL     OW26248   6.368   0.700   0.165
 8450SOL    HW126249   6.402   0.788   0.196
 8450SOL    HW226250   6.444   0.643   0.134
 8451SOL     OW26251   4.353   1.953   1.448
 8451SOL    HW126252   4.321   1.954   1.353
 8451SOL    HW226253   4.451   1.975   1.450
 8452SOL     OW26254   4.997   1.862   4.807
 8452SOL    HW126255   5.075   1.865   4.869
 8452SOL    HW226256   4.917   1.900   4.853
 8453SOL     OW26257   0.949   5.793   6.861
 8453SOL    HW126258   0.961   5.861   6.933
 8453SOL    HW226259   0.864   5.742   6.876
 8454SOL     OW26260   0.599   4.483   6.783
 8454SOL    HW126261   0.500   4.474   6.769
 8454SOL    HW226262   0.641   4.393   6.783
 8455SOL     OW26263   0.935   0.877   2.648
 8455SOL    HW126264   0.886   0.875   2.561
 8455SOL    HW226265   0.890   0.813   2.712
 8456SOL     OW26266   5.067   0.972   2.997
 8456SOL    HW126267   5.029   1.040   2.935
 8456SOL    HW226268   5.072   1.010   3.089
 8457SOL     OW26269   5.948   6.556   4.808
 8457SOL    HW126270   5.868   6.503   4.837
 8457SOL    HW226271   6.031   6.503   4.827
 8458SOL     OW26272   0.125   0.319   6.867
 8458SOL    HW126273   0.038   0.328   6.915
 8458SOL    HW226274   0.189   0.389   6.899
 8459SOL     OW26275   1.638   5.763   3.572
 8459SOL    HW126276   1.636   5.705   3.491
 8459SOL    HW226277   1.668   5.855   3.546
 8460SOL     OW26278   3.436   4.086   4.959
 8460SOL    HW126279   3.383   4.018   4.908
 8460SOL    HW226280   3.475   4.152   4.894
 8461SOL     OW26281   0.172   2.777   4.677
 8461SOL    HW126282   0.080   2.744   4.659
 8461SOL    HW226283   0.239   2.707   4.652
 8462SOL     OW26284   2.669   1.814   1.612
 8462SOL    HW126285   2.619   1.795   1.696
 8462SOL    HW226286   2.761   1.847   1.633
 8463SOL     OW26287   5.983   0.922   2.388
 8463SOL    HW126288   5.950   0.922   2.294
 8463SOL    HW226289   5.989   1.017   2.421
 8464SOL     OW26290   5.884   2.879   4.433
 8464SOL    HW126291   5.811   2.812   4.419
 8464SOL    HW226292   5.849   2.971   4.414
 8465SOL     OW26293   1.657   1.811   0.702
 8465SOL    HW126294   1.714   1.820   0.621
 8465SOL    HW226295   1.701   1.856   0.779
 8466SOL     OW26296   0.893   5.929   3.277
 8466SOL    HW126297   0.941   5.861   3.332
 8466SOL    HW226298   0.842   5.991   3.337
 8467SOL     OW26299   3.039   5.484   0.909
 8467SOL    HW126300   3.073   5.391   0.918
 8467SOL    HW226301   2.989   5.493   0.823
 8468SOL     OW26302   4.451   2.119   6.774
 8468SOL    HW126303   4.545   2.102   6.744
 8468SOL    HW226304   4.439   2.083   6.867
 8469SOL     OW26305   3.285   3.010   6.666
 8469SOL    HW126306   3.337   2.950   6.727
 8469SOL    HW226307   3.318   2.998   6.572
 8470SOL     OW26308   2.856   3.298   6.881
 8470SOL    HW126309   2.802   3.256   6.954
 8470SOL    HW226310   2.849   3.242   6.798
 8471SOL     OW26311   3.241   0.784   3.829
 8471SOL    HW126312   3.190   0.866   3.802
 8471SOL    HW226313   3.206   0.751   3.917
 8472SOL     OW26314   0.581   6.783   4.317
 8472SOL    HW126315   0.534   6.839   4.386
 8472SOL    HW226316   0.677   6.772   4.343
 8473SOL     OW26317   6.468   5.230   6.682
 8473SOL    HW126318   6.563   5.261   6.681
 8473SOL    HW226319   6.407   5.308   6.667
 8474SOL     OW26320   3.274   3.429   1.478
 8474SOL    HW126321   3.329   3.383   1.548
 8474SOL    HW226322   3.205   3.366   1.442
 8475SOL     OW26323   6.122   1.889   2.490
 8475SOL    HW126324   6.164   1.965   2.539
 8475SOL    HW226325   6.142   1.803   2.538
 8476SOL     OW26326   4.745   0.996   1.885
 8476SOL    HW126327   4.765   0.994   1.788
 8476SOL    HW226328   4.791   1.075   1.927
 8477SOL     OW26329   2.742   0.237   1.065
 8477SOL    HW126330   2.644   0.218   1.069
 8477SOL    HW226331   2.792   0.162   1.107
 8478SOL     OW26332   1.209   0.945   5.872
 8478SOL    HW126333   1.208   0.941   5.972
 8478SOL    HW226334   1.210   0.852   5.835
 8479SOL     OW26335   5.906   1.052   0.866
 8479SOL    HW126336   5.939   1.035   0.773
 8479SOL    HW226337   5.820   1.003   0.881
 8480SOL     OW26338   3.450   0.643   1.124
 8480SOL    HW126339   3.522   0.599   1.177
 8480SOL    HW226340   3.395   0.700   1.184
 8481SOL     OW26341   3.559   1.442   4.365
 8481SOL    HW126342   3.475   1.489   4.337
 8481SOL    HW226343   3.636   1.477   4.313
 8482SOL     OW26344   1.413   6.850   2.003
 8482SOL    HW126345   1.469   6.929   1.978
 8482SOL    HW226346   1.345   6.834   1.931
 8483SOL     OW26347   3.664   5.930   1.425
 8483SOL    HW126348   3.606   5.885   1.494
 8483SOL    HW226349   3.672   5.871   1.345
 8484SOL     OW26350   0.480   5.041   4.612
 8484SOL    HW126351   0.496   5.107   4.685
 8484SOL    HW226352   0.563   4.987   4.597
 8485SOL     OW26353   2.118   4.141   6.867
 8485SOL    HW126354   2.063   4.068   6.827
 8485SOL    HW226355   2.068   4.184   6.942
 8486SOL     OW26356   5.643   0.893   2.046
 8486SOL    HW126357   5.595   0.825   2.101
 8486SOL    HW226358   5.584   0.973   2.032
 8487SOL     OW26359   5.430   0.375   1.625
 8487SOL    HW126360   5.337   0.352   1.653
 8487SOL    HW226361   5.448   0.337   1.534
 8488SOL     OW26362   5.128   3.791   4.260
 8488SOL    HW126363   5.048   3.812   4.317
 8488SOL    HW226364   5.105   3.717   4.197
 8489SOL     OW26365   5.184   4.535   1.368
 8489SOL    HW126366   5.239   4.456   1.396
 8489SOL    HW226367   5.106   4.504   1.314
 8490SOL     OW26368   4.301   5.327   3.202
 8490SOL    HW126369   4.289   5.268   3.123
 8490SOL    HW226370   4.387   5.306   3.247
 8491SOL     OW26371   2.279   0.378   2.067
 8491SOL    HW126372   2.186   0.403   2.041
 8491SOL    HW226373   2.333   0.460   2.083
 8492SOL     OW26374   6.505   2.599   5.379
 8492SOL    HW126375   6.410   2.586   5.352
 8492SOL    HW226376   6.510   2.616   5.477
 8493SOL     OW26377   4.422   1.792   6.777
 8493SOL    HW126378   4.419   1.773   6.875
 8493SOL    HW226379   4.392   1.712   6.726
 8494SOL     OW26380   2.812   5.638   6.910
 8494SOL    HW126381   2.885   5.684   6.960
 8494SOL    HW226382   2.822   5.657   6.812
 8495SOL     OW26383   6.829   2.301   0.700
 8495SOL    HW126384   6.734   2.275   0.715
 8495SOL    HW226385   6.862   2.351   0.780
 8496SOL     OW26386   0.063   2.234   3.558
 8496SOL    HW126387   7.011   2.285   3.606
 8496SOL    HW226388   0.149   2.239   3.610
 8497SOL     OW26389   6.383   5.005   3.506
 8497SOL    HW126390   6.426   5.047   3.586
 8497SOL    HW226391   6.394   5.065   3.427
 8498SOL     OW26392   0.123   0.469   1.222
 8498SOL    HW126393   0.163   0.493   1.311
 8498SOL    HW226394   0.188   0.492   1.150
 8499SOL     OW26395   3.021   4.340   6.294
 8499SOL    HW126396   3.042   4.436   6.312
 8499SOL    HW226397   3.077   4.306   6.218
 8500SOL     OW26398   2.435   6.669   6.028
 8500SOL    HW126399   2.527   6.658   5.991
 8500SOL    HW226400   2.416   6.767   6.040
 8501SOL     OW26401   2.054   3.170   6.670
 8501SOL    HW126402   2.089   3.078   6.686
 8501SOL    HW226403   2.030   3.179   6.573
 8502SOL     OW26404   6.546   6.531   2.073
 8502SOL    HW126405   6.527   6.593   1.997
 8502SOL    HW226406   6.512   6.571   2.158
 8503SOL     OW26407   2.723   4.877   3.183
 8503SOL    HW126408   2.695   4.782   3.197
 8503SOL    HW226409   2.732   4.895   3.085
 8504SOL     OW26410   1.524   5.376   3.474
 8504SOL    HW126411   1.433   5.368   3.433
 8504SOL    HW226412   1.536   5.307   3.545
 8505SOL     OW26413   4.948   3.664   3.703
 8505SOL    HW126414   5.007   3.728   3.653
 8505SOL    HW226415   4.908   3.710   3.782
 8506SOL     OW26416   1.592   6.692   0.204
 8506SOL    HW126417   1.510   6.649   0.166
 8506SOL    HW226418   1.657   6.622   0.231
 8507SOL     OW26419   1.951   1.424   6.514
 8507SOL    HW126420   1.867   1.416   6.460
 8507SOL    HW226421   2.012   1.490   6.469
 8508SOL     OW26422   0.126   2.136   5.657
 8508SOL    HW126423   0.080   2.092   5.733
 8508SOL    HW226424   0.176   2.216   5.690
 8509SOL     OW26425   5.869   1.824   4.112
 8509SOL    HW126426   5.863   1.907   4.167
 8509SOL    HW226427   5.797   1.760   4.140
 8510SOL     OW26428   5.832   5.917   2.916
 8510SOL    HW126429   5.812   5.960   2.828
 8510SOL    HW226430   5.897   5.842   2.903
 8511SOL     OW26431   6.763   4.718   1.324
 8511SOL    HW126432   6.729   4.699   1.231
 8511SOL    HW226433   6.739   4.641   1.384
 8512SOL     OW26434   4.430   2.168   0.203
 8512SOL    HW126435   4.396   2.251   0.160
 8512SOL    HW226436   4.428   2.093   0.137
 8513SOL     OW26437   5.918   4.079   0.763
 8513SOL    HW126438   6.010   4.115   0.778
 8513SOL    HW226439   5.856   4.117   0.832
 8514SOL     OW26440   3.055   1.242   4.803
 8514SOL    HW126441   3.147   1.202   4.802
 8514SOL    HW226442   3.008   1.218   4.718
 8515SOL     OW26443   0.829   1.196   0.030
 8515SOL    HW126444   0.816   1.253   0.111
 8515SOL    HW226445   0.747   1.141   0.013
 8516SOL     OW26446   5.972   2.942   2.439
 8516SOL    HW126447   6.031   3.021   2.424
 8516SOL    HW226448   5.892   2.970   2.493
 8517SOL     OW26449   1.604   2.609   5.105
 8517SOL    HW126450   1.569   2.700   5.081
 8517SOL    HW226451   1.598   2.549   5.025
 8518SOL     OW26452   5.092   4.699   6.418
 8518SOL    HW126453   5.136   4.651   6.342
 8518SOL    HW226454   5.157   4.763   6.458
 8519SOL     OW26455   1.591   4.399   0.999
 8519SOL    HW126456   1.666   4.337   1.022
 8519SOL    HW226457   1.585   4.410   0.900
 8520SOL     OW26458   3.859   3.942   4.468
 8520SOL    HW126459   3.809   3.860   4.494
 8520SOL    HW226460   3.805   3.996   4.404
 8521SOL     OW26461   1.434   6.343   5.321
 8521SOL    HW126462   1.355   6.312   5.375
 8521SOL    HW226463   1.422   6.440   5.299
 8522SOL     OW26464   1.049   0.189   0.335
 8522SOL    HW126465   0.984   0.201   0.410
 8522SOL    HW226466   1.139   0.168   0.372
 8523SOL     OW26467   2.580   0.140   6.294
 8523SOL    HW126468   2.625   0.110   6.210
 8523SOL    HW226469   2.485   0.109   6.294
 8524SOL     OW26470   1.283   5.068   4.739
 8524SOL    HW126471   1.275   5.088   4.642
 8524SOL    HW226472   1.215   4.998   4.764
 8525SOL     OW26473   6.809   4.916   1.504
 8525SOL    HW126474   6.796   4.836   1.446
 8525SOL    HW226475   6.857   4.889   1.588
 8526SOL     OW26476   2.258   6.878   0.571
 8526SOL    HW126477   2.330   6.811   0.553
 8526SOL    HW226478   2.275   6.924   0.658
 8527SOL     OW26479   3.633   0.409   6.351
 8527SOL    HW126480   3.582   0.491   6.325
 8527SOL    HW226481   3.667   0.364   6.268
 8528SOL     OW26482   4.744   2.335   0.850
 8528SOL    HW126483   4.832   2.293   0.874
 8528SOL    HW226484   4.755   2.390   0.767
 8529SOL     OW26485   1.446   6.070   0.184
 8529SOL    HW126486   1.528   6.057   0.240
 8529SOL    HW226487   1.420   6.167   0.185
 8530SOL     OW26488   3.135   3.185   4.198
 8530SOL    HW126489   3.088   3.213   4.115
 8530SOL    HW226490   3.076   3.203   4.277
 8531SOL     OW26491   6.716   5.831   3.644
 8531SOL    HW126492   6.717   5.865   3.738
 8531SOL    HW226493   6.707   5.907   3.581
 8532SOL     OW26494   4.031   6.275   4.295
 8532SOL    HW126495   4.009   6.275   4.197
 8532SOL    HW226496   4.044   6.181   4.326
 8533SOL     OW26497   1.141   6.249   6.995
 8533SOL    HW126498   1.196   6.315   6.943
 8533SOL    HW226499   1.122   6.286   0.067
 8534SOL     OW26500   4.374   2.137   3.896
 8534SOL    HW126501   4.410   2.044   3.902
 8534SOL    HW226502   4.324   2.148   3.811
 8535SOL     OW26503   5.563   0.865   3.688
 8535SOL    HW126504   5.636   0.923   3.725
 8535SOL    HW226505   5.489   0.858   3.755
 8536SOL     OW26506   0.315   0.779   4.715
 8536SOL    HW126507   0.389   0.742   4.658
 8536SOL    HW226508   0.327   0.747   4.809
 8537SOL     OW26509   6.500   1.170   3.436
 8537SOL    HW126510   6.491   1.177   3.536
 8537SOL    HW226511   6.442   1.238   3.392
 8538SOL     OW26512   1.189   1.567   0.519
 8538SOL    HW126513   1.269   1.557   0.459
 8538SOL    HW226514   1.219   1.587   0.612
 8539SOL     OW26515   6.168   2.908   2.961
 8539SOL    HW126516   6.110   2.827   2.967
 8539SOL    HW226517   6.112   2.989   2.946
 8540SOL     OW26518   4.325   6.940   6.452
 8540SOL    HW126519   4.424   6.945   6.449
 8540SOL    HW226520   4.292   6.986   6.535
 8541SOL     OW26521   2.275   2.237   3.553
 8541SOL    HW126522   2.195   2.232   3.612
 8541SOL    HW226523   2.356   2.212   3.604
 8542SOL     OW26524   4.198   4.284   6.184
 8542SOL    HW126525   4.116   4.227   6.174
 8542SOL    HW226526   4.181   4.375   6.145
 8543SOL     OW26527   2.075   2.673   0.231
 8543SOL    HW126528   2.014   2.613   0.283
 8543SOL    HW226529   2.163   2.679   0.279
 8544SOL     OW26530   5.494   2.655   3.728
 8544SOL    HW126531   5.527   2.737   3.683
 8544SOL    HW226532   5.479   2.674   3.825
 8545SOL     OW26533   4.904   6.250   5.559
 8545SOL    HW126534   4.963   6.170   5.558
 8545SOL    HW226535   4.842   6.246   5.480
 8546SOL     OW26536   5.102   1.830   3.890
 8546SOL    HW126537   5.092   1.731   3.900
 8546SOL    HW226538   5.138   1.868   3.976
 8547SOL     OW26539   1.206   4.678   4.247
 8547SOL    HW126540   1.154   4.593   4.229
 8547SOL    HW226541   1.263   4.666   4.327
 8548SOL     OW26542   5.466   1.176   5.179
 8548SOL    HW126543   5.492   1.203   5.086
 8548SOL    HW226544   5.534   1.113   5.216
 8549SOL     OW26545   6.479   3.383   4.250
 8549SOL    HW126546   6.465   3.318   4.324
 8549SOL    HW226547   6.551   3.349   4.189
 8550SOL     OW26548   1.728   5.289   6.362
 8550SOL    HW126549   1.814   5.340   6.364
 8550SOL    HW226550   1.735   5.208   6.420
 8551SOL     OW26551   3.791   4.174   6.734
 8551SOL    HW126552   3.788   4.207   6.828
 8551SOL    HW226553   3.869   4.215   6.686
 8552SOL     OW26554   2.984   5.820   3.301
 8552SOL    HW126555   2.929   5.899   3.329
 8552SOL    HW226556   3.033   5.840   3.217
 8553SOL     OW26557   4.937   6.592   0.333
 8553SOL    HW126558   4.878   6.669   0.360
 8553SOL    HW226559   5.006   6.576   0.403
 8554SOL     OW26560   0.072   4.302   6.729
 8554SOL    HW126561   0.104   4.230   6.668
 8554SOL    HW226562   0.039   4.380   6.675
 8555SOL     OW26563   0.554   0.867   4.040
 8555SOL    HW126564   0.621   0.807   4.082
 8555SOL    HW226565   0.541   0.841   3.944
 8556SOL     OW26566   6.582   0.560   3.959
 8556SOL    HW126567   6.549   0.474   4.000
 8556SOL    HW226568   6.598   0.627   4.031
 8557SOL     OW26569   0.070   0.000   1.630
 8557SOL    HW126570   0.164   7.011   1.663
 8557SOL    HW226571   0.009   6.964   1.687
 8558SOL     OW26572   1.903   5.450   2.364
 8558SOL    HW126573   1.841   5.402   2.427
 8558SOL    HW226574   1.904   5.402   2.276
 8559SOL     OW26575   0.919   0.407   1.508
 8559SOL    HW126576   0.847   0.474   1.524
 8559SOL    HW226577   0.908   0.330   1.570
 8560SOL     OW26578   6.392   1.500   0.308
 8560SOL    HW126579   6.417   1.554   0.389
 8560SOL    HW226580   6.317   1.545   0.261
 8561SOL     OW26581   4.888   6.180   3.116
 8561SOL    HW126582   4.883   6.196   3.017
 8561SOL    HW226583   4.857   6.088   3.137
 8562SOL     OW26584   3.561   6.750   4.365
 8562SOL    HW126585   3.660   6.740   4.379
 8562SOL    HW226586   3.524   6.812   4.434
 8563SOL     OW26587   2.752   2.775   6.900
 8563SOL    HW126588   2.714   2.683   6.906
 8563SOL    HW226589   2.831   2.775   6.839
 8564SOL     OW26590   0.649   6.951   3.771
 8564SOL    HW126591   0.640   6.925   3.867
 8564SOL    HW226592   0.733   6.913   3.734
 8565SOL     OW26593   3.906   0.045   0.636
 8565SOL    HW126594   3.922   6.990   0.701
 8565SOL    HW226595   3.993   0.080   0.602
 8566SOL     OW26596   1.235   2.051   2.925
 8566SOL    HW126597   1.321   2.088   2.892
 8566SOL    HW226598   1.159   2.093   2.875
 8567SOL     OW26599   5.388   1.433   0.772
 8567SOL    HW126600   5.296   1.400   0.791
 8567SOL    HW226601   5.387   1.533   0.762
 8568SOL     OW26602   5.653   1.988   0.403
 8568SOL    HW126603   5.672   2.012   0.308
 8568SOL    HW226604   5.723   2.028   0.462
 8569SOL     OW26605   4.641   1.206   4.336
 8569SOL    HW126606   4.567   1.264   4.304
 8569SOL    HW226607   4.675   1.241   4.424
 8570SOL     OW26608   0.374   3.933   6.259
 8570SOL    HW126609   0.316   3.905   6.183
 8570SOL    HW226610   0.362   4.031   6.276
 8571SOL     OW26611   6.537   4.291   4.524
 8571SOL    HW126612   6.487   4.207   4.505
 8571SOL    HW226613   6.635   4.275   4.511
 8572SOL     OW26614   1.851   5.076   5.221
 8572SOL    HW126615   1.836   5.163   5.173
 8572SOL    HW226616   1.918   5.022   5.171
 8573SOL     OW26617   4.414   5.864   5.844
 8573SOL    HW126618   4.333   5.805   5.843
 8573SOL    HW226619   4.467   5.846   5.926
 8574SOL     OW26620   0.028   3.545   5.776
 8574SOL    HW126621   0.117   3.505   5.800
 8574SOL    HW226622   0.042   3.614   5.705
 8575SOL     OW26623   2.841   2.807   0.562
 8575SOL    HW126624   2.838   2.766   0.653
 8575SOL    HW226625   2.781   2.756   0.501
 8576SOL     OW26626   0.774   0.087   1.535
 8576SOL    HW126627   0.776   7.016   1.579
 8576SOL    HW226628   0.770   0.158   1.605
 8577SOL     OW26629   6.258   5.786   3.248
 8577SOL    HW126630   6.263   5.882   3.219
 8577SOL    HW226631   6.206   5.734   3.180
 8578SOL     OW26632   4.664   0.408   3.802
 8578SOL    HW126633   4.658   0.365   3.892
 8578SOL    HW226634   4.663   0.338   3.731
 8579SOL     OW26635   1.199   5.052   3.438
 8579SOL    HW126636   1.137   5.009   3.504
 8579SOL    HW226637   1.294   5.029   3.461
 8580SOL     OW26638   1.733   6.446   1.660
 8580SOL    HW126639   1.811   6.450   1.598
 8580SOL    HW226640   1.732   6.528   1.718
 8581SOL     OW26641   3.196   1.978   1.015
 8581SOL    HW126642   3.186   1.974   1.115
 8581SOL    HW226643   3.170   2.070   0.984
 8582SOL     OW26644   4.476   4.530   2.191
 8582SOL    HW126645   4.498   4.444   2.144
 8582SOL    HW226646   4.379   4.551   2.178
 8583SOL     OW26647   5.979   0.163   5.626
 8583SOL    HW126648   5.997   0.227   5.701
 8583SOL    HW226649   5.883   0.169   5.599
 8584SOL     OW26650   0.174   5.376   0.335
 8584SOL    HW126651   0.219   5.337   0.416
 8584SOL    HW226652   0.104   5.440   0.363
 8585SOL     OW26653   0.379   0.790   0.476
 8585SOL    HW126654   0.318   0.849   0.423
 8585SOL    HW226655   0.456   0.844   0.510
 8586SOL     OW26656   3.759   5.650   2.551
 8586SOL    HW126657   3.743   5.716   2.477
 8586SOL    HW226658   3.796   5.566   2.513
 8587SOL     OW26659   0.147   1.708   2.506
 8587SOL    HW126660   0.177   1.665   2.591
 8587SOL    HW226661   0.226   1.727   2.448
 8588SOL     OW26662   3.999   2.400   0.116
 8588SOL    HW126663   3.944   2.368   0.194
 8588SOL    HW226664   3.969   2.492   0.090
 8589SOL     OW26665   3.544   1.201   4.060
 8589SOL    HW126666   3.544   1.119   4.117
 8589SOL    HW226667   3.488   1.186   3.979
 8590SOL     OW26668   6.233   5.414   5.127
 8590SOL    HW126669   6.283   5.338   5.086
 8590SOL    HW226670   6.296   5.488   5.148
 8591SOL     OW26671   1.062   3.652   6.278
 8591SOL    HW126672   1.096   3.709   6.354
 8591SOL    HW226673   0.969   3.679   6.255
 8592SOL     OW26674   6.749   4.077   0.905
 8592SOL    HW126675   6.744   3.980   0.928
 8592SOL    HW226676   6.719   4.133   0.982
 8593SOL     OW26677   1.765   0.228   2.126
 8593SOL    HW126678   1.689   0.171   2.157
 8593SOL    HW226679   1.790   0.293   2.197
 8594SOL     OW26680   2.934   3.693   4.152
 8594SOL    HW126681   2.903   3.754   4.225
 8594SOL    HW226682   2.977   3.612   4.192
 8595SOL     OW26683   1.862   2.220   2.339
 8595SOL    HW126684   1.836   2.128   2.369
 8595SOL    HW226685   1.915   2.213   2.255
 8596SOL     OW26686   6.048   5.458   1.525
 8596SOL    HW126687   6.027   5.461   1.427
 8596SOL    HW226688   6.003   5.380   1.566
 8597SOL     OW26689   2.830   1.556   0.673
 8597SOL    HW126690   2.832   1.504   0.588
 8597SOL    HW226691   2.856   1.498   0.750
 8598SOL     OW26692   6.440   3.770   1.132
 8598SOL    HW126693   6.421   3.861   1.097
 8598SOL    HW226694   6.440   3.772   1.232
 8599SOL     OW26695   1.384   2.993   3.296
 8599SOL    HW126696   1.306   2.954   3.345
 8599SOL    HW226697   1.443   2.920   3.262
 8600SOL     OW26698   6.351   5.001   6.704
 8600SOL    HW126699   6.266   4.998   6.651
 8600SOL    HW226700   6.389   5.093   6.701
 8601SOL     OW26701   0.344   6.935   4.085
 8601SOL    HW126702   0.439   6.904   4.095
 8601SOL    HW226703   0.342   7.018   4.028
 8602SOL     OW26704   2.472   5.845   2.094
 8602SOL    HW126705   2.571   5.855   2.105
 8602SOL    HW226706   2.427   5.932   2.112
 8603SOL     OW26707   4.105   3.040   0.510
 8603SOL    HW126708   4.033   3.104   0.534
 8603SOL    HW226709   4.189   3.090   0.489
 8604SOL     OW26710   5.571   3.136   3.791
 8604SOL    HW126711   5.661   3.095   3.775
 8604SOL    HW226712   5.528   3.158   3.703
 8605SOL     OW26713   2.161   5.934   3.492
 8605SOL    HW126714   2.164   6.033   3.480
 8605SOL    HW226715   2.169   5.889   3.403
 8606SOL     OW26716   3.986   4.718   5.897
 8606SOL    HW126717   3.955   4.677   5.812
 8606SOL    HW226718   3.907   4.734   5.957
 8607SOL     OW26719   4.519   5.490   2.171
 8607SOL    HW126720   4.505   5.488   2.270
 8607SOL    HW226721   4.573   5.570   2.146
 8608SOL     OW26722   4.174   5.397   2.847
 8608SOL    HW126723   4.254   5.453   2.868
 8608SOL    HW226724   4.202   5.305   2.821
 8609SOL     OW26725   3.467   0.466   5.307
 8609SOL    HW126726   3.512   0.555   5.320
 8609SOL    HW226727   3.478   0.437   5.212
 8610SOL     OW26728   1.213   6.465   3.414
 8610SOL    HW126729   1.206   6.497   3.508
 8610SOL    HW226730   1.309   6.466   3.385
 8611SOL     OW26731   1.842   1.906   4.783
 8611SOL    HW126732   1.865   1.981   4.846
 8611SOL    HW226733   1.865   1.819   4.827
 8612SOL     OW26734   4.146   2.964   6.437
 8612SOL    HW126735   4.132   2.886   6.499
 8612SOL    HW226736   4.162   2.930   6.344
 8613SOL     OW26737   2.020   2.022   1.063
 8613SOL    HW126738   2.093   1.953   1.060
 8613SOL    HW226739   1.995   2.040   1.158
 8614SOL     OW26740   0.993   2.705   3.213
 8614SOL    HW126741   1.035   2.796   3.212
 8614SOL    HW226742   1.059   2.638   3.247
 8615SOL     OW26743   4.242   1.855   5.745
 8615SOL    HW126744   4.170   1.799   5.705
 8615SOL    HW226745   4.329   1.806   5.738
 8616SOL     OW26746   0.767   4.395   0.340
 8616SOL    HW126747   0.799   4.487   0.318
 8616SOL    HW226748   0.708   4.397   0.420
 8617SOL     OW26749   5.978   2.782   1.025
 8617SOL    HW126750   5.949   2.874   1.053
 8617SOL    HW226751   5.930   2.714   1.081
 8618SOL     OW26752   4.509   6.966   3.279
 8618SOL    HW126753   4.583   6.946   3.343
 8618SOL    HW226754   4.441   0.004   3.324
 8619SOL     OW26755   4.657   5.130   6.927
 8619SOL    HW126756   4.680   5.117   6.831
 8619SOL    HW226757   4.633   5.225   6.943
 8620SOL     OW26758   5.808   6.317   2.118
 8620SOL    HW126759   5.836   6.237   2.064
 8620SOL    HW226760   5.844   6.308   2.211
 8621SOL     OW26761   5.767   1.560   3.593
 8621SOL    HW126762   5.784   1.621   3.670
 8621SOL    HW226763   5.854   1.526   3.557
 8622SOL     OW26764   4.627   5.137   0.642
 8622SOL    HW126765   4.711   5.192   0.640
 8622SOL    HW226766   4.566   5.167   0.568
 8623SOL     OW26767   1.121   3.695   3.043
 8623SOL    HW126768   1.051   3.647   3.095
 8623SOL    HW226769   1.138   3.647   2.957
 8624SOL     OW26770   0.803   4.050   3.008
 8624SOL    HW126771   0.725   4.041   3.070
 8624SOL    HW226772   0.816   3.964   2.959
 8625SOL     OW26773   4.008   1.049   4.467
 8625SOL    HW126774   4.091   1.034   4.414
 8625SOL    HW226775   4.031   1.102   4.549
 8626SOL     OW26776   3.195   3.482   4.201
 8626SOL    HW126777   3.221   3.461   4.106
 8626SOL    HW226778   3.154   3.400   4.242
 8627SOL     OW26779   0.941   1.028   1.040
 8627SOL    HW126780   0.893   1.116   1.040
 8627SOL    HW226781   1.003   1.025   1.119
 8628SOL     OW26782   5.537   0.904   6.735
 8628SOL    HW126783   5.500   0.890   6.827
 8628SOL    HW226784   5.462   0.928   6.673
 8629SOL     OW26785   1.336   4.579   4.014
 8629SOL    HW126786   1.313   4.676   4.028
 8629SOL    HW226787   1.310   4.526   4.094
 8630SOL     OW26788   5.783   4.043   3.843
 8630SOL    HW126789   5.693   4.004   3.865
 8630SOL    HW226790   5.789   4.136   3.879
 8631SOL     OW26791   3.750   6.209   4.873
 8631SOL    HW126792   3.736   6.176   4.780
 8631SOL    HW226793   3.748   6.131   4.936
 8632SOL     OW26794   3.564   0.197   3.307
 8632SOL    HW126795   3.603   0.220   3.396
 8632SOL    HW226796   3.465   0.206   3.310
 8633SOL     OW26797   5.377   1.089   4.077
 8633SOL    HW126798   5.395   1.038   4.161
 8633SOL    HW226799   5.288   1.135   4.085
 8634SOL     OW26800   6.730   4.614   1.942
 8634SOL    HW126801   6.802   4.649   2.002
 8634SOL    HW226802   6.747   4.517   1.923
 8635SOL     OW26803   5.974   3.501   5.883
 8635SOL    HW126804   6.030   3.580   5.906
 8635SOL    HW226805   5.946   3.506   5.787
 8636SOL     OW26806   6.802   6.167   0.544
 8636SOL    HW126807   6.814   6.262   0.572
 8636SOL    HW226808   6.708   6.138   0.564
 8637SOL     OW26809   1.861   0.775   0.850
 8637SOL    HW126810   1.920   0.807   0.923
 8637SOL    HW226811   1.916   0.752   0.770
 8638SOL     OW26812   2.819   4.534   0.423
 8638SOL    HW126813   2.914   4.506   0.412
 8638SOL    HW226814   2.814   4.633   0.437
 8639SOL     OW26815   5.846   3.670   1.789
 8639SOL    HW126816   5.944   3.687   1.782
 8639SOL    HW226817   5.807   3.724   1.864
 8640SOL     OW26818   5.189   4.753   0.631
 8640SOL    HW126819   5.177   4.738   0.729
 8640SOL    HW226820   5.102   4.781   0.591
 8641SOL     OW26821   6.918   4.076   3.218
 8641SOL    HW126822   6.895   4.154   3.276
 8641SOL    HW226823   6.883   4.092   3.126
 8642SOL     OW26824   4.455   1.095   1.640
 8642SOL    HW126825   4.498   1.179   1.673
 8642SOL    HW226826   4.408   1.049   1.715
 8643SOL     OW26827   4.295   0.585   6.604
 8643SOL    HW126828   4.371   0.520   6.603
 8643SOL    HW226829   4.211   0.537   6.629
 8644SOL     OW26830   5.631   2.163   4.694
 8644SOL    HW126831   5.703   2.214   4.741
 8644SOL    HW226832   5.653   2.156   4.597
 8645SOL     OW26833   6.550   4.040   1.467
 8645SOL    HW126834   6.640   4.074   1.440
 8645SOL    HW226835   6.511   3.985   1.393
 8646SOL     OW26836   5.094   0.909   0.081
 8646SOL    HW126837   5.074   0.903   7.002
 8646SOL    HW226838   5.030   0.852   0.131
 8647SOL     OW26839   3.878   4.692   0.148
 8647SOL    HW126840   3.844   4.757   0.216
 8647SOL    HW226841   3.849   4.720   0.057
 8648SOL     OW26842   5.614   0.836   4.634
 8648SOL    HW126843   5.625   0.739   4.614
 8648SOL    HW226844   5.586   0.884   4.551
 8649SOL     OW26845   6.042   3.823   5.457
 8649SOL    HW126846   5.960   3.789   5.412
 8649SOL    HW226847   6.107   3.856   5.388
 8650SOL     OW26848   2.285   5.289   3.990
 8650SOL    HW126849   2.239   5.203   3.971
 8650SOL    HW226850   2.362   5.300   3.927
 8651SOL     OW26851   3.837   1.656   0.147
 8651SOL    HW126852   3.829   1.588   0.219
 8651SOL    HW226853   3.758   1.651   0.086
 8652SOL     OW26854   2.163   3.638   3.567
 8652SOL    HW126855   2.213   3.657   3.483
 8652SOL    HW226856   2.124   3.723   3.603
 8653SOL     OW26857   0.461   2.860   6.787
 8653SOL    HW126858   0.525   2.793   6.823
 8653SOL    HW226859   0.375   2.816   6.763
 8654SOL     OW26860   0.285   6.761   3.011
 8654SOL    HW126861   0.352   6.732   3.079
 8654SOL    HW226862   0.197   6.779   3.055
 8655SOL     OW26863   5.829   6.382   4.588
 8655SOL    HW126864   5.764   6.326   4.640
 8655SOL    HW226865   5.789   6.472   4.571
 8656SOL     OW26866   6.548   0.773   1.321
 8656SOL    HW126867   6.478   0.708   1.350
 8656SOL    HW226868   6.625   0.771   1.385
 8657SOL     OW26869   4.826   4.783   6.374
 8657SOL    HW126870   4.914   4.739   6.357
 8657SOL    HW226871   4.753   4.716   6.361
 8658SOL     OW26872   5.731   5.024   0.456
 8658SOL    HW126873   5.688   4.984   0.538
 8658SOL    HW226874   5.662   5.041   0.387
 8659SOL     OW26875   4.696   0.538   3.264
 8659SOL    HW126876   4.769   0.509   3.325
 8659SOL    HW226877   4.709   0.633   3.239
 8660SOL     OW26878   5.605   3.448   0.506
 8660SOL    HW126879   5.645   3.493   0.426
 8660SOL    HW226880   5.647   3.485   0.590
 8661SOL     OW26881   6.614   4.231   1.713
 8661SOL    HW126882   6.588   4.145   1.758
 8661SOL    HW226883   6.552   4.249   1.637
 8662SOL     OW26884   6.433   6.235   1.311
 8662SOL    HW126885   6.389   6.276   1.391
 8662SOL    HW226886   6.383   6.263   1.228
 8663SOL     OW26887   2.269   5.541   0.927
 8663SOL    HW126888   2.194   5.478   0.944
 8663SOL    HW226889   2.335   5.499   0.865
 8664SOL     OW26890   4.176   5.963   6.922
 8664SOL    HW126891   4.196   6.060   6.907
 8664SOL    HW226892   4.198   5.939   7.016
 8665SOL     OW26893   4.285   5.501   5.055
 8665SOL    HW126894   4.187   5.518   5.050
 8665SOL    HW226895   4.327   5.521   4.966
 8666SOL     OW26896   4.949   2.862   5.480
 8666SOL    HW126897   4.895   2.782   5.453
 8666SOL    HW226898   4.896   2.918   5.543
 8667SOL     OW26899   5.096   1.664   3.423
 8667SOL    HW126900   5.022   1.731   3.414
 8667SOL    HW226901   5.164   1.698   3.488
 8668SOL     OW26902   4.980   2.158   4.098
 8668SOL    HW126903   5.065   2.209   4.083
 8668SOL    HW226904   4.953   2.113   4.013
 8669SOL     OW26905   4.378   0.846   5.897
 8669SOL    HW126906   4.367   0.756   5.938
 8669SOL    HW226907   4.391   0.837   5.798
 8670SOL     OW26908   3.714   5.365   4.244
 8670SOL    HW126909   3.791   5.350   4.306
 8670SOL    HW226910   3.629   5.345   4.292
 8671SOL     OW26911   6.379   6.771   3.618
 8671SOL    HW126912   6.358   6.760   3.521
 8671SOL    HW226913   6.296   6.764   3.672
 8672SOL     OW26914   3.458   4.887   4.487
 8672SOL    HW126915   3.462   4.787   4.482
 8672SOL    HW226916   3.520   4.919   4.559
 8673SOL     OW26917   6.916   1.516   0.738
 8673SOL    HW126918   6.984   1.493   0.668
 8673SOL    HW226919   6.826   1.524   0.695
 8674SOL     OW26920   6.923   0.521   2.640
 8674SOL    HW126921   6.957   0.615   2.632
 8674SOL    HW226922   6.830   0.517   2.602
 8675SOL     OW26923   2.477   1.276   3.750
 8675SOL    HW126924   2.536   1.258   3.671
 8675SOL    HW226925   2.413   1.200   3.762
 8676SOL     OW26926   4.037   0.355   2.794
 8676SOL    HW126927   4.116   0.330   2.739
 8676SOL    HW226928   4.050   0.321   2.888
 8677SOL     OW26929   2.788   3.994   6.330
 8677SOL    HW126930   2.758   3.939   6.252
 8677SOL    HW226931   2.790   4.090   6.304
 8678SOL     OW26932   1.363   0.426   6.422
 8678SOL    HW126933   1.271   0.464   6.430
 8678SOL    HW226934   1.357   0.326   6.412
 8679SOL     OW26935   6.303   1.823   5.192
 8679SOL    HW126936   6.323   1.783   5.102
 8679SOL    HW226937   6.374   1.889   5.215
 8680SOL     OW26938   1.745   3.588   0.196
 8680SOL    HW126939   1.824   3.643   0.224
 8680SOL    HW226940   1.733   3.594   0.097
 8681SOL     OW26941   4.181   4.300   0.561
 8681SOL    HW126942   4.119   4.368   0.522
 8681SOL    HW226943   4.274   4.318   0.531
 8682SOL     OW26944   2.561   6.435   2.692
 8682SOL    HW126945   2.532   6.519   2.738
 8682SOL    HW226946   2.481   6.391   2.650
 8683SOL     OW26947   0.815   2.995   1.129
 8683SOL    HW126948   0.866   3.034   1.206
 8683SOL    HW226949   0.880   2.955   1.064
 8684SOL     OW26950   6.094   2.687   5.365
 8684SOL    HW126951   6.128   2.600   5.400
 8684SOL    HW226952   6.038   2.671   5.283
 8685SOL     OW26953   0.926   1.824   7.017
 8685SOL    HW126954   0.994   1.793   6.950
 8685SOL    HW226955   0.838   1.838   6.970
 8686SOL     OW26956   6.905   1.986   2.711
 8686SOL    HW126957   6.890   1.994   2.613
 8686SOL    HW226958   6.991   1.937   2.728
 8687SOL     OW26959   3.573   6.751   2.112
 8687SOL    HW126960   3.645   6.817   2.089
 8687SOL    HW226961   3.592   6.664   2.067
 8688SOL     OW26962   3.175   6.973   1.255
 8688SOL    HW126963   3.210   6.879   1.256
 8688SOL    HW226964   3.197   7.015   1.168
 8689SOL     OW26965   4.288   5.509   0.133
 8689SOL    HW126966   4.328   5.599   0.145
 8689SOL    HW226967   4.360   5.441   0.122
 8690SOL     OW26968   0.944   1.773   3.418
 8690SOL    HW126969   1.002   1.851   3.441
 8690SOL    HW226970   0.985   1.722   3.342
 8691SOL     OW26971   4.705   2.478   6.443
 8691SOL    HW126972   4.642   2.402   6.428
 8691SOL    HW226973   4.675   2.557   6.391
 8692SOL     OW26974   2.629   2.083   3.228
 8692SOL    HW126975   2.718   2.117   3.259
 8692SOL    HW226976   2.635   1.984   3.213
 8693SOL     OW26977   5.668   2.034   0.803
 8693SOL    HW126978   5.679   1.948   0.754
 8693SOL    HW226979   5.758   2.068   0.830
 8694SOL     OW26980   4.807   0.041   6.739
 8694SOL    HW126981   4.798   0.141   6.747
 8694SOL    HW226982   4.829   0.002   6.828
 8695SOL     OW26983   5.107   3.128   5.492
 8695SOL    HW126984   5.008   3.130   5.505
 8695SOL    HW226985   5.127   3.097   5.399
 8696SOL     OW26986   3.071   5.709   1.037
 8696SOL    HW126987   3.082   5.771   0.960
 8696SOL    HW226988   3.051   5.617   1.004
 8697SOL     OW26989   6.766   3.311   1.040
 8697SOL    HW126990   6.701   3.352   0.976
 8697SOL    HW226991   6.846   3.370   1.047
 8698SOL     OW26992   5.570   5.899   4.447
 8698SOL    HW126993   5.478   5.936   4.440
 8698SOL    HW226994   5.574   5.832   4.521
 8699SOL     OW26995   0.877   1.467   5.510
 8699SOL    HW126996   0.934   1.522   5.447
 8699SOL    HW226997   0.781   1.477   5.485
 8700SOL     OW26998   2.217   0.671   4.856
 8700SOL    HW126999   2.143   0.664   4.924
 8700SOL    HW227000   2.234   0.768   4.836
 8701SOL     OW27001   0.839   0.912   5.284
 8701SOL    HW127002   0.785   0.834   5.314
 8701SOL    HW227003   0.918   0.923   5.345
 8702SOL     OW27004   5.633   4.949   0.791
 8702SOL    HW127005   5.687   5.003   0.856
 8702SOL    HW227006   5.644   4.851   0.811
 8703SOL     OW27007   3.238   5.569   1.280
 8703SOL    HW127008   3.208   5.634   1.210
 8703SOL    HW227009   3.178   5.489   1.279
 8704SOL     OW27010   6.829   4.672   2.387
 8704SOL    HW127011   6.745   4.619   2.398
 8704SOL    HW227012   6.841   4.732   2.466
 8705SOL     OW27013   4.962   0.360   6.110
 8705SOL    HW127014   4.864   0.375   6.121
 8705SOL    HW227015   4.983   0.346   6.013
 8706SOL     OW27016   4.858   2.105   6.858
 8706SOL    HW127017   4.802   2.093   6.776
 8706SOL    HW227018   4.938   2.160   6.836
 8707SOL     OW27019   4.526   3.141   0.086
 8707SOL    HW127020   4.502   3.045   0.103
 8707SOL    HW227021   4.598   3.168   0.149
 8708SOL     OW27022   3.503   1.156   1.512
 8708SOL    HW127023   3.522   1.112   1.600
 8708SOL    HW227024   3.441   1.233   1.526
 8709SOL     OW27025   6.949   4.730   0.127
 8709SOL    HW127026   6.906   4.770   0.046
 8709SOL    HW227027   0.024   4.705   0.105
 8710SOL     OW27028   1.526   3.357   2.847
 8710SOL    HW127029   1.536   3.421   2.771
 8710SOL    HW227030   1.503   3.266   2.812
 8711SOL     OW27031   6.248   0.707   2.884
 8711SOL    HW127032   6.316   0.696   2.811
 8711SOL    HW227033   6.239   0.804   2.906
 8712SOL     OW27034   3.345   1.594   4.635
 8712SOL    HW127035   3.323   1.513   4.581
 8712SOL    HW227036   3.436   1.584   4.676
 8713SOL     OW27037   6.850   4.380   3.784
 8713SOL    HW127038   6.764   4.413   3.824
 8713SOL    HW227039   6.830   4.337   3.696
 8714SOL     OW27040   1.478   1.095   6.208
 8714SOL    HW127041   1.578   1.089   6.206
 8714SOL    HW227042   1.449   1.175   6.155
 8715SOL     OW27043   6.397   0.831   1.673
 8715SOL    HW127044   6.485   0.838   1.626
 8715SOL    HW227045   6.343   0.913   1.653
 8716SOL     OW27046   0.638   1.714   1.535
 8716SOL    HW127047   0.634   1.614   1.544
 8716SOL    HW227048   0.733   1.742   1.518
 8717SOL     OW27049   4.083   3.655   2.103
 8717SOL    HW127050   4.173   3.687   2.074
 8717SOL    HW227051   4.073   3.669   2.202
 8718SOL     OW27052   6.947   2.400   4.788
 8718SOL    HW127053   6.910   2.442   4.872
 8718SOL    HW227054   6.891   2.322   4.763
 8719SOL     OW27055   1.496   0.615   5.452
 8719SOL    HW127056   1.497   0.622   5.552
 8719SOL    HW227057   1.568   0.674   5.414
 8720SOL     OW27058   5.738   5.094   5.106
 8720SOL    HW127059   5.701   5.120   5.195
 8720SOL    HW227060   5.815   5.032   5.119
 8721SOL     OW27061   6.555   1.779   4.484
 8721SOL    HW127062   6.512   1.710   4.426
 8721SOL    HW227063   6.654   1.776   4.471
 8722SOL     OW27064   3.547   2.172   0.570
 8722SOL    HW127065   3.516   2.156   0.477
 8722SOL    HW227066   3.619   2.107   0.593
 8723SOL     OW27067   6.428   5.597   0.545
 8723SOL    HW127068   6.508   5.623   0.492
 8723SOL    HW227069   6.345   5.633   0.502
 8724SOL     OW27070   5.601   0.249   6.017
 8724SOL    HW127071   5.561   0.247   6.109
 8724SOL    HW227072   5.678   0.185   6.013
 8725SOL     OW27073   1.940   0.120   0.111
 8725SOL    HW127074   1.912   0.143   0.204
 8725SOL    HW227075   1.861   0.091   0.058
 8726SOL     OW27076   5.964   6.929   1.532
 8726SOL    HW127077   5.947   0.006   1.511
 8726SOL    HW227078   6.054   6.903   1.497
 8727SOL     OW27079   6.692   6.172   1.802
 8727SOL    HW127080   6.725   6.215   1.886
 8727SOL    HW227081   6.636   6.237   1.751
 8728SOL     OW27082   2.903   6.778   5.176
 8728SOL    HW127083   2.940   6.690   5.146
 8728SOL    HW227084   2.978   6.834   5.212
 8729SOL     OW27085   4.101   5.662   3.456
 8729SOL    HW127086   4.080   5.578   3.405
 8729SOL    HW227087   4.035   5.733   3.432
 8730SOL     OW27088   0.263   5.926   2.352
 8730SOL    HW127089   0.296   5.833   2.340
 8730SOL    HW227090   0.306   5.986   2.284
 8731SOL     OW27091   1.150   2.152   3.635
 8731SOL    HW127092   1.162   2.065   3.587
 8731SOL    HW227093   1.073   2.144   3.699
 8732SOL     OW27094   5.398   4.087   1.699
 8732SOL    HW127095   5.342   4.014   1.659
 8732SOL    HW227096   5.373   4.099   1.795
 8733SOL     OW27097   0.881   6.455   2.062
 8733SOL    HW127098   0.882   6.427   2.158
 8733SOL    HW227099   0.968   6.501   2.040
 8734SOL     OW27100   0.610   5.428   1.564
 8734SOL    HW127101   0.610   5.494   1.640
 8734SOL    HW227102   0.701   5.424   1.524
 8735SOL     OW27103   0.552   1.910   0.421
 8735SOL    HW127104   0.592   1.901   0.330
 8735SOL    HW227105   0.499   1.995   0.426
 8736SOL     OW27106   0.776   5.388   6.759
 8736SOL    HW127107   0.765   5.409   6.662
 8736SOL    HW227108   0.765   5.471   6.813
 8737SOL     OW27109   3.310   6.177   5.943
 8737SOL    HW127110   3.344   6.085   5.962
 8737SOL    HW227111   3.215   6.184   5.974
 8738SOL     OW27112   1.298   3.946   3.937
 8738SOL    HW127113   1.349   3.949   4.023
 8738SOL    HW227114   1.345   3.885   3.872
 8739SOL     OW27115   6.818   3.397   5.653
 8739SOL    HW127116   6.756   3.385   5.730
 8739SOL    HW227117   6.901   3.444   5.684
 8740SOL     OW27118   2.782   0.328   6.337
 8740SOL    HW127119   2.739   0.238   6.332
 8740SOL    HW227120   2.728   0.388   6.396
 8741SOL     OW27121   1.293   2.716   2.359
 8741SOL    HW127122   1.270   2.636   2.305
 8741SOL    HW227123   1.216   2.780   2.357
 8742SOL     OW27124   5.002   6.979   1.691
 8742SOL    HW127125   5.032   6.885   1.710
 8742SOL    HW227126   5.071   0.024   1.724
 8743SOL     OW27127   1.854   5.851   1.880
 8743SOL    HW127128   1.877   5.948   1.885
 8743SOL    HW227129   1.886   5.805   1.962
 8744SOL     OW27130   4.514   2.933   6.566
 8744SOL    HW127131   4.500   2.839   6.535
 8744SOL    HW227132   4.517   2.935   6.666
 8745SOL     OW27133   5.979   2.105   5.312
 8745SOL    HW127134   5.922   2.061   5.243
 8745SOL    HW227135   6.032   2.035   5.361
 8746SOL     OW27136   5.126   5.007   5.477
 8746SOL    HW127137   5.137   4.978   5.572
 8746SOL    HW227138   5.037   5.051   5.465
 8747SOL     OW27139   1.199   2.783   4.067
 8747SOL    HW127140   1.126   2.801   4.133
 8747SOL    HW227141   1.168   2.715   4.000
 8748SOL     OW27142   1.286   0.717   6.437
 8748SOL    HW127143   1.280   0.806   6.393
 8748SOL    HW227144   1.296   0.645   6.368
 8749SOL     OW27145   3.693   0.978   3.749
 8749SOL    HW127146   3.782   0.953   3.789
 8749SOL    HW227147   3.675   0.921   3.669
 8750SOL     OW27148   1.901   2.167   5.125
 8750SOL    HW127149   1.827   2.232   5.106
 8750SOL    HW227150   1.942   2.137   5.040
 8751SOL     OW27151   0.931   6.964   2.130
 8751SOL    HW127152   0.906   0.017   2.065
 8751SOL    HW227153   0.885   6.980   2.217
 8752SOL     OW27154   2.365   3.325   6.547
 8752SOL    HW127155   2.332   3.418   6.530
 8752SOL    HW227156   2.389   3.282   6.460
 8753SOL     OW27157   5.357   1.400   4.929
 8753SOL    HW127158   5.435   1.337   4.922
 8753SOL    HW227159   5.391   1.494   4.926
 8754SOL     OW27160   0.705   1.564   6.161
 8754SOL    HW127161   0.625   1.562   6.222
 8754SOL    HW227162   0.673   1.562   6.066
 8755SOL     OW27163   2.529   0.833   0.645
 8755SOL    HW127164   2.565   0.887   0.569
 8755SOL    HW227165   2.499   0.744   0.611
 8756SOL     OW27166   2.337   2.784   3.976
 8756SOL    HW127167   2.409   2.732   4.023
 8756SOL    HW227168   2.248   2.745   3.998
 8757SOL     OW27169   4.294   6.530   4.929
 8757SOL    HW127170   4.392   6.525   4.908
 8757SOL    HW227171   4.266   6.626   4.930
 8758SOL     OW27172   5.822   6.485   1.746
 8758SOL    HW127173   5.826   6.393   1.706
 8758SOL    HW227174   5.836   6.553   1.675
 8759SOL     OW27175   4.827   0.715   5.887
 8759SOL    HW127176   4.762   0.788   5.863
 8759SOL    HW227177   4.901   0.753   5.941
 8760SOL     OW27178   1.716   1.768   4.563
 8760SOL    HW127179   1.759   1.678   4.556
 8760SOL    HW227180   1.741   1.810   4.650
 8761SOL     OW27181   5.229   0.419   6.913
 8761SOL    HW127182   5.257   0.501   6.863
 8761SOL    HW227183   5.219   0.343   6.850
 8762SOL     OW27184   1.293   3.510   1.170
 8762SOL    HW127185   1.214   3.547   1.121
 8762SOL    HW227186   1.285   3.410   1.175
 8763SOL     OW27187   0.060   6.089   5.907
 8763SOL    HW127188   0.080   6.012   5.967
 8763SOL    HW227189   0.008   6.057   5.828
 8764SOL     OW27190   4.990   1.460   4.250
 8764SOL    HW127191   5.050   1.384   4.273
 8764SOL    HW227192   4.905   1.425   4.211
 8765SOL     OW27193   5.382   6.664   4.772
 8765SOL    HW127194   5.405   6.760   4.791
 8765SOL    HW227195   5.386   6.612   4.857
 8766SOL     OW27196   2.372   4.906   2.763
 8766SOL    HW127197   2.461   4.952   2.765
 8766SOL    HW227198   2.357   4.859   2.850
 8767SOL     OW27199   4.699   1.267   3.075
 8767SOL    HW127200   4.600   1.282   3.078
 8767SOL    HW227201   4.719   1.184   3.023
 8768SOL     OW27202   1.814   3.327   0.280
 8768SOL    HW127203   1.790   3.417   0.244
 8768SOL    HW227204   1.910   3.327   0.308
 8769SOL     OW27205   1.041   6.950   5.785
 8769SOL    HW127206   1.106   0.004   5.808
 8769SOL    HW227207   1.080   6.862   5.813
 8770SOL     OW27208   5.053   4.067   1.315
 8770SOL    HW127209   5.144   4.094   1.282
 8770SOL    HW227210   5.042   3.968   1.305
 8771SOL     OW27211   1.870   1.332   6.864
 8771SOL    HW127212   1.953   1.277   6.853
 8771SOL    HW227213   1.877   1.415   6.808
 8772SOL     OW27214   6.004   1.434   6.435
 8772SOL    HW127215   6.090   1.481   6.449
 8772SOL    HW227216   6.020   1.348   6.386
 8773SOL     OW27217   3.281   2.082   3.008
 8773SOL    HW127218   3.281   2.076   2.908
 8773SOL    HW227219   3.195   2.122   3.039
 8774SOL     OW27220   1.157   1.676   0.802
 8774SOL    HW127221   1.152   1.641   0.896
 8774SOL    HW227222   1.065   1.683   0.764
 8775SOL     OW27223   6.037   6.747   3.407
 8775SOL    HW127224   5.980   6.774   3.485
 8775SOL    HW227225   5.981   6.743   3.324
 8776SOL     OW27226   3.242   2.956   4.879
 8776SOL    HW127227   3.299   3.032   4.911
 8776SOL    HW227228   3.193   2.916   4.957
 8777SOL     OW27229   6.194   5.536   1.934
 8777SOL    HW127230   6.162   5.441   1.938
 8777SOL    HW227231   6.202   5.565   1.839
 8778SOL     OW27232   6.963   1.973   3.613
 8778SOL    HW127233   6.943   1.909   3.538
 8778SOL    HW227234   0.016   2.036   3.584
 8779SOL     OW27235   1.788   4.451   1.472
 8779SOL    HW127236   1.756   4.470   1.565
 8779SOL    HW227237   1.712   4.461   1.408
 8780SOL     OW27238   0.711   5.440   4.267
 8780SOL    HW127239   0.694   5.525   4.217
 8780SOL    HW227240   0.807   5.437   4.296
 8781SOL     OW27241   0.572   1.816   3.120
 8781SOL    HW127242   0.619   1.794   3.206
 8781SOL    HW227243   0.490   1.760   3.112
 8782SOL     OW27244   4.557   1.416   2.448
 8782SOL    HW127245   4.491   1.446   2.378
 8782SOL    HW227246   4.525   1.446   2.538
 8783SOL     OW27247   5.777   3.773   4.356
 8783SOL    HW127248   5.775   3.708   4.280
 8783SOL    HW227249   5.711   3.846   4.339
 8784SOL     OW27250   5.727   5.692   5.571
 8784SOL    HW127251   5.767   5.662   5.484
 8784SOL    HW227252   5.629   5.703   5.561
 8785SOL     OW27253   5.353   4.196   6.755
 8785SOL    HW127254   5.427   4.151   6.705
 8785SOL    HW227255   5.391   4.272   6.808
 8786SOL     OW27256   1.599   6.468   6.981
 8786SOL    HW127257   1.599   6.545   6.917
 8786SOL    HW227258   1.655   6.394   6.944
 8787SOL     OW27259   1.916   3.482   1.415
 8787SOL    HW127260   1.898   3.576   1.443
 8787SOL    HW227261   1.951   3.430   1.493
 8788SOL     OW27262   6.663   1.802   5.293
 8788SOL    HW127263   6.636   1.888   5.335
 8788SOL    HW227264   6.662   1.811   5.193
 8789SOL     OW27265   6.412   0.099   6.727
 8789SOL    HW127266   6.392   0.015   6.677
 8789SOL    HW227267   6.398   0.178   6.667
 8790SOL     OW27268   6.335   1.746   6.636
 8790SOL    HW127269   6.432   1.722   6.628
 8790SOL    HW227270   6.312   1.758   6.733
 8791SOL     OW27271   4.633   6.725   5.744
 8791SOL    HW127272   4.615   6.667   5.823
 8791SOL    HW227273   4.731   6.725   5.724
 8792SOL     OW27274   4.240   6.790   3.064
 8792SOL    HW127275   4.219   6.778   3.161
 8792SOL    HW227276   4.175   6.854   3.023
 8793SOL     OW27277   1.937   5.850   3.653
 8793SOL    HW127278   2.010   5.883   3.594
 8793SOL    HW227279   1.884   5.927   3.688
 8794SOL     OW27280   1.797   6.737   2.778
 8794SOL    HW127281   1.786   6.638   2.777
 8794SOL    HW227282   1.781   6.772   2.870
 8795SOL     OW27283   1.916   6.666   5.738
 8795SOL    HW127284   1.834   6.608   5.729
 8795SOL    HW227285   1.995   6.608   5.757
 8796SOL     OW27286   4.706   2.223   5.408
 8796SOL    HW127287   4.647   2.174   5.472
 8796SOL    HW227288   4.657   2.236   5.321
 8797SOL     OW27289   0.574   6.309   6.274
 8797SOL    HW127290   0.509   6.385   6.279
 8797SOL    HW227291   0.525   6.224   6.256
 8798SOL     OW27292   5.605   3.645   5.210
 8798SOL    HW127293   5.518   3.608   5.177
 8798SOL    HW227294   5.589   3.728   5.262
 8799SOL     OW27295   3.089   4.924   2.844
 8799SOL    HW127296   3.119   5.013   2.877
 8799SOL    HW227297   3.124   4.910   2.751
 8800SOL     OW27298   4.443   4.860   6.180
 8800SOL    HW127299   4.368   4.839   6.118
 8800SOL    HW227300   4.505   4.926   6.137
 8801SOL     OW27301   2.747   1.286   4.269
 8801SOL    HW127302   2.837   1.324   4.251
 8801SOL    HW227303   2.680   1.360   4.275
 8802SOL     OW27304   1.849   6.166   2.258
 8802SOL    HW127305   1.794   6.201   2.182
 8802SOL    HW227306   1.890   6.079   2.232
 8803SOL     OW27307   2.568   5.745   6.971
 8803SOL    HW127308   2.658   5.715   6.940
 8803SOL    HW227309   2.554   5.715   0.047
 8804SOL     OW27310   3.943   0.456   1.292
 8804SOL    HW127311   3.974   0.541   1.334
 8804SOL    HW227312   4.002   0.433   1.214
 8805SOL     OW27313   0.667   0.325   3.348
 8805SOL    HW127314   0.738   0.390   3.322
 8805SOL    HW227315   0.581   0.373   3.363
 8806SOL     OW27316   1.669   5.104   0.342
 8806SOL    HW127317   1.613   5.145   0.414
 8806SOL    HW227318   1.726   5.175   0.301
 8807SOL     OW27319   0.368   6.098   5.793
 8807SOL    HW127320   0.392   6.027   5.859
 8807SOL    HW227321   0.286   6.072   5.743
 8808SOL     OW27322   5.125   1.165   0.124
 8808SOL    HW127323   5.200   1.188   0.063
 8808SOL    HW227324   5.101   1.069   0.113
 8809SOL     OW27325   5.951   3.990   1.760
 8809SOL    HW127326   5.856   3.985   1.731
 8809SOL    HW227327   5.956   4.020   1.855
 8810SOL     OW27328   4.432   1.642   3.437
 8810SOL    HW127329   4.353   1.702   3.454
 8810SOL    HW227330   4.403   1.547   3.442
 8811SOL     OW27331   2.715   1.850   3.136
 8811SOL    HW127332   2.707   1.887   3.044
 8811SOL    HW227333   2.639   1.786   3.152
 8812SOL     OW27334   1.009   0.958   0.625
 8812SOL    HW127335   0.930   0.909   0.662
 8812SOL    HW227336   1.027   1.039   0.681
 8813SOL     OW27337   1.334   6.322   1.893
 8813SOL    HW127338   1.322   6.377   1.811
 8813SOL    HW227339   1.310   6.377   1.973
 8814SOL     OW27340   6.330   1.133   6.909
 8814SOL    HW127341   6.319   1.093   7.000
 8814SOL    HW227342   6.270   1.085   6.844
 8815SOL     OW27343   0.299   6.120   2.150
 8815SOL    HW127344   0.361   6.088   2.079
 8815SOL    HW227345   0.205   6.122   2.115
 8816SOL     OW27346   1.261   5.831   1.643
 8816SOL    HW127347   1.295   5.761   1.705
 8816SOL    HW227348   1.331   5.902   1.631
 8817SOL     OW27349   1.356   5.805   5.290
 8817SOL    HW127350   1.355   5.892   5.239
 8817SOL    HW227351   1.264   5.766   5.291
 8818SOL     OW27352   0.296   4.424   4.245
 8818SOL    HW127353   0.359   4.435   4.169
 8818SOL    HW227354   0.348   4.418   4.331
 8819SOL     OW27355   5.306   6.417   4.050
 8819SOL    HW127356   5.314   6.441   4.147
 8819SOL    HW227357   5.211   6.432   4.020
 8820SOL     OW27358   1.890   2.574   4.351
 8820SOL    HW127359   1.926   2.667   4.354
 8820SOL    HW227360   1.882   2.537   4.444
 8821SOL     OW27361   2.654   0.626   6.243
 8821SOL    HW127362   2.684   0.708   6.195
 8821SOL    HW227363   2.689   0.628   6.337
 8822SOL     OW27364   0.618   1.458   3.424
 8822SOL    HW127365   0.643   1.436   3.519
 8822SOL    HW227366   0.628   1.557   3.409
 8823SOL     OW27367   1.672   6.964   0.935
 8823SOL    HW127368   1.671   6.883   0.877
 8823SOL    HW227369   1.612   0.015   0.897
 8824SOL     OW27370   3.469   3.935   0.539
 8824SOL    HW127371   3.502   3.858   0.594
 8824SOL    HW227372   3.499   4.021   0.581
 8825SOL     OW27373   1.162   1.056   2.183
 8825SOL    HW127374   1.248   1.073   2.135
 8825SOL    HW227375   1.137   1.138   2.235
 8826SOL     OW27376   5.741   1.134   6.473
 8826SOL    HW127377   5.673   1.206   6.486
 8826SOL    HW227378   5.779   1.141   6.381
 8827SOL     OW27379   1.969   1.497   3.266
 8827SOL    HW127380   2.003   1.456   3.350
 8827SOL    HW227381   1.981   1.597   3.271
 8828SOL     OW27382   2.573   6.217   2.213
 8828SOL    HW127383   2.510   6.294   2.221
 8828SOL    HW227384   2.522   6.131   2.218
 8829SOL     OW27385   0.278   2.137   7.001
 8829SOL    HW127386   0.341   2.174   6.932
 8829SOL    HW227387   0.189   2.120   6.959
 8830SOL     OW27388   0.810   1.363   0.266
 8830SOL    HW127389   0.850   1.363   0.358
 8830SOL    HW227390   0.843   1.443   0.216
 8831SOL     OW27391   6.240   0.972   3.178
 8831SOL    HW127392   6.157   0.918   3.191
 8831SOL    HW227393   6.229   1.061   3.222
 8832SOL     OW27394   6.622   0.645   2.508
 8832SOL    HW127395   6.532   0.646   2.465
 8832SOL    HW227396   6.661   0.737   2.505
 8833SOL     OW27397   2.536   5.186   4.625
 8833SOL    HW127398   2.604   5.246   4.667
 8833SOL    HW227399   2.539   5.096   4.669
 8834SOL     OW27400   5.860   3.137   4.996
 8834SOL    HW127401   5.928   3.197   5.039
 8834SOL    HW227402   5.878   3.042   5.022
 8835SOL     OW27403   6.888   6.482   5.515
 8835SOL    HW127404   6.908   6.410   5.581
 8835SOL    HW227405   6.954   6.556   5.525
 8836SOL     OW27406   4.268   1.196   6.900
 8836SOL    HW127407   4.254   1.165   6.994
 8836SOL    HW227408   4.344   1.260   6.897
 8837SOL     OW27409   0.623   0.930   1.597
 8837SOL    HW127410   0.569   0.935   1.681
 8837SOL    HW227411   0.600   1.008   1.538
 8838SOL     OW27412   2.810   5.275   3.095
 8838SOL    HW127413   2.805   5.187   3.048
 8838SOL    HW227414   2.800   5.260   3.193
 8839SOL     OW27415   5.966   5.901   3.638
 8839SOL    HW127416   6.007   5.810   3.650
 8839SOL    HW227417   6.037   5.971   3.651
 8840SOL     OW27418   5.897   2.261   2.132
 8840SOL    HW127419   5.893   2.185   2.197
 8840SOL    HW227420   5.939   2.341   2.177
 8841SOL     OW27421   0.934   1.883   5.235
 8841SOL    HW127422   0.861   1.938   5.276
 8841SOL    HW227423   0.914   1.869   5.138
 8842SOL     OW27424   2.469   2.699   1.774
 8842SOL    HW127425   2.376   2.735   1.765
 8842SOL    HW227426   2.518   2.711   1.688
 8843SOL     OW27427   1.076   2.261   5.103
 8843SOL    HW127428   1.052   2.198   5.176
 8843SOL    HW227429   0.996   2.315   5.077
 8844SOL     OW27430   6.368   0.632   6.170
 8844SOL    HW127431   6.440   0.582   6.121
 8844SOL    HW227432   6.404   0.720   6.201
 8845SOL     OW27433   4.786   4.038   0.444
 8845SOL    HW127434   4.814   3.958   0.390
 8845SOL    HW227435   4.842   4.044   0.527
 8846SOL     OW27436   1.987   4.298   3.949
 8846SOL    HW127437   2.017   4.236   4.021
 8846SOL    HW227438   2.032   4.387   3.960
 8847SOL     OW27439   3.164   0.268   2.015
 8847SOL    HW127440   3.159   0.234   1.921
 8847SOL    HW227441   3.205   0.359   2.016
 8848SOL     OW27442   1.698   0.455   2.292
 8848SOL    HW127443   1.599   0.469   2.300
 8848SOL    HW227444   1.729   0.491   2.204
 8849SOL     OW27445   2.591   6.580   1.659
 8849SOL    HW127446   2.682   6.621   1.658
 8849SOL    HW227447   2.577   6.530   1.744
 8850SOL     OW27448   3.559   2.491   6.687
 8850SOL    HW127449   3.527   2.405   6.726
 8850SOL    HW227450   3.592   2.551   6.759
 8851SOL     OW27451   1.600   4.461   2.244
 8851SOL    HW127452   1.590   4.541   2.186
 8851SOL    HW227453   1.694   4.454   2.277
 8852SOL     OW27454   0.962   1.480   6.196
 8852SOL    HW127455   0.873   1.518   6.173
 8852SOL    HW227456   1.008   1.540   6.262
 8853SOL     OW27457   3.844   1.067   0.571
 8853SOL    HW127458   3.815   1.133   0.640
 8853SOL    HW227459   3.776   0.994   0.563
 8854SOL     OW27460   1.687   3.010   5.184
 8854SOL    HW127461   1.594   3.011   5.147
 8854SOL    HW227462   1.695   2.935   5.250
 8855SOL     OW27463   5.757   5.274   0.928
 8855SOL    HW127464   5.778   5.229   0.841
 8855SOL    HW227465   5.663   5.254   0.954
 8856SOL     OW27466   0.931   5.625   6.153
 8856SOL    HW127467   0.893   5.717   6.163
 8856SOL    HW227468   0.977   5.598   6.238
 8857SOL     OW27469   6.431   1.112   5.052
 8857SOL    HW127470   6.432   1.064   4.964
 8857SOL    HW227471   6.339   1.111   5.089
 8858SOL     OW27472   6.125   4.621   4.540
 8858SOL    HW127473   6.164   4.692   4.481
 8858SOL    HW227474   6.110   4.658   4.632
 8859SOL     OW27475   0.491   0.791   3.762
 8859SOL    HW127476   0.411   0.732   3.747
 8859SOL    HW227477   0.507   0.846   3.680
 8860SOL     OW27478   6.662   2.253   1.764
 8860SOL    HW127479   6.606   2.171   1.763
 8860SOL    HW227480   6.707   2.261   1.853
 8861SOL     OW27481   4.253   2.256   1.544
 8861SOL    HW127482   4.237   2.344   1.500
 8861SOL    HW227483   4.279   2.188   1.475
 8862SOL     OW27484   4.755   4.989   5.209
 8862SOL    HW127485   4.839   5.030   5.245
 8862SOL    HW227486   4.721   5.044   5.133
 8863SOL     OW27487   2.142   4.047   4.003
 8863SOL    HW127488   2.114   3.951   4.003
 8863SOL    HW227489   2.158   4.077   3.910
 8864SOL     OW27490   6.068   1.544   5.221
 8864SOL    HW127491   6.164   1.521   5.238
 8864SOL    HW227492   6.032   1.597   5.298
 8865SOL     OW27493   2.179   1.405   6.658
 8865SOL    HW127494   2.109   1.394   6.587
 8865SOL    HW227495   2.267   1.373   6.623
 8866SOL     OW27496   6.098   5.711   2.129
 8866SOL    HW127497   6.108   5.640   2.059
 8866SOL    HW227498   6.188   5.733   2.167
 8867SOL     OW27499   6.531   3.888   2.764
 8867SOL    HW127500   6.486   3.809   2.723
 8867SOL    HW227501   6.630   3.872   2.768
 8868SOL     OW27502   0.325   3.721   3.172
 8868SOL    HW127503   0.255   3.663   3.213
 8868SOL    HW227504   0.288   3.813   3.158
 8869SOL     OW27505   2.827   6.261   3.607
 8869SOL    HW127506   2.904   6.224   3.658
 8869SOL    HW227507   2.745   6.259   3.665
 8870SOL     OW27508   1.550   0.050   2.177
 8870SOL    HW127509   1.514   0.124   2.121
 8870SOL    HW227510   1.474   0.004   2.223
 8871SOL     OW27511   0.534   1.276   2.891
 8871SOL    HW127512   0.626   1.262   2.929
 8871SOL    HW227513   0.542   1.297   2.793
 8872SOL     OW27514   0.351   4.671   5.094
 8872SOL    HW127515   0.447   4.644   5.095
 8872SOL    HW227516   0.329   4.715   5.007
 8873SOL     OW27517   1.309   0.941   2.394
 8873SOL    HW127518   1.256   1.016   2.354
 8873SOL    HW227519   1.281   0.928   2.489
 8874SOL     OW27520   2.891   5.475   0.358
 8874SOL    HW127521   2.856   5.404   0.296
 8874SOL    HW227522   2.854   5.564   0.330
 8875SOL     OW27523   0.256   3.266   3.792
 8875SOL    HW127524   0.250   3.366   3.797
 8875SOL    HW227525   0.340   3.241   3.743
 8876SOL     OW27526   3.618   0.846   6.531
 8876SOL    HW127527   3.699   0.864   6.475
 8876SOL    HW227528   3.647   0.805   6.618
 8877SOL     OW27529   1.467   4.159   1.210
 8877SOL    HW127530   1.549   4.209   1.185
 8877SOL    HW227531   1.411   4.143   1.128
 8878SOL     OW27532   4.270   4.420   0.877
 8878SOL    HW127533   4.176   4.386   0.870
 8878SOL    HW227534   4.334   4.349   0.847
 8879SOL     OW27535   6.009   4.549   2.440
 8879SOL    HW127536   5.984   4.599   2.357
 8879SOL    HW227537   5.997   4.608   2.519
 8880SOL     OW27538   4.638   6.717   3.817
 8880SOL    HW127539   4.709   6.756   3.759
 8880SOL    HW227540   4.603   6.787   3.879
 8881SOL     OW27541   4.112   5.340   4.501
 8881SOL    HW127542   4.195   5.286   4.489
 8881SOL    HW227543   4.133   5.437   4.492
 8882SOL     OW27544   4.388   0.388   1.219
 8882SOL    HW127545   4.476   0.351   1.247
 8882SOL    HW227546   4.379   0.482   1.251
 8883SOL     OW27547   0.447   6.246   4.635
 8883SOL    HW127548   0.543   6.233   4.613
 8883SOL    HW227549   0.396   6.162   4.615
 8884SOL     OW27550   5.134   3.755   4.999
 8884SOL    HW127551   5.103   3.691   4.928
 8884SOL    HW227552   5.118   3.714   5.089
 8885SOL     OW27553   6.223   5.716   0.423
 8885SOL    HW127554   6.137   5.670   0.399
 8885SOL    HW227555   6.257   5.766   0.344
 8886SOL     OW27556   3.315   5.654   6.706
 8886SOL    HW127557   3.300   5.625   6.801
 8886SOL    HW227558   3.413   5.656   6.687
 8887SOL     OW27559   4.811   1.599   1.271
 8887SOL    HW127560   4.721   1.630   1.302
 8887SOL    HW227561   4.882   1.635   1.332
 8888SOL     OW27562   2.483   1.830   3.609
 8888SOL    HW127563   2.487   1.746   3.555
 8888SOL    HW227564   2.556   1.892   3.580
 8889SOL     OW27565   0.343   6.457   6.282
 8889SOL    HW127566   0.277   6.383   6.279
 8889SOL    HW227567   0.340   6.508   6.197
 8890SOL     OW27568   0.238   0.106   7.016
 8890SOL    HW127569   0.174   0.130   6.943
 8890SOL    HW227570   0.301   0.182   0.012
 8891SOL     OW27571   6.069   4.506   0.339
 8891SOL    HW127572   6.033   4.600   0.342
 8891SOL    HW227573   6.024   4.455   0.266
 8892SOL     OW27574   2.840   5.570   3.329
 8892SOL    HW127575   2.896   5.653   3.326
 8892SOL    HW227576   2.790   5.561   3.243
 8893SOL     OW27577   1.426   4.831   4.896
 8893SOL    HW127578   1.503   4.877   4.940
 8893SOL    HW227579   1.362   4.899   4.861
 8894SOL     OW27580   4.372   1.681   0.011
 8894SOL    HW127581   4.277   1.653   0.014
 8894SOL    HW227582   4.426   1.623   0.071
 8895SOL     OW27583   0.362   3.642   1.200
 8895SOL    HW127584   0.268   3.667   1.176
 8895SOL    HW227585   0.426   3.697   1.146
 8896SOL     OW27586   0.370   2.174   4.243
 8896SOL    HW127587   0.298   2.109   4.221
 8896SOL    HW227588   0.328   2.259   4.277
 8897SOL     OW27589   1.946   4.145   4.201
 8897SOL    HW127590   2.001   4.062   4.203
 8897SOL    HW227591   1.977   4.207   4.273
 8898SOL     OW27592   5.076   3.920   2.715
 8898SOL    HW127593   4.985   3.915   2.676
 8898SOL    HW227594   5.123   3.833   2.700
 8899SOL     OW27595   6.673   3.270   6.190
 8899SOL    HW127596   6.635   3.358   6.162
 8899SOL    HW227597   6.757   3.251   6.140
 8900SOL     OW27598   5.148   2.796   4.078
 8900SOL    HW127599   5.073   2.852   4.112
 8900SOL    HW227600   5.125   2.700   4.088
 8901SOL     OW27601   1.325   2.721   4.707
 8901SOL    HW127602   1.285   2.799   4.755
 8901SOL    HW227603   1.335   2.743   4.610
 8902SOL     OW27604   0.559   4.403   0.157
 8902SOL    HW127605   0.636   4.378   0.216
 8902SOL    HW227606   0.589   4.470   0.090
 8903SOL     OW27607   1.370   0.167   4.716
 8903SOL    HW127608   1.331   0.131   4.801
 8903SOL    HW227609   1.406   0.259   4.731
 8904SOL     OW27610   0.495   1.174   3.317
 8904SOL    HW127611   0.570   1.155   3.253
 8904SOL    HW227612   0.501   1.270   3.346
 8905SOL     OW27613   1.575   3.704   1.865
 8905SOL    HW127614   1.495   3.717   1.807
 8905SOL    HW227615   1.563   3.753   1.951
 8906SOL     OW27616   6.843   6.888   0.580
 8906SOL    HW127617   6.770   6.926   0.523
 8906SOL    HW227618   6.804   6.848   0.663
 8907SOL     OW27619   3.888   3.079   4.957
 8907SOL    HW127620   3.797   3.120   4.953
 8907SOL    HW227621   3.912   3.046   4.866
 8908SOL     OW27622   1.315   6.100   0.955
 8908SOL    HW127623   1.245   6.045   0.910
 8908SOL    HW227624   1.383   6.129   0.888
 8909SOL     OW27625   2.967   0.737   0.201
 8909SOL    HW127626   2.867   0.739   0.192
 8909SOL    HW227627   2.999   0.823   0.240
 8910SOL     OW27628   1.807   1.944   4.039
 8910SOL    HW127629   1.837   1.981   4.126
 8910SOL    HW227630   1.884   1.942   3.975
 8911SOL     OW27631   4.657   1.457   4.052
 8911SOL    HW127632   4.716   1.504   3.986
 8911SOL    HW227633   4.601   1.524   4.101
 8912SOL     OW27634   3.546   3.782   4.820
 8912SOL    HW127635   3.573   3.836   4.740
 8912SOL    HW227636   3.448   3.790   4.834
 8913SOL     OW27637   5.128   5.905   6.826
 8913SOL    HW127638   5.084   5.987   6.789
 8913SOL    HW227639   5.226   5.919   6.832
 8914SOL     OW27640   4.998   6.514   6.339
 8914SOL    HW127641   5.037   6.500   6.248
 8914SOL    HW227642   4.977   6.611   6.351
 8915SOL     OW27643   1.067   1.221   3.604
 8915SOL    HW127644   1.019   1.135   3.592
 8915SOL    HW227645   1.008   1.287   3.651
 8916SOL     OW27646   5.271   1.359   6.681
 8916SOL    HW127647   5.349   1.418   6.703
 8916SOL    HW227648   5.298   1.263   6.690
 8917SOL     OW27649   5.702   1.958   0.138
 8917SOL    HW127650   5.747   1.883   0.185
 8917SOL    HW227651   5.702   1.941   0.039
 8918SOL     OW27652   0.803   4.561   2.111
 8918SOL    HW127653   0.868   4.514   2.171
 8918SOL    HW227654   0.779   4.500   2.035
 8919SOL     OW27655   5.649   3.535   0.187
 8919SOL    HW127656   5.647   3.634   0.199
 8919SOL    HW227657   5.665   3.513   0.091
 8920SOL     OW27658   6.762   1.467   0.370
 8920SOL    HW127659   6.719   1.401   0.309
 8920SOL    HW227660   6.712   1.554   0.366
 8921SOL     OW27661   1.260   3.206   1.089
 8921SOL    HW127662   1.353   3.228   1.119
 8921SOL    HW227663   1.227   3.276   1.027
 8922SOL     OW27664   3.647   0.789   3.551
 8922SOL    HW127665   3.608   0.705   3.513
 8922SOL    HW227666   3.723   0.820   3.493
 8923SOL     OW27667   1.624   2.277   5.015
 8923SOL    HW127668   1.572   2.339   4.957
 8923SOL    HW227669   1.563   2.238   5.084
 8924SOL     OW27670   5.244   5.280   4.649
 8924SOL    HW127671   5.291   5.243   4.730
 8924SOL    HW227672   5.148   5.252   4.652
 8925SOL     OW27673   1.261   0.954   3.764
 8925SOL    HW127674   1.187   0.992   3.710
 8925SOL    HW227675   1.338   1.018   3.765
 8926SOL     OW27676   6.767   3.170   5.155
 8926SOL    HW127677   6.824   3.129   5.085
 8926SOL    HW227678   6.708   3.240   5.114
 8927SOL     OW27679   6.696   1.597   6.416
 8927SOL    HW127680   6.741   1.651   6.346
 8927SOL    HW227681   6.751   1.515   6.435
 8928SOL     OW27682   1.967   6.361   5.148
 8928SOL    HW127683   1.905   6.439   5.158
 8928SOL    HW227684   2.020   6.371   5.064
 8929SOL     OW27685   0.057   2.010   4.456
 8929SOL    HW127686   7.005   1.958   4.504
 8929SOL    HW227687   0.021   2.099   4.428
 8930SOL     OW27688   1.692   4.715   3.697
 8930SOL    HW127689   1.608   4.663   3.710
 8930SOL    HW227690   1.706   4.733   3.600
 8931SOL     OW27691   3.743   2.719   1.153
 8931SOL    HW127692   3.651   2.679   1.160
 8931SOL    HW227693   3.773   2.749   1.244
 8932SOL     OW27694   0.153   2.659   3.020
 8932SOL    HW127695   0.166   2.671   2.922
 8932SOL    HW227696   0.108   2.572   3.038
 8933SOL     OW27697   3.755   1.909   5.742
 8933SOL    HW127698   3.691   1.843   5.780
 8933SOL    HW227699   3.796   1.963   5.815
 8934SOL     OW27700   2.904   5.781   4.287
 8934SOL    HW127701   2.851   5.863   4.309
 8934SOL    HW227702   2.901   5.718   4.365
 8935SOL     OW27703   0.071   4.829   1.290
 8935SOL    HW127704   6.997   4.793   1.303
 8935SOL    HW227705   0.090   4.899   1.358
 8936SOL     OW27706   2.005   3.200   0.955
 8936SOL    HW127707   2.092   3.174   0.997
 8936SOL    HW227708   2.022   3.237   0.863
 8937SOL     OW27709   0.428   6.703   5.668
 8937SOL    HW127710   0.408   6.742   5.758
 8937SOL    HW227711   0.429   6.603   5.675
 8938SOL     OW27712   6.356   5.711   0.995
 8938SOL    HW127713   6.331   5.803   1.025
 8938SOL    HW227714   6.304   5.644   1.047
 8939SOL     OW27715   5.261   2.200   4.440
 8939SOL    HW127716   5.191   2.262   4.404
 8939SOL    HW227717   5.334   2.253   4.483
 8940SOL     OW27718   6.473   1.037   3.761
 8940SOL    HW127719   6.566   1.026   3.726
 8940SOL    HW227720   6.465   1.126   3.806
 8941SOL     OW27721   5.448   2.630   6.193
 8941SOL    HW127722   5.491   2.545   6.222
 8941SOL    HW227723   5.415   2.620   6.099
 8942SOL     OW27724   0.489   2.234   5.167
 8942SOL    HW127725   0.425   2.297   5.212
 8942SOL    HW227726   0.440   2.153   5.137
 8943SOL     OW27727   4.744   3.281   1.138
 8943SOL    HW127728   4.824   3.226   1.113
 8943SOL    HW227729   4.706   3.247   1.223
 8944SOL     OW27730   4.421   5.755   0.696
 8944SOL    HW127731   4.461   5.705   0.619
 8944SOL    HW227732   4.404   5.691   0.771
 8945SOL     OW27733   2.474   0.726   4.532
 8945SOL    HW127734   2.390   0.679   4.506
 8945SOL    HW227735   2.490   0.715   4.630
 8946SOL     OW27736   3.647   1.591   4.995
 8946SOL    HW127737   3.746   1.591   4.981
 8946SOL    HW227738   3.617   1.683   5.018
 8947SOL     OW27739   3.841   3.511   5.649
 8947SOL    HW127740   3.931   3.552   5.664
 8947SOL    HW227741   3.771   3.570   5.689
 8948SOL     OW27742   5.496   4.610   3.126
 8948SOL    HW127743   5.425   4.573   3.185
 8948SOL    HW227744   5.507   4.708   3.144
 8949SOL     OW27745   1.432   6.985   6.615
 8949SOL    HW127746   1.528   6.989   6.644
 8949SOL    HW227747   1.379   0.031   6.669
 8950SOL     OW27748   4.910   3.168   5.171
 8950SOL    HW127749   4.860   3.124   5.097
 8950SOL    HW227750   4.845   3.213   5.233
 8951SOL     OW27751   1.577   2.851   5.496
 8951SOL    HW127752   1.575   2.763   5.449
 8951SOL    HW227753   1.657   2.903   5.466
 8952SOL     OW27754   1.300   1.108   3.197
 8952SOL    HW127755   1.270   1.166   3.122
 8952SOL    HW227756   1.358   1.162   3.259
 8953SOL     OW27757   1.849   3.122   0.104
 8953SOL    HW127758   1.895   3.068   0.175
 8953SOL    HW227759   1.842   3.217   0.134
 8954SOL     OW27760   1.453   6.046   6.382
 8954SOL    HW127761   1.492   6.133   6.351
 8954SOL    HW227762   1.517   6.001   6.444
 8955SOL     OW27763   0.076   4.199   3.588
 8955SOL    HW127764   0.062   4.262   3.512
 8955SOL    HW227765   7.013   4.145   3.603
 8956SOL     OW27766   0.334   0.989   6.359
 8956SOL    HW127767   0.272   0.955   6.430
 8956SOL    HW227768   0.282   1.043   6.293
 8957SOL     OW27769   2.598   4.801   1.985
 8957SOL    HW127770   2.636   4.709   1.979
 8957SOL    HW227771   2.610   4.847   1.897
 8958SOL     OW27772   1.553   6.815   4.135
 8958SOL    HW127773   1.476   6.833   4.196
 8958SOL    HW227774   1.638   6.846   4.179
 8959SOL     OW27775   1.521   4.727   0.588
 8959SOL    HW127776   1.458   4.783   0.533
 8959SOL    HW227777   1.614   4.761   0.575
 8960SOL     OW27778   3.852   5.460   1.989
 8960SOL    HW127779   3.941   5.434   1.951
 8960SOL    HW227780   3.782   5.448   1.919
 8961SOL     OW27781   1.468   2.320   4.134
 8961SOL    HW127782   1.493   2.233   4.091
 8961SOL    HW227783   1.520   2.394   4.092
 8962SOL     OW27784   5.825   0.552   3.363
 8962SOL    HW127785   5.901   0.548   3.428
 8962SOL    HW227786   5.800   0.647   3.348
 8963SOL     OW27787   5.571   0.529   4.628
 8963SOL    HW127788   5.601   0.469   4.702
 8963SOL    HW227789   5.601   0.491   4.541
 8964SOL     OW27790   5.180   4.927   2.088
 8964SOL    HW127791   5.116   4.906   2.014
 8964SOL    HW227792   5.259   4.976   2.052
 8965SOL     OW27793   1.671   5.237   1.673
 8965SOL    HW127794   1.701   5.163   1.733
 8965SOL    HW227795   1.725   5.319   1.692
 8966SOL     OW27796   1.854   2.376   6.429
 8966SOL    HW127797   1.802   2.309   6.375
 8966SOL    HW227798   1.928   2.413   6.373
 8967SOL     OW27799   4.381   0.423   0.685
 8967SOL    HW127800   4.371   0.523   0.691
 8967SOL    HW227801   4.348   0.381   0.770
 8968SOL     OW27802   5.166   6.378   1.467
 8968SOL    HW127803   5.161   6.467   1.513
 8968SOL    HW227804   5.156   6.305   1.534
 8969SOL     OW27805   5.785   1.002   3.786
 8969SOL    HW127806   5.784   1.101   3.794
 8969SOL    HW227807   5.861   0.974   3.727
 8970SOL     OW27808   3.476   2.685   1.530
 8970SOL    HW127809   3.533   2.638   1.598
 8970SOL    HW227810   3.414   2.619   1.487
 8971SOL     OW27811   3.466   5.779   2.207
 8971SOL    HW127812   3.563   5.795   2.191
 8971SOL    HW227813   3.452   5.685   2.239
 8972SOL     OW27814   5.475   6.318   5.977
 8972SOL    HW127815   5.503   6.234   5.931
 8972SOL    HW227816   5.554   6.358   6.024
 8973SOL     OW27817   1.786   4.868   0.591
 8973SOL    HW127818   1.835   4.854   0.676
 8973SOL    HW227819   1.766   4.966   0.580
 8974SOL     OW27820   0.527   4.015   5.975
 8974SOL    HW127821   0.513   3.985   6.070
 8974SOL    HW227822   0.618   3.988   5.944
 8975SOL     OW27823   2.931   0.323   0.784
 8975SOL    HW127824   3.021   0.312   0.743
 8975SOL    HW227825   2.897   0.235   0.815
 8976SOL     OW27826   1.811   5.484   4.363
 8976SOL    HW127827   1.732   5.426   4.341
 8976SOL    HW227828   1.894   5.442   4.326
 8977SOL     OW27829   6.238   1.446   5.693
 8977SOL    HW127830   6.266   1.403   5.778
 8977SOL    HW227831   6.298   1.416   5.619
 8978SOL     OW27832   5.690   6.255   0.124
 8978SOL    HW127833   5.760   6.221   0.062
 8978SOL    HW227834   5.732   6.313   0.194
 8979SOL     OW27835   1.755   3.946   4.972
 8979SOL    HW127836   1.732   3.848   4.972
 8979SOL    HW227837   1.819   3.964   5.047
 8980SOL     OW27838   3.444   3.075   4.643
 8980SOL    HW127839   3.358   3.047   4.685
 8980SOL    HW227840   3.437   3.065   4.543
 8981SOL     OW27841   3.616   1.162   5.049
 8981SOL    HW127842   3.623   1.229   5.123
 8981SOL    HW227843   3.595   1.209   4.963
 8982SOL     OW27844   2.587   3.806   0.520
 8982SOL    HW127845   2.618   3.857   0.601
 8982SOL    HW227846   2.643   3.724   0.509
 8983SOL     OW27847   3.712   5.298   6.900
 8983SOL    HW127848   3.651   5.222   6.875
 8983SOL    HW227849   3.672   5.348   6.978
 8984SOL     OW27850   2.220   5.528   3.451
 8984SOL    HW127851   2.251   5.498   3.360
 8984SOL    HW227852   2.288   5.589   3.490
 8985SOL     OW27853   3.543   2.750   0.302
 8985SOL    HW127854   3.583   2.840   0.288
 8985SOL    HW227855   3.508   2.743   0.396
 8986SOL     OW27856   3.654   4.912   2.979
 8986SOL    HW127857   3.653   4.921   3.079
 8986SOL    HW227858   3.560   4.905   2.946
 8987SOL     OW27859   5.460   5.860   2.813
 8987SOL    HW127860   5.380   5.799   2.811
 8987SOL    HW227861   5.515   5.840   2.894
 8988SOL     OW27862   0.582   5.537   3.541
 8988SOL    HW127863   0.505   5.474   3.541
 8988SOL    HW227864   0.666   5.487   3.564
 8989SOL     OW27865   4.647   2.719   6.339
 8989SOL    HW127866   4.681   2.725   6.245
 8989SOL    HW227867   4.609   2.807   6.367
 8990SOL     OW27868   0.737   4.728   3.834
 8990SOL    HW127869   0.820   4.773   3.800
 8990SOL    HW227870   0.727   4.747   3.932
 8991SOL     OW27871   1.514   2.269   4.569
 8991SOL    HW127872   1.544   2.173   4.569
 8991SOL    HW227873   1.417   2.273   4.591
 8992SOL     OW27874   5.826   2.177   6.845
 8992SOL    HW127875   5.916   2.220   6.853
 8992SOL    HW227876   5.767   2.236   6.790
 8993SOL     OW27877   4.153   3.370   6.104
 8993SOL    HW127878   4.129   3.378   6.201
 8993SOL    HW227879   4.103   3.439   6.052
 8994SOL     OW27880   2.130   4.494   4.810
 8994SOL    HW127881   2.038   4.473   4.842
 8994SOL    HW227882   2.132   4.491   4.710
 8995SOL     OW27883   0.124   1.749   1.649
 8995SOL    HW127884   0.203   1.697   1.682
 8995SOL    HW227885   0.156   1.823   1.589
 8996SOL     OW27886   5.201   3.712   6.775
 8996SOL    HW127887   5.140   3.706   6.854
 8996SOL    HW227888   5.293   3.735   6.805
 8997SOL     OW27889   5.093   0.845   5.260
 8997SOL    HW127890   5.191   0.833   5.274
 8997SOL    HW227891   5.074   0.857   5.163
 8998SOL     OW27892   6.216   4.009   3.740
 8998SOL    HW127893   6.294   3.994   3.801
 8998SOL    HW227894   6.185   4.104   3.749
 8999SOL     OW27895   4.596   0.143   5.962
 8999SOL    HW127896   4.682   0.183   5.929
 8999SOL    HW227897   4.522   0.166   5.899
 9000SOL     OW27898   1.417   4.088   1.495
 9000SOL    HW127899   1.418   4.099   1.396
 9000SOL    HW227900   1.324   4.072   1.527
 9001SOL     OW27901   0.313   4.816   2.364
 9001SOL    HW127902   0.335   4.721   2.342
 9001SOL    HW227903   0.285   4.822   2.459
 9002SOL     OW27904   1.165   4.354   5.493
 9002SOL    HW127905   1.218   4.426   5.448
 9002SOL    HW227906   1.175   4.268   5.442
 9003SOL     OW27907   5.348   2.689   1.332
 9003SOL    HW127908   5.374   2.780   1.300
 9003SOL    HW227909   5.324   2.693   1.429
 9004SOL     OW27910   4.370   5.208   1.063
 9004SOL    HW127911   4.453   5.209   1.008
 9004SOL    HW227912   4.326   5.298   1.060
 9005SOL     OW27913   5.517   1.089   5.959
 9005SOL    HW127914   5.536   1.184   5.935
 9005SOL    HW227915   5.594   1.032   5.931
 9006SOL     OW27916   3.167   0.294   0.637
 9006SOL    HW127917   3.261   0.269   0.662
 9006SOL    HW227918   3.145   0.253   0.548
 9007SOL     OW27919   2.454   1.168   2.607
 9007SOL    HW127920   2.403   1.126   2.532
 9007SOL    HW227921   2.391   1.198   2.678
 9008SOL     OW27922   0.501   5.332   2.966
 9008SOL    HW127923   0.571   5.268   2.933
 9008SOL    HW227924   0.531   5.373   3.052
 9009SOL     OW27925   3.829   5.285   1.141
 9009SOL    HW127926   3.870   5.371   1.113
 9009SOL    HW227927   3.865   5.210   1.084
 9010SOL     OW27928   2.189   6.934   4.203
 9010SOL    HW127929   2.122   6.992   4.157
 9010SOL    HW227930   2.171   6.933   4.301
 9011SOL     OW27931   4.007   0.840   1.983
 9011SOL    HW127932   4.094   0.790   1.985
 9011SOL    HW227933   4.023   0.931   1.944
 9012SOL     OW27934   2.678   5.799   0.728
 9012SOL    HW127935   2.624   5.844   0.799
 9012SOL    HW227936   2.704   5.707   0.759
 9013SOL     OW27937   1.339   6.861   4.314
 9013SOL    HW127938   1.394   6.911   4.381
 9013SOL    HW227939   1.242   6.872   4.336
 9014SOL     OW27940   6.407   2.748   1.862
 9014SOL    HW127941   6.505   2.733   1.864
 9014SOL    HW227942   6.360   2.661   1.846
 9015SOL     OW27943   5.020   2.755   1.159
 9015SOL    HW127944   5.104   2.722   1.116
 9015SOL    HW227945   5.018   2.855   1.156
 9016SOL     OW27946   5.694   5.099   6.844
 9016SOL    HW127947   5.640   5.045   6.907
 9016SOL    HW227948   5.699   5.194   6.877
 9017SOL     OW27949   3.637   0.806   4.832
 9017SOL    HW127950   3.697   0.863   4.775
 9017SOL    HW227951   3.626   0.848   4.922
 9018SOL     OW27952   3.925   3.358   6.700
 9018SOL    HW127953   4.006   3.415   6.713
 9018SOL    HW227954   3.913   3.298   6.779
 9019SOL     OW27955   1.311   3.887   2.995
 9019SOL    HW127956   1.242   3.830   3.040
 9019SOL    HW227957   1.330   3.849   2.904
 9020SOL     OW27958   6.635   5.343   1.420
 9020SOL    HW127959   6.684   5.326   1.506
 9020SOL    HW227960   6.682   5.415   1.369
 9021SOL     OW27961   6.595   0.134   3.974
 9021SOL    HW127962   6.506   0.147   4.017
 9021SOL    HW227963   6.584   0.103   3.880
 9022SOL     OW27964   3.679   2.643   6.883
 9022SOL    HW127965   3.694   2.742   6.893
 9022SOL    HW227966   3.765   2.598   6.862
 9023SOL     OW27967   4.100   2.906   1.237
 9023SOL    HW127968   4.065   2.877   1.148
 9023SOL    HW227969   4.032   2.886   1.308
 9024SOL     OW27970   0.781   4.883   5.866
 9024SOL    HW127971   0.710   4.950   5.845
 9024SOL    HW227972   0.856   4.890   5.800
 9025SOL     OW27973   0.511   5.659   0.632
 9025SOL    HW127974   0.423   5.662   0.680
 9025SOL    HW227975   0.524   5.743   0.580
 9026SOL     OW27976   3.797   1.472   0.342
 9026SOL    HW127977   3.792   1.381   0.301
 9026SOL    HW227978   3.705   1.512   0.346
 9027SOL     OW27979   1.040   3.719   3.655
 9027SOL    HW127980   1.135   3.702   3.684
 9027SOL    HW227981   0.978   3.666   3.712
 9028SOL     OW27982   3.646   3.246   4.967
 9028SOL    HW127983   3.599   3.235   4.880
 9028SOL    HW227984   3.680   3.340   4.975
 9029SOL     OW27985   4.246   0.691   4.594
 9029SOL    HW127986   4.313   0.764   4.605
 9029SOL    HW227987   4.244   0.661   4.499
 9030SOL     OW27988   2.345   2.435   3.990
 9030SOL    HW127989   2.366   2.523   4.033
 9030SOL    HW227990   2.271   2.390   4.040
 9031SOL     OW27991   4.561   0.153   4.418
 9031SOL    HW127992   4.487   0.118   4.361
 9031SOL    HW227993   4.570   0.252   4.404
 9032SOL     OW27994   4.800   3.565   1.159
 9032SOL    HW127995   4.777   3.467   1.162
 9032SOL    HW227996   4.783   3.605   1.249
 9033SOL     OW27997   0.325   5.296   2.410
 9033SOL    HW127998   0.242   5.270   2.362
 9033SOL    HW227999   0.395   5.226   2.396
 9034SOL     OW28000   3.490   6.145   5.007
 9034SOL    HW128001   3.499   6.216   4.937
 9034SOL    HW228002   3.566   6.151   5.071
 9035SOL     OW28003   2.188   5.755   0.060
 9035SOL    HW128004   2.264   5.761   0.126
 9035SOL    HW228005   2.128   5.833   0.071
 9036SOL     OW28006   1.473   3.398   5.147
 9036SOL    HW128007   1.496   3.476   5.089
 9036SOL    HW228008   1.436   3.430   5.234
 9037SOL     OW28009   0.810   2.697   4.186
 9037SOL    HW128010   0.723   2.689   4.236
 9037SOL    HW228011   0.840   2.606   4.158
 9038SOL     OW28012   4.840   2.959   6.406
 9038SOL    HW128013   4.832   3.013   6.489
 9038SOL    HW228014   4.879   3.016   6.333
 9039SOL     OW28015   3.443   4.424   6.862
 9039SOL    HW128016   3.449   4.524   6.864
 9039SOL    HW228017   3.468   4.391   6.771
 9040SOL     OW28018   2.212   2.259   1.844
 9040SOL    HW128019   2.150   2.198   1.795
 9040SOL    HW228020   2.266   2.311   1.778
 9041SOL     OW28021   0.834   2.480   1.020
 9041SOL    HW128022   0.775   2.537   1.078
 9041SOL    HW228023   0.778   2.437   0.949
 9042SOL     OW28024   3.734   6.069   5.126
 9042SOL    HW128025   3.822   6.101   5.161
 9042SOL    HW228026   3.746   5.981   5.081
 9043SOL     OW28027   2.625   1.395   6.679
 9043SOL    HW128028   2.623   1.488   6.642
 9043SOL    HW228029   2.585   1.394   6.771
 9044SOL     OW28030   0.672   0.247   0.137
 9044SOL    HW128031   0.616   0.269   0.217
 9044SOL    HW228032   0.622   0.272   0.054
 9045SOL     OW28033   4.382   0.341   3.442
 9045SOL    HW128034   4.482   0.338   3.446
 9045SOL    HW228035   4.353   0.426   3.398
 9046SOL     OW28036   3.807   3.220   2.546
 9046SOL    HW128037   3.848   3.129   2.542
 9046SOL    HW228038   3.721   3.220   2.494
 9047SOL     OW28039   1.755   4.389   5.485
 9047SOL    HW128040   1.660   4.374   5.460
 9047SOL    HW228041   1.762   4.469   5.545
 9048SOL     OW28042   5.630   2.264   6.149
 9048SOL    HW128043   5.624   2.319   6.232
 9048SOL    HW228044   5.721   2.273   6.109
 9049SOL     OW28045   3.332   6.680   6.177
 9049SOL    HW128046   3.313   6.680   6.275
 9049SOL    HW228047   3.431   6.683   6.164
 9050SOL     OW28048   0.714   4.223   1.631
 9050SOL    HW128049   0.724   4.137   1.582
 9050SOL    HW228050   0.764   4.295   1.583
 9051SOL     OW28051   2.648   1.399   1.235
 9051SOL    HW128052   2.721   1.343   1.195
 9051SOL    HW228053   2.563   1.345   1.238
 9052SOL     OW28054   1.953   2.845   4.342
 9052SOL    HW128055   2.048   2.874   4.344
 9052SOL    HW228056   1.919   2.848   4.248
 9053SOL     OW28057   2.166   1.494   1.354
 9053SOL    HW128058   2.256   1.536   1.341
 9053SOL    HW228059   2.152   1.423   1.286
 9054SOL     OW28060   2.726   5.442   3.750
 9054SOL    HW128061   2.819   5.470   3.729
 9054SOL    HW228062   2.726   5.381   3.829
 9055SOL     OW28063   6.788   4.285   4.778
 9055SOL    HW128064   6.840   4.236   4.849
 9055SOL    HW228065   6.743   4.364   4.818
 9056SOL     OW28066   6.302   2.370   2.380
 9056SOL    HW128067   6.255   2.448   2.339
 9056SOL    HW228068   6.400   2.390   2.387
 9057SOL     OW28069   4.682   1.600   4.339
 9057SOL    HW128070   4.706   1.628   4.432
 9057SOL    HW228071   4.742   1.648   4.274
 9058SOL     OW28072   1.544   0.260   6.164
 9058SOL    HW128073   1.545   0.248   6.263
 9058SOL    HW228074   1.450   0.273   6.133
 9059SOL     OW28075   1.617   2.264   2.520
 9059SOL    HW128076   1.643   2.168   2.531
 9059SOL    HW228077   1.686   2.310   2.464
 9060SOL     OW28078   5.016   3.019   4.641
 9060SOL    HW128079   5.092   3.063   4.593
 9060SOL    HW228080   5.036   2.921   4.653
 9061SOL     OW28081   4.720   5.279   2.517
 9061SOL    HW128082   4.623   5.290   2.493
 9061SOL    HW228083   4.775   5.344   2.465
 9062SOL     OW28084   1.677   5.566   1.654
 9062SOL    HW128085   1.674   5.584   1.753
 9062SOL    HW228086   1.743   5.628   1.611
 9063SOL     OW28087   2.809   1.587   3.492
 9063SOL    HW128088   2.804   1.654   3.566
 9063SOL    HW228089   2.831   1.497   3.530
 9064SOL     OW28090   6.696   3.739   0.035
 9064SOL    HW128091   6.708   3.694   0.124
 9064SOL    HW228092   6.751   3.691   6.985
 9065SOL     OW28093   3.260   0.686   0.417
 9065SOL    HW128094   3.190   0.688   0.346
 9065SOL    HW228095   3.241   0.758   0.484
 9066SOL     OW28096   5.196   6.892   6.986
 9066SOL    HW128097   5.156   6.833   6.916
 9066SOL    HW228098   5.133   6.967   7.007
 9067SOL     OW28099   1.527   6.989   3.226
 9067SOL    HW128100   1.468   6.910   3.209
 9067SOL    HW228101   1.514   0.001   3.321
 9068SOL     OW28102   1.562   6.024   5.913
 9068SOL    HW128103   1.613   5.963   5.973
 9068SOL    HW228104   1.484   6.063   5.963
 9069SOL     OW28105   1.910   2.498   5.890
 9069SOL    HW128106   1.943   2.587   5.857
 9069SOL    HW228107   1.988   2.442   5.917
 9070SOL     OW28108   1.519   4.016   4.654
 9070SOL    HW128109   1.462   4.066   4.589
 9070SOL    HW228110   1.479   4.021   4.745
 9071SOL     OW28111   6.259   6.469   6.749
 9071SOL    HW128112   6.312   6.489   6.832
 9071SOL    HW228113   6.305   6.397   6.697
 9072SOL     OW28114   6.740   3.927   0.434
 9072SOL    HW128115   6.657   3.925   0.378
 9072SOL    HW228116   6.816   3.965   0.381
 9073SOL     OW28117   2.114   0.770   2.020
 9073SOL    HW128118   2.159   0.739   2.104
 9073SOL    HW228119   2.091   0.691   1.964
 9074SOL     OW28120   1.420   6.716   3.094
 9074SOL    HW128121   1.337   6.672   3.127
 9074SOL    HW228122   1.415   6.728   2.995
 9075SOL     OW28123   6.572   0.767   2.243
 9075SOL    HW128124   6.567   0.667   2.250
 9075SOL    HW228125   6.508   0.808   2.308
 9076SOL     OW28126   6.923   0.980   5.610
 9076SOL    HW128127   6.947   0.943   5.520
 9076SOL    HW228128   7.004   0.982   5.669
 9077SOL     OW28129   5.670   6.486   2.288
 9077SOL    HW128130   5.712   6.407   2.243
 9077SOL    HW228131   5.573   6.491   2.262
 9078SOL     OW28132   4.112   3.595   4.476
 9078SOL    HW128133   4.129   3.505   4.436
 9078SOL    HW228134   4.110   3.588   4.576
 9079SOL     OW28135   3.434   6.674   4.937
 9079SOL    HW128136   3.503   6.655   5.006
 9079SOL    HW228137   3.389   6.588   4.911
 9080SOL     OW28138   5.413   2.392   0.189
 9080SOL    HW128139   5.320   2.355   0.182
 9080SOL    HW228140   5.409   2.490   0.209
 9081SOL     OW28141   5.654   6.483   1.973
 9081SOL    HW128142   5.697   6.422   2.039
 9081SOL    HW228143   5.723   6.515   1.907
 9082SOL     OW28144   3.423   1.247   3.821
 9082SOL    HW128145   3.370   1.331   3.808
 9082SOL    HW228146   3.394   1.179   3.753
 9083SOL     OW28147   4.907   4.474   5.292
 9083SOL    HW128148   4.975   4.546   5.303
 9083SOL    HW228149   4.829   4.492   5.352
 9084SOL     OW28150   3.210   3.875   3.350
 9084SOL    HW128151   3.217   3.966   3.310
 9084SOL    HW228152   3.292   3.855   3.404
 9085SOL     OW28153   2.134   2.273   1.318
 9085SOL    HW128154   2.194   2.220   1.378
 9085SOL    HW228155   2.189   2.322   1.251
 9086SOL     OW28156   0.457   3.859   1.398
 9086SOL    HW128157   0.373   3.868   1.452
 9086SOL    HW228158   0.442   3.893   1.306
 9087SOL     OW28159   4.886   3.890   2.363
 9087SOL    HW128160   4.892   3.878   2.264
 9087SOL    HW228161   4.961   3.841   2.407
 9088SOL     OW28162   6.198   0.591   6.616
 9088SOL    HW128163   6.134   0.657   6.655
 9088SOL    HW228164   6.185   0.585   6.518
 9089SOL     OW28165   4.365   0.180   5.784
 9089SOL    HW128166   4.270   0.152   5.768
 9089SOL    HW228167   4.366   0.271   5.826
 9090SOL     OW28168   5.744   0.909   4.300
 9090SOL    HW128169   5.735   0.809   4.303
 9090SOL    HW228170   5.749   0.938   4.204
 9091SOL     OW28171   3.375   3.723   6.878
 9091SOL    HW128172   3.443   3.796   6.873
 9091SOL    HW228173   3.284   3.763   6.886
 9092SOL     OW28174   6.785   2.234   0.130
 9092SOL    HW128175   6.801   2.148   0.082
 9092SOL    HW228176   6.719   2.290   0.079
 9093SOL     OW28177   1.595   6.815   5.175
 9093SOL    HW128178   1.568   6.856   5.087
 9093SOL    HW228179   1.651   6.880   5.226
 9094SOL     OW28180   0.505   3.500   2.070
 9094SOL    HW128181   0.526   3.451   2.155
 9094SOL    HW228182   0.518   3.598   2.085
 9095SOL     OW28183   5.480   6.146   5.229
 9095SOL    HW128184   5.445   6.065   5.183
 9095SOL    HW228185   5.569   6.126   5.270
 9096SOL     OW28186   6.492   5.662   2.663
 9096SOL    HW128187   6.467   5.594   2.732
 9096SOL    HW228188   6.553   5.620   2.596
 9097SOL     OW28189   0.939   2.903   5.982
 9097SOL    HW128190   0.886   2.948   6.054
 9097SOL    HW228191   1.015   2.853   6.023
 9098SOL     OW28192   1.910   3.496   4.613
 9098SOL    HW128193   1.953   3.525   4.698
 9098SOL    HW228194   1.811   3.504   4.620
 9099SOL     OW28195   2.294   3.283   6.842
 9099SOL    HW128196   2.269   3.276   6.745
 9099SOL    HW228197   2.221   3.244   6.898
 9100SOL     OW28198   1.111   4.837   2.966
 9100SOL    HW128199   1.084   4.743   2.945
 9100SOL    HW228200   1.044   4.901   2.927
 9101SOL     OW28201   1.667   1.634   1.803
 9101SOL    HW128202   1.643   1.538   1.791
 9101SOL    HW228203   1.663   1.681   1.715
 9102SOL     OW28204   4.570   5.862   2.611
 9102SOL    HW128205   4.562   5.923   2.532
 9102SOL    HW228206   4.546   5.911   2.694
 9103SOL     OW28207   6.049   1.752   0.410
 9103SOL    HW128208   6.101   1.828   0.450
 9103SOL    HW228209   5.993   1.709   0.481
 9104SOL     OW28210   6.256   1.050   0.129
 9104SOL    HW128211   6.331   1.017   0.185
 9104SOL    HW228212   6.173   1.058   0.185
 9105SOL     OW28213   2.213   0.597   6.418
 9105SOL    HW128214   2.157   0.519   6.445
 9105SOL    HW228215   2.286   0.567   6.358
 9106SOL     OW28216   1.548   4.942   6.946
 9106SOL    HW128217   1.507   4.943   6.855
 9106SOL    HW228218   1.643   4.971   6.940
 9107SOL     OW28219   2.233   1.050   0.144
 9107SOL    HW128220   2.166   1.124   0.140
 9107SOL    HW228221   2.280   1.043   0.056
 9108SOL     OW28222   5.772   4.963   6.121
 9108SOL    HW128223   5.689   4.960   6.066
 9108SOL    HW228224   5.849   4.989   6.064
 9109SOL     OW28225   5.103   2.999   2.455
 9109SOL    HW128226   5.112   2.992   2.356
 9109SOL    HW228227   5.170   2.938   2.498
 9110SOL     OW28228   1.426   5.541   4.578
 9110SOL    HW128229   1.368   5.484   4.520
 9110SOL    HW228230   1.406   5.638   4.562
 9111SOL     OW28231   4.414   3.068   5.372
 9111SOL    HW128232   4.366   2.987   5.406
 9111SOL    HW228233   4.456   3.116   5.449
 9112SOL     OW28234   1.367   5.499   2.287
 9112SOL    HW128235   1.354   5.572   2.354
 9112SOL    HW228236   1.392   5.415   2.333
 9113SOL     OW28237   4.911   1.860   3.370
 9113SOL    HW128238   4.820   1.821   3.376
 9113SOL    HW228239   4.920   1.913   3.286
 9114SOL     OW28240   1.235   5.986   5.091
 9114SOL    HW128241   1.141   5.956   5.077
 9114SOL    HW228242   1.294   5.940   5.025
 9115SOL     OW28243   5.554   4.419   4.053
 9115SOL    HW128244   5.544   4.438   4.150
 9115SOL    HW228245   5.555   4.320   4.038
 9116SOL     OW28246   0.676   6.798   3.295
 9116SOL    HW128247   0.700   6.895   3.307
 9116SOL    HW228248   0.665   6.755   3.384
 9117SOL     OW28249   4.037   0.764   6.661
 9117SOL    HW128250   4.027   0.681   6.608
 9117SOL    HW228251   4.102   0.825   6.616
 9118SOL     OW28252   6.219   4.207   1.192
 9118SOL    HW128253   6.241   4.175   1.285
 9118SOL    HW228254   6.147   4.276   1.197
 9119SOL     OW28255   3.682   0.648   0.458
 9119SOL    HW128256   3.651   0.643   0.363
 9119SOL    HW228257   3.687   0.556   0.496
 9120SOL     OW28258   5.617   3.175   5.169
 9120SOL    HW128259   5.530   3.178   5.121
 9120SOL    HW228260   5.691   3.162   5.103
 9121SOL     OW28261   3.100   0.518   5.019
 9121SOL    HW128262   3.179   0.507   4.959
 9121SOL    HW228263   3.063   0.428   5.043
 9122SOL     OW28264   2.366   4.480   2.432
 9122SOL    HW128265   2.385   4.467   2.529
 9122SOL    HW228266   2.423   4.554   2.397
 9123SOL     OW28267   1.007   0.482   4.060
 9123SOL    HW128268   1.072   0.437   3.999
 9123SOL    HW228269   1.055   0.522   4.138
 9124SOL     OW28270   3.024   5.464   1.561
 9124SOL    HW128271   2.940   5.476   1.507
 9124SOL    HW228272   3.102   5.454   1.500
 9125SOL     OW28273   4.697   6.559   1.074
 9125SOL    HW128274   4.765   6.608   1.019
 9125SOL    HW228275   4.656   6.486   1.020
 9126SOL     OW28276   3.758   4.423   0.183
 9126SOL    HW128277   3.801   4.514   0.175
 9126SOL    HW228278   3.795   4.377   0.264
 9127SOL     OW28279   7.003   4.250   5.414
 9127SOL    HW128280   0.055   4.320   5.412
 9127SOL    HW228281   0.009   4.175   5.352
 9128SOL     OW28282   5.776   3.324   5.349
 9128SOL    HW128283   5.830   3.384   5.290
 9128SOL    HW228284   5.692   3.297   5.302
 9129SOL     OW28285   1.513   2.730   0.538
 9129SOL    HW128286   1.542   2.805   0.598
 9129SOL    HW228287   1.421   2.701   0.563
 9130SOL     OW28288   2.587   3.858   5.312
 9130SOL    HW128289   2.509   3.891   5.259
 9130SOL    HW228290   2.667   3.851   5.253
 9131SOL     OW28291   5.547   2.835   0.875
 9131SOL    HW128292   5.468   2.836   0.937
 9131SOL    HW228293   5.527   2.894   0.796
 9132SOL     OW28294   0.078   4.440   3.880
 9132SOL    HW128295   6.999   4.420   3.872
 9132SOL    HW228296   0.131   4.357   3.867
 9133SOL     OW28297   4.614   1.345   0.664
 9133SOL    HW128298   4.679   1.344   0.588
 9133SOL    HW228299   4.599   1.440   0.693
 9134SOL     OW28300   4.053   5.465   0.743
 9134SOL    HW128301   4.134   5.463   0.802
 9134SOL    HW228302   4.031   5.560   0.720
 9135SOL     OW28303   0.322   6.516   2.769
 9135SOL    HW128304   0.313   6.538   2.866
 9135SOL    HW228305   0.247   6.456   2.742
 9136SOL     OW28306   6.026   4.488   6.899
 9136SOL    HW128307   6.010   4.417   6.968
 9136SOL    HW228308   6.124   4.494   6.881
 9137SOL     OW28309   5.334   6.580   6.170
 9137SOL    HW128310   5.357   6.671   6.135
 9137SOL    HW228311   5.403   6.551   6.236
 9138SOL     OW28312   3.204   3.312   1.051
 9138SOL    HW128313   3.261   3.257   1.112
 9138SOL    HW228314   3.168   3.254   0.978
 9139SOL     OW28315   6.580   0.123   1.013
 9139SOL    HW128316   6.607   0.218   0.996
 9139SOL    HW228317   6.586   0.071   0.927
 9140SOL     OW28318   0.955   4.399   3.241
 9140SOL    HW128319   0.873   4.409   3.186
 9140SOL    HW228320   1.002   4.315   3.216
 9141SOL     OW28321   6.652   5.982   5.725
 9141SOL    HW128322   6.621   5.908   5.665
 9141SOL    HW228323   6.609   6.068   5.698
 9142SOL     OW28324   0.961   4.548   3.939
 9142SOL    HW128325   1.018   4.469   3.917
 9142SOL    HW228326   0.867   4.531   3.909
 9143SOL     OW28327   0.260   3.998   2.605
 9143SOL    HW128328   0.248   3.908   2.563
 9143SOL    HW228329   0.356   4.025   2.602
 9144SOL     OW28330   2.559   4.478   5.608
 9144SOL    HW128331   2.475   4.437   5.573
 9144SOL    HW228332   2.626   4.485   5.535
 9145SOL     OW28333   1.291   6.282   5.832
 9145SOL    HW128334   1.363   6.280   5.762
 9145SOL    HW228335   1.205   6.309   5.790
 9146SOL     OW28336   6.441   3.035   2.878
 9146SOL    HW128337   6.360   3.005   2.929
 9146SOL    HW228338   6.523   3.002   2.923
 9147SOL     OW28339   4.070   0.034   4.184
 9147SOL    HW128340   4.108   6.986   4.248
 9147SOL    HW228341   3.972   0.020   4.175
 9148SOL     OW28342   6.176   6.354   1.693
 9148SOL    HW128343   6.185   6.344   1.792
 9148SOL    HW228344   6.097   6.303   1.661
 9149SOL     OW28345   0.513   3.773   2.116
 9149SOL    HW128346   0.456   3.789   2.196
 9149SOL    HW228347   0.528   3.859   2.067
 9150SOL     OW28348   2.659   2.508   0.888
 9150SOL    HW128349   2.630   2.421   0.850
 9150SOL    HW228350   2.733   2.546   0.833
 9151SOL     OW28351   1.731   3.114   3.936
 9151SOL    HW128352   1.655   3.108   3.871
 9151SOL    HW228353   1.802   3.174   3.898
 9152SOL     OW28354   1.951   4.515   3.196
 9152SOL    HW128355   2.006   4.497   3.114
 9152SOL    HW228356   1.933   4.429   3.243
 9153SOL     OW28357   6.522   4.165   0.097
 9153SOL    HW128358   6.560   4.245   0.051
 9153SOL    HW228359   6.595   4.098   0.112
 9154SOL     OW28360   5.535   4.892   2.455
 9154SOL    HW128361   5.577   4.806   2.426
 9154SOL    HW228362   5.442   4.875   2.488
 9155SOL     OW28363   1.343   6.326   2.451
 9155SOL    HW128364   1.262   6.382   2.432
 9155SOL    HW228365   1.398   6.318   2.367
 9156SOL     OW28366   6.801   4.081   6.714
 9156SOL    HW128367   6.790   4.005   6.650
 9156SOL    HW228368   6.875   4.059   6.778
 9157SOL     OW28369   1.946   4.952   6.340
 9157SOL    HW128370   1.862   4.948   6.285
 9157SOL    HW228371   1.934   4.899   6.424
 9158SOL     OW28372   6.844   3.456   4.700
 9158SOL    HW128373   6.943   3.445   4.694
 9158SOL    HW228374   6.812   3.514   4.625
 9159SOL     OW28375   3.558   1.545   3.842
 9159SOL    HW128376   3.485   1.495   3.889
 9159SOL    HW228377   3.517   1.608   3.776
 9160SOL     OW28378   0.078   4.555   1.218
 9160SOL    HW128379   0.161   4.528   1.169
 9160SOL    HW228380   0.084   4.652   1.240
 9161SOL     OW28381   6.348   4.653   1.573
 9161SOL    HW128382   6.308   4.728   1.625
 9161SOL    HW228383   6.444   4.642   1.598
 9162SOL     OW28384   4.199   1.819   1.638
 9162SOL    HW128385   4.239   1.853   1.552
 9162SOL    HW228386   4.262   1.755   1.681
 9163SOL     OW28387   1.243   2.523   3.611
 9163SOL    HW128388   1.258   2.537   3.513
 9163SOL    HW228389   1.148   2.495   3.627
 9164SOL     OW28390   3.006   6.989   0.114
 9164SOL    HW128391   3.079   0.012   0.169
 9164SOL    HW228392   2.962   6.917   0.168
 9165SOL     OW28393   5.307   1.700   6.065
 9165SOL    HW128394   5.281   1.796   6.067
 9165SOL    HW228395   5.287   1.658   6.154
 9166SOL     OW28396   5.320   5.737   1.662
 9166SOL    HW128397   5.404   5.691   1.631
 9166SOL    HW228398   5.301   5.815   1.603
 9167SOL     OW28399   1.515   1.306   4.530
 9167SOL    HW128400   1.556   1.393   4.555
 9167SOL    HW228401   1.533   1.286   4.434
 9168SOL     OW28402   6.612   5.991   4.658
 9168SOL    HW128403   6.635   5.942   4.574
 9168SOL    HW228404   6.518   6.022   4.654
 9169SOL     OW28405   6.739   5.871   0.575
 9169SOL    HW128406   6.769   5.943   0.512
 9169SOL    HW228407   6.687   5.802   0.524
 9170SOL     OW28408   1.446   1.491   6.106
 9170SOL    HW128409   1.387   1.419   6.068
 9170SOL    HW228410   1.476   1.552   6.034
 9171SOL     OW28411   3.339   4.700   6.942
 9171SOL    HW128412   3.244   4.725   6.923
 9171SOL    HW228413   3.355   4.701   0.022
 9172SOL     OW28414   4.550   1.163   3.651
 9172SOL    HW128415   4.524   1.255   3.679
 9172SOL    HW228416   4.609   1.122   3.721
 9173SOL     OW28417   5.769   3.194   4.736
 9173SOL    HW128418   5.827   3.163   4.812
 9173SOL    HW228419   5.708   3.119   4.708
 9174SOL     OW28420   0.566   4.422   0.540
 9174SOL    HW128421   0.499   4.403   0.612
 9174SOL    HW228422   0.525   4.484   0.473
 9175SOL     OW28423   2.301   0.499   6.947
 9175SOL    HW128424   2.264   0.586   6.980
 9175SOL    HW228425   2.295   0.496   6.848
 9176SOL     OW28426   1.401   1.709   2.613
 9176SOL    HW128427   1.461   1.688   2.535
 9176SOL    HW228428   1.430   1.655   2.692
 9177SOL     OW28429   0.451   4.191   3.742
 9177SOL    HW128430   0.513   4.194   3.820
 9177SOL    HW228431   0.504   4.199   3.657
 9178SOL     OW28432   2.130   5.898   0.335
 9178SOL    HW128433   2.091   5.956   0.263
 9178SOL    HW228434   2.092   5.806   0.327
 9179SOL     OW28435   3.467   5.406   4.442
 9179SOL    HW128436   3.423   5.391   4.353
 9179SOL    HW228437   3.435   5.337   4.507
 9180SOL     OW28438   6.487   0.675   5.182
 9180SOL    HW128439   6.501   0.716   5.092
 9180SOL    HW228440   6.408   0.614   5.180
 9181SOL     OW28441   2.870   1.837   3.400
 9181SOL    HW128442   2.836   1.862   3.309
 9181SOL    HW228443   2.837   1.746   3.425
 9182SOL     OW28444   1.216   1.247   2.965
 9182SOL    HW128445   1.138   1.185   2.973
 9182SOL    HW228446   1.246   1.251   2.870
 9183SOL     OW28447   1.002   2.000   6.160
 9183SOL    HW128448   1.038   2.090   6.183
 9183SOL    HW228449   0.994   1.944   6.242
 9184SOL     OW28450   3.672   3.313   0.591
 9184SOL    HW128451   3.771   3.318   0.589
 9184SOL    HW228452   3.643   3.217   0.590
 9185SOL     OW28453   1.106   0.948   6.720
 9185SOL    HW128454   1.062   0.934   6.808
 9185SOL    HW228455   1.161   0.868   6.696
 9186SOL     OW28456   5.415   1.104   6.279
 9186SOL    HW128457   5.431   1.122   6.182
 9186SOL    HW228458   5.417   1.190   6.329
 9187SOL     OW28459   5.851   2.144   0.501
 9187SOL    HW128460   5.782   2.207   0.537
 9187SOL    HW228461   5.921   2.195   0.453
 9188SOL     OW28462   1.490   0.402   1.796
 9188SOL    HW128463   1.583   0.366   1.792
 9188SOL    HW228464   1.491   0.500   1.773
 9189SOL     OW28465   4.101   1.474   4.677
 9189SOL    HW128466   4.194   1.441   4.660
 9189SOL    HW228467   4.040   1.437   4.606
 9190SOL     OW28468   6.842   2.148   5.420
 9190SOL    HW128469   6.926   2.164   5.370
 9190SOL    HW228470   6.843   2.201   5.505
 9191SOL     OW28471   5.568   6.649   0.511
 9191SOL    HW128472   5.471   6.652   0.534
 9191SOL    HW228473   5.589   6.720   0.444
 9192SOL     OW28474   5.331   4.555   4.736
 9192SOL    HW128475   5.342   4.565   4.638
 9192SOL    HW228476   5.416   4.582   4.782
 9193SOL     OW28477   3.605   2.839   3.596
 9193SOL    HW128478   3.553   2.762   3.559
 9193SOL    HW228479   3.570   2.862   3.686
 9194SOL     OW28480   3.236   5.868   2.789
 9194SOL    HW128481   3.220   5.823   2.701
 9194SOL    HW228482   3.325   5.914   2.787
 9195SOL     OW28483   6.892   3.159   2.950
 9195SOL    HW128484   6.798   3.128   2.940
 9195SOL    HW228485   6.954   3.094   2.905
 9196SOL     OW28486   4.547   0.181   3.688
 9196SOL    HW128487   4.449   0.200   3.678
 9196SOL    HW228488   4.597   0.227   3.615
 9197SOL     OW28489   3.650   3.210   5.648
 9197SOL    HW128490   3.744   3.201   5.680
 9197SOL    HW228491   3.625   3.307   5.646
 9198SOL     OW28492   5.002   2.437   5.331
 9198SOL    HW128493   4.987   2.342   5.358
 9198SOL    HW228494   4.922   2.471   5.281
 9199SOL     OW28495   1.272   3.742   6.483
 9199SOL    HW128496   1.358   3.691   6.477
 9199SOL    HW228497   1.259   3.777   6.576
 9200SOL     OW28498   6.287   6.292   0.604
 9200SOL    HW128499   6.324   6.339   0.524
 9200SOL    HW228500   6.351   6.300   0.680
 9201SOL     OW28501   1.795   4.157   3.396
 9201SOL    HW128502   1.778   4.206   3.310
 9201SOL    HW228503   1.774   4.060   3.383
 9202SOL     OW28504   3.142   5.407   3.875
 9202SOL    HW128505   3.099   5.330   3.921
 9202SOL    HW228506   3.091   5.429   3.792
 9203SOL     OW28507   5.104   0.784   6.433
 9203SOL    HW128508   5.040   0.708   6.422
 9203SOL    HW228509   5.097   0.846   6.355
 9204SOL     OW28510   4.652   4.119   1.687
 9204SOL    HW128511   4.646   4.156   1.594
 9204SOL    HW228512   4.592   4.172   1.747
 9205SOL     OW28513   4.879   3.123   2.349
 9205SOL    HW128514   4.976   3.144   2.352
 9205SOL    HW228515   4.866   3.024   2.357
 9206SOL     OW28516   0.735   0.010   3.055
 9206SOL    HW128517   0.642   0.040   3.033
 9206SOL    HW228518   0.748   6.935   3.024
 9207SOL     OW28519   4.187   6.196   0.185
 9207SOL    HW128520   4.207   6.098   0.179
 9207SOL    HW228521   4.182   6.235   0.093
 9208SOL     OW28522   4.484   4.782   2.563
 9208SOL    HW128523   4.571   4.814   2.600
 9208SOL    HW228524   4.431   4.860   2.529
 9209SOL     OW28525   3.642   0.670   3.201
 9209SOL    HW128526   3.643   0.579   3.161
 9209SOL    HW228527   3.734   0.710   3.195
 9210SOL     OW28528   1.256   6.967   0.338
 9210SOL    HW128529   1.330   6.904   0.314
 9210SOL    HW228530   1.203   6.929   0.413
 9211SOL     OW28531   4.814   1.827   6.310
 9211SOL    HW128532   4.722   1.818   6.348
 9211SOL    HW228533   4.871   1.750   6.342
 9212SOL     OW28534   5.982   3.339   4.622
 9212SOL    HW128535   5.900   3.293   4.656
 9212SOL    HW228536   5.957   3.421   4.572
 9213SOL     OW28537   6.675   6.988   2.475
 9213SOL    HW128538   6.616   0.026   2.532
 9213SOL    HW228539   6.701   0.019   2.393
 9214SOL     OW28540   2.090   2.383   5.226
 9214SOL    HW128541   2.144   2.429   5.155
 9214SOL    HW228542   2.063   2.293   5.193
 9215SOL     OW28543   0.831   3.252   2.737
 9215SOL    HW128544   0.764   3.185   2.770
 9215SOL    HW228545   0.784   3.326   2.690
 9216SOL     OW28546   2.813   5.609   4.517
 9216SOL    HW128547   2.864   5.525   4.496
 9216SOL    HW228548   2.715   5.591   4.512
 9217SOL     OW28549   4.564   1.202   6.290
 9217SOL    HW128550   4.545   1.144   6.211
 9217SOL    HW228551   4.488   1.266   6.304
 9218SOL     OW28552   6.230   5.382   6.745
 9218SOL    HW128553   6.187   5.405   6.658
 9218SOL    HW228554   6.174   5.314   6.793
 9219SOL     OW28555   3.512   2.799   5.549
 9219SOL    HW128556   3.544   2.828   5.459
 9219SOL    HW228557   3.477   2.705   5.543
 9220SOL     OW28558   0.915   6.439   3.696
 9220SOL    HW128559   1.007   6.477   3.687
 9220SOL    HW228560   0.871   6.437   3.606
 9221SOL     OW28561   2.541   1.594   0.838
 9221SOL    HW128562   2.601   1.656   0.788
 9221SOL    HW228563   2.574   1.584   0.932
 9222SOL     OW28564   1.866   2.897   4.058
 9222SOL    HW128565   1.808   2.817   4.042
 9222SOL    HW228566   1.823   2.979   4.020
 9223SOL     OW28567   0.555   3.228   5.020
 9223SOL    HW128568   0.651   3.254   5.036
 9223SOL    HW228569   0.522   3.273   4.937
 9224SOL     OW28570   2.245   4.195   3.674
 9224SOL    HW128571   2.229   4.224   3.580
 9224SOL    HW228572   2.309   4.258   3.718
 9225SOL     OW28573   5.227   5.658   6.680
 9225SOL    HW128574   5.135   5.641   6.644
 9225SOL    HW228575   5.228   5.745   6.729
 9226SOL     OW28576   0.748   0.840   0.999
 9226SOL    HW128577   0.803   0.758   1.015
 9226SOL    HW228578   0.808   0.920   1.000
 9227SOL     OW28579   2.320   4.661   0.727
 9227SOL    HW128580   2.264   4.610   0.661
 9227SOL    HW228581   2.399   4.605   0.752
 9228SOL     OW28582   3.710   3.082   5.366
 9228SOL    HW128583   3.700   3.114   5.460
 9228SOL    HW228584   3.800   3.109   5.331
 9229SOL     OW28585   0.367   5.063   0.166
 9229SOL    HW128586   0.285   5.074   0.223
 9229SOL    HW228587   0.340   5.054   0.070
 9230SOL     OW28588   4.471   1.503   5.191
 9230SOL    HW128589   4.469   1.542   5.283
 9230SOL    HW228590   4.547   1.439   5.183
 9231SOL     OW28591   6.382   5.310   3.593
 9231SOL    HW128592   6.449   5.251   3.638
 9231SOL    HW228593   6.429   5.391   3.558
 9232SOL     OW28594   1.461   5.051   2.702
 9232SOL    HW128595   1.557   5.080   2.700
 9232SOL    HW228596   1.404   5.121   2.659
 9233SOL     OW28597   0.619   6.690   6.585
 9233SOL    HW128598   0.557   6.723   6.656
 9233SOL    HW228599   0.567   6.648   6.511
 9234SOL     OW28600   2.103   3.986   0.456
 9234SOL    HW128601   2.167   3.918   0.419
 9234SOL    HW228602   2.154   4.060   0.498
 9235SOL     OW28603   1.797   2.195   3.267
 9235SOL    HW128604   1.847   2.109   3.256
 9235SOL    HW228605   1.827   2.260   3.197
 9236SOL     OW28606   2.623   3.392   6.687
 9236SOL    HW128607   2.694   3.322   6.687
 9236SOL    HW228608   2.543   3.358   6.637
 9237SOL     OW28609   5.472   4.874   3.204
 9237SOL    HW128610   5.433   4.907   3.290
 9237SOL    HW228611   5.431   4.924   3.128
 9238SOL     OW28612   1.326   2.678   5.169
 9238SOL    HW128613   1.405   2.620   5.189
 9238SOL    HW228614   1.351   2.744   5.098
 9239SOL     OW28615   1.445   5.137   0.076
 9239SOL    HW128616   1.374   5.117   0.144
 9239SOL    HW228617   1.489   5.051   0.049
 9240SOL     OW28618   4.313   2.375   2.860
 9240SOL    HW128619   4.369   2.417   2.931
 9240SOL    HW228620   4.239   2.323   2.902
 9241SOL     OW28621   5.891   6.358   1.248
 9241SOL    HW128622   5.952   6.282   1.268
 9241SOL    HW228623   5.944   6.442   1.236
 9242SOL     OW28624   1.094   2.526   0.328
 9242SOL    HW128625   1.112   2.505   0.424
 9242SOL    HW228626   1.074   2.623   0.317
 9243SOL     OW28627   0.994   0.815   0.166
 9243SOL    HW128628   1.087   0.810   0.131
 9243SOL    HW228629   0.944   0.732   0.142
 9244SOL     OW28630   3.121   6.927   5.246
 9244SOL    HW128631   3.142   6.973   5.159
 9244SOL    HW228632   3.204   6.883   5.280
 9245SOL     OW28633   1.297   4.753   3.641
 9245SOL    HW128634   1.356   4.688   3.689
 9245SOL    HW228635   1.212   4.709   3.615
 9246SOL     OW28636   6.249   0.335   6.693
 9246SOL    HW128637   6.193   0.284   6.627
 9246SOL    HW228638   6.234   0.433   6.680
 9247SOL     OW28639   3.750   6.592   2.894
 9247SOL    HW128640   3.692   6.576   2.973
 9247SOL    HW228641   3.707   6.659   2.834
 9248SOL     OW28642   2.313   1.093   6.871
 9248SOL    HW128643   2.405   1.058   6.889
 9248SOL    HW228644   2.308   1.189   6.897
 9249SOL     OW28645   3.479   5.863   0.743
 9249SOL    HW128646   3.474   5.960   0.766
 9249SOL    HW228647   3.435   5.847   0.654
 9250SOL     OW28648   0.528   2.925   3.661
 9250SOL    HW128649   0.614   2.891   3.624
 9250SOL    HW228650   0.498   2.867   3.736
 9251SOL     OW28651   2.928   2.988   1.216
 9251SOL    HW128652   2.974   3.042   1.287
 9251SOL    HW228653   2.887   3.050   1.149
 9252SOL     OW28654   5.332   2.134   5.139
 9252SOL    HW128655   5.430   2.116   5.130
 9252SOL    HW228656   5.309   2.219   5.092
 9253SOL     OW28657   1.044   5.403   5.267
 9253SOL    HW128658   1.051   5.358   5.356
 9253SOL    HW228659   0.951   5.393   5.232
 9254SOL     OW28660   0.229   4.432   2.642
 9254SOL    HW128661   0.176   4.447   2.558
 9254SOL    HW228662   0.185   4.361   2.696
 9255SOL     OW28663   0.034   4.335   0.631
 9255SOL    HW128664   0.063   4.247   0.668
 9255SOL    HW228665   7.004   4.387   0.701
 9256SOL     OW28666   2.665   6.161   1.451
 9256SOL    HW128667   2.636   6.181   1.544
 9256SOL    HW228668   2.739   6.222   1.425
 9257SOL     OW28669   6.740   5.932   3.904
 9257SOL    HW128670   6.799   5.999   3.949
 9257SOL    HW228671   6.743   5.846   3.955
 9258SOL     OW28672   3.597   4.985   1.430
 9258SOL    HW128673   3.671   5.043   1.465
 9258SOL    HW228674   3.597   4.898   1.478
 9259SOL     OW28675   1.985   1.837   0.250
 9259SOL    HW128676   1.930   1.823   0.168
 9259SOL    HW228677   2.030   1.750   0.275
 9260SOL     OW28678   5.793   4.108   4.810
 9260SOL    HW128679   5.839   4.038   4.865
 9260SOL    HW228680   5.803   4.197   4.854
 9261SOL     OW28681   3.606   2.584   1.742
 9261SOL    HW128682   3.702   2.601   1.720
 9261SOL    HW228683   3.594   2.488   1.767
 9262SOL     OW28684   6.493   5.747   4.924
 9262SOL    HW128685   6.550   5.830   4.925
 9262SOL    HW228686   6.443   5.740   5.010
 9263SOL     OW28687   1.725   3.984   4.101
 9263SOL    HW128688   1.643   3.996   4.157
 9263SOL    HW228689   1.800   4.037   4.141
 9264SOL     OW28690   4.447   4.442   0.206
 9264SOL    HW128691   4.510   4.455   0.130
 9264SOL    HW228692   4.426   4.530   0.247
 9265SOL     OW28693   6.284   1.954   0.503
 9265SOL    HW128694   6.349   2.028   0.517
 9265SOL    HW228695   6.204   1.968   0.561
 9266SOL     OW28696   1.209   4.740   1.214
 9266SOL    HW128697   1.171   4.829   1.239
 9266SOL    HW228698   1.303   4.734   1.247
 9267SOL     OW28699   6.488   0.984   4.411
 9267SOL    HW128700   6.413   0.993   4.476
 9267SOL    HW228701   6.454   1.005   4.319
 9268SOL     OW28702   0.823   0.244   1.746
 9268SOL    HW128703   0.892   0.248   1.818
 9268SOL    HW228704   0.739   0.289   1.778
 9269SOL     OW28705   3.758   1.222   0.180
 9269SOL    HW128706   3.809   1.141   0.152
 9269SOL    HW228707   3.662   1.198   0.192
 9270SOL     OW28708   2.158   0.236   6.381
 9270SOL    HW128709   2.064   0.235   6.414
 9270SOL    HW228710   2.160   0.274   6.288
 9271SOL     OW28711   1.088   6.318   4.864
 9271SOL    HW128712   0.990   6.323   4.878
 9271SOL    HW228713   1.132   6.275   4.943
 9272SOL     OW28714   6.878   6.446   5.975
 9272SOL    HW128715   6.800   6.400   5.932
 9272SOL    HW228716   6.849   6.483   6.064
 9273SOL     OW28717   4.997   4.687   3.718
 9273SOL    HW128718   4.961   4.780   3.717
 9273SOL    HW228719   4.941   4.629   3.658
 9274SOL     OW28720   0.485   2.734   0.584
 9274SOL    HW128721   0.428   2.712   0.505
 9274SOL    HW228722   0.581   2.729   0.558
 9275SOL     OW28723   6.786   0.912   0.323
 9275SOL    HW128724   6.808   0.910   0.225
 9275SOL    HW228725   6.806   1.002   0.360
 9276SOL     OW28726   2.573   5.528   0.498
 9276SOL    HW128727   2.673   5.522   0.503
 9276SOL    HW228728   2.546   5.622   0.477
 9277SOL     OW28729   5.026   5.655   1.643
 9277SOL    HW128730   4.988   5.636   1.552
 9277SOL    HW228731   5.125   5.671   1.635
 9278SOL     OW28732   1.147   0.332   5.299
 9278SOL    HW128733   1.127   0.376   5.211
 9278SOL    HW228734   1.062   0.299   5.340
 9279SOL     OW28735   4.283   6.000   1.579
 9279SOL    HW128736   4.336   5.921   1.547
 9279SOL    HW228737   4.207   6.017   1.517
 9280SOL     OW28738   1.515   6.846   2.412
 9280SOL    HW128739   1.554   6.867   2.502
 9280SOL    HW228740   1.589   6.825   2.348
 9281SOL     OW28741   2.311   5.286   0.094
 9281SOL    HW128742   2.353   5.236   0.170
 9281SOL    HW228743   2.307   5.383   0.117
 9282SOL     OW28744   2.844   6.907   4.931
 9282SOL    HW128745   2.846   6.866   5.022
 9282SOL    HW228746   2.867   7.004   4.937
 9283SOL     OW28747   4.127   6.481   0.849
 9283SOL    HW128748   4.216   6.484   0.805
 9283SOL    HW228749   4.126   6.545   0.926
 9284SOL     OW28750   3.616   4.009   5.165
 9284SOL    HW128751   3.650   3.926   5.121
 9284SOL    HW228752   3.541   4.047   5.110
 9285SOL     OW28753   0.643   5.338   2.660
 9285SOL    HW128754   0.739   5.354   2.635
 9285SOL    HW228755   0.639   5.274   2.737
 9286SOL     OW28756   4.558   6.418   1.550
 9286SOL    HW128757   4.460   6.400   1.557
 9286SOL    HW228758   4.609   6.332   1.557
 9287SOL     OW28759   3.524   4.484   6.330
 9287SOL    HW128760   3.609   4.451   6.289
 9287SOL    HW228761   3.467   4.524   6.258
 9288SOL     OW28762   3.513   1.896   2.455
 9288SOL    HW128763   3.493   1.986   2.493
 9288SOL    HW228764   3.438   1.833   2.479
 9289SOL     OW28765   5.121   6.519   0.517
 9289SOL    HW128766   5.219   6.530   0.534
 9289SOL    HW228767   5.081   6.462   0.589
 9290SOL     OW28768   4.536   0.830   3.826
 9290SOL    HW128769   4.443   0.858   3.848
 9290SOL    HW228770   4.535   0.765   3.750
 9291SOL     OW28771   0.970   4.622   6.136
 9291SOL    HW128772   0.904   4.568   6.188
 9291SOL    HW228773   0.938   4.717   6.131
 9292SOL     OW28774   1.042   1.395   6.512
 9292SOL    HW128775   0.952   1.395   6.556
 9292SOL    HW228776   1.083   1.304   6.522
 9293SOL     OW28777   4.769   2.633   4.523
 9293SOL    HW128778   4.741   2.677   4.608
 9293SOL    HW228779   4.864   2.602   4.530
 9294SOL     OW28780   4.815   1.046   6.809
 9294SOL    HW128781   4.742   1.056   6.877
 9294SOL    HW228782   4.808   1.119   6.741
 9295SOL     OW28783   0.645   1.075   5.153
 9295SOL    HW128784   0.708   1.040   5.223
 9295SOL    HW228785   0.610   1.164   5.182
 9296SOL     OW28786   1.731   4.700   6.940
 9296SOL    HW128787   1.706   4.603   6.933
 9296SOL    HW228788   1.649   4.756   6.929
 9297SOL     OW28789   6.072   6.035   2.548
 9297SOL    HW128790   6.171   6.019   2.547
 9297SOL    HW228791   6.026   5.961   2.499
 9298SOL     OW28792   1.603   5.304   6.652
 9298SOL    HW128793   1.662   5.384   6.641
 9298SOL    HW228794   1.657   5.220   6.640
 9299SOL     OW28795   2.091   2.594   4.555
 9299SOL    HW128796   2.076   2.691   4.575
 9299SOL    HW228797   2.072   2.540   4.637
 9300SOL     OW28798   1.475   5.128   5.116
 9300SOL    HW128799   1.472   5.156   5.020
 9300SOL    HW228800   1.505   5.205   5.172
 9301SOL     OW28801   0.611   4.621   4.804
 9301SOL    HW128802   0.679   4.548   4.813
 9301SOL    HW228803   0.565   4.635   4.892
 9302SOL     OW28804   2.510   3.587   5.398
 9302SOL    HW128805   2.557   3.671   5.372
 9302SOL    HW228806   2.418   3.587   5.357
 9303SOL     OW28807   2.369   4.317   0.992
 9303SOL    HW128808   2.359   4.376   0.912
 9303SOL    HW228809   2.434   4.357   1.056
 9304SOL     OW28810   4.171   5.216   7.006
 9304SOL    HW128811   4.197   5.310   0.010
 9304SOL    HW228812   4.078   5.198   0.021
 9305SOL     OW28813   2.047   2.097   1.678
 9305SOL    HW128814   2.099   2.051   1.605
 9305SOL    HW228815   1.964   2.044   1.697
 9306SOL     OW28816   6.707   5.660   4.714
 9306SOL    HW128817   6.683   5.693   4.622
 9306SOL    HW228818   6.623   5.631   4.761
 9307SOL     OW28819   2.441   3.253   1.452
 9307SOL    HW128820   2.426   3.172   1.509
 9307SOL    HW228821   2.403   3.334   1.498
 9308SOL     OW28822   2.131   3.801   2.051
 9308SOL    HW128823   2.034   3.795   2.026
 9308SOL    HW228824   2.173   3.711   2.044
 9309SOL     OW28825   5.024   5.199   6.408
 9309SOL    HW128826   5.025   5.203   6.508
 9309SOL    HW228827   5.069   5.280   6.371
 9310SOL     OW28828   5.891   6.245   6.893
 9310SOL    HW128829   5.942   6.294   6.963
 9310SOL    HW228830   5.895   6.296   6.807
 9311SOL     OW28831   4.659   3.698   1.563
 9311SOL    HW128832   4.659   3.783   1.616
 9311SOL    HW228833   4.572   3.650   1.576
 9312SOL     OW28834   0.671   3.058   2.871
 9312SOL    HW128835   0.702   3.041   2.964
 9312SOL    HW228836   0.573   3.076   2.872
 9313SOL     OW28837   0.485   0.752   2.245
 9313SOL    HW128838   0.429   0.786   2.320
 9313SOL    HW228839   0.428   0.708   2.177
 9314SOL     OW28840   5.267   3.739   0.659
 9314SOL    HW128841   5.260   3.697   0.749
 9314SOL    HW228842   5.363   3.739   0.629
 9315SOL     OW28843   5.177   0.293   6.264
 9315SOL    HW128844   5.253   0.358   6.256
 9315SOL    HW228845   5.119   0.299   6.183
 9316SOL     OW28846   4.653   0.369   5.629
 9316SOL    HW128847   4.730   0.376   5.566
 9316SOL    HW228848   4.671   0.294   5.694
 9317SOL     OW28849   3.955   6.484   3.137
 9317SOL    HW128850   3.926   6.535   3.056
 9317SOL    HW228851   3.875   6.442   3.179
 9318SOL     OW28852   4.500   6.159   1.654
 9318SOL    HW128853   4.476   6.232   1.719
 9318SOL    HW228854   4.418   6.109   1.628
 9319SOL     OW28855   2.875   2.955   0.069
 9319SOL    HW128856   2.831   2.895   0.002
 9319SOL    HW228857   2.959   2.912   0.102
 9320SOL     OW28858   6.610   6.554   6.886
 9320SOL    HW128859   6.570   6.484   6.945
 9320SOL    HW228860   6.702   6.577   6.920
 9321SOL     OW28861   0.610   3.594   4.954
 9321SOL    HW128862   0.662   3.513   4.926
 9321SOL    HW228863   0.663   3.676   4.933
 9322SOL     OW28864   5.756   3.236   6.484
 9322SOL    HW128865   5.727   3.236   6.580
 9322SOL    HW228866   5.855   3.227   6.478
 9323SOL     OW28867   0.509   2.010   5.653
 9323SOL    HW128868   0.526   2.058   5.740
 9323SOL    HW228869   0.552   2.060   5.578
 9324SOL     OW28870   1.159   4.790   1.978
 9324SOL    HW128871   1.064   4.806   1.952
 9324SOL    HW228872   1.162   4.730   2.058
 9325SOL     OW28873   0.690   4.448   3.711
 9325SOL    HW128874   0.759   4.458   3.639
 9325SOL    HW228875   0.624   4.524   3.704
 9326SOL     OW28876   4.575   4.511   1.828
 9326SOL    HW128877   4.539   4.483   1.739
 9326SOL    HW228878   4.551   4.442   1.897
 9327SOL     OW28879   3.871   0.863   3.425
 9327SOL    HW128880   3.936   0.910   3.485
 9327SOL    HW228881   3.910   0.775   3.397
 9328SOL     OW28882   2.455   6.930   4.084
 9328SOL    HW128883   2.367   6.916   4.130
 9328SOL    HW228884   2.508   6.998   4.134
 9329SOL     OW28885   0.246   5.368   6.685
 9329SOL    HW128886   0.207   5.427   6.755
 9329SOL    HW228887   0.173   5.318   6.638
 9330SOL     OW28888   6.790   6.104   6.377
 9330SOL    HW128889   6.694   6.107   6.352
 9330SOL    HW228890   6.839   6.043   6.315
 9331SOL     OW28891   1.613   3.503   4.694
 9331SOL    HW128892   1.562   3.465   4.617
 9331SOL    HW228893   1.601   3.602   4.697
 9332SOL     OW28894   4.604   5.772   1.229
 9332SOL    HW128895   4.686   5.768   1.172
 9332SOL    HW228896   4.548   5.850   1.201
 9333SOL     OW28897   4.428   4.014   0.642
 9333SOL    HW128898   4.401   4.095   0.695
 9333SOL    HW228899   4.452   4.040   0.549
 9334SOL     OW28900   6.013   5.927   5.859
 9334SOL    HW128901   5.940   5.907   5.793
 9334SOL    HW228902   6.050   6.018   5.842
 9335SOL     OW28903   0.853   3.643   1.567
 9335SOL    HW128904   0.783   3.647   1.496
 9335SOL    HW228905   0.919   3.571   1.545
 9336SOL     OW28906   5.769   6.732   5.405
 9336SOL    HW128907   5.840   6.795   5.437
 9336SOL    HW228908   5.813   6.653   5.360
 9337SOL     OW28909   2.586   0.420   6.561
 9337SOL    HW128910   2.621   0.513   6.572
 9337SOL    HW228911   2.642   0.357   6.614
 9338SOL     OW28912   5.351   6.573   0.247
 9338SOL    HW128913   5.444   6.538   0.254
 9338SOL    HW228914   5.286   6.501   0.270
 9339SOL     OW28915   6.101   3.713   5.684
 9339SOL    HW128916   6.087   3.615   5.672
 9339SOL    HW228917   6.085   3.760   5.597
 9340SOL     OW28918   3.717   5.733   1.229
 9340SOL    HW128919   3.738   5.652   1.284
 9340SOL    HW228920   3.634   5.717   1.176
 9341SOL     OW28921   5.035   4.191   0.093
 9341SOL    HW128922   4.941   4.166   0.069
 9341SOL    HW228923   5.048   4.289   0.080
 9342SOL     OW28924   3.017   0.399   4.018
 9342SOL    HW128925   2.967   0.485   4.014
 9342SOL    HW228926   2.956   0.323   3.994
 9343SOL     OW28927   4.515   3.920   1.427
 9343SOL    HW128928   4.538   3.828   1.459
 9343SOL    HW228929   4.589   3.954   1.369
 9344SOL     OW28930   6.284   6.067   5.292
 9344SOL    HW128931   6.319   6.142   5.348
 9344SOL    HW228932   6.185   6.080   5.278
 9345SOL     OW28933   0.773   6.204   0.398
 9345SOL    HW128934   0.727   6.244   0.478
 9345SOL    HW228935   0.731   6.240   0.314
 9346SOL     OW28936   6.077   5.609   0.841
 9346SOL    HW128937   6.097   5.567   0.930
 9346SOL    HW228938   6.069   5.708   0.852
 9347SOL     OW28939   3.520   5.451   0.889
 9347SOL    HW128940   3.441   5.497   0.849
 9347SOL    HW228941   3.593   5.518   0.905
 9348SOL     OW28942   2.951   5.759   2.053
 9348SOL    HW128943   3.015   5.815   1.999
 9348SOL    HW228944   2.997   5.728   2.136
 9349SOL     OW28945   6.734   5.768   1.910
 9349SOL    HW128946   6.683   5.686   1.882
 9349SOL    HW228947   6.738   5.832   1.834
 9350SOL     OW28948   6.943   0.590   6.016
 9350SOL    HW128949   0.007   0.630   5.977
 9350SOL    HW228950   6.869   0.658   6.013
 9351SOL     OW28951   3.659   2.334   6.195
 9351SOL    HW128952   3.585   2.294   6.140
 9351SOL    HW228953   3.681   2.424   6.159
 9352SOL     OW28954   3.602   2.551   5.851
 9352SOL    HW128955   3.632   2.561   5.945
 9352SOL    HW228956   3.530   2.617   5.831
 9353SOL     OW28957   0.922   3.228   1.492
 9353SOL    HW128958   0.969   3.148   1.456
 9353SOL    HW228959   0.823   3.220   1.476
 9354SOL     OW28960   4.911   2.222   1.607
 9354SOL    HW128961   4.834   2.181   1.657
 9354SOL    HW228962   4.931   2.166   1.527
 9355SOL     OW28963   6.825   0.149   3.376
 9355SOL    HW128964   6.918   0.160   3.339
 9355SOL    HW228965   6.828   0.083   3.451
 9356SOL     OW28966   4.346   4.610   2.769
 9356SOL    HW128967   4.378   4.516   2.781
 9356SOL    HW228968   4.402   4.656   2.700
 9357SOL     OW28969   3.622   2.427   0.936
 9357SOL    HW128970   3.592   2.493   1.004
 9357SOL    HW228971   3.597   2.335   0.966
 9358SOL     OW28972   6.117   4.495   2.070
 9358SOL    HW128973   6.120   4.483   2.169
 9358SOL    HW228974   6.027   4.471   2.036
 9359SOL     OW28975   6.349   3.918   5.823
 9359SOL    HW128976   6.446   3.892   5.819
 9359SOL    HW228977   6.314   3.928   5.730
 9360SOL     OW28978   2.189   0.761   0.022
 9360SOL    HW128979   2.191   0.737   0.118
 9360SOL    HW228980   2.107   0.816   0.002
 9361SOL     OW28981   2.916   0.014   2.304
 9361SOL    HW128982   2.980   0.090   2.303
 9361SOL    HW228983   2.966   6.948   2.285
 9362SOL     OW28984   2.137   1.302   2.683
 9362SOL    HW128985   2.064   1.271   2.622
 9362SOL    HW228986   2.129   1.400   2.698
 9363SOL     OW28987   3.363   5.509   2.558
 9363SOL    HW128988   3.398   5.599   2.533
 9363SOL    HW228989   3.378   5.493   2.656
 9364SOL     OW28990   4.111   4.766   0.433
 9364SOL    HW128991   4.088   4.670   0.416
 9364SOL    HW228992   4.157   4.804   0.353
 9365SOL     OW28993   2.998   1.788   4.423
 9365SOL    HW128994   3.089   1.818   4.453
 9365SOL    HW228995   2.950   1.745   4.500
 9366SOL     OW28996   2.747   1.799   0.719
 9366SOL    HW128997   2.824   1.855   0.687
 9366SOL    HW228998   2.772   1.702   0.716
 9367SOL     OW28999   0.063   5.432   2.870
 9367SOL    HW129000   7.003   5.372   2.855
 9367SOL    HW229001   0.034   5.513   2.921
 9368SOL     OW29002   2.891   1.882   1.742
 9368SOL    HW129003   2.859   1.950   1.809
 9368SOL    HW229004   2.976   1.840   1.776
 9369SOL     OW29005   6.831   2.174   4.688
 9369SOL    HW129006   6.732   2.172   4.675
 9369SOL    HW229007   6.875   2.197   4.601
 9370SOL     OW29008   5.765   1.197   2.919
 9370SOL    HW129009   5.788   1.138   2.842
 9370SOL    HW229010   5.667   1.190   2.939
 9371SOL     OW29011   0.596   6.341   0.551
 9371SOL    HW129012   0.557   6.264   0.601
 9371SOL    HW229013   0.547   6.425   0.574
 9372SOL     OW29014   6.047   6.522   4.455
 9372SOL    HW129015   6.135   6.502   4.497
 9372SOL    HW229016   5.980   6.454   4.482
 9373SOL     OW29017   3.409   1.693   3.616
 9373SOL    HW129018   3.362   1.770   3.660
 9373SOL    HW229019   3.453   1.724   3.532
 9374SOL     OW29020   5.383   3.451   0.233
 9374SOL    HW129021   5.370   3.357   0.265
 9374SOL    HW229022   5.477   3.480   0.252
 9375SOL     OW29023   0.184   1.170   3.444
 9375SOL    HW129024   0.196   1.072   3.461
 9375SOL    HW229025   0.180   1.219   3.531
 9376SOL     OW29026   2.278   3.800   1.510
 9376SOL    HW129027   2.248   3.791   1.604
 9376SOL    HW229028   2.370   3.761   1.501
 9377SOL     OW29029   6.119   5.183   3.956
 9377SOL    HW129030   6.105   5.251   4.029
 9377SOL    HW229031   6.122   5.229   3.868
 9378SOL     OW29032   2.533   0.173   0.304
 9378SOL    HW129033   2.497   0.199   0.214
 9378SOL    HW229034   2.458   0.166   0.369
 9379SOL     OW29035   5.069   5.006   4.357
 9379SOL    HW129036   5.066   5.050   4.268
 9379SOL    HW229037   5.148   4.944   4.361
 9380SOL     OW29038   5.721   0.208   5.537
 9380SOL    HW129039   5.687   0.124   5.495
 9380SOL    HW229040   5.648   0.277   5.537
 9381SOL     OW29041   2.253   1.547   5.663
 9381SOL    HW129042   2.278   1.572   5.757
 9381SOL    HW229043   2.227   1.630   5.613
 9382SOL     OW29044   4.433   2.119   2.712
 9382SOL    HW129045   4.439   2.212   2.676
 9382SOL    HW229046   4.392   2.059   2.643
 9383SOL     OW29047   4.236   6.547   4.418
 9383SOL    HW129048   4.200   6.547   4.325
 9383SOL    HW229049   4.167   6.582   4.481
 9384SOL     OW29050   5.113   5.939   2.112
 9384SOL    HW129051   5.147   6.031   2.091
 9384SOL    HW229052   5.015   5.943   2.130
 9385SOL     OW29053   3.764   1.151   3.167
 9385SOL    HW129054   3.780   1.121   3.261
 9385SOL    HW229055   3.777   1.074   3.105
 9386SOL     OW29056   2.777   6.874   5.612
 9386SOL    HW129057   2.840   6.930   5.559
 9386SOL    HW229058   2.806   6.779   5.610
 9387SOL     OW29059   3.290   6.584   0.258
 9387SOL    HW129060   3.230   6.506   0.276
 9387SOL    HW229061   3.377   6.551   0.223
 9388SOL     OW29062   6.943   0.331   3.162
 9388SOL    HW129063   6.928   0.271   3.083
 9388SOL    HW229064   6.974   0.421   3.129
 9389SOL     OW29065   2.487   0.887   5.733
 9389SOL    HW129066   2.456   0.982   5.741
 9389SOL    HW229067   2.437   0.831   5.799
 9390SOL     OW29068   2.669   5.524   2.029
 9390SOL    HW129069   2.602   5.599   2.032
 9390SOL    HW229070   2.726   5.527   2.111
 9391SOL     OW29071   0.386   1.155   5.665
 9391SOL    HW129072   0.424   1.164   5.756
 9391SOL    HW229073   0.455   1.180   5.597
 9392SOL     OW29074   1.488   5.929   4.952
 9392SOL    HW129075   1.459   6.013   4.907
 9392SOL    HW229076   1.577   5.943   4.996
 9393SOL     OW29077   3.737   2.096   5.335
 9393SOL    HW129078   3.695   2.007   5.319
 9393SOL    HW229079   3.812   2.109   5.270
 9394SOL     OW29080   6.215   2.792   2.494
 9394SOL    HW129081   6.121   2.821   2.473
 9394SOL    HW229082   6.216   2.694   2.515
 9395SOL     OW29083   2.222   3.477   0.706
 9395SOL    HW129084   2.151   3.408   0.722
 9395SOL    HW229085   2.237   3.529   0.790
 9396SOL     OW29086   6.059   0.345   5.946
 9396SOL    HW129087   6.014   0.273   5.999
 9396SOL    HW229088   5.991   0.407   5.908
 9397SOL     OW29089   2.620   6.970   0.867
 9397SOL    HW129090   2.640   0.040   0.827
 9397SOL    HW229091   2.528   6.971   0.906
 9398SOL     OW29092   2.653   1.674   6.631
 9398SOL    HW129093   2.665   1.733   6.551
 9398SOL    HW229094   2.583   1.713   6.691
 9399SOL     OW29095   0.124   0.868   5.791
 9399SOL    HW129096   0.137   0.865   5.890
 9399SOL    HW229097   0.165   0.786   5.751
 9400SOL     OW29098   5.631   3.216   2.150
 9400SOL    HW129099   5.730   3.206   2.160
 9400SOL    HW229100   5.596   3.276   2.222
 9401SOL     OW29101   2.836   6.320   3.303
 9401SOL    HW129102   2.905   6.392   3.309
 9401SOL    HW229103   2.808   6.293   3.395
 9402SOL     OW29104   2.208   5.282   6.508
 9402SOL    HW129105   2.188   5.185   6.523
 9402SOL    HW229106   2.270   5.291   6.430
 9403SOL     OW29107   5.247   1.937   4.139
 9403SOL    HW129108   5.198   2.023   4.150
 9403SOL    HW229109   5.203   1.866   4.193
 9404SOL     OW29110   1.341   5.043   6.495
 9404SOL    HW129111   1.392   5.125   6.521
 9404SOL    HW229112   1.355   5.025   6.397
 9405SOL     OW29113   6.082   6.857   0.800
 9405SOL    HW129114   6.097   6.759   0.788
 9405SOL    HW229115   5.999   6.885   0.752
 9406SOL     OW29116   0.155   1.306   4.821
 9406SOL    HW129117   0.186   1.256   4.739
 9406SOL    HW229118   0.208   1.275   4.900
 9407SOL     OW29119   2.974   5.969   3.051
 9407SOL    HW129120   3.021   6.039   2.997
 9407SOL    HW229121   2.875   5.982   3.042
 9408SOL     OW29122   3.839   1.751   6.179
 9408SOL    HW129123   3.897   1.807   6.121
 9408SOL    HW229124   3.851   1.778   6.275
 9409SOL     OW29125   5.992   3.576   3.917
 9409SOL    HW129126   6.072   3.542   3.967
 9409SOL    HW229127   6.008   3.672   3.891
 9410SOL     OW29128   4.244   6.290   2.677
 9410SOL    HW129129   4.344   6.299   2.681
 9410SOL    HW229130   4.203   6.320   2.763
 9411SOL     OW29131   4.296   5.705   0.356
 9411SOL    HW129132   4.346   5.646   0.419
 9411SOL    HW229133   4.231   5.651   0.303
 9412SOL     OW29134   6.972   2.577   1.176
 9412SOL    HW129135   0.038   2.526   1.187
 9412SOL    HW229136   6.914   2.531   1.109
 9413SOL     OW29137   3.967   6.166   5.208
 9413SOL    HW129138   4.011   6.196   5.124
 9413SOL    HW229139   4.037   6.133   5.272
 9414SOL     OW29140   2.952   1.472   2.269
 9414SOL    HW129141   2.901   1.418   2.335
 9414SOL    HW229142   3.049   1.448   2.275
 9415SOL     OW29143   2.280   6.462   2.366
 9415SOL    HW129144   2.320   6.397   2.431
 9415SOL    HW229145   2.272   6.552   2.409
 9416SOL     OW29146   1.509   2.015   1.891
 9416SOL    HW129147   1.484   1.948   1.821
 9416SOL    HW229148   1.566   2.086   1.850
 9417SOL     OW29149   2.300   5.412   5.638
 9417SOL    HW129150   2.219   5.447   5.591
 9417SOL    HW229151   2.280   5.404   5.736
 9418SOL     OW29152   2.536   4.918   1.100
 9418SOL    HW129153   2.555   5.004   1.053
 9418SOL    HW229154   2.539   4.934   1.199
 9419SOL     OW29155   2.983   6.510   4.801
 9419SOL    HW129156   3.076   6.503   4.767
 9419SOL    HW229157   2.984   6.523   4.900
 9420SOL     OW29158   6.969   1.220   4.602
 9420SOL    HW129159   6.938   1.225   4.697
 9420SOL    HW229160   0.039   1.174   4.599
 9421SOL     OW29161   0.594   4.177   5.456
 9421SOL    HW129162   0.540   4.244   5.405
 9421SOL    HW229163   0.668   4.223   5.505
 9422SOL     OW29164   5.213   0.225   2.107
 9422SOL    HW129165   5.300   0.273   2.100
 9422SOL    HW229166   5.174   0.241   2.198
 9423SOL     OW29167   3.944   0.857   3.836
 9423SOL    HW129168   3.928   0.787   3.905
 9423SOL    HW229169   4.006   0.821   3.766
 9424SOL     OW29170   3.953   6.895   4.771
 9424SOL    HW129171   3.959   6.903   4.671
 9424SOL    HW229172   3.862   6.924   4.801
 9425SOL     OW29173   1.172   3.498   5.128
 9425SOL    HW129174   1.263   3.483   5.091
 9425SOL    HW229175   1.150   3.424   5.192
 9426SOL     OW29176   3.279   0.310   6.810
 9426SOL    HW129177   3.313   0.336   6.719
 9426SOL    HW229178   3.350   0.258   6.858
 9427SOL     OW29179   2.658   5.114   5.014
 9427SOL    HW129180   2.715   5.153   4.941
 9427SOL    HW229181   2.583   5.177   5.035
 9428SOL     OW29182   5.698   0.308   3.052
 9428SOL    HW129183   5.671   0.351   3.138
 9428SOL    HW229184   5.776   0.357   3.013
 9429SOL     OW29185   0.942   4.159   1.963
 9429SOL    HW129186   1.026   4.149   1.910
 9429SOL    HW229187   0.904   4.251   1.948
 9430SOL     OW29188   6.688   6.622   1.520
 9430SOL    HW129189   6.771   6.673   1.540
 9430SOL    HW229190   6.702   6.563   1.441
 9431SOL     OW29191   7.007   3.929   0.567
 9431SOL    HW129192   0.045   3.914   0.486
 9431SOL    HW229193   6.912   3.902   0.547
 9432SOL     OW29194   6.099   0.278   2.843
 9432SOL    HW129195   6.189   0.299   2.805
 9432SOL    HW229196   6.102   0.190   2.890
 9433SOL     OW29197   3.419   4.488   5.466
 9433SOL    HW129198   3.346   4.469   5.532
 9433SOL    HW229199   3.449   4.583   5.476
 9434SOL     OW29200   5.574   4.779   2.807
 9434SOL    HW129201   5.480   4.771   2.840
 9434SOL    HW229202   5.623   4.846   2.862
 9435SOL     OW29203   1.505   1.094   4.264
 9435SOL    HW129204   1.511   0.996   4.247
 9435SOL    HW229205   1.413   1.126   4.240
 9436SOL     OW29206   2.352   3.517   0.405
 9436SOL    HW129207   2.437   3.514   0.351
 9436SOL    HW229208   2.295   3.439   0.381
 9437SOL     OW29209   1.832   5.178   3.654
 9437SOL    HW129210   1.900   5.186   3.581
 9437SOL    HW229211   1.810   5.269   3.690
 9438SOL     OW29212   0.618   6.563   2.049
 9438SOL    HW129213   0.574   6.551   2.137
 9438SOL    HW229214   0.716   6.548   2.058
 9439SOL     OW29215   0.110   2.698   2.034
 9439SOL    HW129216   0.128   2.778   2.090
 9439SOL    HW229217   0.053   2.633   2.085
 9440SOL     OW29218   4.801   6.289   5.820
 9440SOL    HW129219   4.873   6.264   5.885
 9440SOL    HW229220   4.833   6.272   5.727
 9441SOL     OW29221   1.979   4.934   5.018
 9441SOL    HW129222   2.030   4.851   4.996
 9441SOL    HW229223   1.996   5.003   4.948
 9442SOL     OW29224   6.738   2.555   0.343
 9442SOL    HW129225   6.688   2.630   0.388
 9442SOL    HW229226   6.830   2.548   0.382
 9443SOL     OW29227   1.800   4.191   1.080
 9443SOL    HW129228   1.807   4.248   1.162
 9443SOL    HW229229   1.863   4.225   1.010
 9444SOL     OW29230   0.476   3.071   0.141
 9444SOL    HW129231   0.412   3.147   0.150
 9444SOL    HW229232   0.521   3.055   0.229
 9445SOL     OW29233   5.668   4.057   1.772
 9445SOL    HW129234   5.695   4.127   1.838
 9445SOL    HW229235   5.577   4.076   1.738
 9446SOL     OW29236   6.479   6.201   2.105
 9446SOL    HW129237   6.564   6.163   2.142
 9446SOL    HW229238   6.492   6.298   2.084
 9447SOL     OW29239   5.582   3.970   2.150
 9447SOL    HW129240   5.489   3.970   2.112
 9447SOL    HW229241   5.591   3.895   2.215
 9448SOL     OW29242   5.822   6.297   0.383
 9448SOL    HW129243   5.729   6.330   0.401
 9448SOL    HW229244   5.880   6.317   0.461
 9449SOL     OW29245   5.795   5.492   5.769
 9449SOL    HW129246   5.768   5.557   5.698
 9449SOL    HW229247   5.723   5.425   5.782
 9450SOL     OW29248   3.379   4.983   4.791
 9450SOL    HW129249   3.423   4.895   4.808
 9450SOL    HW229250   3.282   4.968   4.770
 9451SOL     OW29251   4.477   5.606   6.546
 9451SOL    HW129252   4.541   5.622   6.622
 9451SOL    HW229253   4.457   5.693   6.501
 9452SOL     OW29254   2.234   4.354   1.604
 9452SOL    HW129255   2.222   4.348   1.703
 9452SOL    HW229256   2.197   4.272   1.561
 9453SOL     OW29257   2.294   5.251   2.653
 9453SOL    HW129258   2.260   5.331   2.604
 9453SOL    HW229259   2.377   5.218   2.609
 9454SOL     OW29260   1.388   3.906   5.819
 9454SOL    HW129261   1.485   3.901   5.841
 9454SOL    HW229262   1.335   3.853   5.885
 9455SOL     OW29263   3.487   0.991   2.414
 9455SOL    HW129264   3.470   1.072   2.470
 9455SOL    HW229265   3.497   1.018   2.318
 9456SOL     OW29266   0.983   3.576   0.710
 9456SOL    HW129267   1.020   3.561   0.618
 9456SOL    HW229268   1.035   3.648   0.755
 9457SOL     OW29269   1.604   2.971   0.141
 9457SOL    HW129270   1.677   3.039   0.129
 9457SOL    HW229271   1.633   2.903   0.208
 9458SOL     OW29272   0.166   5.281   5.191
 9458SOL    HW129273   0.086   5.228   5.162
 9458SOL    HW229274   0.203   5.241   5.275
 9459SOL     OW29275   6.575   5.581   1.776
 9459SOL    HW129276   6.488   5.606   1.732
 9459SOL    HW229277   6.647   5.576   1.707
 9460SOL     OW29278   0.876   1.804   4.985
 9460SOL    HW129279   0.942   1.756   4.926
 9460SOL    HW229280   0.807   1.849   4.928
 9461SOL     OW29281   0.915   1.000   3.610
 9461SOL    HW129282   0.857   0.952   3.674
 9461SOL    HW229283   0.894   0.970   3.517
 9462SOL     OW29284   0.463   3.017   2.027
 9462SOL    HW129285   0.519   2.956   2.083
 9462SOL    HW229286   0.377   3.036   2.075
 9463SOL     OW29287   5.992   1.363   6.951
 9463SOL    HW129288   5.924   1.424   6.909
 9463SOL    HW229289   5.984   1.369   0.031
 9464SOL     OW29290   5.933   0.152   6.079
 9464SOL    HW129291   5.976   0.089   6.143
 9464SOL    HW229292   5.893   0.100   6.003
 9465SOL     OW29293   6.318   0.175   4.055
 9465SOL    HW129294   6.317   0.078   4.032
 9465SOL    HW229295   6.268   0.227   3.986
 9466SOL     OW29296   2.432   3.014   5.987
 9466SOL    HW129297   2.368   3.089   5.970
 9466SOL    HW229298   2.524   3.052   5.997
 9467SOL     OW29299   1.560   2.761   2.289
 9467SOL    HW129300   1.621   2.757   2.368
 9467SOL    HW229301   1.465   2.769   2.321
 9468SOL     OW29302   6.783   3.051   5.781
 9468SOL    HW129303   6.830   3.080   5.698
 9468SOL    HW229304   6.693   3.095   5.785
 9469SOL     OW29305   6.521   5.875   2.425
 9469SOL    HW129306   6.611   5.891   2.384
 9469SOL    HW229307   6.486   5.787   2.393
 9470SOL     OW29308   4.876   3.773   0.704
 9470SOL    HW129309   4.799   3.836   0.718
 9470SOL    HW229310   4.869   3.697   0.769
 9471SOL     OW29311   0.007   2.286   5.993
 9471SOL    HW129312   6.962   2.330   6.057
 9471SOL    HW229313   0.088   2.343   5.982
 9472SOL     OW29314   5.821   4.454   4.791
 9472SOL    HW129315   5.755   4.435   4.719
 9472SOL    HW229316   5.772   4.478   4.875
 9473SOL     OW29317   2.361   5.583   6.013
 9473SOL    HW129318   2.333   5.678   6.029
 9473SOL    HW229319   2.433   5.580   5.944
 9474SOL     OW29320   4.544   4.779   2.088
 9474SOL    HW129321   4.542   4.698   2.146
 9474SOL    HW229322   4.455   4.790   2.044
 9475SOL     OW29323   2.748   3.930   1.083
 9475SOL    HW129324   2.683   3.854   1.086
 9475SOL    HW229325   2.824   3.906   1.023
 9476SOL     OW29326   4.275   3.470   5.386
 9476SOL    HW129327   4.275   3.469   5.486
 9476SOL    HW229328   4.354   3.522   5.354
 9477SOL     OW29329   1.099   2.636   1.131
 9477SOL    HW129330   1.029   2.567   1.149
 9477SOL    HW229331   1.189   2.597   1.149
 9478SOL     OW29332   6.018   4.992   5.484
 9478SOL    HW129333   5.946   5.057   5.509
 9478SOL    HW229334   6.068   5.026   5.404
 9479SOL     OW29335   6.056   6.029   6.701
 9479SOL    HW129336   6.050   6.094   6.625
 9479SOL    HW229337   6.102   5.946   6.670
 9480SOL     OW29338   5.456   4.620   0.167
 9480SOL    HW129339   5.517   4.637   0.090
 9480SOL    HW229340   5.362   4.640   0.140
 9481SOL     OW29341   6.839   3.982   1.768
 9481SOL    HW129342   6.834   3.959   1.866
 9481SOL    HW229343   6.917   4.042   1.752
 9482SOL     OW29344   4.670   0.535   2.041
 9482SOL    HW129345   4.743   0.519   1.974
 9482SOL    HW229346   4.664   0.633   2.060
 9483SOL     OW29347   2.031   1.752   0.763
 9483SOL    HW129348   2.000   1.840   0.728
 9483SOL    HW229349   2.120   1.730   0.723
 9484SOL     OW29350   6.254   1.567   3.897
 9484SOL    HW129351   6.348   1.576   3.928
 9484SOL    HW229352   6.218   1.477   3.922
 9485SOL     OW29353   1.033   1.012   2.936
 9485SOL    HW129354   1.016   0.957   3.017
 9485SOL    HW229355   1.110   0.974   2.885
 9486SOL     OW29356   2.769   5.684   1.088
 9486SOL    HW129357   2.865   5.690   1.059
 9486SOL    HW229358   2.762   5.710   1.184
 9487SOL     OW29359   2.998   3.407   3.639
 9487SOL    HW129360   2.941   3.439   3.715
 9487SOL    HW229361   3.090   3.447   3.648
 9488SOL     OW29362   1.847   6.278   1.033
 9488SOL    HW129363   1.835   6.271   1.132
 9488SOL    HW229364   1.784   6.215   0.988
 9489SOL     OW29365   4.038   4.570   1.430
 9489SOL    HW129366   4.087   4.552   1.345
 9489SOL    HW229367   4.098   4.548   1.508
 9490SOL     OW29368   5.429   1.107   1.148
 9490SOL    HW129369   5.455   1.201   1.128
 9490SOL    HW229370   5.505   1.061   1.194
 9491SOL     OW29371   6.259   5.151   4.444
 9491SOL    HW129372   6.232   5.241   4.409
 9491SOL    HW229373   6.283   5.159   4.540
 9492SOL     OW29374   3.286   3.913   2.043
 9492SOL    HW129375   3.238   3.954   2.121
 9492SOL    HW229376   3.341   3.983   1.997
 9493SOL     OW29377   4.449   5.601   3.309
 9493SOL    HW129378   4.367   5.567   3.263
 9493SOL    HW229379   4.428   5.686   3.357
 9494SOL     OW29380   5.232   3.245   6.826
 9494SOL    HW129381   5.216   3.264   6.729
 9494SOL    HW229382   5.229   3.146   6.842
 9495SOL     OW29383   6.331   1.838   4.615
 9495SOL    HW129384   6.415   1.826   4.562
 9495SOL    HW229385   6.310   1.935   4.623
 9496SOL     OW29386   5.679   3.802   0.123
 9496SOL    HW129387   5.592   3.842   0.151
 9496SOL    HW229388   5.754   3.860   0.156
 9497SOL     OW29389   5.531   5.300   0.432
 9497SOL    HW129390   5.611   5.345   0.393
 9497SOL    HW229391   5.529   5.314   0.531
 9498SOL     OW29392   3.582   0.187   5.355
 9498SOL    HW129393   3.532   0.273   5.355
 9498SOL    HW229394   3.679   0.205   5.375
 9499SOL     OW29395   3.028   3.608   5.290
 9499SOL    HW129396   3.105   3.654   5.245
 9499SOL    HW229397   3.038   3.615   5.389
 9500SOL     OW29398   4.101   5.723   1.856
 9500SOL    HW129399   4.090   5.820   1.833
 9500SOL    HW229400   4.068   5.706   1.949
 9501SOL     OW29401   3.584   1.568   4.730
 9501SOL    HW129402   3.645   1.543   4.655
 9501SOL    HW229403   3.638   1.586   4.812
 9502SOL     OW29404   6.339   2.383   5.167
 9502SOL    HW129405   6.325   2.438   5.085
 9502SOL    HW229406   6.437   2.384   5.190
 9503SOL     OW29407   0.538   6.987   2.090
 9503SOL    HW129408   0.521   0.053   2.139
 9503SOL    HW229409   0.475   6.916   2.123
 9504SOL     OW29410   0.178   2.558   0.530
 9504SOL    HW129411   0.181   2.484   0.597
 9504SOL    HW229412   0.177   2.646   0.578
 9505SOL     OW29413   6.354   3.256   3.287
 9505SOL    HW129414   6.290   3.332   3.274
 9505SOL    HW229415   6.435   3.290   3.335
 9506SOL     OW29416   7.006   3.386   0.087
 9506SOL    HW129417   0.031   3.303   0.122
 9506SOL    HW229418   0.042   3.466   0.111
 9507SOL     OW29419   1.337   1.439   3.924
 9507SOL    HW129420   1.435   1.421   3.910
 9507SOL    HW229421   1.301   1.487   3.844
 9508SOL     OW29422   5.800   1.709   0.913
 9508SOL    HW129423   5.772   1.771   0.986
 9508SOL    HW229424   5.745   1.728   0.831
 9509SOL     OW29425   1.963   6.348   5.490
 9509SOL    HW129426   1.865   6.341   5.470
 9509SOL    HW229427   1.979   6.328   5.587
 9510SOL     OW29428   0.067   4.478   2.452
 9510SOL    HW129429   7.007   4.521   2.496
 9510SOL    HW229430   0.046   4.460   2.356
 9511SOL     OW29431   0.505   2.382   0.088
 9511SOL    HW129432   0.463   2.404   0.175
 9511SOL    HW229433   0.460   2.434   0.015
 9512SOL     OW29434   0.919   2.060   3.783
 9512SOL    HW129435   0.862   1.998   3.729
 9512SOL    HW229436   0.910   2.037   3.880
 9513SOL     OW29437   2.063   3.697   3.846
 9513SOL    HW129438   2.146   3.725   3.799
 9513SOL    HW229439   2.070   3.601   3.874
 9514SOL     OW29440   1.963   3.303   6.883
 9514SOL    HW129441   1.991   3.270   6.792
 9514SOL    HW229442   2.017   3.256   6.953
 9515SOL     OW29443   1.541   6.285   6.287
 9515SOL    HW129444   1.534   6.316   6.381
 9515SOL    HW229445   1.475   6.334   6.230
 9516SOL     OW29446   5.163   4.106   3.825
 9516SOL    HW129447   5.154   4.140   3.732
 9516SOL    HW229448   5.109   4.163   3.887
 9517SOL     OW29449   0.858   5.421   1.464
 9517SOL    HW129450   0.878   5.380   1.375
 9517SOL    HW229451   0.938   5.470   1.497
 9518SOL     OW29452   0.674   2.669   6.043
 9518SOL    HW129453   0.767   2.634   6.031
 9518SOL    HW229454   0.660   2.692   6.139
 9519SOL     OW29455   3.259   3.520   2.888
 9519SOL    HW129456   3.292   3.613   2.871
 9519SOL    HW229457   3.304   3.457   2.825
 9520SOL     OW29458   0.108   0.619   5.374
 9520SOL    HW129459   0.117   0.523   5.400
 9520SOL    HW229460   0.189   0.669   5.404
 9521SOL     OW29461   3.586   6.720   1.252
 9521SOL    HW129462   3.639   6.695   1.172
 9521SOL    HW229463   3.574   6.819   1.255
 9522SOL     OW29464   3.916   5.542   1.061
 9522SOL    HW129465   3.835   5.586   1.024
 9522SOL    HW229466   3.942   5.586   1.147
 9523SOL     OW29467   2.549   4.965   4.815
 9523SOL    HW129468   2.475   4.940   4.878
 9523SOL    HW229469   2.620   5.014   4.865
 9524SOL     OW29470   1.308   4.149   0.964
 9524SOL    HW129471   1.274   4.204   0.888
 9524SOL    HW229472   1.331   4.057   0.932
 9525SOL     OW29473   2.081   2.129   5.531
 9525SOL    HW129474   2.026   2.212   5.530
 9525SOL    HW229475   2.066   2.079   5.446
 9526SOL     OW29476   5.324   5.067   6.675
 9526SOL    HW129477   5.308   5.164   6.696
 9526SOL    HW229478   5.363   5.022   6.755
 9527SOL     OW29479   3.133   6.713   3.813
 9527SOL    HW129480   3.179   6.625   3.797
 9527SOL    HW229481   3.140   6.736   3.910
 9528SOL     OW29482   6.433   1.367   1.000
 9528SOL    HW129483   6.351   1.340   0.949
 9528SOL    HW229484   6.487   1.430   0.944
 9529SOL     OW29485   6.677   1.978   1.873
 9529SOL    HW129486   6.599   1.941   1.822
 9529SOL    HW229487   6.730   1.902   1.912
 9530SOL     OW29488   0.399   5.152   4.016
 9530SOL    HW129489   0.449   5.235   3.991
 9530SOL    HW229490   0.437   5.115   4.102
 9531SOL     OW29491   4.200   4.731   3.407
 9531SOL    HW129492   4.103   4.714   3.420
 9531SOL    HW229493   4.239   4.770   3.491
 9532SOL     OW29494   6.363   5.692   2.320
 9532SOL    HW129495   6.337   5.613   2.376
 9532SOL    HW229496   6.383   5.661   2.227
 9533SOL     OW29497   1.754   5.698   4.193
 9533SOL    HW129498   1.657   5.721   4.189
 9533SOL    HW229499   1.768   5.625   4.260
 9534SOL     OW29500   5.944   4.885   4.379
 9534SOL    HW129501   5.862   4.853   4.331
 9534SOL    HW229502   5.936   4.866   4.477
 9535SOL     OW29503   1.544   1.680   5.899
 9535SOL    HW129504   1.591   1.649   5.816
 9535SOL    HW229505   1.490   1.762   5.878
 9536SOL     OW29506   3.786   3.704   5.325
 9536SOL    HW129507   3.826   3.733   5.238
 9536SOL    HW229508   3.856   3.661   5.381
 9537SOL     OW29509   1.806   1.162   3.858
 9537SOL    HW129510   1.877   1.104   3.898
 9537SOL    HW229511   1.791   1.137   3.763
 9538SOL     OW29512   3.640   0.553   4.527
 9538SOL    HW129513   3.724   0.597   4.496
 9538SOL    HW229514   3.561   0.598   4.484
 9539SOL     OW29515   3.874   2.963   3.094
 9539SOL    HW129516   3.778   2.963   3.067
 9539SOL    HW229517   3.899   2.873   3.131
 9540SOL     OW29518   4.657   5.336   4.296
 9540SOL    HW129519   4.578   5.397   4.286
 9540SOL    HW229520   4.734   5.372   4.243
 9541SOL     OW29521   1.509   6.969   4.965
 9541SOL    HW129522   1.455   0.035   4.967
 9541SOL    HW229523   1.448   6.892   4.943
 9542SOL     OW29524   5.737   4.800   4.231
 9542SOL    HW129525   5.732   4.862   4.153
 9542SOL    HW229526   5.780   4.714   4.203
 9543SOL     OW29527   3.137   0.706   6.256
 9543SOL    HW129528   3.098   0.634   6.198
 9543SOL    HW229529   3.074   0.727   6.330
 9544SOL     OW29530   5.099   3.980   3.323
 9544SOL    HW129531   5.039   4.039   3.268
 9544SOL    HW229532   5.180   3.957   3.270
 9545SOL     OW29533   1.392   4.873   1.912
 9545SOL    HW129534   1.438   4.786   1.893
 9545SOL    HW229535   1.294   4.858   1.915
 9546SOL     OW29536   2.964   1.312   5.776
 9546SOL    HW129537   3.026   1.358   5.840
 9546SOL    HW229538   2.962   1.362   5.690
 9547SOL     OW29539   3.492   5.928   4.388
 9547SOL    HW129540   3.589   5.938   4.409
 9547SOL    HW229541   3.482   5.879   4.302
 9548SOL     OW29542   1.139   5.230   5.879
 9548SOL    HW129543   1.044   5.257   5.897
 9548SOL    HW229544   1.190   5.227   5.966
 9549SOL     OW29545   3.749   2.012   2.656
 9549SOL    HW129546   3.775   2.019   2.559
 9549SOL    HW229547   3.649   2.012   2.664
 9550SOL     OW29548   5.579   3.018   1.634
 9550SOL    HW129549   5.526   3.097   1.664
 9550SOL    HW229550   5.582   3.015   1.534
 9551SOL     OW29551   6.420   2.019   5.993
 9551SOL    HW129552   6.480   2.074   6.051
 9551SOL    HW229553   6.326   2.024   6.026
 9552SOL     OW29554   2.525   0.853   6.612
 9552SOL    HW129555   2.589   0.923   6.645
 9552SOL    HW229556   2.456   0.835   6.682
 9553SOL     OW29557   5.135   2.529   0.433
 9553SOL    HW129558   5.060   2.501   0.373
 9553SOL    HW229559   5.176   2.449   0.476
 9554SOL     OW29560   2.696   6.433   4.022
 9554SOL    HW129561   2.711   6.357   3.958
 9554SOL    HW229562   2.622   6.409   4.085
 9555SOL     OW29563   6.099   1.368   3.242
 9555SOL    HW129564   6.078   1.297   3.175
 9555SOL    HW229565   6.101   1.457   3.197
 9556SOL     OW29566   1.462   4.667   1.051
 9556SOL    HW129567   1.499   4.577   1.032
 9556SOL    HW229568   1.382   4.684   0.993
 9557SOL     OW29569   5.219   6.840   2.111
 9557SOL    HW129570   5.261   6.777   2.046
 9557SOL    HW229571   5.129   6.868   2.078
 9558SOL     OW29572   5.756   6.381   5.653
 9558SOL    HW129573   5.665   6.353   5.622
 9558SOL    HW229574   5.758   6.386   5.753
 9559SOL     OW29575   1.449   3.845   6.822
 9559SOL    HW129576   1.504   3.771   6.861
 9559SOL    HW229577   1.362   3.808   6.790
 9560SOL     OW29578   3.736   0.382   2.272
 9560SOL    HW129579   3.821   0.340   2.302
 9560SOL    HW229580   3.714   0.460   2.331
 9561SOL     OW29581   0.659   0.116   0.842
 9561SOL    HW129582   0.634   0.050   0.771
 9561SOL    HW229583   0.728   0.076   0.902
 9562SOL     OW29584   2.576   5.780   4.012
 9562SOL    HW129585   2.542   5.756   4.103
 9562SOL    HW229586   2.675   5.765   4.008
 9563SOL     OW29587   0.632   6.764   0.170
 9563SOL    HW129588   0.580   6.787   0.087
 9563SOL    HW229589   0.704   6.832   0.184
 9564SOL     OW29590   0.728   0.587   1.225
 9564SOL    HW129591   0.703   0.684   1.225
 9564SOL    HW229592   0.825   0.576   1.247
 9565SOL     OW29593   3.151   1.050   4.100
 9565SOL    HW129594   3.066   1.046   4.154
 9565SOL    HW229595   3.226   1.013   4.155
 9566SOL     OW29596   2.434   6.511   0.441
 9566SOL    HW129597   2.461   6.606   0.429
 9566SOL    HW229598   2.387   6.478   0.358
 9567SOL     OW29599   0.123   5.049   0.284
 9567SOL    HW129600   0.154   5.015   0.373
 9567SOL    HW229601   0.077   4.975   0.235
 9568SOL     OW29602   3.823   1.938   0.182
 9568SOL    HW129603   3.869   1.992   0.111
 9568SOL    HW229604   3.865   1.847   0.187
 9569SOL     OW29605   6.101   0.651   1.998
 9569SOL    HW129606   6.115   0.556   2.027
 9569SOL    HW229607   6.015   0.685   2.036
 9570SOL     OW29608   0.393   2.876   0.806
 9570SOL    HW129609   0.364   2.816   0.881
 9570SOL    HW229610   0.428   2.820   0.731
 9571SOL     OW29611   2.809   2.791   6.236
 9571SOL    HW129612   2.769   2.715   6.184
 9571SOL    HW229613   2.852   2.755   6.319
 9572SOL     OW29614   2.137   3.949   3.624
 9572SOL    HW129615   2.102   3.951   3.530
 9572SOL    HW229616   2.180   4.037   3.645
 9573SOL     OW29617   6.720   0.659   5.373
 9573SOL    HW129618   6.783   0.736   5.363
 9573SOL    HW229619   6.643   0.670   5.310
 9574SOL     OW29620   3.851   2.836   1.418
 9574SOL    HW129621   3.913   2.874   1.486
 9574SOL    HW229622   3.764   2.886   1.421
 9575SOL     OW29623   6.126   0.134   2.472
 9575SOL    HW129624   6.047   0.101   2.420
 9575SOL    HW229625   6.127   0.234   2.469
 9576SOL     OW29626   1.049   1.355   0.433
 9576SOL    HW129627   1.094   1.436   0.469
 9576SOL    HW229628   1.110   1.277   0.439
 9577SOL     OW29629   6.939   6.460   0.207
 9577SOL    HW129630   6.939   6.530   0.278
 9577SOL    HW229631   6.900   6.498   0.123
 9578SOL     OW29632   1.177   3.033   2.877
 9578SOL    HW129633   1.210   3.007   2.786
 9578SOL    HW229634   1.252   3.076   2.928
 9579SOL     OW29635   6.308   0.109   2.197
 9579SOL    HW129636   6.252   0.042   2.245
 9579SOL    HW229637   6.379   0.143   2.259
 9580SOL     OW29638   4.689   4.220   0.996
 9580SOL    HW129639   4.656   4.270   1.076
 9580SOL    HW229640   4.789   4.222   0.994
 9581SOL     OW29641   0.090   0.776   0.047
 9581SOL    HW129642   0.074   0.875   0.040
 9581SOL    HW229643   0.094   0.736   6.974
 9582SOL     OW29644   3.874   6.145   4.585
 9582SOL    HW129645   3.788   6.178   4.545
 9582SOL    HW229646   3.879   6.046   4.575
 9583SOL     OW29647   3.340   4.520   1.536
 9583SOL    HW129648   3.350   4.598   1.597
 9583SOL    HW229649   3.257   4.532   1.481
 9584SOL     OW29650   1.671   4.972   5.023
 9584SOL    HW129651   1.758   5.023   5.025
 9584SOL    HW229652   1.608   5.011   5.089
 9585SOL     OW29653   5.186   5.992   1.540
 9585SOL    HW129654   5.126   6.005   1.461
 9585SOL    HW229655   5.131   5.969   1.620
 9586SOL     OW29656   4.670   4.900   1.471
 9586SOL    HW129657   4.634   4.841   1.544
 9586SOL    HW229658   4.653   4.858   1.382
 9587SOL     OW29659   2.311   6.792   2.186
 9587SOL    HW129660   2.334   6.819   2.279
 9587SOL    HW229661   2.217   6.820   2.165
 9588SOL     OW29662   6.291   6.192   1.033
 9588SOL    HW129663   6.266   6.105   1.075
 9588SOL    HW229664   6.239   6.204   0.948
 9589SOL     OW29665   1.857   3.490   6.623
 9589SOL    HW129666   1.905   3.421   6.570
 9589SOL    HW229667   1.922   3.537   6.683
 9590SOL     OW29668   6.034   1.865   1.932
 9590SOL    HW129669   5.956   1.824   1.979
 9590SOL    HW229670   6.060   1.808   1.854
 9591SOL     OW29671   3.344   6.915   5.695
 9591SOL    HW129672   3.335   6.967   5.610
 9591SOL    HW229673   3.354   6.818   5.675
 9592SOL     OW29674   3.044   4.161   6.481
 9592SOL    HW129675   3.136   4.172   6.518
 9592SOL    HW229676   3.030   4.225   6.405
 9593SOL     OW29677   1.695   1.045   5.731
 9593SOL    HW129678   1.668   1.136   5.762
 9593SOL    HW229679   1.673   0.978   5.801
 9594SOL     OW29680   2.532   6.320   4.215
 9594SOL    HW129681   2.577   6.282   4.296
 9594SOL    HW229682   2.445   6.361   4.240
 9595SOL     OW29683   0.327   3.280   3.393
 9595SOL    HW129684   0.274   3.349   3.442
 9595SOL    HW229685   0.272   3.245   3.317
 9596SOL     OW29686   0.896   5.251   0.800
 9596SOL    HW129687   0.866   5.321   0.866
 9596SOL    HW229688   0.883   5.286   0.707
 9597SOL     OW29689   1.153   4.238   1.499
 9597SOL    HW129690   1.187   4.314   1.554
 9597SOL    HW229691   1.143   4.157   1.556
 9598SOL     OW29692   1.870   3.723   2.541
 9598SOL    HW129693   1.956   3.738   2.493
 9598SOL    HW229694   1.888   3.681   2.630
 9599SOL     OW29695   3.470   6.611   4.160
 9599SOL    HW129696   3.385   6.578   4.200
 9599SOL    HW229697   3.506   6.687   4.215
 9600SOL     OW29698   3.276   7.006   0.999
 9600SOL    HW129699   3.284   6.933   0.930
 9600SOL    HW229700   3.243   0.071   0.956
 9601SOL     OW29701   6.020   4.546   0.965
 9601SOL    HW129702   5.998   4.588   0.877
 9601SOL    HW229703   6.036   4.448   0.952
 9602SOL     OW29704   4.445   4.828   5.783
 9602SOL    HW129705   4.395   4.788   5.706
 9602SOL    HW229706   4.526   4.774   5.803
 9603SOL     OW29707   5.649   6.436   6.141
 9603SOL    HW129708   5.728   6.395   6.187
 9603SOL    HW229709   5.580   6.462   6.209
 9604SOL     OW29710   4.614   0.524   1.708
 9604SOL    HW129711   4.681   0.512   1.782
 9604SOL    HW229712   4.567   0.611   1.721
 9605SOL     OW29713   0.204   5.168   3.048
 9605SOL    HW129714   0.262   5.247   3.064
 9605SOL    HW229715   0.260   5.091   3.018
 9606SOL     OW29716   1.664   0.915   0.098
 9606SOL    HW129717   1.672   0.824   0.139
 9606SOL    HW229718   1.582   0.961   0.134
 9607SOL     OW29719   3.158   1.631   6.772
 9607SOL    HW129720   3.135   1.538   6.801
 9607SOL    HW229721   3.191   1.683   6.851
 9608SOL     OW29722   6.886   4.502   2.807
 9608SOL    HW129723   6.938   4.580   2.842
 9608SOL    HW229724   6.820   4.534   2.740
 9609SOL     OW29725   4.120   2.766   6.624
 9609SOL    HW129726   4.118   2.732   6.718
 9609SOL    HW229727   4.196   2.724   6.575
 9610SOL     OW29728   1.884   4.898   2.750
 9610SOL    HW129729   1.944   4.850   2.814
 9610SOL    HW229730   1.911   4.876   2.657
 9611SOL     OW29731   1.634   6.779   0.747
 9611SOL    HW129732   1.711   6.825   0.702
 9611SOL    HW229733   1.659   6.684   0.767
 9612SOL     OW29734   0.358   3.214   1.463
 9612SOL    HW129735   0.337   3.177   1.553
 9612SOL    HW229736   0.353   3.314   1.466
 9613SOL     OW29737   5.833   6.173   3.653
 9613SOL    HW129738   5.741   6.169   3.613
 9613SOL    HW229739   5.888   6.097   3.619
 9614SOL     OW29740   3.668   1.725   2.737
 9614SOL    HW129741   3.632   1.674   2.660
 9614SOL    HW229742   3.616   1.810   2.748
 9615SOL     OW29743   2.848   2.107   1.378
 9615SOL    HW129744   2.807   2.197   1.391
 9615SOL    HW229745   2.778   2.036   1.392
 9616SOL     OW29746   3.511   3.390   1.331
 9616SOL    HW129747   3.425   3.390   1.382
 9616SOL    HW229748   3.506   3.455   1.256
 9617SOL     OW29749   1.922   3.264   3.830
 9617SOL    HW129750   1.876   3.287   3.744
 9617SOL    HW229751   2.009   3.219   3.811
 9618SOL     OW29752   3.224   0.500   1.031
 9618SOL    HW129753   3.149   0.554   1.068
 9618SOL    HW229754   3.310   0.549   1.045
 9619SOL     OW29755   1.806   0.454   5.472
 9619SOL    HW129756   1.825   0.538   5.523
 9619SOL    HW229757   1.817   0.376   5.533
 9620SOL     OW29758   4.396   0.428   4.579
 9620SOL    HW129759   4.334   0.502   4.552
 9620SOL    HW229760   4.424   0.441   4.674
 9621SOL     OW29761   1.749   2.844   1.881
 9621SOL    HW129762   1.745   2.784   1.801
 9621SOL    HW229763   1.657   2.858   1.917
 9622SOL     OW29764   5.891   1.599   0.569
 9622SOL    HW129765   5.833   1.535   0.519
 9622SOL    HW229766   5.942   1.550   0.640
 9623SOL     OW29767   2.059   2.844   6.783
 9623SOL    HW129768   1.995   2.802   6.719
 9623SOL    HW229769   2.085   2.777   6.852
 9624SOL     OW29770   6.183   3.535   3.166
 9624SOL    HW129771   6.159   3.538   3.069
 9624SOL    HW229772   6.125   3.468   3.212
 9625SOL     OW29773   5.453   5.674   7.019
 9625SOL    HW129774   5.441   5.774   0.004
 9625SOL    HW229775   5.547   5.653   6.990
 9626SOL     OW29776   3.871   5.221   0.721
 9626SOL    HW129777   3.878   5.131   0.679
 9626SOL    HW229778   3.903   5.216   0.816
 9627SOL     OW29779   1.153   6.238   6.686
 9627SOL    HW129780   1.074   6.292   6.656
 9627SOL    HW229781   1.125   6.177   6.761
 9628SOL     OW29782   4.933   5.282   0.913
 9628SOL    HW129783   4.993   5.201   0.915
 9628SOL    HW229784   4.909   5.303   0.818
 9629SOL     OW29785   2.243   0.634   1.777
 9629SOL    HW129786   2.240   0.733   1.769
 9629SOL    HW229787   2.339   0.603   1.774
 9630SOL     OW29788   6.161   6.487   5.158
 9630SOL    HW129789   6.093   6.550   5.120
 9630SOL    HW229790   6.198   6.430   5.085
 9631SOL     OW29791   6.065   0.250   6.513
 9631SOL    HW129792   6.103   0.246   6.421
 9631SOL    HW229793   5.966   0.237   6.509
 9632SOL     OW29794   1.526   6.522   2.594
 9632SOL    HW129795   1.454   6.511   2.525
 9632SOL    HW229796   1.502   6.468   2.675
 9633SOL     OW29797   5.650   5.292   0.032
 9633SOL    HW129798   5.691   5.278   0.122
 9633SOL    HW229799   5.552   5.310   0.043
 9634SOL     OW29800   1.682   6.583   4.023
 9634SOL    HW129801   1.644   6.670   4.055
 9634SOL    HW229802   1.677   6.579   3.923
 9635SOL     OW29803   2.268   5.171   4.976
 9635SOL    HW129804   2.315   5.255   5.004
 9635SOL    HW229805   2.193   5.195   4.914
 9636SOL     OW29806   4.276   1.770   5.468
 9636SOL    HW129807   4.356   1.710   5.465
 9636SOL    HW229808   4.202   1.725   5.518
 9637SOL     OW29809   2.086   2.445   6.611
 9637SOL    HW129810   2.082   2.543   6.631
 9637SOL    HW229811   2.112   2.432   6.515
 9638SOL     OW29812   6.603   3.572   5.528
 9638SOL    HW129813   6.598   3.591   5.626
 9638SOL    HW229814   6.595   3.473   5.513
 9639SOL     OW29815   4.069   1.774   2.449
 9639SOL    HW129816   3.973   1.748   2.455
 9639SOL    HW229817   4.086   1.816   2.360
 9640SOL     OW29818   2.192   2.893   3.411
 9640SOL    HW129819   2.144   2.979   3.394
 9640SOL    HW229820   2.247   2.869   3.332
 9641SOL     OW29821   4.679   0.018   0.414
 9641SOL    HW129822   4.617   0.084   0.371
 9641SOL    HW229823   4.688   0.040   0.511
 9642SOL     OW29824   2.892   0.201   4.549
 9642SOL    HW129825   2.802   0.199   4.593
 9642SOL    HW229826   2.958   0.240   4.612
 9643SOL     OW29827   5.601   3.777   3.284
 9643SOL    HW129828   5.687   3.826   3.283
 9643SOL    HW229829   5.531   3.831   3.237
 9644SOL     OW29830   1.287   2.898   6.362
 9644SOL    HW129831   1.301   2.926   6.457
 9644SOL    HW229832   1.265   2.979   6.307
 9645SOL     OW29833   3.086   5.248   5.429
 9645SOL    HW129834   3.153   5.286   5.366
 9645SOL    HW229835   2.996   5.248   5.386
 9646SOL     OW29836   4.371   4.936   2.804
 9646SOL    HW129837   4.295   4.883   2.766
 9646SOL    HW229838   4.452   4.878   2.810
 9647SOL     OW29839   6.653   3.502   1.305
 9647SOL    HW129840   6.593   3.487   1.227
 9647SOL    HW229841   6.738   3.545   1.275
 9648SOL     OW29842   4.255   1.921   1.173
 9648SOL    HW129843   4.297   1.935   1.084
 9648SOL    HW229844   4.157   1.942   1.168
 9649SOL     OW29845   2.673   6.327   0.006
 9649SOL    HW129846   2.760   6.335   0.054
 9649SOL    HW229847   2.687   6.341   6.927
 9650SOL     OW29848   6.925   5.484   2.568
 9650SOL    HW129849   6.903   5.433   2.651
 9650SOL    HW229850   0.001   5.468   2.544
 9651SOL     OW29851   0.578   1.778   5.786
 9651SOL    HW129852   0.671   1.811   5.801
 9651SOL    HW229853   0.535   1.831   5.713
 9652SOL     OW29854   1.006   4.827   2.292
 9652SOL    HW129855   0.998   4.906   2.231
 9652SOL    HW229856   1.098   4.788   2.282
 9653SOL     OW29857   4.563   4.766   4.617
 9653SOL    HW129858   4.635   4.707   4.579
 9653SOL    HW229859   4.581   4.781   4.714
 9654SOL     OW29860   2.464   2.482   1.951
 9654SOL    HW129861   2.475   2.550   1.879
 9654SOL    HW229862   2.386   2.424   1.930
 9655SOL     OW29863   0.120   1.866   6.322
 9655SOL    HW129864   0.045   1.879   6.386
 9655SOL    HW229865   0.191   1.935   6.338
 9656SOL     OW29866   3.060   0.252   2.265
 9656SOL    HW129867   3.093   0.256   2.171
 9656SOL    HW229868   3.123   0.302   2.325
 9657SOL     OW29869   6.102   0.779   4.623
 9657SOL    HW129870   6.192   0.735   4.619
 9657SOL    HW229871   6.065   0.789   4.531
 9658SOL     OW29872   6.327   3.096   2.109
 9658SOL    HW129873   6.345   3.005   2.147
 9658SOL    HW229874   6.410   3.151   2.115
 9659SOL     OW29875   0.605   4.955   0.244
 9659SOL    HW129876   0.604   4.940   0.343
 9659SOL    HW229877   0.520   5.000   0.216
 9660SOL     OW29878   0.872   5.690   0.773
 9660SOL    HW129879   0.821   5.609   0.744
 9660SOL    HW229880   0.945   5.663   0.836
 9661SOL     OW29881   4.499   0.135   0.926
 9661SOL    HW129882   4.535   0.083   0.848
 9661SOL    HW229883   4.522   0.088   1.011
 9662SOL     OW29884   5.964   1.937   4.684
 9662SOL    HW129885   6.002   1.918   4.594
 9662SOL    HW229886   5.889   1.874   4.702
 9663SOL     OW29887   1.712   5.181   2.990
 9663SOL    HW129888   1.715   5.258   2.927
 9663SOL    HW229889   1.713   5.214   3.084
 9664SOL     OW29890   4.516   6.208   2.669
 9664SOL    HW129891   4.573   6.290   2.665
 9664SOL    HW229892   4.550   6.147   2.741
 9665SOL     OW29893   5.504   4.246   4.966
 9665SOL    HW129894   5.577   4.307   4.998
 9665SOL    HW229895   5.503   4.164   5.022
 9666SOL     OW29896   5.530   4.532   2.164
 9666SOL    HW129897   5.521   4.570   2.071
 9666SOL    HW229898   5.443   4.542   2.212
 9667SOL     OW29899   3.867   3.580   3.957
 9667SOL    HW129900   3.790   3.578   3.894
 9667SOL    HW229901   3.946   3.621   3.911
 9668SOL     OW29902   0.064   1.147   5.857
 9668SOL    HW129903   0.106   1.067   5.902
 9668SOL    HW229904   0.056   1.221   5.924
 9669SOL     OW29905   0.501   0.291   0.346
 9669SOL    HW129906   0.524   0.324   0.438
 9669SOL    HW229907   0.433   0.352   0.306
 9670SOL     OW29908   4.749   4.293   6.584
 9670SOL    HW129909   4.788   4.371   6.536
 9670SOL    HW229910   4.801   4.210   6.560
 9671SOL     OW29911   0.213   5.197   5.448
 9671SOL    HW129912   0.302   5.155   5.466
 9671SOL    HW229913   0.162   5.205   5.533
 9672SOL     OW29914   0.795   6.279   4.897
 9672SOL    HW129915   0.793   6.293   4.996
 9672SOL    HW229916   0.742   6.351   4.851
 9673SOL     OW29917   3.798   3.898   6.646
 9673SOL    HW129918   3.815   3.992   6.678
 9673SOL    HW229919   3.699   3.883   6.640
 9674SOL     OW29920   3.105   6.349   1.525
 9674SOL    HW129921   3.072   6.274   1.583
 9674SOL    HW229922   3.111   6.318   1.430
 9675SOL     OW29923   6.612   1.579   2.144
 9675SOL    HW129924   6.599   1.488   2.105
 9675SOL    HW229925   6.675   1.632   2.087
 9676SOL     OW29926   0.840   3.583   5.372
 9676SOL    HW129927   0.818   3.490   5.346
 9676SOL    HW229928   0.756   3.634   5.390
 9677SOL     OW29929   2.014   4.218   6.026
 9677SOL    HW129930   2.109   4.199   5.999
 9677SOL    HW229931   1.955   4.148   5.987
 9678SOL     OW29932   4.019   3.897   3.439
 9678SOL    HW129933   3.949   3.923   3.507
 9678SOL    HW229934   4.067   3.816   3.470
 9679SOL     OW29935   1.514   2.499   1.785
 9679SOL    HW129936   1.427   2.547   1.795
 9679SOL    HW229937   1.536   2.452   1.870
 9680SOL     OW29938   5.873   6.106   3.245
 9680SOL    HW129939   5.898   6.193   3.201
 9680SOL    HW229940   5.785   6.075   3.209
 9681SOL     OW29941   1.977   0.594   1.708
 9681SOL    HW129942   2.067   0.587   1.751
 9681SOL    HW229943   1.946   0.689   1.711
 9682SOL     OW29944   5.510   4.625   3.804
 9682SOL    HW129945   5.555   4.655   3.720
 9682SOL    HW229946   5.414   4.651   3.801
 9683SOL     OW29947   3.795   5.468   0.105
 9683SOL    HW129948   3.867   5.528   0.070
 9683SOL    HW229949   3.797   5.468   0.205
 9684SOL     OW29950   0.709   3.957   5.283
 9684SOL    HW129951   0.673   3.879   5.334
 9684SOL    HW229952   0.699   4.041   5.337
 9685SOL     OW29953   1.649   3.041   1.204
 9685SOL    HW129954   1.654   3.048   1.303
 9685SOL    HW229955   1.564   3.083   1.172
 9686SOL     OW29956   6.939   0.526   1.574
 9686SOL    HW129957   6.912   0.478   1.657
 9686SOL    HW229958   6.912   0.472   1.494
 9687SOL     OW29959   2.631   0.989   3.424
 9687SOL    HW129960   2.704   0.946   3.370
 9687SOL    HW229961   2.580   0.919   3.473
 9688SOL     OW29962   0.240   1.917   3.005
 9688SOL    HW129963   0.281   1.827   3.016
 9688SOL    HW229964   0.284   1.982   3.068
 9689SOL     OW29965   2.963   6.395   6.668
 9689SOL    HW129966   2.995   6.490   6.661
 9689SOL    HW229967   2.974   6.350   6.579
 9690SOL     OW29968   6.102   5.149   0.705
 9690SOL    HW129969   6.156   5.189   0.631
 9690SOL    HW229970   6.006   5.172   0.693
 9691SOL     OW29971   1.955   5.290   2.117
 9691SOL    HW129972   2.046   5.316   2.150
 9691SOL    HW229973   1.954   5.193   2.096
 9692SOL     OW29974   2.882   5.438   1.874
 9692SOL    HW129975   2.929   5.521   1.844
 9692SOL    HW229976   2.814   5.461   1.943
 9693SOL     OW29977   0.279   6.158   1.629
 9693SOL    HW129978   0.221   6.082   1.599
 9693SOL    HW229979   0.355   6.122   1.684
 9694SOL     OW29980   1.475   2.605   0.274
 9694SOL    HW129981   1.392   2.660   0.276
 9694SOL    HW229982   1.538   2.637   0.345
 9695SOL     OW29983   6.741   3.830   1.000
 9695SOL    HW129984   6.737   3.844   1.099
 9695SOL    HW229985   6.770   3.736   0.981
 9696SOL     OW29986   3.803   2.953   1.851
 9696SOL    HW129987   3.812   2.957   1.950
 9696SOL    HW229988   3.706   2.963   1.826
 9697SOL     OW29989   0.476   4.909   6.722
 9697SOL    HW129990   0.550   4.916   6.789
 9697SOL    HW229991   0.497   4.970   6.645
 9698SOL     OW29992   5.837   1.061   5.244
 9698SOL    HW129993   5.897   1.053   5.324
 9698SOL    HW229994   5.867   1.140   5.189
 9699SOL     OW29995   0.939   3.910   6.573
 9699SOL    HW129996   0.839   3.911   6.574
 9699SOL    HW229997   0.973   3.966   6.497
 9700SOL     OW29998   3.325   4.889   5.694
 9700SOL    HW129999   3.332   4.893   5.794
 9700SOL    HW230000   3.260   4.958   5.662
 9701SOL     OW30001   4.494   5.106   4.694
 9701SOL    HW130002   4.414   5.100   4.752
 9701SOL    HW230003   4.465   5.111   4.598
 9702SOL     OW30004   5.302   0.974   0.888
 9702SOL    HW130005   5.359   0.969   0.806
 9702SOL    HW230006   5.346   0.924   0.963
 9703SOL     OW30007   3.297   5.900   4.561
 9703SOL    HW130008   3.226   5.832   4.542
 9703SOL    HW230009   3.365   5.898   4.488
 9704SOL     OW30010   3.426   6.740   2.728
 9704SOL    HW130011   3.341   6.746   2.780
 9704SOL    HW230012   3.413   6.778   2.636
 9705SOL     OW30013   3.416   4.257   0.692
 9705SOL    HW130014   3.346   4.249   0.763
 9705SOL    HW230015   3.375   4.295   0.609
 9706SOL     OW30016   6.383   2.827   2.275
 9706SOL    HW130017   6.481   2.817   2.292
 9706SOL    HW230018   6.333   2.823   2.361
 9707SOL     OW30019   1.196   4.099   2.113
 9707SOL    HW130020   1.202   4.154   2.196
 9707SOL    HW230021   1.206   4.002   2.137
 9708SOL     OW30022   2.365   1.951   3.846
 9708SOL    HW130023   2.404   1.902   3.769
 9708SOL    HW230024   2.354   2.048   3.822
 9709SOL     OW30025   1.701   6.028   3.537
 9709SOL    HW130026   1.790   6.066   3.563
 9709SOL    HW230027   1.675   6.062   3.447
 9710SOL     OW30028   0.238   1.310   3.201
 9710SOL    HW130029   0.253   1.406   3.223
 9710SOL    HW230030   0.214   1.260   3.284
 9711SOL     OW30031   1.800   3.622   6.107
 9711SOL    HW130032   1.763   3.622   6.200
 9711SOL    HW230033   1.853   3.705   6.091
 9712SOL     OW30034   5.454   1.756   4.644
 9712SOL    HW130035   5.407   1.734   4.729
 9712SOL    HW230036   5.405   1.829   4.596
 9713SOL     OW30037   0.406   5.114   3.588
 9713SOL    HW130038   0.379   5.193   3.532
 9713SOL    HW230039   0.483   5.067   3.545
 9714SOL     OW30040   2.011   2.419   1.924
 9714SOL    HW130041   1.995   2.441   2.020
 9714SOL    HW230042   2.094   2.364   1.915
 9715SOL     OW30043   5.351   5.117   4.833
 9715SOL    HW130044   5.436   5.136   4.784
 9715SOL    HW230045   5.370   5.062   4.914
 9716SOL     OW30046   4.185   1.808   6.418
 9716SOL    HW130047   4.183   1.896   6.371
 9716SOL    HW230048   4.194   1.824   6.517
 9717SOL     OW30049   5.646   5.729   3.669
 9717SOL    HW130050   5.609   5.637   3.656
 9717SOL    HW230051   5.707   5.730   3.748
 9718SOL     OW30052   4.112   3.184   1.233
 9718SOL    HW130053   4.099   3.215   1.327
 9718SOL    HW230054   4.075   3.092   1.222
 9719SOL     OW30055   0.462   2.798   0.087
 9719SOL    HW130056   0.458   2.897   0.097
 9719SOL    HW230057   0.508   2.774   0.002
 9720SOL     OW30058   0.450   6.187   2.429
 9720SOL    HW130059   0.397   6.217   2.349
 9720SOL    HW230060   0.440   6.255   2.502
 9721SOL     OW30061   0.028   3.987   2.352
 9721SOL    HW130062   0.114   3.948   2.385
 9721SOL    HW230063   6.973   3.963   2.415
 9722SOL     OW30064   0.313   0.631   3.590
 9722SOL    HW130065   0.354   0.659   3.503
 9722SOL    HW230066   0.302   0.531   3.592
 9723SOL     OW30067   0.350   0.505   3.313
 9723SOL    HW130068   0.346   0.574   3.240
 9723SOL    HW230069   0.260   0.497   3.356
 9724SOL     OW30070   2.995   2.495   1.585
 9724SOL    HW130071   2.984   2.450   1.674
 9724SOL    HW230072   2.942   2.447   1.516
 9725SOL     OW30073   5.320   3.425   6.263
 9725SOL    HW130074   5.398   3.407   6.323
 9725SOL    HW230075   5.240   3.447   6.318
 9726SOL     OW30076   5.074   6.749   4.647
 9726SOL    HW130077   5.134   6.714   4.718
 9726SOL    HW230078   5.129   6.801   4.580
 9727SOL     OW30079   0.726   2.812   5.818
 9727SOL    HW130080   0.821   2.837   5.837
 9727SOL    HW230081   0.682   2.784   5.904
 9728SOL     OW30082   2.215   6.102   6.244
 9728SOL    HW130083   2.146   6.174   6.243
 9728SOL    HW230084   2.210   6.048   6.160
 9729SOL     OW30085   0.872   4.432   3.510
 9729SOL    HW130086   0.900   4.348   3.556
 9729SOL    HW230087   0.861   4.414   3.412
 9730SOL     OW30088   6.959   3.383   2.786
 9730SOL    HW130089   6.947   3.311   2.854
 9730SOL    HW230090   6.902   3.462   2.811
 9731SOL     OW30091   3.661   5.479   0.619
 9731SOL    HW130092   3.587   5.508   0.680
 9731SOL    HW230093   3.723   5.417   0.668
 9732SOL     OW30094   0.075   6.054   2.767
 9732SOL    HW130095   0.111   5.982   2.708
 9732SOL    HW230096   6.994   6.054   2.762
 9733SOL     OW30097   5.206   4.790   4.754
 9733SOL    HW130098   5.247   4.699   4.745
 9733SOL    HW230099   5.126   4.784   4.815
 9734SOL     OW30100   5.221   2.116   3.809
 9734SOL    HW130101   5.126   2.095   3.833
 9734SOL    HW230102   5.223   2.176   3.729
 9735SOL     OW30103   2.476   5.314   1.970
 9735SOL    HW130104   2.533   5.367   2.034
 9735SOL    HW230105   2.393   5.365   1.948
 9736SOL     OW30106   4.881   1.653   6.827
 9736SOL    HW130107   4.888   1.703   6.913
 9736SOL    HW230108   4.829   1.569   6.841
 9737SOL     OW30109   4.345   2.178   5.001
 9737SOL    HW130110   4.272   2.246   5.008
 9737SOL    HW230111   4.321   2.112   4.930
 9738SOL     OW30112   1.825   1.581   2.887
 9738SOL    HW130113   1.759   1.538   2.949
 9738SOL    HW230114   1.914   1.537   2.900
 9739SOL     OW30115   6.532   4.978   1.892
 9739SOL    HW130116   6.586   5.005   1.812
 9739SOL    HW230117   6.593   4.938   1.961
 9740SOL     OW30118   6.411   4.027   2.458
 9740SOL    HW130119   6.322   4.067   2.478
 9740SOL    HW230120   6.403   3.928   2.453
 9741SOL     OW30121   4.496   1.665   2.070
 9741SOL    HW130122   4.593   1.689   2.072
 9741SOL    HW230123   4.486   1.568   2.048
 9742SOL     OW30124   5.299   0.838   3.043
 9742SOL    HW130125   5.242   0.918   3.026
 9742SOL    HW230126   5.241   0.756   3.051
 9743SOL     OW30127   1.945   3.427   5.697
 9743SOL    HW130128   2.018   3.472   5.647
 9743SOL    HW230129   1.867   3.411   5.635
 9744SOL     OW30130   1.979   1.172   1.781
 9744SOL    HW130131   1.946   1.125   1.863
 9744SOL    HW230132   2.008   1.265   1.805
 9745SOL     OW30133   0.631   1.903   4.859
 9745SOL    HW130134   0.563   1.866   4.923
 9745SOL    HW230135   0.636   1.845   4.778
 9746SOL     OW30136   5.574   0.697   5.125
 9746SOL    HW130137   5.665   0.657   5.129
 9746SOL    HW230138   5.543   0.702   5.030
 9747SOL     OW30139   1.233   0.650   0.196
 9747SOL    HW130140   1.325   0.672   0.228
 9747SOL    HW230141   1.229   0.554   0.169
 9748SOL     OW30142   1.202   6.145   4.476
 9748SOL    HW130143   1.273   6.093   4.428
 9748SOL    HW230144   1.220   6.141   4.574
 9749SOL     OW30145   1.343   3.727   4.826
 9749SOL    HW130146   1.306   3.644   4.784
 9749SOL    HW230147   1.293   3.807   4.792
 9750SOL     OW30148   5.156   4.903   3.451
 9750SOL    HW130149   5.076   4.844   3.441
 9750SOL    HW230150   5.165   4.930   3.547
 9751SOL     OW30151   1.650   2.182   0.801
 9751SOL    HW130152   1.666   2.245   0.724
 9751SOL    HW230153   1.669   2.229   0.887
 9752SOL     OW30154   4.048   0.812   5.559
 9752SOL    HW130155   4.120   0.867   5.601
 9752SOL    HW230156   4.086   0.727   5.525
 9753SOL     OW30157   6.652   5.755   5.548
 9753SOL    HW130158   6.700   5.820   5.490
 9753SOL    HW230159   6.676   5.662   5.523
 9754SOL     OW30160   1.602   1.789   0.347
 9754SOL    HW130161   1.681   1.787   0.409
 9754SOL    HW230162   1.541   1.863   0.372
 9755SOL     OW30163   4.026   3.896   4.711
 9755SOL    HW130164   4.093   3.967   4.692
 9755SOL    HW230165   3.956   3.895   4.639
 9756SOL     OW30166   5.961   3.192   6.768
 9756SOL    HW130167   6.003   3.233   6.688
 9756SOL    HW230168   5.950   3.261   6.840
 9757SOL     OW30169   5.792   2.964   3.833
 9757SOL    HW130170   5.847   2.884   3.807
 9757SOL    HW230171   5.745   2.946   3.919
 9758SOL     OW30172   2.621   0.556   6.847
 9758SOL    HW130173   2.525   0.550   6.821
 9758SOL    HW230174   2.652   0.468   6.883
 9759SOL     OW30175   2.992   6.158   1.162
 9759SOL    HW130176   2.904   6.203   1.181
 9759SOL    HW230177   3.057   6.226   1.128
 9760SOL     OW30178   5.340   4.760   5.774
 9760SOL    HW130179   5.285   4.685   5.736
 9760SOL    HW230180   5.404   4.723   5.841
 9761SOL     OW30181   5.196   5.346   1.470
 9761SOL    HW130182   5.176   5.303   1.558
 9761SOL    HW230183   5.111   5.354   1.418
 9762SOL     OW30184   2.731   2.149   5.216
 9762SOL    HW130185   2.654   2.087   5.227
 9762SOL    HW230186   2.799   2.108   5.155
 9763SOL     OW30187   3.232   1.361   1.586
 9763SOL    HW130188   3.296   1.324   1.653
 9763SOL    HW230189   3.139   1.355   1.621
 9764SOL     OW30190   1.199   2.255   3.214
 9764SOL    HW130191   1.187   2.330   3.149
 9764SOL    HW230192   1.143   2.271   3.295
 9765SOL     OW30193   0.287   2.033   6.062
 9765SOL    HW130194   0.318   2.079   6.145
 9765SOL    HW230195   0.349   1.958   6.040
 9766SOL     OW30196   2.661   0.212   3.225
 9766SOL    HW130197   2.739   0.152   3.210
 9766SOL    HW230198   2.694   0.306   3.236
 9767SOL     OW30199   5.200   0.448   5.180
 9767SOL    HW130200   5.148   0.530   5.157
 9767SOL    HW230201   5.275   0.436   5.116
 9768SOL     OW30202   4.669   1.970   2.453
 9768SOL    HW130203   4.604   2.014   2.515
 9768SOL    HW230204   4.750   1.943   2.505
 9769SOL     OW30205   1.295   2.083   1.143
 9769SOL    HW130206   1.310   2.061   1.047
 9769SOL    HW230207   1.346   2.019   1.200
 9770SOL     OW30208   5.557   4.953   5.930
 9770SOL    HW130209   5.489   4.900   5.979
 9770SOL    HW230210   5.618   4.890   5.880
 9771SOL     OW30211   4.476   5.436   6.041
 9771SOL    HW130212   4.476   5.383   6.126
 9771SOL    HW230213   4.447   5.530   6.061
 9772SOL     OW30214   6.961   0.169   2.315
 9772SOL    HW130215   0.018   0.119   2.272
 9772SOL    HW230216   6.987   0.193   2.409
 9773SOL     OW30217   6.116   5.673   3.599
 9773SOL    HW130218   6.170   5.701   3.519
 9773SOL    HW230219   6.046   5.608   3.571
 9774SOL     OW30220   6.138   4.660   3.960
 9774SOL    HW130221   6.212   4.679   3.895
 9774SOL    HW230222   6.176   4.656   4.053
 9775SOL     OW30223   1.711   2.458   4.562
 9775SOL    HW130224   1.689   2.553   4.586
 9775SOL    HW230225   1.627   2.403   4.562
 9776SOL     OW30226   6.638   5.654   4.447
 9776SOL    HW130227   6.631   5.623   4.352
 9776SOL    HW230228   6.548   5.686   4.478
 9777SOL     OW30229   5.097   4.222   6.008
 9777SOL    HW130230   5.072   4.159   6.081
 9777SOL    HW230231   5.099   4.174   5.921
 9778SOL     OW30232   5.183   6.589   2.711
 9778SOL    HW130233   5.107   6.524   2.708
 9778SOL    HW230234   5.240   6.577   2.629
 9779SOL     OW30235   2.624   1.554   5.658
 9779SOL    HW130236   2.673   1.584   5.740
 9779SOL    HW230237   2.689   1.536   5.584
 9780SOL     OW30238   2.696   3.537   0.522
 9780SOL    HW130239   2.682   3.509   0.427
 9780SOL    HW230240   2.621   3.501   0.578
 9781SOL     OW30241   2.663   4.827   5.071
 9781SOL    HW130242   2.665   4.924   5.046
 9781SOL    HW230243   2.735   4.778   5.021
 9782SOL     OW30244   6.146   0.325   1.639
 9782SOL    HW130245   6.219   0.393   1.640
 9782SOL    HW230246   6.107   0.316   1.731
 9783SOL     OW30247   5.792   1.802   2.075
 9783SOL    HW130248   5.713   1.842   2.030
 9783SOL    HW230249   5.768   1.711   2.110
 9784SOL     OW30250   4.452   1.227   3.016
 9784SOL    HW130251   4.377   1.223   3.082
 9784SOL    HW230252   4.413   1.240   2.924
 9785SOL     OW30253   0.301   2.862   2.377
 9785SOL    HW130254   0.367   2.937   2.368
 9785SOL    HW230255   0.327   2.787   2.316
 9786SOL     OW30256   2.507   5.588   5.572
 9786SOL    HW130257   2.439   5.516   5.591
 9786SOL    HW230258   2.598   5.547   5.570
 9787SOL     OW30259   4.870   3.960   2.037
 9787SOL    HW130260   4.963   3.938   2.008
 9787SOL    HW230261   4.856   4.059   2.033
 9788SOL     OW30262   6.220   0.551   5.036
 9788SOL    HW130263   6.266   0.552   4.947
 9788SOL    HW230264   6.220   0.643   5.075
 9789SOL     OW30265   2.394   5.429   5.336
 9789SOL    HW130266   2.436   5.484   5.408
 9789SOL    HW230267   2.308   5.390   5.369
 9790SOL     OW30268   5.454   1.489   4.587
 9790SOL    HW130269   5.444   1.584   4.616
 9790SOL    HW230270   5.551   1.465   4.582
 9791SOL     OW30271   1.089   1.285   1.959
 9791SOL    HW130272   1.180   1.319   1.935
 9791SOL    HW230273   1.087   1.262   2.057
 9792SOL     OW30274   4.229   4.783   1.105
 9792SOL    HW130275   4.135   4.814   1.112
 9792SOL    HW230276   4.290   4.849   1.149
 9793SOL     OW30277   5.868   5.764   1.952
 9793SOL    HW130278   5.933   5.834   1.982
 9793SOL    HW230279   5.836   5.712   2.032
 9794SOL     OW30280   4.916   2.697   6.392
 9794SOL    HW130281   4.907   2.793   6.369
 9794SOL    HW230282   4.830   2.649   6.371
 9795SOL     OW30283   1.592   3.430   4.058
 9795SOL    HW130284   1.657   3.409   3.985
 9795SOL    HW230285   1.641   3.468   4.136
 9796SOL     OW30286   2.619   5.206   0.160
 9796SOL    HW130287   2.621   5.171   0.254
 9796SOL    HW230288   2.670   5.144   0.100
 9797SOL     OW30289   4.877   3.196   6.260
 9797SOL    HW130290   4.804   3.264   6.269
 9797SOL    HW230291   4.906   3.190   6.164
 9798SOL     OW30292   2.748   1.265   0.971
 9798SOL    HW130293   2.766   1.188   1.032
 9798SOL    HW230294   2.826   1.279   0.911
 9799SOL     OW30295   3.034   3.485   2.737
 9799SOL    HW130296   3.097   3.506   2.811
 9799SOL    HW230297   3.024   3.385   2.729
 9800SOL     OW30298   4.524   5.360   6.637
 9800SOL    HW130299   4.446   5.299   6.623
 9800SOL    HW230300   4.503   5.450   6.599
 9801SOL     OW30301   3.691   5.973   6.299
 9801SOL    HW130302   3.749   5.893   6.284
 9801SOL    HW230303   3.742   6.041   6.352
 9802SOL     OW30304   0.156   3.470   0.850
 9802SOL    HW130305   0.207   3.428   0.924
 9802SOL    HW230306   0.083   3.528   0.887
 9803SOL     OW30307   5.757   0.696   6.961
 9803SOL    HW130308   5.856   0.704   6.948
 9803SOL    HW230309   5.737   0.699   0.040
 9804SOL     OW30310   6.230   5.423   4.350
 9804SOL    HW130311   6.151   5.485   4.355
 9804SOL    HW230312   6.308   5.466   4.396
 9805SOL     OW30313   1.695   5.581   6.983
 9805SOL    HW130314   1.789   5.610   7.003
 9805SOL    HW230315   1.685   5.484   7.007
 9806SOL     OW30316   0.263   2.322   2.654
 9806SOL    HW130317   0.309   2.403   2.690
 9806SOL    HW230318   0.297   2.302   2.562
 9807SOL     OW30319   3.934   2.296   0.402
 9807SOL    HW130320   3.853   2.308   0.345
 9807SOL    HW230321   3.925   2.214   0.457
 9808SOL     OW30322   0.216   1.563   4.513
 9808SOL    HW130323   0.124   1.569   4.551
 9808SOL    HW230324   0.222   1.482   4.454
 9809SOL     OW30325   0.256   1.290   4.450
 9809SOL    HW130326   0.249   1.207   4.505
 9809SOL    HW230327   0.343   1.290   4.401
 9810SOL     OW30328   3.071   0.831   3.112
 9810SOL    HW130329   3.022   0.909   3.151
 9810SOL    HW230330   3.165   0.858   3.090
 9811SOL     OW30331   0.056   6.943   2.769
 9811SOL    HW130332   0.004   6.870   2.812
 9811SOL    HW230333   0.146   6.951   2.812
 9812SOL     OW30334   5.080   2.402   6.174
 9812SOL    HW130335   5.055   2.370   6.265
 9812SOL    HW230336   5.101   2.500   6.177
 9813SOL     OW30337   6.806   4.592   0.331
 9813SOL    HW130338   6.829   4.647   0.251
 9813SOL    HW230339   6.751   4.647   0.394
 9814SOL     OW30340   0.040   6.860   5.903
 9814SOL    HW130341   6.997   6.856   5.981
 9814SOL    HW230342   7.007   6.884   5.821
 9815SOL     OW30343   5.791   3.411   1.848
 9815SOL    HW130344   5.872   3.356   1.869
 9815SOL    HW230345   5.819   3.504   1.824
 9816SOL     OW30346   6.597   0.220   0.030
 9816SOL    HW130347   6.664   0.276   7.001
 9816SOL    HW230348   6.596   0.246   0.127
 9817SOL     OW30349   3.054   6.136   6.840
 9817SOL    HW130350   2.996   6.158   6.762
 9817SOL    HW230351   3.051   6.037   6.856
 9818SOL     OW30352   0.930   6.767   3.913
 9818SOL    HW130353   1.013   6.737   3.959
 9818SOL    HW230354   0.866   6.690   3.905
 9819SOL     OW30355   6.502   3.679   5.280
 9819SOL    HW130356   6.407   3.678   5.312
 9819SOL    HW230357   6.564   3.678   5.358
 9820SOL     OW30358   3.869   2.097   6.224
 9820SOL    HW130359   3.860   2.048   6.311
 9820SOL    HW230360   3.836   2.190   6.236
 9821SOL     OW30361   4.548   2.547   1.771
 9821SOL    HW130362   4.526   2.642   1.748
 9821SOL    HW230363   4.607   2.545   1.852
 9822SOL     OW30364   3.349   6.437   5.292
 9822SOL    HW130365   3.332   6.437   5.194
 9822SOL    HW230366   3.359   6.342   5.324
 9823SOL     OW30367   1.796   0.660   3.278
 9823SOL    HW130368   1.782   0.708   3.365
 9823SOL    HW230369   1.861   0.585   3.292
 9824SOL     OW30370   0.794   5.959   5.280
 9824SOL    HW130371   0.698   5.983   5.298
 9824SOL    HW230372   0.850   5.985   5.358
 9825SOL     OW30373   5.338   6.179   6.489
 9825SOL    HW130374   5.349   6.219   6.398
 9825SOL    HW230375   5.317   6.082   6.481
 9826SOL     OW30376   2.435   6.472   5.798
 9826SOL    HW130377   2.441   6.572   5.792
 9826SOL    HW230378   2.517   6.431   5.760
 9827SOL     OW30379   1.670   5.639   1.909
 9827SOL    HW130380   1.723   5.719   1.938
 9827SOL    HW230381   1.680   5.566   1.976
 9828SOL     OW30382   3.771   1.956   4.932
 9828SOL    HW130383   3.805   2.050   4.940
 9828SOL    HW230384   3.715   1.948   4.849
 9829SOL     OW30385   4.575   5.477   5.247
 9829SOL    HW130386   4.583   5.566   5.290
 9829SOL    HW230387   4.496   5.477   5.185
 9830SOL     OW30388   6.139   2.154   2.299
 9830SOL    HW130389   6.133   2.126   2.394
 9830SOL    HW230390   6.185   2.243   2.294
 9831SOL     OW30391   0.345   4.114   2.243
 9831SOL    HW130392   0.359   4.015   2.241
 9831SOL    HW230393   0.253   4.135   2.276
 9832SOL     OW30394   4.510   4.496   4.717
 9832SOL    HW130395   4.469   4.482   4.807
 9832SOL    HW230396   4.440   4.526   4.653
 9833SOL     OW30397   3.259   4.027   3.929
 9833SOL    HW130398   3.352   4.037   3.892
 9833SOL    HW230399   3.200   3.988   3.858
 9834SOL     OW30400   2.040   5.682   5.462
 9834SOL    HW130401   2.076   5.748   5.528
 9834SOL    HW230402   2.047   5.590   5.499
 9835SOL     OW30403   3.412   4.127   4.243
 9835SOL    HW130404   3.380   4.060   4.176
 9835SOL    HW230405   3.344   4.200   4.252
 9836SOL     OW30406   0.212   3.583   5.379
 9836SOL    HW130407   0.173   3.492   5.361
 9836SOL    HW230408   0.294   3.573   5.436
 9837SOL     OW30409   5.052   2.329   3.112
 9837SOL    HW130410   5.048   2.272   3.194
 9837SOL    HW230411   4.959   2.354   3.085
 9838SOL     OW30412   1.074   0.052   1.668
 9838SOL    HW130413   0.994   7.018   1.699
 9838SOL    HW230414   1.065   0.072   1.571
 9839SOL     OW30415   4.400   0.477   2.798
 9839SOL    HW130416   4.380   0.432   2.885
 9839SOL    HW230417   4.483   0.437   2.758
 9840SOL     OW30418   5.979   1.161   0.173
 9840SOL    HW130419   5.885   1.194   0.178
 9840SOL    HW230420   6.042   1.239   0.174
 9841SOL     OW30421   0.489   6.159   3.981
 9841SOL    HW130422   0.489   6.064   4.010
 9841SOL    HW230423   0.548   6.170   3.901
 9842SOL     OW30424   2.842   2.190   6.706
 9842SOL    HW130425   2.792   2.162   6.624
 9842SOL    HW230426   2.881   2.280   6.692
 9843SOL     OW30427   1.026   0.173   1.063
 9843SOL    HW130428   0.985   0.257   1.099
 9843SOL    HW230429   0.955   0.105   1.047
 9844SOL     OW30430   5.212   6.855   3.853
 9844SOL    HW130431   5.261   6.803   3.923
 9844SOL    HW230432   5.186   6.945   3.891
 9845SOL     OW30433   1.834   3.728   1.508
 9845SOL    HW130434   1.891   3.782   1.447
 9845SOL    HW230435   1.818   3.779   1.593
 9846SOL     OW30436   5.495   2.274   0.874
 9846SOL    HW130437   5.548   2.207   0.823
 9846SOL    HW230438   5.462   2.345   0.812
 9847SOL     OW30439   3.878   3.488   0.244
 9847SOL    HW130440   3.793   3.460   0.287
 9847SOL    HW230441   3.905   3.579   0.278
 9848SOL     OW30442   3.546   3.566   5.328
 9848SOL    HW130443   3.621   3.630   5.314
 9848SOL    HW230444   3.483   3.572   5.251
 9849SOL     OW30445   0.751   1.473   4.616
 9849SOL    HW130446   0.751   1.519   4.705
 9849SOL    HW230447   0.657   1.470   4.580
 9850SOL     OW30448   0.919   0.333   4.444
 9850SOL    HW130449   0.931   0.241   4.481
 9850SOL    HW230450   0.879   0.328   4.352
 9851SOL     OW30451   3.843   4.950   4.450
 9851SOL    HW130452   3.938   4.929   4.473
 9851SOL    HW230453   3.808   4.881   4.388
 9852SOL     OW30454   2.097   0.970   0.391
 9852SOL    HW130455   2.155   0.964   0.473
 9852SOL    HW230456   2.150   1.008   0.316
 9853SOL     OW30457   6.601   4.521   3.771
 9853SOL    HW130458   6.566   4.434   3.738
 9853SOL    HW230459   6.525   4.581   3.797
 9854SOL     OW30460   0.900   4.912   6.130
 9854SOL    HW130461   0.819   4.963   6.160
 9854SOL    HW230462   0.892   4.891   6.033
 9855SOL     OW30463   1.462   4.905   1.538
 9855SOL    HW130464   1.480   4.891   1.441
 9855SOL    HW230465   1.428   4.820   1.579
 9856SOL     OW30466   5.824   3.970   3.227
 9856SOL    HW130467   5.800   3.914   3.147
 9856SOL    HW230468   5.806   4.066   3.207
 9857SOL     OW30469   3.822   0.772   4.371
 9857SOL    HW130470   3.797   0.868   4.353
 9857SOL    HW230471   3.877   0.737   4.295
 9858SOL     OW30472   6.442   6.801   2.251
 9858SOL    HW130473   6.445   6.790   2.351
 9858SOL    HW230474   6.532   6.831   2.219
 9859SOL     OW30475   6.355   5.836   3.498
 9859SOL    HW130476   6.313   5.829   3.408
 9859SOL    HW230477   6.449   5.869   3.489
 9860SOL     OW30478   1.310   2.995   4.281
 9860SOL    HW130479   1.378   2.998   4.207
 9860SOL    HW230480   1.240   2.927   4.258
 9861SOL     OW30481   3.783   1.547   4.016
 9861SOL    HW130482   3.703   1.568   3.960
 9861SOL    HW230483   3.809   1.451   4.002
 9862SOL     OW30484   1.330   5.004   0.650
 9862SOL    HW130485   1.318   4.934   0.579
 9862SOL    HW230486   1.250   5.004   0.710
 9863SOL     OW30487   3.567   5.994   0.399
 9863SOL    HW130488   3.570   6.089   0.368
 9863SOL    HW230489   3.521   5.990   0.488
 9864SOL     OW30490   2.779   5.513   5.508
 9864SOL    HW130491   2.735   5.432   5.470
 9864SOL    HW230492   2.823   5.565   5.434
 9865SOL     OW30493   0.180   6.133   5.554
 9865SOL    HW130494   0.206   6.229   5.560
 9865SOL    HW230495   0.262   6.076   5.555
 9866SOL     OW30496   6.120   4.614   4.822
 9866SOL    HW130497   6.150   4.627   4.917
 9866SOL    HW230498   6.080   4.523   4.812
 9867SOL     OW30499   4.561   2.250   1.667
 9867SOL    HW130500   4.568   2.328   1.730
 9867SOL    HW230501   4.475   2.201   1.685
 9868SOL     OW30502   1.849   3.906   3.662
 9868SOL    HW130503   1.810   3.972   3.726
 9868SOL    HW230504   1.949   3.911   3.665
 9869SOL     OW30505   6.583   2.745   0.559
 9869SOL    HW130506   6.526   2.714   0.635
 9869SOL    HW230507   6.645   2.817   0.592
 9870SOL     OW30508   2.772   1.214   2.733
 9870SOL    HW130509   2.814   1.168   2.655
 9870SOL    HW230510   2.673   1.204   2.728
 9871SOL     OW30511   7.010   4.341   4.628
 9871SOL    HW130512   0.036   4.252   4.621
 9871SOL    HW230513   6.920   4.330   4.671
 9872SOL     OW30514   1.367   5.180   5.716
 9872SOL    HW130515   1.354   5.081   5.714
 9872SOL    HW230516   1.282   5.224   5.745
 9873SOL     OW30517   0.899   1.534   5.778
 9873SOL    HW130518   0.937   1.625   5.769
 9873SOL    HW230519   0.868   1.501   5.689
 9874SOL     OW30520   0.640   2.622   4.711
 9874SOL    HW130521   0.663   2.716   4.736
 9874SOL    HW230522   0.555   2.621   4.658
 9875SOL     OW30523   6.336   5.308   0.544
 9875SOL    HW130524   6.413   5.255   0.579
 9875SOL    HW230525   6.367   5.400   0.521
 9876SOL     OW30526   1.638   6.518   3.725
 9876SOL    HW130527   1.720   6.575   3.723
 9876SOL    HW230528   1.648   6.444   3.659
 9877SOL     OW30529   0.516   5.250   4.835
 9877SOL    HW130530   0.489   5.276   4.928
 9877SOL    HW230531   0.607   5.287   4.815
 9878SOL     OW30532   2.378   2.585   6.830
 9878SOL    HW130533   2.365   2.627   6.741
 9878SOL    HW230534   2.292   2.588   6.882
 9879SOL     OW30535   6.800   5.085   6.258
 9879SOL    HW130536   6.792   5.043   6.167
 9879SOL    HW230537   6.726   5.151   6.271
 9880SOL     OW30538   3.014   1.377   6.880
 9880SOL    HW130539   3.037   1.289   6.920
 9880SOL    HW230540   2.976   1.363   6.789
 9881SOL     OW30541   5.848   0.624   4.253
 9881SOL    HW130542   5.896   0.600   4.169
 9881SOL    HW230543   5.908   0.680   4.311
 9882SOL     OW30544   3.536   2.869   4.993
 9882SOL    HW130545   3.445   2.838   4.966
 9882SOL    HW230546   3.529   2.934   5.068
 9883SOL     OW30547   2.432   6.837   1.805
 9883SOL    HW130548   2.427   6.745   1.845
 9883SOL    HW230549   2.428   6.830   1.705
 9884SOL     OW30550   2.537   3.649   5.663
 9884SOL    HW130551   2.511   3.645   5.567
 9884SOL    HW230552   2.637   3.647   5.671
 9885SOL     OW30553   5.478   2.673   4.587
 9885SOL    HW130554   5.429   2.586   4.600
 9885SOL    HW230555   5.498   2.713   4.677
 9886SOL     OW30556   3.957   5.837   1.157
 9886SOL    HW130557   3.884   5.783   1.199
 9886SOL    HW230558   3.926   5.873   1.070
 9887SOL     OW30559   3.296   6.956   6.306
 9887SOL    HW130560   3.202   6.937   6.336
 9887SOL    HW230561   3.344   7.007   6.377
 9888SOL     OW30562   6.281   6.376   3.011
 9888SOL    HW130563   6.242   6.286   2.991
 9888SOL    HW230564   6.274   6.395   3.109
 9889SOL     OW30565   6.767   5.663   3.418
 9889SOL    HW130566   6.723   5.709   3.495
 9889SOL    HW230567   6.864   5.687   3.415
 9890SOL     OW30568   0.106   4.013   2.043
 9890SOL    HW130569   0.092   3.937   2.107
 9890SOL    HW230570   0.162   3.981   1.967
 9891SOL     OW30571   5.856   5.518   0.980
 9891SOL    HW130572   5.837   5.420   0.977
 9891SOL    HW230573   5.921   5.542   0.908
 9892SOL     OW30574   2.119   4.586   4.039
 9892SOL    HW130575   2.042   4.635   4.079
 9892SOL    HW230576   2.196   4.586   4.103
 9893SOL     OW30577   5.341   5.258   3.655
 9893SOL    HW130578   5.408   5.333   3.656
 9893SOL    HW230579   5.286   5.264   3.571
 9894SOL     OW30580   4.379   3.211   6.258
 9894SOL    HW130581   4.454   3.278   6.261
 9894SOL    HW230582   4.315   3.236   6.185
 9895SOL     OW30583   5.092   2.233   6.729
 9895SOL    HW130584   5.175   2.212   6.676
 9895SOL    HW230585   5.076   2.331   6.729
 9896SOL     OW30586   3.733   4.119   0.792
 9896SOL    HW130587   3.804   4.049   0.785
 9896SOL    HW230588   3.703   4.145   0.700
 9897SOL     OW30589   6.330   1.824   3.545
 9897SOL    HW130590   6.287   1.795   3.460
 9897SOL    HW230591   6.263   1.872   3.602
 9898SOL     OW30592   1.080   5.000   5.402
 9898SOL    HW130593   1.130   5.030   5.321
 9898SOL    HW230594   1.066   5.077   5.464
 9899SOL     OW30595   5.634   5.529   1.569
 9899SOL    HW130596   5.629   5.598   1.497
 9899SOL    HW230597   5.728   5.525   1.604
 9900SOL     OW30598   1.303   3.632   3.651
 9900SOL    HW130599   1.345   3.672   3.570
 9900SOL    HW230600   1.289   3.534   3.637
 9901SOL     OW30601   3.268   2.150   5.263
 9901SOL    HW130602   3.219   2.229   5.226
 9901SOL    HW230603   3.207   2.071   5.266
 9902SOL     OW30604   4.622   3.854   0.141
 9902SOL    HW130605   4.698   3.826   0.201
 9902SOL    HW230606   4.572   3.773   0.111
 9903SOL     OW30607   3.729   1.437   1.718
 9903SOL    HW130608   3.656   1.485   1.768
 9903SOL    HW230609   3.719   1.455   1.620
 9904SOL     OW30610   6.943   0.651   2.083
 9904SOL    HW130611   6.853   0.664   2.040
 9904SOL    HW230612   7.014   0.667   2.015
 9905SOL     OW30613   1.296   6.553   5.011
 9905SOL    HW130614   1.338   6.564   5.101
 9905SOL    HW230615   1.302   6.456   4.984
 9906SOL     OW30616   3.032   2.816   6.047
 9906SOL    HW130617   2.955   2.820   6.110
 9906SOL    HW230618   3.091   2.895   6.062
 9907SOL     OW30619   2.276   6.454   3.048
 9907SOL    HW130620   2.323   6.394   3.114
 9907SOL    HW230621   2.344   6.508   2.999
 9908SOL     OW30622   1.285   3.417   5.740
 9908SOL    HW130623   1.227   3.487   5.783
 9908SOL    HW230624   1.341   3.373   5.810
 9909SOL     OW30625   4.015   6.773   2.891
 9909SOL    HW130626   3.927   6.732   2.865
 9909SOL    HW230627   4.080   6.700   2.911
 9910SOL     OW30628   0.072   3.917   1.354
 9910SOL    HW130629   7.006   3.905   1.405
 9910SOL    HW230630   0.114   4.004   1.380
 9911SOL     OW30631   3.272   5.008   3.110
 9911SOL    HW130632   3.323   4.985   3.027
 9911SOL    HW230633   3.178   5.033   3.085
 9912SOL     OW30634   5.156   0.315   1.626
 9912SOL    HW130635   5.060   0.333   1.646
 9912SOL    HW230636   5.170   0.313   1.527
 9913SOL     OW30637   4.630   1.826   2.778
 9913SOL    HW130638   4.717   1.832   2.731
 9913SOL    HW230639   4.642   1.777   2.865
 9914SOL     OW30640   1.705   6.663   4.829
 9914SOL    HW130641   1.613   6.701   4.823
 9914SOL    HW230642   1.771   6.738   4.837
 9915SOL     OW30643   5.274   3.640   4.556
 9915SOL    HW130644   5.311   3.585   4.631
 9915SOL    HW230645   5.340   3.710   4.530
 9916SOL     OW30646   2.246   2.854   1.778
 9916SOL    HW130647   2.173   2.827   1.840
 9916SOL    HW230648   2.208   2.901   1.699
 9917SOL     OW30649   2.602   3.381   5.832
 9917SOL    HW130650   2.638   3.301   5.784
 9917SOL    HW230651   2.504   3.390   5.811
 9918SOL     OW30652   1.530   1.444   5.646
 9918SOL    HW130653   1.436   1.450   5.679
 9918SOL    HW230654   1.566   1.536   5.629
 9919SOL     OW30655   0.373   5.339   3.441
 9919SOL    HW130656   0.440   5.299   3.378
 9919SOL    HW230657   0.298   5.379   3.389
 9920SOL     OW30658   4.461   6.955   1.510
 9920SOL    HW130659   4.416   6.957   1.599
 9920SOL    HW230660   4.496   6.863   1.493
 9921SOL     OW30661   5.684   0.472   2.794
 9921SOL    HW130662   5.586   0.450   2.787
 9921SOL    HW230663   5.721   0.435   2.879
 9922SOL     OW30664   4.317   3.160   1.060
 9922SOL    HW130665   4.233   3.175   1.112
 9922SOL    HW230666   4.323   3.064   1.032
 9923SOL     OW30667   6.607   2.445   7.015
 9923SOL    HW130668   6.535   2.388   6.976
 9923SOL    HW230669   6.568   2.504   0.067
 9924SOL     OW30670   6.390   0.614   3.237
 9924SOL    HW130671   6.422   0.706   3.215
 9924SOL    HW230672   6.404   0.596   3.335
 9925SOL     OW30673   2.514   2.591   4.805
 9925SOL    HW130674   2.517   2.616   4.901
 9925SOL    HW230675   2.457   2.657   4.755
 9926SOL     OW30676   1.250   1.276   0.838
 9926SOL    HW130677   1.324   1.313   0.781
 9926SOL    HW230678   1.248   1.176   0.829
 9927SOL     OW30679   0.574   2.757   2.795
 9927SOL    HW130680   0.645   2.707   2.845
 9927SOL    HW230681   0.531   2.695   2.729
 9928SOL     OW30682   0.127   3.250   3.186
 9928SOL    HW130683   0.068   3.324   3.156
 9928SOL    HW230684   0.104   3.166   3.137
 9929SOL     OW30685   2.342   4.358   6.876
 9929SOL    HW130686   2.283   4.298   6.930
 9929SOL    HW230687   2.289   4.396   6.800
 9930SOL     OW30688   0.064   6.179   6.761
 9930SOL    HW130689   6.995   6.214   6.729
 9930SOL    HW230690   0.134   6.197   6.692
 9931SOL     OW30691   1.949   5.858   5.893
 9931SOL    HW130692   1.871   5.829   5.838
 9931SOL    HW230693   1.976   5.784   5.955
 9932SOL     OW30694   1.678   2.360   0.559
 9932SOL    HW130695   1.731   2.301   0.497
 9932SOL    HW230696   1.583   2.362   0.529
 9933SOL     OW30697   1.359   2.195   3.826
 9933SOL    HW130698   1.279   2.185   3.768
 9933SOL    HW230699   1.387   2.291   3.829
 9934SOL     OW30700   3.750   1.083   5.903
 9934SOL    HW130701   3.801   1.056   5.822
 9934SOL    HW230702   3.662   1.123   5.876
 9935SOL     OW30703   2.524   2.146   0.761
 9935SOL    HW130704   2.472   2.150   0.846
 9935SOL    HW230705   2.465   2.114   0.687
 9936SOL     OW30706   6.131   6.410   5.633
 9936SOL    HW130707   6.139   6.486   5.569
 9936SOL    HW230708   6.096   6.443   5.721
 9937SOL     OW30709   0.422   0.334   3.692
 9937SOL    HW130710   0.485   0.267   3.653
 9937SOL    HW230711   0.333   0.325   3.649
 9938SOL     OW30712   6.592   1.635   3.749
 9938SOL    HW130713   6.685   1.601   3.735
 9938SOL    HW230714   6.578   1.654   3.846
 9939SOL     OW30715   3.150   4.557   1.332
 9939SOL    HW130716   3.153   4.460   1.305
 9939SOL    HW230717   3.062   4.576   1.375
 9940SOL     OW30718   0.325   0.977   3.192
 9940SOL    HW130719   0.368   1.050   3.247
 9940SOL    HW230720   0.390   0.945   3.123
 9941SOL     OW30721   4.922   4.464   6.471
 9941SOL    HW130722   4.974   4.550   6.467
 9941SOL    HW230723   4.983   4.388   6.448
 9942SOL     OW30724   5.168   5.075   3.073
 9942SOL    HW130725   5.203   5.083   2.979
 9942SOL    HW230726   5.139   4.981   3.090
 9943SOL     OW30727   2.363   4.096   6.454
 9943SOL    HW130728   2.399   4.061   6.368
 9943SOL    HW230729   2.377   4.195   6.458
 9944SOL     OW30730   0.599   5.069   6.500
 9944SOL    HW130731   0.547   5.154   6.496
 9944SOL    HW230732   0.677   5.080   6.561
 9945SOL     OW30733   6.034   3.163   6.495
 9945SOL    HW130734   6.026   3.088   6.560
 9945SOL    HW230735   6.104   3.142   6.427
 9946SOL     OW30736   5.552   1.764   1.682
 9946SOL    HW130737   5.538   1.787   1.586
 9946SOL    HW230738   5.527   1.668   1.697
 9947SOL     OW30739   1.150   1.800   3.796
 9947SOL    HW130740   1.053   1.793   3.821
 9947SOL    HW230741   1.200   1.845   3.869
 9948SOL     OW30742   6.288   0.129   4.677
 9948SOL    HW130743   6.358   0.077   4.628
 9948SOL    HW230744   6.207   0.073   4.690
 9949SOL     OW30745   5.971   4.961   3.925
 9949SOL    HW130746   6.016   5.048   3.947
 9949SOL    HW230747   6.040   4.891   3.910
 9950SOL     OW30748   5.854   4.073   5.348
 9950SOL    HW130749   5.838   3.981   5.312
 9950SOL    HW230750   5.906   4.067   5.434
 9951SOL     OW30751   0.405   2.056   3.450
 9951SOL    HW130752   0.460   2.140   3.448
 9951SOL    HW230753   0.342   2.060   3.527
 9952SOL     OW30754   0.471   4.996   1.961
 9952SOL    HW130755   0.415   4.921   1.995
 9952SOL    HW230756   0.499   5.054   2.038
 9953SOL     OW30757   6.096   2.692   3.559
 9953SOL    HW130758   6.068   2.753   3.485
 9953SOL    HW230759   6.195   2.678   3.556
 9954SOL     OW30760   3.515   1.727   5.866
 9954SOL    HW130761   3.513   1.789   5.944
 9954SOL    HW230762   3.423   1.717   5.829
 9955SOL     OW30763   6.284   4.087   0.963
 9955SOL    HW130764   6.259   4.149   0.888
 9955SOL    HW230765   6.265   4.132   1.050
 9956SOL     OW30766   2.012   3.346   3.235
 9956SOL    HW130767   1.914   3.348   3.220
 9956SOL    HW230768   2.033   3.384   3.325
 9957SOL     OW30769   4.649   0.032   0.680
 9957SOL    HW130770   4.650   6.983   0.753
 9957SOL    HW230771   4.724   0.097   0.694
 9958SOL     OW30772   5.308   5.775   0.332
 9958SOL    HW130773   5.269   5.688   0.303
 9958SOL    HW230774   5.248   5.850   0.302
 9959SOL     OW30775   4.693   4.001   0.784
 9959SOL    HW130776   4.682   4.033   0.878
 9959SOL    HW230777   4.613   4.028   0.730
 9960SOL     OW30778   0.609   0.784   0.181
 9960SOL    HW130779   0.514   0.753   0.188
 9960SOL    HW230780   0.652   0.779   0.272
 9961SOL     OW30781   2.772   4.922   1.305
 9961SOL    HW130782   2.683   4.956   1.332
 9961SOL    HW230783   2.807   4.859   1.374
 9962SOL     OW30784   3.510   0.063   1.472
 9962SOL    HW130785   3.419   0.079   1.510
 9962SOL    HW230786   3.503   0.048   1.374
 9963SOL     OW30787   0.553   1.202   6.379
 9963SOL    HW130788   0.491   1.136   6.422
 9963SOL    HW230789   0.641   1.159   6.360
 9964SOL     OW30790   4.413   4.165   6.053
 9964SOL    HW130791   4.386   4.095   5.987
 9964SOL    HW230792   4.332   4.195   6.104
 9965SOL     OW30793   2.957   5.354   4.558
 9965SOL    HW130794   3.052   5.369   4.587
 9965SOL    HW230795   2.949   5.263   4.517
 9966SOL     OW30796   4.069   5.041   2.700
 9966SOL    HW130797   4.118   4.955   2.706
 9966SOL    HW230798   3.971   5.025   2.715
 9967SOL     OW30799   0.143   0.537   2.800
 9967SOL    HW130800   0.210   0.483   2.750
 9967SOL    HW230801   0.053   0.527   2.757
 9968SOL     OW30802   3.559   6.582   0.118
 9968SOL    HW130803   3.603   6.493   0.123
 9968SOL    HW230804   3.519   6.595   0.027
 9969SOL     OW30805   1.822   5.563   3.958
 9969SOL    HW130806   1.787   5.594   4.047
 9969SOL    HW230807   1.903   5.506   3.973
 9970SOL     OW30808   6.516   3.759   1.389
 9970SOL    HW130809   6.597   3.784   1.338
 9970SOL    HW230810   6.502   3.660   1.382
 9971SOL     OW30811   0.844   4.640   2.743
 9971SOL    HW130812   0.746   4.659   2.751
 9971SOL    HW230813   0.867   4.630   2.646
 9972SOL     OW30814   3.149   3.214   6.918
 9972SOL    HW130815   3.064   3.266   6.927
 9972SOL    HW230816   3.139   3.146   6.846
 9973SOL     OW30817   2.984   2.018   3.548
 9973SOL    HW130818   3.011   2.081   3.475
 9973SOL    HW230819   2.940   1.937   3.508
 9974SOL     OW30820   1.098   3.289   2.809
 9974SOL    HW130821   1.122   3.199   2.845
 9974SOL    HW230822   0.998   3.295   2.799
 9975SOL     OW30823   1.806   5.038   6.867
 9975SOL    HW130824   1.840   5.111   6.807
 9975SOL    HW230825   1.848   4.951   6.841
 9976SOL     OW30826   3.228   4.156   6.236
 9976SOL    HW130827   3.274   4.185   6.152
 9976SOL    HW230828   3.283   4.180   6.315
 9977SOL     OW30829   5.185   6.218   5.770
 9977SOL    HW130830   5.138   6.143   5.723
 9977SOL    HW230831   5.283   6.201   5.770
 9978SOL     OW30832   0.779   3.430   6.437
 9978SOL    HW130833   0.804   3.334   6.448
 9978SOL    HW230834   0.856   3.488   6.463
 9979SOL     OW30835   4.203   3.257   5.251
 9979SOL    HW130836   4.235   3.338   5.298
 9979SOL    HW230837   4.260   3.179   5.276
 9980SOL     OW30838   2.260   1.280   0.818
 9980SOL    HW130839   2.221   1.365   0.856
 9980SOL    HW230840   2.194   1.206   0.830
 9981SOL     OW30841   0.266   2.900   1.675
 9981SOL    HW130842   0.303   2.975   1.730
 9981SOL    HW230843   0.235   2.935   1.587
 9982SOL     OW30844   2.406   2.135   5.329
 9982SOL    HW130845   2.334   2.122   5.260
 9982SOL    HW230846   2.463   2.053   5.334
 9983SOL     OW30847   0.995   2.932   2.072
 9983SOL    HW130848   1.025   2.894   2.159
 9983SOL    HW230849   0.931   2.869   2.028
 9984SOL     OW30850   7.003   6.165   1.140
 9984SOL    HW130851   0.058   6.164   1.208
 9984SOL    HW230852   7.001   6.255   1.096
 9985SOL     OW30853   3.995   5.312   0.378
 9985SOL    HW130854   3.922   5.381   0.376
 9985SOL    HW230855   4.014   5.281   0.285
 9986SOL     OW30856   5.242   4.917   0.399
 9986SOL    HW130857   5.152   4.917   0.440
 9986SOL    HW230858   5.281   4.825   0.405
 9987SOL     OW30859   5.082   2.948   1.561
 9987SOL    HW130860   5.033   3.019   1.511
 9987SOL    HW230861   5.060   2.858   1.523
 9988SOL     OW30862   5.537   6.502   4.361
 9988SOL    HW130863   5.570   6.512   4.454
 9988SOL    HW230864   5.438   6.486   4.362
 9989SOL     OW30865   6.537   5.387   2.498
 9989SOL    HW130866   6.551   5.324   2.422
 9989SOL    HW230867   6.568   5.478   2.472
 9990SOL     OW30868   0.409   6.853   3.558
 9990SOL    HW130869   0.418   6.947   3.523
 9990SOL    HW230870   0.407   6.855   3.658
 9991SOL     OW30871   1.567   4.527   3.476
 9991SOL    HW130872   1.650   4.473   3.463
 9991SOL    HW230873   1.489   4.466   3.483
 9992SOL     OW30874   3.664   4.825   0.996
 9992SOL    HW130875   3.655   4.924   1.009
 9992SOL    HW230876   3.702   4.785   1.080
 9993SOL     OW30877   3.993   6.936   4.497
 9993SOL    HW130878   4.090   6.949   4.474
 9993SOL    HW230879   3.951   0.006   4.515
 9994SOL     OW30880   6.537   4.853   4.416
 9994SOL    HW130881   6.612   4.820   4.360
 9994SOL    HW230882   6.466   4.891   4.357
 9995SOL     OW30883   2.903   0.681   4.927
 9995SOL    HW130884   2.990   0.645   4.960
 9995SOL    HW230885   2.832   0.668   4.997
 9996SOL     OW30886   1.867   3.701   0.972
 9996SOL    HW130887   1.871   3.613   1.020
 9996SOL    HW230888   1.835   3.687   0.878
 9997SOL     OW30889   5.922   3.214   3.792
 9997SOL    HW130890   6.017   3.237   3.813
 9997SOL    HW230891   5.899   3.127   3.837
 9998SOL     OW30892   5.058   4.563   2.503
 9998SOL    HW130893   5.083   4.640   2.561
 9998SOL    HW230894   5.040   4.483   2.560
 9999SOL     OW30895   0.894   6.317   3.967
 9999SOL    HW130896   0.986   6.317   4.007
 9999SOL    HW230897   0.891   6.379   3.889
10000SOL     OW30898   5.786   2.017   1.609
10000SOL    HW130899   5.698   1.972   1.598
10000SOL    HW230900   5.786   2.070   1.694
10001SOL     OW30901   4.177   6.192   2.318
10001SOL    HW130902   4.128   6.252   2.380
10001SOL    HW230903   4.184   6.101   2.358
10002SOL     OW30904   2.701   1.025   1.867
10002SOL    HW130905   2.691   1.111   1.917
10002SOL    HW230906   2.785   1.028   1.812
10003SOL     OW30907   1.506   0.971   3.982
10003SOL    HW130908   1.520   1.034   3.906
10003SOL    HW230909   1.419   0.993   4.028
10004SOL     OW30910   6.182   4.314   5.350
10004SOL    HW130911   6.244   4.241   5.320
10004SOL    HW230912   6.233   4.379   5.406
10005SOL     OW30913   1.869   5.374   3.297
10005SOL    HW130914   1.877   5.449   3.363
10005SOL    HW230915   1.858   5.411   3.205
10006SOL     OW30916   5.458   0.521   5.359
10006SOL    HW130917   5.362   0.547   5.367
10006SOL    HW230918   5.485   0.523   5.263
10007SOL     OW30919   1.176   5.112   4.457
10007SOL    HW130920   1.210   5.203   4.434
10007SOL    HW230921   1.214   5.044   4.394
10008SOL     OW30922   4.416   1.571   6.032
10008SOL    HW130923   4.457   1.645   6.085
10008SOL    HW230924   4.316   1.579   6.036
10009SOL     OW30925   0.887   3.558   2.074
10009SOL    HW130926   0.882   3.658   2.073
10009SOL    HW230927   0.855   3.522   1.986
10010SOL     OW30928   2.362   4.599   0.036
10010SOL    HW130929   2.342   4.505   0.008
10010SOL    HW230930   2.378   4.655   6.974
10011SOL     OW30931   1.383   3.442   0.632
10011SOL    HW130932   1.369   3.534   0.668
10011SOL    HW230933   1.330   3.377   0.685
10012SOL     OW30934   4.815   1.450   2.357
10012SOL    HW130935   4.716   1.456   2.361
10012SOL    HW230936   4.848   1.393   2.433
10013SOL     OW30937   0.793   6.028   4.537
10013SOL    HW130938   0.752   5.940   4.513
10013SOL    HW230939   0.839   6.021   4.625
10014SOL     OW30940   0.896   0.233   2.904
10014SOL    HW130941   0.845   0.187   2.977
10014SOL    HW230942   0.920   0.326   2.933
10015SOL     OW30943   4.238   4.572   5.593
10015SOL    HW130944   4.213   4.669   5.603
10015SOL    HW230945   4.202   4.520   5.670
10016SOL     OW30946   2.323   6.968   2.855
10016SOL    HW130947   2.304   7.010   2.944
10016SOL    HW230948   2.266   6.887   2.844
10017SOL     OW30949   2.502   1.660   3.163
10017SOL    HW130950   2.413   1.705   3.160
10017SOL    HW230951   2.507   1.592   3.089
10018SOL     OW30952   6.123   2.641   6.158
10018SOL    HW130953   6.127   2.719   6.220
10018SOL    HW230954   6.087   2.671   6.069
10019SOL     OW30955   0.820   1.715   2.269
10019SOL    HW130956   0.721   1.714   2.281
10019SOL    HW230957   0.862   1.766   2.344
10020SOL     OW30958   6.553   0.472   1.953
10020SOL    HW130959   6.611   0.553   1.954
10020SOL    HW230960   6.479   0.483   2.019
10021SOL     OW30961   1.605   4.025   1.925
10021SOL    HW130962   1.536   4.001   1.856
10021SOL    HW230963   1.580   4.111   1.968
10022SOL     OW30964   2.523   6.120   0.430
10022SOL    HW130965   2.512   6.024   0.453
10022SOL    HW230966   2.549   6.129   0.334
10023SOL     OW30967   2.112   6.926   5.849
10023SOL    HW130968   2.140   6.832   5.829
10023SOL    HW230969   2.192   6.986   5.844
10024SOL     OW30970   1.783   4.728   3.179
10024SOL    HW130971   1.843   4.807   3.165
10024SOL    HW230972   1.838   4.650   3.208
10025SOL     OW30973   0.831   4.455   1.536
10025SOL    HW130974   0.890   4.480   1.612
10025SOL    HW230975   0.778   4.535   1.508
10026SOL     OW30976   5.210   1.348   3.848
10026SOL    HW130977   5.308   1.339   3.867
10026SOL    HW230978   5.195   1.348   3.750
10027SOL     OW30979   1.898   1.944   5.610
10027SOL    HW130980   1.956   2.025   5.611
10027SOL    HW230981   1.928   1.880   5.681
10028SOL     OW30982   3.904   0.704   1.774
10028SOL    HW130983   3.955   0.749   1.848
10028SOL    HW230984   3.940   0.734   1.686
10029SOL     OW30985   6.990   3.450   5.035
10029SOL    HW130986   7.009   3.457   5.133
10029SOL    HW230987   7.003   3.356   5.004
10030SOL     OW30988   2.584   0.005   4.536
10030SOL    HW130989   2.563   0.099   4.563
10030SOL    HW230990   2.615   6.973   4.617
10031SOL     OW30991   3.065   4.885   4.027
10031SOL    HW130992   3.160   4.858   4.017
10031SOL    HW230993   3.018   4.878   3.939
10032SOL     OW30994   3.040   6.235   5.090
10032SOL    HW130995   3.019   6.185   5.174
10032SOL    HW230996   2.957   6.242   5.035
10033SOL     OW30997   4.067   1.883   2.908
10033SOL    HW130998   4.160   1.872   2.940
10033SOL    HW230999   4.054   1.976   2.874
10034SOL     OW31000   2.872   0.438   3.255
10034SOL    HW131001   2.939   0.365   3.266
10034SOL    HW231002   2.861   0.486   3.342
10035SOL     OW31003   6.206   2.961   1.532
10035SOL    HW131004   6.194   3.048   1.581
10035SOL    HW231005   6.293   2.964   1.482
10036SOL     OW31006   6.142   0.549   0.087
10036SOL    HW131007   6.171   0.457   0.060
10036SOL    HW231008   6.223   0.603   0.112
10037SOL     OW31009   6.125   6.793   6.963
10037SOL    HW131010   6.178   6.877   6.958
10037SOL    HW231011   6.046   6.800   6.902
10038SOL     OW31012   4.286   0.215   6.898
10038SOL    HW131013   4.368   0.244   6.947
10038SOL    HW231014   4.220   0.289   6.895
10039SOL     OW31015   5.548   5.074   3.723
10039SOL    HW131016   5.473   5.139   3.716
10039SOL    HW231017   5.587   5.058   3.633
10040SOL     OW31018   3.570   0.217   0.202
10040SOL    HW131019   3.516   0.233   0.119
10040SOL    HW231020   3.535   0.276   0.275
10041SOL     OW31021   6.671   4.837   5.628
10041SOL    HW131022   6.731   4.793   5.695
10041SOL    HW231023   6.626   4.767   5.573
10042SOL     OW31024   0.806   0.838   4.985
10042SOL    HW131025   0.722   0.786   4.970
10042SOL    HW231026   0.816   0.856   5.083
10043SOL     OW31027   1.897   1.154   3.255
10043SOL    HW131028   1.843   1.139   3.172
10043SOL    HW231029   1.893   1.250   3.281
10044SOL     OW31030   2.164   1.187   5.305
10044SOL    HW131031   2.167   1.273   5.255
10044SOL    HW231032   2.068   1.163   5.323
10045SOL     OW31033   4.590   6.758   4.643
10045SOL    HW131034   4.681   6.721   4.624
10045SOL    HW231035   4.531   6.745   4.564
10046SOL     OW31036   0.178   2.427   1.786
10046SOL    HW131037   0.143   2.514   1.750
10046SOL    HW231038   0.157   2.421   1.884
10047SOL     OW31039   6.400   1.438   4.952
10047SOL    HW131040   6.424   1.397   5.040
10047SOL    HW231041   6.463   1.403   4.882
10048SOL     OW31042   3.531   1.608   1.810
10048SOL    HW131043   3.571   1.686   1.858
10048SOL    HW231044   3.446   1.635   1.766
10049SOL     OW31045   2.138   0.863   6.562
10049SOL    HW131046   2.191   0.791   6.516
10049SOL    HW231047   2.065   0.820   6.615
10050SOL     OW31048   5.051   2.634   4.513
10050SOL    HW131049   5.072   2.636   4.610
10050SOL    HW231050   5.111   2.699   4.465
10051SOL     OW31051   6.045   2.916   4.654
10051SOL    HW131052   6.123   2.976   4.668
10051SOL    HW231053   5.996   2.944   4.571
10052SOL     OW31054   1.508   3.351   1.940
10052SOL    HW131055   1.429   3.397   1.982
10052SOL    HW231056   1.573   3.420   1.907
10053SOL     OW31057   3.091   5.174   3.537
10053SOL    HW131058   3.123   5.164   3.631
10053SOL    HW231059   3.142   5.112   3.477
10054SOL     OW31060   4.095   5.819   5.847
10054SOL    HW131061   4.091   5.775   5.936
10054SOL    HW231062   4.111   5.749   5.776
10055SOL     OW31063   6.756   2.540   5.326
10055SOL    HW131064   6.663   2.577   5.327
10055SOL    HW231065   6.820   2.611   5.358
10056SOL     OW31066   6.607   4.960   1.231
10056SOL    HW131067   6.645   4.908   1.307
10056SOL    HW231068   6.680   5.012   1.186
10057SOL     OW31069   4.089   2.053   4.611
10057SOL    HW131070   4.151   2.040   4.689
10057SOL    HW231071   4.127   2.122   4.549
10058SOL     OW31072   6.900   5.393   3.839
10058SOL    HW131073   6.816   5.444   3.820
10058SOL    HW231074   6.933   5.350   3.755
10059SOL     OW31075   5.265   0.276   1.046
10059SOL    HW131076   5.195   0.310   0.983
10059SOL    HW231077   5.243   0.183   1.073
10060SOL     OW31078   2.794   2.246   1.731
10060SOL    HW131079   2.773   2.158   1.774
10060SOL    HW231080   2.869   2.290   1.780
10061SOL     OW31081   6.124   1.212   4.249
10061SOL    HW131082   6.082   1.122   4.258
10061SOL    HW231083   6.080   1.275   4.313
10062SOL     OW31084   5.727   5.882   3.461
10062SOL    HW131085   5.817   5.909   3.495
10062SOL    HW231086   5.696   5.800   3.509
10063SOL     OW31087   1.401   3.190   4.005
10063SOL    HW131088   1.419   3.168   3.909
10063SOL    HW231089   1.474   3.248   4.041
10064SOL     OW31090   4.888   5.675   4.417
10064SOL    HW131091   4.900   5.667   4.318
10064SOL    HW231092   4.902   5.585   4.460
10065SOL     OW31093   1.337   6.620   2.397
10065SOL    HW131094   1.249   6.657   2.426
10065SOL    HW231095   1.407   6.691   2.404
10066SOL     OW31096   0.463   0.222   4.191
10066SOL    HW131097   0.377   0.174   4.172
10066SOL    HW231098   0.516   0.231   4.107
10067SOL     OW31099   5.073   4.780   4.510
10067SOL    HW131100   5.121   4.810   4.592
10067SOL    HW231101   5.034   4.859   4.463
10068SOL     OW31102   5.259   2.802   4.434
10068SOL    HW131103   5.338   2.764   4.483
10068SOL    HW231104   5.256   2.901   4.448
10069SOL     OW31105   3.114   1.047   3.775
10069SOL    HW131106   3.179   1.088   3.711
10069SOL    HW231107   3.128   1.085   3.866
10070SOL     OW31108   0.543   6.147   5.017
10070SOL    HW131109   0.517   6.091   5.096
10070SOL    HW231110   0.583   6.233   5.049
10071SOL     OW31111   4.562   5.446   3.975
10071SOL    HW131112   4.502   5.377   3.932
10071SOL    HW231113   4.639   5.400   4.019
10072SOL     OW31114   0.540   6.210   3.349
10072SOL    HW131115   0.452   6.206   3.396
10072SOL    HW231116   0.532   6.265   3.266
10073SOL     OW31117   6.134   5.125   5.256
10073SOL    HW131118   6.161   5.127   5.160
10073SOL    HW231119   6.169   5.207   5.302
10074SOL     OW31120   1.333   6.919   5.762
10074SOL    HW131121   1.375   6.830   5.745
10074SOL    HW231122   1.381   6.988   5.707
10075SOL     OW31123   1.053   2.330   3.425
10075SOL    HW131124   1.055   2.429   3.440
10075SOL    HW231125   1.083   2.283   3.508
10076SOL     OW31126   4.942   0.348   4.238
10076SOL    HW131127   5.038   0.334   4.263
10076SOL    HW231128   4.892   0.262   4.250
10077SOL     OW31129   4.177   2.402   6.644
10077SOL    HW131130   4.150   2.308   6.621
10077SOL    HW231131   4.238   2.438   6.574
10078SOL     OW31132   6.188   6.375   4.923
10078SOL    HW131133   6.216   6.291   4.876
10078SOL    HW231134   6.262   6.442   4.919
10079SOL     OW31135   1.015   2.977   1.416
10079SOL    HW131136   0.988   2.881   1.415
10079SOL    HW231137   1.114   2.984   1.406
10080SOL     OW31138   2.186   3.021   0.802
10080SOL    HW131139   2.138   2.999   0.886
10080SOL    HW231140   2.283   2.997   0.812
10081SOL     OW31141   0.817   0.239   6.438
10081SOL    HW131142   0.799   0.334   6.464
10081SOL    HW231143   0.730   0.190   6.432
10082SOL     OW31144   6.407   1.927   1.794
10082SOL    HW131145   6.380   1.834   1.817
10082SOL    HW231146   6.363   1.991   1.857
10083SOL     OW31147   4.688   0.707   4.009
10083SOL    HW131148   4.631   0.758   3.944
10083SOL    HW231149   4.640   0.698   4.096
10084SOL     OW31150   2.783   0.841   6.102
10084SOL    HW131151   2.868   0.884   6.072
10084SOL    HW231152   2.708   0.907   6.095
10085SOL     OW31153   0.838   5.004   3.074
10085SOL    HW131154   0.924   5.043   3.107
10085SOL    HW231155   0.773   4.998   3.150
10086SOL     OW31156   6.236   4.739   2.039
10086SOL    HW131157   6.191   4.657   2.005
10086SOL    HW231158   6.329   4.716   2.067
10087SOL     OW31159   1.052   0.939   4.421
10087SOL    HW131160   0.990   0.882   4.474
10087SOL    HW231161   1.142   0.939   4.464
10088SOL     OW31162   0.281   6.775   4.743
10088SOL    HW131163   0.344   6.698   4.736
10088SOL    HW231164   0.190   6.747   4.713
10089SOL     OW31165   2.456   1.534   2.641
10089SOL    HW131166   2.515   1.543   2.560
10089SOL    HW231167   2.368   1.576   2.622
10090SOL     OW31168   1.024   4.609   0.604
10090SOL    HW131169   1.018   4.688   0.542
10090SOL    HW231170   0.933   4.571   0.618
10091SOL     OW31171   1.080   3.223   4.711
10091SOL    HW131172   1.086   3.168   4.628
10091SOL    HW231173   0.988   3.217   4.749
10092SOL     OW31174   1.863   3.646   5.391
10092SOL    HW131175   1.774   3.606   5.411
10092SOL    HW231176   1.903   3.602   5.310
10093SOL     OW31177   0.454   5.320   5.096
10093SOL    HW131178   0.381   5.333   5.163
10093SOL    HW231179   0.512   5.243   5.126
10094SOL     OW31180   2.523   0.483   2.490
10094SOL    HW131181   2.480   0.458   2.404
10094SOL    HW231182   2.455   0.485   2.563
10095SOL     OW31183   6.824   1.616   5.867
10095SOL    HW131184   6.788   1.597   5.775
10095SOL    HW231185   6.748   1.621   5.932
10096SOL     OW31186   6.938   4.939   2.845
10096SOL    HW131187   6.844   4.970   2.858
10096SOL    HW231188   7.002   5.009   2.876
10097SOL     OW31189   1.126   1.660   1.093
10097SOL    HW131190   1.034   1.698   1.106
10097SOL    HW231191   1.127   1.564   1.121
10098SOL     OW31192   1.932   6.141   5.915
10098SOL    HW131193   1.852   6.185   5.957
10098SOL    HW231194   1.914   6.043   5.905
10099SOL     OW31195   6.848   3.726   5.322
10099SOL    HW131196   6.828   3.637   5.363
10099SOL    HW231197   6.943   3.726   5.289
10100SOL     OW31198   4.559   0.932   4.840
10100SOL    HW131199   4.584   0.986   4.920
10100SOL    HW231200   4.591   0.838   4.852
10101SOL     OW31201   0.284   4.827   2.065
10101SOL    HW131202   0.219   4.888   2.019
10101SOL    HW231203   0.267   4.829   2.164
10102SOL     OW31204   3.105   1.336   2.538
10102SOL    HW131205   3.205   1.341   2.540
10102SOL    HW231206   3.067   1.394   2.609
10103SOL     OW31207   2.848   1.314   5.035
10103SOL    HW131208   2.891   1.348   4.951
10103SOL    HW231209   2.817   1.220   5.021
10104SOL     OW31210   0.725   4.456   5.445
10104SOL    HW131211   0.752   4.491   5.534
10104SOL    HW231212   0.803   4.410   5.402
10105SOL     OW31213   1.502   1.458   6.552
10105SOL    HW131214   1.548   1.482   6.637
10105SOL    HW231215   1.432   1.388   6.570
10106SOL     OW31216   5.199   5.246   0.684
10106SOL    HW131217   5.215   5.329   0.736
10106SOL    HW231218   5.272   5.180   0.703
10107SOL     OW31219   6.099   1.068   5.958
10107SOL    HW131220   6.058   1.158   5.940
10107SOL    HW231221   6.105   1.017   5.872
10108SOL     OW31222   6.037   6.410   0.022
10108SOL    HW131223   6.105   6.457   6.985
10108SOL    HW231224   5.986   6.477   0.076
10109SOL     OW31225   4.608   5.871   3.081
10109SOL    HW131226   4.674   5.906   3.147
10109SOL    HW231227   4.642   5.785   3.043
10110SOL     OW31228   3.391   6.807   5.269
10110SOL    HW131229   3.473   6.811   5.212
10110SOL    HW231230   3.387   6.720   5.317
10111SOL     OW31231   6.904   3.206   3.524
10111SOL    HW131232   6.897   3.125   3.583
10111SOL    HW231233   6.877   3.287   3.575
10112SOL     OW31234   5.583   3.909   5.403
10112SOL    HW131235   5.654   3.977   5.424
10112SOL    HW231236   5.504   3.925   5.462
10113SOL     OW31237   4.027   0.847   6.934
10113SOL    HW131238   4.106   0.847   6.996
10113SOL    HW231239   4.053   0.805   6.847
10114SOL     OW31240   5.416   1.658   0.110
10114SOL    HW131241   5.335   1.708   0.079
10114SOL    HW231242   5.486   1.659   0.038
10115SOL     OW31243   1.704   2.454   3.704
10115SOL    HW131244   1.692   2.419   3.611
10115SOL    HW231245   1.751   2.386   3.760
10116SOL     OW31246   1.096   6.873   0.550
10116SOL    HW131247   1.095   6.796   0.615
10116SOL    HW231248   1.026   6.857   0.479
10117SOL     OW31249   5.919   0.202   5.201
10117SOL    HW131250   5.901   0.294   5.237
10117SOL    HW231251   5.912   0.204   5.101
10118SOL     OW31252   0.457   4.984   2.749
10118SOL    HW131253   0.536   4.999   2.690
10118SOL    HW231254   0.373   5.001   2.697
10119SOL     OW31255   2.106   0.411   4.484
10119SOL    HW131256   2.138   0.324   4.446
10119SOL    HW231257   2.097   0.403   4.583
10120SOL     OW31258   0.632   3.211   3.945
10120SOL    HW131259   0.713   3.154   3.957
10120SOL    HW231260   0.558   3.176   4.002
10121SOL     OW31261   6.479   4.771   5.338
10121SOL    HW131262   6.577   4.761   5.356
10121SOL    HW231263   6.461   4.761   5.240
10122SOL     OW31264   5.223   2.984   6.861
10122SOL    HW131265   5.125   2.984   6.837
10122SOL    HW231266   5.272   2.924   6.798
10123SOL     OW31267   0.810   6.049   0.703
10123SOL    HW131268   0.800   6.036   0.801
10123SOL    HW231269   0.748   5.988   0.654
10124SOL     OW31270   2.778   4.405   0.177
10124SOL    HW131271   2.762   4.309   0.157
10124SOL    HW231272   2.854   4.414   0.241
10125SOL     OW31273   1.917   0.824   2.969
10125SOL    HW131274   1.961   0.814   3.058
10125SOL    HW231275   1.867   0.740   2.947
10126SOL     OW31276   6.001   5.715   6.988
10126SOL    HW131277   5.952   5.800   6.970
10126SOL    HW231278   6.029   5.673   6.902
10127SOL     OW31279   3.124   5.386   5.659
10127SOL    HW131280   3.128   5.480   5.625
10127SOL    HW231281   3.089   5.326   5.587
10128SOL     OW31282   0.576   1.365   1.198
10128SOL    HW131283   0.519   1.284   1.186
10128SOL    HW231284   0.599   1.404   1.109
10129SOL     OW31285   5.215   2.882   3.809
10129SOL    HW131286   5.189   2.814   3.740
10129SOL    HW231287   5.176   2.857   3.897
10130SOL     OW31288   1.147   5.527   3.126
10130SOL    HW131289   1.136   5.541   3.225
10130SOL    HW231290   1.226   5.579   3.094
10131SOL     OW31291   0.704   2.107   2.222
10131SOL    HW131292   0.769   2.156   2.279
10131SOL    HW231293   0.655   2.172   2.163
10132SOL     OW31294   3.180   6.759   2.852
10132SOL    HW131295   3.100   6.703   2.876
10132SOL    HW231296   3.149   6.846   2.813
10133SOL     OW31297   4.235   6.090   3.557
10133SOL    HW131298   4.270   6.027   3.486
10133SOL    HW231299   4.312   6.134   3.603
10134SOL     OW31300   6.361   0.816   3.859
10134SOL    HW131301   6.393   0.903   3.822
10134SOL    HW231302   6.433   0.773   3.912
10135SOL     OW31303   4.812   3.879   2.625
10135SOL    HW131304   4.814   3.892   2.526
10135SOL    HW231305   4.782   3.786   2.646
10136SOL     OW31306   5.709   6.997   3.321
10136SOL    HW131307   5.784   6.944   3.281
10136SOL    HW231308   5.747   0.056   3.371
10137SOL     OW31309   6.785   5.378   4.368
10137SOL    HW131310   6.831   5.435   4.300
10137SOL    HW231311   6.780   5.428   4.455
10138SOL     OW31312   5.665   2.312   0.603
10138SOL    HW131313   5.642   2.372   0.679
10138SOL    HW231314   5.582   2.289   0.552
10139SOL     OW31315   3.953   3.063   2.850
10139SOL    HW131316   3.950   3.030   2.944
10139SOL    HW231317   4.003   3.149   2.847
10140SOL     OW31318   6.535   6.106   6.294
10140SOL    HW131319   6.542   6.070   6.202
10140SOL    HW231320   6.476   6.046   6.349
10141SOL     OW31321   2.855   2.198   4.127
10141SOL    HW131322   2.934   2.202   4.188
10141SOL    HW231323   2.807   2.111   4.140
10142SOL     OW31324   4.797   6.609   5.400
10142SOL    HW131325   4.811   6.661   5.484
10142SOL    HW231326   4.874   6.625   5.338
10143SOL     OW31327   4.282   0.015   1.293
10143SOL    HW131328   4.244   0.108   1.302
10143SOL    HW231329   4.317   7.004   1.381
10144SOL     OW31330   3.700   5.832   5.609
10144SOL    HW131331   3.641   5.904   5.571
10144SOL    HW231332   3.737   5.862   5.696
10145SOL     OW31333   2.784   5.966   6.011
10145SOL    HW131334   2.755   5.872   5.993
10145SOL    HW231335   2.877   5.965   6.049
10146SOL     OW31336   3.846   5.250   4.897
10146SOL    HW131337   3.839   5.292   4.987
10146SOL    HW231338   3.939   5.260   4.862
10147SOL     OW31339   4.803   4.534   4.782
10147SOL    HW131340   4.824   4.595   4.706
10147SOL    HW231341   4.718   4.486   4.764
10148SOL     OW31342   6.310   5.849   0.209
10148SOL    HW131343   6.272   5.906   0.137
10148SOL    HW231344   6.388   5.797   0.173
10149SOL     OW31345   4.887   1.668   0.510
10149SOL    HW131346   4.985   1.682   0.520
10149SOL    HW231347   4.854   1.721   0.431
10150SOL     OW31348   4.511   4.269   0.792
10150SOL    HW131349   4.561   4.325   0.725
10150SOL    HW231350   4.572   4.245   0.867
10151SOL     OW31351   1.814   0.093   6.468
10151SOL    HW131352   1.753   0.034   6.415
10151SOL    HW231353   1.808   0.068   6.565
10152SOL     OW31354   1.429   5.477   4.107
10152SOL    HW131355   1.433   5.438   4.015
10152SOL    HW231356   1.435   5.577   4.101
10153SOL     OW31357   4.479   5.859   3.859
10153SOL    HW131358   4.454   5.797   3.934
10153SOL    HW231359   4.537   5.932   3.895
10154SOL     OW31360   6.593   6.327   5.957
10154SOL    HW131361   6.614   6.231   5.980
10154SOL    HW231362   6.551   6.371   6.036
10155SOL     OW31363   4.339   1.343   6.238
10155SOL    HW131364   4.309   1.256   6.199
10155SOL    HW231365   4.352   1.410   6.165
10156SOL     OW31366   6.051   6.764   2.112
10156SOL    HW131367   6.090   6.843   2.065
10156SOL    HW231368   5.983   6.720   2.054
10157SOL     OW31369   6.001   1.603   5.596
10157SOL    HW131370   5.979   1.672   5.665
10157SOL    HW231371   6.046   1.525   5.641
10158SOL     OW31372   4.810   3.713   0.294
10158SOL    HW131373   4.887   3.718   0.357
10158SOL    HW231374   4.822   3.634   0.234
10159SOL     OW31375   2.848   3.086   5.883
10159SOL    HW131376   2.802   3.107   5.796
10159SOL    HW231377   2.911   3.160   5.906
10160SOL     OW31378   1.166   4.652   2.700
10160SOL    HW131379   1.108   4.635   2.779
10160SOL    HW231380   1.109   4.657   2.617
10161SOL     OW31381   3.636   4.797   0.595
10161SOL    HW131382   3.665   4.875   0.650
10161SOL    HW231383   3.536   4.795   0.589
10162SOL     OW31384   2.658   3.789   6.866
10162SOL    HW131385   2.666   3.889   6.857
10162SOL    HW231386   2.654   3.748   6.776
10163SOL     OW31387   5.800   4.148   6.394
10163SOL    HW131388   5.814   4.049   6.383
10163SOL    HW231389   5.706   4.171   6.370
10164SOL     OW31390   6.259   3.057   4.911
10164SOL    HW131391   6.330   3.109   4.959
10164SOL    HW231392   6.265   3.074   4.813
10165SOL     OW31393   1.196   2.388   4.146
10165SOL    HW131394   1.280   2.347   4.112
10165SOL    HW231395   1.211   2.421   4.240
10166SOL     OW31396   3.500   1.056   2.127
10166SOL    HW131397   3.559   1.025   2.052
10166SOL    HW231398   3.408   1.020   2.114
10167SOL     OW31399   4.593   1.122   6.966
10167SOL    HW131400   4.591   1.136   0.046
10167SOL    HW231401   4.518   1.172   6.924
10168SOL     OW31402   6.413   4.012   4.529
10168SOL    HW131403   6.346   3.938   4.532
10168SOL    HW231404   6.498   3.982   4.573
10169SOL     OW31405   6.859   4.183   3.448
10169SOL    HW131406   6.889   4.278   3.457
10169SOL    HW231407   6.760   4.181   3.433
10170SOL     OW31408   0.503   4.340   5.921
10170SOL    HW131409   0.511   4.241   5.919
10170SOL    HW231410   0.496   4.371   6.016
10171SOL     OW31411   6.097   3.592   6.752
10171SOL    HW131412   6.117   3.511   6.808
10171SOL    HW231413   6.161   3.665   6.777
10172SOL     OW31414   5.930   0.421   2.982
10172SOL    HW131415   5.982   0.492   3.031
10172SOL    HW231416   5.994   0.361   2.934
10173SOL     OW31417   1.656   2.380   1.061
10173SOL    HW131418   1.725   2.446   1.032
10173SOL    HW231419   1.663   2.366   1.160
10174SOL     OW31420   5.832   4.928   2.180
10174SOL    HW131421   5.846   4.884   2.091
10174SOL    HW231422   5.736   4.955   2.188
10175SOL     OW31423   6.698   2.764   4.128
10175SOL    HW131424   6.707   2.669   4.156
10175SOL    HW231425   6.716   2.772   4.030
10176SOL     OW31426   1.131   3.105   5.878
10176SOL    HW131427   1.067   3.036   5.910
10176SOL    HW231428   1.175   3.150   5.956
10177SOL     OW31429   2.909   0.232   0.047
10177SOL    HW131430   2.910   0.254   0.145
10177SOL    HW231431   2.956   0.145   0.033
10178SOL     OW31432   6.647   3.267   4.730
10178SOL    HW131433   6.593   3.311   4.802
10178SOL    HW231434   6.696   3.337   4.678
10179SOL     OW31435   0.831   1.845   5.832
10179SOL    HW131436   0.804   1.933   5.872
10179SOL    HW231437   0.931   1.838   5.830
10180SOL     OW31438   3.105   5.080   6.254
10180SOL    HW131439   3.109   5.026   6.338
10180SOL    HW231440   3.058   5.028   6.183
10181SOL     OW31441   5.185   3.597   2.171
10181SOL    HW131442   5.087   3.614   2.164
10181SOL    HW231443   5.207   3.506   2.135
10182SOL     OW31444   5.804   1.590   1.861
10182SOL    HW131445   5.886   1.631   1.821
10182SOL    HW231446   5.759   1.656   1.922
10183SOL     OW31447   1.201   1.893   6.374
10183SOL    HW131448   1.188   1.983   6.416
10183SOL    HW231449   1.174   1.822   6.439
10184SOL     OW31450   4.937   1.969   6.099
10184SOL    HW131451   4.916   1.915   6.181
10184SOL    HW231452   5.023   2.018   6.114
10185SOL     OW31453   4.970   6.375   0.685
10185SOL    HW131454   4.940   6.283   0.707
10185SOL    HW231455   4.892   6.430   0.656
10186SOL     OW31456   6.063   3.426   3.604
10186SOL    HW131457   6.009   3.475   3.673
10186SOL    HW231458   6.127   3.364   3.651
10187SOL     OW31459   1.075   1.967   1.979
10187SOL    HW131460   1.122   1.879   1.981
10187SOL    HW231461   0.977   1.953   1.994
10188SOL     OW31462   3.814   5.995   6.651
10188SOL    HW131463   3.758   5.980   6.732
10188SOL    HW231464   3.862   5.910   6.627
10189SOL     OW31465   2.561   0.014   5.635
10189SOL    HW131466   2.647   6.982   5.633
10189SOL    HW231467   2.572   0.100   5.585
10190SOL     OW31468   5.452   2.551   1.138
10190SOL    HW131469   5.514   2.477   1.163
10190SOL    HW231470   5.429   2.604   1.219
10191SOL     OW31471   4.758   4.141   0.014
10191SOL    HW131472   4.771   4.218   6.970
10191SOL    HW231473   4.669   4.149   0.058
10192SOL     OW31474   4.272   0.936   4.843
10192SOL    HW131475   4.254   1.027   4.805
10192SOL    HW231476   4.367   0.931   4.872
10193SOL     OW31477   4.389   3.977   1.680
10193SOL    HW131478   4.450   3.972   1.601
10193SOL    HW231479   4.422   4.046   1.744
10194SOL     OW31480   5.931   4.888   5.114
10194SOL    HW131481   5.950   4.807   5.171
10194SOL    HW231482   6.017   4.923   5.076
10195SOL     OW31483   5.848   4.407   1.356
10195SOL    HW131484   5.832   4.311   1.337
10195SOL    HW231485   5.944   4.429   1.335
10196SOL     OW31486   5.728   1.479   4.603
10196SOL    HW131487   5.748   1.488   4.700
10196SOL    HW231488   5.794   1.534   4.550
10197SOL     OW31489   6.997   1.786   4.854
10197SOL    HW131490   0.044   1.850   4.892
10197SOL    HW231491   0.026   1.705   4.819
10198SOL     OW31492   4.048   0.576   2.388
10198SOL    HW131493   3.999   0.633   2.322
10198SOL    HW231494   4.106   0.510   2.339
10199SOL     OW31495   2.076   2.813   5.905
10199SOL    HW131496   2.003   2.813   5.836
10199SOL    HW231497   2.162   2.838   5.862
10200SOL     OW31498   4.989   2.347   1.341
10200SOL    HW131499   5.085   2.373   1.335
10200SOL    HW231500   4.948   2.388   1.423
10201SOL     OW31501   0.682   4.757   0.761
10201SOL    HW131502   0.627   4.719   0.835
10201SOL    HW231503   0.715   4.683   0.702
10202SOL     OW31504   4.181   2.227   5.893
10202SOL    HW131505   4.252   2.167   5.931
10202SOL    HW231506   4.133   2.179   5.821
10203SOL     OW31507   5.318   2.570   4.206
10203SOL    HW131508   5.229   2.558   4.162
10203SOL    HW231509   5.317   2.651   4.264
10204SOL     OW31510   5.062   6.601   6.946
10204SOL    HW131511   5.003   6.644   7.014
10204SOL    HW231512   5.046   6.643   6.856
10205SOL     OW31513   0.632   1.775   0.646
10205SOL    HW131514   0.607   1.831   0.567
10205SOL    HW231515   0.620   1.678   0.623
10206SOL     OW31516   1.069   1.379   5.946
10206SOL    HW131517   1.037   1.400   6.038
10206SOL    HW231518   1.019   1.435   5.880
10207SOL     OW31519   1.403   1.624   6.341
10207SOL    HW131520   1.446   1.576   6.418
10207SOL    HW231521   1.414   1.571   6.257
10208SOL     OW31522   5.388   5.158   4.223
10208SOL    HW131523   5.351   5.070   4.252
10208SOL    HW231524   5.451   5.144   4.146
10209SOL     OW31525   6.941   0.316   6.033
10209SOL    HW131526   7.011   0.269   5.979
10209SOL    HW231527   6.943   0.414   6.012
10210SOL     OW31528   4.156   6.603   1.103
10210SOL    HW131529   4.243   6.623   1.059
10210SOL    HW231530   4.122   6.684   1.150
10211SOL     OW31531   3.467   6.517   4.571
10211SOL    HW131532   3.490   6.614   4.568
10211SOL    HW231533   3.535   6.465   4.519
10212SOL     OW31534   0.869   0.039   5.431
10212SOL    HW131535   0.812   0.015   5.510
10212SOL    HW231536   0.834   7.012   5.350
10213SOL     OW31537   5.243   2.668   0.971
10213SOL    HW131538   5.171   2.607   0.937
10213SOL    HW231539   5.315   2.614   1.014
10214SOL     OW31540   1.364   1.744   1.524
10214SOL    HW131541   1.329   1.744   1.431
10214SOL    HW231542   1.305   1.689   1.583
10215SOL     OW31543   4.063   3.699   2.893
10215SOL    HW131544   4.126   3.651   2.955
10215SOL    HW231545   3.970   3.664   2.907
10216SOL     OW31546   6.019   0.327   1.875
10216SOL    HW131547   6.096   0.352   1.933
10216SOL    HW231548   5.935   0.365   1.913
10217SOL     OW31549   2.872   0.949   3.688
10217SOL    HW131550   2.807   1.019   3.717
10217SOL    HW231551   2.965   0.979   3.710
10218SOL     OW31552   0.955   2.853   1.745
10218SOL    HW131553   0.961   2.776   1.681
10218SOL    HW231554   1.032   2.915   1.730
10219SOL     OW31555   0.281   1.355   2.048
10219SOL    HW131556   0.375   1.356   2.013
10219SOL    HW231557   0.218   1.381   1.975
10220SOL     OW31558   3.702   3.143   1.213
10220SOL    HW131559   3.752   3.157   1.299
10220SOL    HW231560   3.610   3.109   1.233
10221SOL     OW31561   0.434   5.864   3.248
10221SOL    HW131562   0.501   5.936   3.226
10221SOL    HW231563   0.354   5.874   3.190
10222SOL     OW31564   3.004   3.251   4.425
10222SOL    HW131565   2.990   3.224   4.521
10222SOL    HW231566   2.954   3.335   4.406
10223SOL     OW31567   0.690   5.670   1.324
10223SOL    HW131568   0.676   5.663   1.423
10223SOL    HW231569   0.788   5.672   1.305
10224SOL     OW31570   6.241   3.905   3.501
10224SOL    HW131571   6.269   3.811   3.518
10224SOL    HW231572   6.234   3.954   3.588
10225SOL     OW31573   1.421   4.014   5.560
10225SOL    HW131574   1.410   4.024   5.659
10225SOL    HW231575   1.331   4.000   5.518
10226SOL     OW31576   3.694   2.126   6.929
10226SOL    HW131577   3.784   2.159   6.958
10226SOL    HW231578   3.628   2.202   6.933
10227SOL     OW31579   5.496   3.995   1.027
10227SOL    HW131580   5.504   3.932   0.950
10227SOL    HW231581   5.585   4.036   1.047
10228SOL     OW31582   5.656   0.953   0.389
10228SOL    HW131583   5.712   1.032   0.412
10228SOL    HW231584   5.588   0.938   0.461
10229SOL     OW31585   0.382   3.280   5.243
10229SOL    HW131586   0.364   3.189   5.204
10229SOL    HW231587   0.464   3.318   5.200
10230SOL     OW31588   6.696   5.608   2.494
10230SOL    HW131589   6.792   5.589   2.515
10230SOL    HW231590   6.689   5.636   2.398
10231SOL     OW31591   1.852   6.418   3.188
10231SOL    HW131592   1.920   6.411   3.115
10231SOL    HW231593   1.871   6.498   3.244
10232SOL     OW31594   3.681   0.080   3.049
10232SOL    HW131595   3.702   7.013   3.095
10232SOL    HW231596   3.646   0.146   3.115
10233SOL     OW31597   3.896   4.294   6.332
10233SOL    HW131598   3.888   4.394   6.327
10233SOL    HW231599   3.840   4.253   6.260
10234SOL     OW31600   6.381   0.545   1.381
10234SOL    HW131601   6.361   0.567   1.477
10234SOL    HW231602   6.300   0.506   1.339
10235SOL     OW31603   1.028   1.042   3.278
10235SOL    HW131604   0.972   1.101   3.336
10235SOL    HW231605   1.111   1.091   3.251
10236SOL     OW31606   2.470   6.786   0.241
10236SOL    HW131607   2.373   6.809   0.240
10236SOL    HW231608   2.487   6.707   0.183
10237SOL     OW31609   0.370   3.268   6.842
10237SOL    HW131610   0.369   3.350   6.899
10237SOL    HW231611   0.291   3.211   6.865
10238SOL     OW31612   3.987   5.094   1.000
10238SOL    HW131613   4.003   5.033   1.078
10238SOL    HW231614   4.053   5.073   0.927
10239SOL     OW31615   1.552   2.972   4.716
10239SOL    HW131616   1.626   2.958   4.650
10239SOL    HW231617   1.477   3.021   4.672
10240SOL     OW31618   2.403   6.933   1.483
10240SOL    HW131619   2.354   7.016   1.510
10240SOL    HW231620   2.345   6.877   1.424
10241SOL     OW31621   4.604   2.047   1.896
10241SOL    HW131622   4.593   2.060   1.995
10241SOL    HW231623   4.514   2.053   1.852
10242SOL     OW31624   0.180   2.347   0.707
10242SOL    HW131625   0.266   2.351   0.759
10242SOL    HW231626   0.165   2.254   0.675
10243SOL     OW31627   2.490   4.488   0.813
10243SOL    HW131628   2.478   4.425   0.736
10243SOL    HW231629   2.588   4.502   0.829
10244SOL     OW31630   2.187   4.086   1.536
10244SOL    HW131631   2.088   4.085   1.552
10244SOL    HW231632   2.218   3.992   1.516
10245SOL     OW31633   3.318   4.092   0.313
10245SOL    HW131634   3.370   4.032   0.373
10245SOL    HW231635   3.333   4.066   0.218
10246SOL     OW31636   3.615   2.915   4.403
10246SOL    HW131637   3.621   2.889   4.500
10246SOL    HW231638   3.523   2.896   4.370
10247SOL     OW31639   0.936   3.943   4.369
10247SOL    HW131640   0.962   4.012   4.436
10247SOL    HW231641   1.017   3.913   4.318
10248SOL     OW31642   1.438   0.472   3.518
10248SOL    HW131643   1.503   0.424   3.459
10248SOL    HW231644   1.352   0.484   3.470
10249SOL     OW31645   1.972   4.820   6.874
10249SOL    HW131646   1.879   4.797   6.902
10249SOL    HW231647   2.025   4.736   6.861
10250SOL     OW31648   5.387   2.705   6.874
10250SOL    HW131649   5.393   2.736   6.779
10250SOL    HW231650   5.401   2.783   6.935
10251SOL     OW31651   1.464   0.360   4.086
10251SOL    HW131652   1.444   0.303   4.007
10251SOL    HW231653   1.379   0.396   4.124
10252SOL     OW31654   4.581   3.995   5.845
10252SOL    HW131655   4.490   3.997   5.888
10252SOL    HW231656   4.633   3.918   5.881
10253SOL     OW31657   3.944   6.517   6.849
10253SOL    HW131658   3.901   6.573   6.920
10253SOL    HW231659   3.874   6.474   6.793
10254SOL     OW31660   5.515   1.888   4.996
10254SOL    HW131661   5.556   1.889   4.904
10254SOL    HW231662   5.542   1.971   5.045
10255SOL     OW31663   3.164   5.795   1.482
10255SOL    HW131664   3.119   5.850   1.411
10255SOL    HW231665   3.213   5.719   1.439
10256SOL     OW31666   5.101   0.963   1.744
10256SOL    HW131667   5.186   0.987   1.696
10256SOL    HW231668   5.100   1.008   1.833
10257SOL     OW31669   2.786   5.036   2.954
10257SOL    HW131670   2.706   5.053   2.897
10257SOL    HW231671   2.847   4.971   2.909
10258SOL     OW31672   2.519   1.864   2.567
10258SOL    HW131673   2.465   1.857   2.652
10258SOL    HW231674   2.457   1.882   2.490
10259SOL     OW31675   0.742   4.048   4.235
10259SOL    HW131676   0.809   4.001   4.293
10259SOL    HW231677   0.789   4.111   4.174
10260SOL     OW31678   1.507   1.102   3.746
10260SOL    HW131679   1.448   1.177   3.714
10260SOL    HW231680   1.597   1.111   3.705
10261SOL     OW31681   0.396   3.736   0.452
10261SOL    HW131682   0.387   3.674   0.530
10261SOL    HW231683   0.473   3.708   0.396
10262SOL     OW31684   3.862   0.995   6.768
10262SOL    HW131685   3.925   0.958   6.836
10262SOL    HW231686   3.901   0.983   6.676
10263SOL     OW31687   5.999   1.012   1.153
10263SOL    HW131688   6.002   0.985   1.057
10263SOL    HW231689   6.000   0.930   1.211
10264SOL     OW31690   6.268   5.054   6.978
10264SOL    HW131691   6.278   5.013   6.887
10264SOL    HW231692   6.172   5.073   6.996
10265SOL     OW31693   2.275   2.937   0.288
10265SOL    HW131694   2.321   2.879   0.356
10265SOL    HW231695   2.287   2.898   0.197
10266SOL     OW31696   3.331   2.957   2.800
10266SOL    HW131697   3.278   3.040   2.815
10266SOL    HW231698   3.312   2.892   2.873
10267SOL     OW31699   5.622   0.347   0.481
10267SOL    HW131700   5.626   0.270   0.544
10267SOL    HW231701   5.577   0.425   0.525
10268SOL     OW31702   5.212   0.307   1.326
10268SOL    HW131703   5.175   0.400   1.315
10268SOL    HW231704   5.167   0.246   1.261
10269SOL     OW31705   1.876   2.204   6.638
10269SOL    HW131706   1.892   2.283   6.579
10269SOL    HW231707   1.778   2.185   6.642
10270SOL     OW31708   3.418   5.975   2.400
10270SOL    HW131709   3.431   5.926   2.313
10270SOL    HW231710   3.470   6.060   2.398
10271SOL     OW31711   2.682   2.263   0.566
10271SOL    HW131712   2.631   2.233   0.646
10271SOL    HW231713   2.635   2.340   0.522
10272SOL     OW31714   6.760   0.869   4.420
10272SOL    HW131715   6.668   0.900   4.443
10272SOL    HW231716   6.821   0.886   4.498
10273SOL     OW31717   2.700   5.293   4.008
10273SOL    HW131718   2.636   5.351   4.058
10273SOL    HW231719   2.689   5.198   4.038
10274SOL     OW31720   0.206   4.882   5.524
10274SOL    HW131721   0.116   4.900   5.484
10274SOL    HW231722   0.275   4.878   5.451
10275SOL     OW31723   0.084   0.532   3.060
10275SOL    HW131724   0.118   0.540   2.967
10275SOL    HW231725   0.154   0.565   3.124
10276SOL     OW31726   4.617   5.748   5.686
10276SOL    HW131727   4.569   5.738   5.599
10276SOL    HW231728   4.571   5.818   5.741
10277SOL     OW31729   1.285   6.870   4.029
10277SOL    HW131730   1.323   6.843   4.117
10277SOL    HW231731   1.266   6.789   3.974
10278SOL     OW31732   0.426   0.541   5.184
10278SOL    HW131733   0.520   0.527   5.214
10278SOL    HW231734   0.425   0.603   5.106
10279SOL     OW31735   2.527   5.564   4.585
10279SOL    HW131736   2.470   5.642   4.558
10279SOL    HW231737   2.473   5.480   4.580
10280SOL     OW31738   5.649   3.671   1.051
10280SOL    HW131739   5.573   3.610   1.075
10280SOL    HW231740   5.631   3.713   0.962
10281SOL     OW31741   6.463   2.067   3.360
10281SOL    HW131742   6.537   2.046   3.296
10281SOL    HW231743   6.447   1.987   3.419
10282SOL     OW31744   4.894   3.383   2.863
10282SOL    HW131745   4.890   3.309   2.930
10282SOL    HW231746   4.889   3.344   2.770
10283SOL     OW31747   0.134   3.778   1.132
10283SOL    HW131748   0.121   3.848   1.201
10283SOL    HW231749   0.158   3.821   1.045
10284SOL     OW31750   0.306   2.414   4.061
10284SOL    HW131751   0.352   2.495   4.098
10284SOL    HW231752   0.374   2.342   4.045
10285SOL     OW31753   4.381   6.378   3.729
10285SOL    HW131754   4.426   6.304   3.679
10285SOL    HW231755   4.404   6.466   3.686
10286SOL     OW31756   3.425   1.652   4.228
10286SOL    HW131757   3.514   1.669   4.271
10286SOL    HW231758   3.411   1.717   4.154
10287SOL     OW31759   2.048   6.331   1.787
10287SOL    HW131760   2.060   6.407   1.851
10287SOL    HW231761   2.131   6.320   1.732
10288SOL     OW31762   3.265   6.887   4.984
10288SOL    HW131763   3.192   6.857   4.922
10288SOL    HW231764   3.324   6.809   5.006
10289SOL     OW31765   3.158   6.358   0.326
10289SOL    HW131766   3.199   6.276   0.287
10289SOL    HW231767   3.196   6.375   0.417
10290SOL     OW31768   3.066   3.241   2.582
10290SOL    HW131769   3.045   3.144   2.569
10290SOL    HW231770   3.093   3.282   2.495
10291SOL     OW31771   3.445   0.700   2.894
10291SOL    HW131772   3.519   0.640   2.925
10291SOL    HW231773   3.377   0.646   2.844
10292SOL     OW31774   0.011   0.718   6.372
10292SOL    HW131775   6.937   0.720   6.335
10292SOL    HW231776   0.025   0.796   6.432
10293SOL     OW31777   0.857   3.590   3.789
10293SOL    HW131778   0.769   3.629   3.760
10293SOL    HW231779   0.860   3.586   3.889
10294SOL     OW31780   3.479   2.115   2.601
10294SOL    HW131781   3.385   2.123   2.633
10294SOL    HW231782   3.526   2.202   2.611
10295SOL     OW31783   1.086   2.474   6.284
10295SOL    HW131784   1.083   2.565   6.326
10295SOL    HW231785   1.016   2.415   6.326
10296SOL     OW31786   5.697   0.905   5.760
10296SOL    HW131787   5.624   0.843   5.730
10296SOL    HW231788   5.733   0.955   5.681
10297SOL     OW31789   3.052   2.051   6.570
10297SOL    HW131790   3.145   2.086   6.571
10297SOL    HW231791   3.010   2.064   6.660
10298SOL     OW31792   1.172   3.848   2.205
10298SOL    HW131793   1.082   3.852   2.160
10298SOL    HW231794   1.230   3.781   2.158
10299SOL     OW31795   4.862   6.782   2.452
10299SOL    HW131796   4.948   6.776   2.503
10299SOL    HW231797   4.787   6.800   2.515
10300SOL     OW31798   1.204   4.134   1.855
10300SOL    HW131799   1.295   4.105   1.825
10300SOL    HW231800   1.191   4.111   1.951
10301SOL     OW31801   4.119   1.372   5.399
10301SOL    HW131802   4.053   1.298   5.412
10301SOL    HW231803   4.070   1.459   5.390
10302SOL     OW31804   3.033   6.183   4.184
10302SOL    HW131805   3.041   6.233   4.098
10302SOL    HW231806   2.946   6.135   4.188
10303SOL     OW31807   1.240   6.110   3.995
10303SOL    HW131808   1.303   6.041   3.958
10303SOL    HW231809   1.147   6.075   3.990
10304SOL     OW31810   6.466   6.845   0.052
10304SOL    HW131811   6.545   6.904   0.035
10304SOL    HW231812   6.469   6.813   0.147
10305SOL     OW31813   2.925   3.715   5.868
10305SOL    HW131814   2.898   3.806   5.836
10305SOL    HW231815   2.887   3.645   5.807
10306SOL     OW31816   5.699   0.116   0.944
10306SOL    HW131817   5.710   0.158   1.034
10306SOL    HW231818   5.666   0.022   0.955
10307SOL     OW31819   3.029   1.008   4.478
10307SOL    HW131820   2.993   1.099   4.498
10307SOL    HW231821   3.129   1.009   4.485
10308SOL     OW31822   2.104   4.575   2.653
10308SOL    HW131823   2.184   4.519   2.678
10308SOL    HW231824   2.075   4.552   2.560
10309SOL     OW31825   5.643   0.610   5.524
10309SOL    HW131826   5.592   0.579   5.444
10309SOL    HW231827   5.583   0.662   5.584
10310SOL     OW31828   2.478   3.102   0.035
10310SOL    HW131829   2.464   3.174   6.986
10310SOL    HW231830   2.463   3.012   7.011
10311SOL     OW31831   5.710   5.696   6.928
10311SOL    HW131832   5.694   5.749   6.845
10311SOL    HW231833   5.747   5.606   6.904
10312SOL     OW31834   4.392   6.948   1.785
10312SOL    HW131835   4.390   0.020   1.827
10312SOL    HW231836   4.315   6.894   1.820
10313SOL     OW31837   4.351   5.537   2.991
10313SOL    HW131838   4.361   5.633   2.965
10313SOL    HW231839   4.363   5.528   3.090
10314SOL     OW31840   0.640   0.387   6.820
10314SOL    HW131841   0.669   0.406   6.726
10314SOL    HW231842   0.666   0.464   6.879
10315SOL     OW31843   5.211   6.466   3.443
10315SOL    HW131844   5.232   6.564   3.438
10315SOL    HW231845   5.123   6.449   3.398
10316SOL     OW31846   6.824   1.695   6.172
10316SOL    HW131847   6.911   1.677   6.126
10316SOL    HW231848   6.755   1.722   6.105
10317SOL     OW31849   3.379   5.916   5.933
10317SOL    HW131850   3.409   5.889   6.025
10317SOL    HW231851   3.375   5.835   5.874
10318SOL     OW31852   5.223   0.155   6.800
10318SOL    HW131853   5.141   0.130   6.851
10318SOL    HW231854   5.210   0.133   6.703
10319SOL     OW31855   0.347   4.934   5.227
10319SOL    HW131856   0.394   4.854   5.190
10319SOL    HW231857   0.415   5.002   5.256
10320SOL     OW31858   6.892   0.268   3.749
10320SOL    HW131859   6.881   0.272   3.848
10320SOL    HW231860   6.900   0.360   3.712
10321SOL     OW31861   6.202   2.066   2.042
10321SOL    HW131862   6.128   2.009   2.006
10321SOL    HW231863   6.190   2.078   2.141
10322SOL     OW31864   4.300   4.748   4.682
10322SOL    HW131865   4.396   4.772   4.671
10322SOL    HW231866   4.256   4.812   4.745
10323SOL     OW31867   6.323   4.529   5.485
10323SOL    HW131868   6.275   4.614   5.465
10323SOL    HW231869   6.417   4.533   5.450
10324SOL     OW31870   2.922   3.695   2.595
10324SOL    HW131871   2.942   3.608   2.640
10324SOL    HW231872   2.917   3.681   2.496
10325SOL     OW31873   0.204   5.592   2.560
10325SOL    HW131874   0.223   5.570   2.656
10325SOL    HW231875   0.266   5.541   2.501
10326SOL     OW31876   5.468   3.676   6.847
10326SOL    HW131877   5.493   3.639   6.757
10326SOL    HW231878   5.535   3.746   6.873
10327SOL     OW31879   2.393   3.378   1.223
10327SOL    HW131880   2.430   3.329   1.145
10327SOL    HW231881   2.391   3.318   1.303
10328SOL     OW31882   6.661   3.033   2.439
10328SOL    HW131883   6.692   3.120   2.478
10328SOL    HW231884   6.562   3.023   2.452
10329SOL     OW31885   3.278   0.532   2.740
10329SOL    HW131886   3.219   0.548   2.661
10329SOL    HW231887   3.223   0.497   2.816
10330SOL     OW31888   4.604   0.702   0.902
10330SOL    HW131889   4.593   0.800   0.918
10330SOL    HW231890   4.621   0.687   0.804
10331SOL     OW31891   6.359   6.268   6.582
10331SOL    HW131892   6.357   6.175   6.619
10331SOL    HW231893   6.439   6.280   6.524
10332SOL     OW31894   0.956   0.713   6.485
10332SOL    HW131895   0.954   0.789   6.421
10332SOL    HW231896   1.037   0.720   6.543
10333SOL     OW31897   0.529   5.674   4.570
10333SOL    HW131898   0.530   5.574   4.564
10333SOL    HW231899   0.475   5.712   4.494
10334SOL     OW31900   3.087   0.048   4.091
10334SOL    HW131901   3.033   0.064   4.174
10334SOL    HW231902   3.173   0.098   4.097
10335SOL     OW31903   0.648   4.679   6.572
10335SOL    HW131904   0.639   4.606   6.639
10335SOL    HW231905   0.733   4.729   6.588
10336SOL     OW31906   6.689   6.856   2.174
10336SOL    HW131907   6.667   6.842   2.078
10336SOL    HW231908   6.764   6.795   2.200
10337SOL     OW31909   6.697   5.484   0.184
10337SOL    HW131910   6.614   5.473   0.128
10337SOL    HW231911   6.722   5.396   0.223
10338SOL     OW31912   1.874   6.520   2.011
10338SOL    HW131913   1.969   6.533   1.984
10338SOL    HW231914   1.814   6.560   1.941
10339SOL     OW31915   6.131   3.729   6.432
10339SOL    HW131916   6.104   3.782   6.351
10339SOL    HW231917   6.137   3.632   6.407
10340SOL     OW31918   1.787   2.720   6.383
10340SOL    HW131919   1.775   2.798   6.445
10340SOL    HW231920   1.704   2.708   6.329
10341SOL     OW31921   2.093   3.521   2.265
10341SOL    HW131922   1.996   3.518   2.242
10341SOL    HW231923   2.147   3.519   2.181
10342SOL     OW31924   1.750   0.750   3.547
10342SOL    HW131925   1.746   0.660   3.591
10342SOL    HW231926   1.668   0.802   3.569
10343SOL     OW31927   2.444   5.090   0.659
10343SOL    HW131928   2.505   5.068   0.583
10343SOL    HW231929   2.435   5.012   0.720
10344SOL     OW31930   3.549   3.770   6.606
10344SOL    HW131931   3.634   3.717   6.600
10344SOL    HW231932   3.472   3.710   6.585
10345SOL     OW31933   1.337   2.982   5.413
10345SOL    HW131934   1.322   2.990   5.314
10345SOL    HW231935   1.420   2.930   5.431
10346SOL     OW31936   0.333   5.550   1.420
10346SOL    HW131937   0.233   5.546   1.422
10346SOL    HW231938   0.371   5.479   1.479
10347SOL     OW31939   4.365   1.339   3.459
10347SOL    HW131940   4.447   1.314   3.512
10347SOL    HW231941   4.286   1.339   3.520
10348SOL     OW31942   6.279   3.019   0.448
10348SOL    HW131943   6.350   3.064   0.394
10348SOL    HW231944   6.313   3.004   0.541
10349SOL     OW31945   0.907   0.023   6.621
10349SOL    HW131946   0.971   0.046   6.694
10349SOL    HW231947   0.906   0.097   6.553
10350SOL     OW31948   2.702   6.025   5.181
10350SOL    HW131949   2.692   6.023   5.082
10350SOL    HW231950   2.795   6.055   5.204
10351SOL     OW31951   4.756   5.525   5.758
10351SOL    HW131952   4.777   5.495   5.665
10351SOL    HW231953   4.688   5.598   5.755
10352SOL     OW31954   3.461   1.076   6.109
10352SOL    HW131955   3.377   1.076   6.055
10352SOL    HW231956   3.471   0.988   6.156
10353SOL     OW31957   6.520   3.061   4.632
10353SOL    HW131958   6.570   3.137   4.674
10353SOL    HW231959   6.569   2.976   4.649
10354SOL     OW31960   5.279   0.865   1.512
10354SOL    HW131961   5.372   0.890   1.539
10354SOL    HW231962   5.256   0.912   1.427
10355SOL     OW31963   2.523   6.487   2.251
10355SOL    HW131964   2.424   6.482   2.253
10355SOL    HW231965   2.556   6.460   2.161
10356SOL     OW31966   6.606   3.843   5.777
10356SOL    HW131967   6.660   3.792   5.844
10356SOL    HW231968   6.660   3.854   5.693
10357SOL     OW31969   2.398   2.204   6.434
10357SOL    HW131970   2.380   2.302   6.426
10357SOL    HW231971   2.311   2.154   6.436
10358SOL     OW31972   0.159   2.657   2.748
10358SOL    HW131973   0.098   2.597   2.698
10358SOL    HW231974   0.162   2.747   2.703
10359SOL     OW31975   0.294   1.466   1.599
10359SOL    HW131976   0.386   1.428   1.592
10359SOL    HW231977   0.230   1.408   1.548
10360SOL     OW31978   5.087   5.934   2.983
10360SOL    HW131979   5.154   5.972   2.919
10360SOL    HW231980   5.016   5.884   2.932
10361SOL     OW31981   2.984   5.744   2.482
10361SOL    HW131982   2.913   5.691   2.436
10361SOL    HW231983   3.005   5.701   2.570
10362SOL     OW31984   2.159   4.772   4.875
10362SOL    HW131985   2.245   4.799   4.918
10362SOL    HW231986   2.163   4.674   4.853
10363SOL     OW31987   5.414   0.338   2.774
10363SOL    HW131988   5.406   0.305   2.680
10363SOL    HW231989   5.356   0.284   2.834
10364SOL     OW31990   2.375   3.894   1.267
10364SOL    HW131991   2.347   3.838   1.345
10364SOL    HW231992   2.306   3.964   1.249
10365SOL     OW31993   4.485   5.182   0.180
10365SOL    HW131994   4.392   5.192   0.144
10365SOL    HW231995   4.546   5.150   0.107
10366SOL     OW31996   2.522   6.649   3.939
10366SOL    HW131997   2.582   6.591   3.993
10366SOL    HW231998   2.550   6.745   3.949
10367SOL     OW31999   6.267   2.162   2.970
10367SOL    HW132000   6.177   2.135   2.936
10367SOL    HW232001   6.272   2.143   3.068
10368SOL     OW32002   2.236   1.077   2.445
10368SOL    HW132003   2.266   1.169   2.420
10368SOL    HW232004   2.138   1.078   2.467
10369SOL     OW32005   3.992   1.878   0.880
10369SOL    HW132006   4.021   1.944   0.949
10369SOL    HW232007   3.917   1.823   0.917
10370SOL     OW32008   4.089   0.944   5.159
10370SOL    HW132009   4.115   0.850   5.182
10370SOL    HW232010   3.990   0.949   5.145
10371SOL     OW32011   4.346   6.059   5.164
10371SOL    HW132012   4.311   6.150   5.144
10371SOL    HW232013   4.321   5.996   5.091
10372SOL     OW32014   2.569   0.859   4.299
10372SOL    HW132015   2.568   0.949   4.343
10372SOL    HW232016   2.565   0.788   4.370
10373SOL     OW32017   1.082   6.492   4.636
10373SOL    HW132018   1.115   6.430   4.708
10373SOL    HW232019   1.010   6.551   4.672
10374SOL     OW32020   3.371   1.851   3.181
10374SOL    HW132021   3.311   1.834   3.259
10374SOL    HW232022   3.340   1.932   3.132
10375SOL     OW32023   5.685   2.233   1.071
10375SOL    HW132024   5.607   2.251   1.012
10375SOL    HW232025   5.706   2.136   1.069
10376SOL     OW32026   0.161   1.434   3.632
10376SOL    HW132027   0.244   1.481   3.664
10376SOL    HW232028   0.130   1.370   3.701
10377SOL     OW32029   0.310   0.504   4.127
10377SOL    HW132030   0.358   0.433   4.178
10377SOL    HW232031   0.364   0.532   4.048
10378SOL     OW32032   6.668   0.389   6.399
10378SOL    HW132033   6.625   0.322   6.338
10378SOL    HW232034   6.657   0.359   6.493
10379SOL     OW32035   5.319   0.459   4.538
10379SOL    HW132036   5.407   0.500   4.563
10379SOL    HW232037   5.264   0.525   4.487
10380SOL     OW32038   5.668   0.081   2.517
10380SOL    HW132039   5.718   0.017   2.576
10380SOL    HW232040   5.573   0.051   2.509
10381SOL     OW32041   4.910   5.145   5.931
10381SOL    HW132042   4.864   5.230   5.958
10381SOL    HW232043   4.850   5.092   5.871
10382SOL     OW32044   2.247   5.593   6.457
10382SOL    HW132045   2.244   5.539   6.373
10382SOL    HW232046   2.154   5.604   6.492
10383SOL     OW32047   0.899   2.510   1.311
10383SOL    HW132048   0.824   2.463   1.358
10383SOL    HW232049   0.864   2.595   1.270
10384SOL     OW32050   6.671   6.597   0.400
10384SOL    HW132051   6.637   6.565   0.488
10384SOL    HW232052   6.770   6.603   0.402
10385SOL     OW32053   6.309   0.952   6.092
10385SOL    HW132054   6.323   0.912   6.183
10385SOL    HW232055   6.238   1.022   6.098
10386SOL     OW32056   6.090   2.880   5.075
10386SOL    HW132057   6.146   2.960   5.051
10386SOL    HW232058   6.126   2.799   5.027
10387SOL     OW32059   1.858   2.945   3.347
10387SOL    HW132060   1.804   2.923   3.428
10387SOL    HW232061   1.906   2.863   3.315
10388SOL     OW32062   1.565   4.974   3.254
10388SOL    HW132063   1.514   4.972   3.341
10388SOL    HW232064   1.610   5.063   3.245
10389SOL     OW32065   1.031   4.785   3.843
10389SOL    HW132066   1.017   4.701   3.894
10389SOL    HW232067   1.125   4.817   3.854
10390SOL     OW32068   1.049   3.277   3.267
10390SOL    HW132069   1.128   3.313   3.216
10390SOL    HW232070   1.042   3.325   3.355
10391SOL     OW32071   2.566   6.412   6.532
10391SOL    HW132072   2.529   6.504   6.517
10391SOL    HW232073   2.513   6.346   6.479
10392SOL     OW32074   6.526   5.130   0.585
10392SOL    HW132075   6.615   5.127   0.539
10392SOL    HW232076   6.538   5.108   0.681
10393SOL     OW32077   0.617   1.124   4.123
10393SOL    HW132078   0.621   1.040   4.069
10393SOL    HW232079   0.701   1.134   4.176
10394SOL     OW32080   2.351   6.371   0.176
10394SOL    HW132081   2.296   6.288   0.162
10394SOL    HW232082   2.291   6.450   0.182
10395SOL     OW32083   0.083   0.731   4.972
10395SOL    HW132084   0.030   0.673   5.033
10395SOL    HW232085   0.122   0.676   4.899
10396SOL     OW32086   0.900   0.010   4.849
10396SOL    HW132087   0.957   6.950   4.870
10396SOL    HW232088   0.938   0.092   4.892
10397SOL     OW32089   3.604   1.383   3.366
10397SOL    HW132090   3.592   1.297   3.415
10397SOL    HW232091   3.624   1.364   3.270
10398SOL     OW32092   6.029   2.499   1.866
10398SOL    HW132093   6.007   2.566   1.936
10398SOL    HW232094   5.958   2.498   1.797
10399SOL     OW32095   5.393   2.621   5.072
10399SOL    HW132096   5.322   2.690   5.082
10399SOL    HW232097   5.352   2.530   5.078
10400SOL     OW32098   2.598   5.440   2.476
10400SOL    HW132099   2.585   5.370   2.405
10400SOL    HW232100   2.527   5.510   2.467
10401SOL     OW32101   0.841   5.926   1.896
10401SOL    HW132102   0.793   5.868   1.961
10401SOL    HW232103   0.796   6.015   1.892
10402SOL     OW32104   0.847   3.192   4.846
10402SOL    HW132105   0.812   3.116   4.792
10402SOL    HW232106   0.795   3.275   4.826
10403SOL     OW32107   5.631   1.311   1.900
10403SOL    HW132108   5.603   1.390   1.846
10403SOL    HW232109   5.649   1.234   1.840
10404SOL     OW32110   0.463   6.505   3.985
10404SOL    HW132111   0.441   6.524   4.081
10404SOL    HW232112   0.445   6.408   3.966
10405SOL     OW32113   1.733   6.464   5.733
10405SOL    HW132114   1.702   6.482   5.640
10405SOL    HW232115   1.723   6.367   5.753
10406SOL     OW32116   2.284   4.198   5.989
10406SOL    HW132117   2.355   4.190   6.059
10406SOL    HW232118   2.317   4.159   5.903
10407SOL     OW32119   0.710   2.406   6.852
10407SOL    HW132120   0.725   2.323   6.907
10407SOL    HW232121   0.761   2.482   6.892
10408SOL     OW32122   4.811   5.324   3.122
10408SOL    HW132123   4.848   5.412   3.152
10408SOL    HW232124   4.874   5.251   3.149
10409SOL     OW32125   0.366   4.544   2.333
10409SOL    HW132126   0.314   4.477   2.385
10409SOL    HW232127   0.457   4.508   2.312
10410SOL     OW32128   4.665   0.471   1.006
10410SOL    HW132129   4.695   0.421   0.925
10410SOL    HW232130   4.628   0.559   0.978
10411SOL     OW32131   2.512   4.552   2.889
10411SOL    HW132132   2.476   4.636   2.931
10411SOL    HW232133   2.568   4.503   2.956
10412SOL     OW32134   0.933   2.144   0.434
10412SOL    HW132135   0.993   2.124   0.512
10412SOL    HW232136   0.925   2.063   0.377
10413SOL     OW32137   6.810   2.742   6.747
10413SOL    HW132138   6.898   2.726   6.792
10413SOL    HW232139   6.764   2.819   6.791
10414SOL     OW32140   5.855   6.484   5.899
10414SOL    HW132141   5.850   6.429   5.982
10414SOL    HW232142   5.926   6.554   5.909
10415SOL     OW32143   0.623   6.240   3.730
10415SOL    HW132144   0.691   6.167   3.726
10415SOL    HW232145   0.643   6.307   3.658
10416SOL     OW32146   5.930   1.317   5.152
10416SOL    HW132147   5.954   1.413   5.170
10416SOL    HW232148   5.960   1.292   5.060
10417SOL     OW32149   3.919   4.888   4.173
10417SOL    HW132150   3.936   4.985   4.188
10417SOL    HW232151   4.001   4.844   4.137
10418SOL     OW32152   6.212   3.746   0.115
10418SOL    HW132153   6.298   3.723   0.068
10418SOL    HW232154   6.138   3.753   0.049
10419SOL     OW32155   3.317   1.027   4.512
10419SOL    HW132156   3.310   1.120   4.548
10419SOL    HW232157   3.383   0.975   4.566
10420SOL     OW32158   6.943   3.835   3.355
10420SOL    HW132159   6.906   3.920   3.316
10420SOL    HW232160   6.981   3.854   3.445
10421SOL     OW32161   1.063   4.326   4.442
10421SOL    HW132162   1.004   4.372   4.374
10421SOL    HW232163   1.107   4.395   4.499
10422SOL     OW32164   6.435   3.541   4.839
10422SOL    HW132165   6.392   3.602   4.906
10422SOL    HW232166   6.531   3.529   4.862
10423SOL     OW32167   3.496   5.009   4.236
10423SOL    HW132168   3.467   5.105   4.242
10423SOL    HW232169   3.506   4.972   4.329
10424SOL     OW32170   3.331   1.159   0.455
10424SOL    HW132171   3.306   1.071   0.496
10424SOL    HW232172   3.248   1.213   0.439
10425SOL     OW32173   2.183   1.523   0.916
10425SOL    HW132174   2.176   1.536   1.015
10425SOL    HW232175   2.117   1.583   0.870
10426SOL     OW32176   6.144   2.100   5.960
10426SOL    HW132177   6.170   2.195   5.974
10426SOL    HW232178   6.094   2.091   5.874
10427SOL     OW32179   5.690   6.855   3.975
10427SOL    HW132180   5.690   6.768   4.025
10427SOL    HW232181   5.754   6.850   3.899
10428SOL     OW32182   2.384   0.690   3.894
10428SOL    HW132183   2.458   0.641   3.848
10428SOL    HW232184   2.297   0.669   3.850
10429SOL     OW32185   0.653   2.890   2.152
10429SOL    HW132186   0.686   2.811   2.101
10429SOL    HW232187   0.723   2.919   2.217
10430SOL     OW32188   3.070   0.165   3.392
10430SOL    HW132189   3.015   0.120   3.322
10430SOL    HW232190   3.048   0.127   3.482
10431SOL     OW32191   3.510   0.584   3.418
10431SOL    HW132192   3.544   0.613   3.329
10431SOL    HW232193   3.421   0.539   3.406
10432SOL     OW32194   0.825   5.446   5.748
10432SOL    HW132195   0.859   5.423   5.839
10432SOL    HW232196   0.899   5.485   5.693
10433SOL     OW32197   2.609   6.999   2.784
10433SOL    HW132198   2.623   6.936   2.708
10433SOL    HW232199   2.522   6.980   2.829
10434SOL     OW32200   4.544   6.993   5.678
10434SOL    HW132201   4.491   0.030   5.743
10434SOL    HW232202   4.561   6.903   5.719
10435SOL     OW32203   2.394   1.822   6.984
10435SOL    HW132204   2.414   1.795   0.060
10435SOL    HW232205   2.473   1.871   6.947
10436SOL     OW32206   6.279   3.682   5.060
10436SOL    HW132207   6.349   3.676   5.131
10436SOL    HW232208   6.199   3.628   5.087
10437SOL     OW32209   5.427   6.423   4.913
10437SOL    HW132210   5.349   6.381   4.868
10437SOL    HW232211   5.410   6.427   5.012
10438SOL     OW32212   6.651   6.501   6.621
10438SOL    HW132213   6.615   6.531   6.710
10438SOL    HW232214   6.593   6.538   6.548
10439SOL     OW32215   6.863   6.349   5.241
10439SOL    HW132216   6.920   6.418   5.285
10439SOL    HW232217   6.893   6.338   5.146
10440SOL     OW32218   6.826   2.587   0.096
10440SOL    HW132219   6.765   2.558   0.022
10440SOL    HW232220   6.787   2.562   0.184
10441SOL     OW32221   3.952   1.842   0.575
10441SOL    HW132222   3.982   1.752   0.543
10441SOL    HW232223   3.969   1.849   0.674
10442SOL     OW32224   2.315   1.627   5.918
10442SOL    HW132225   2.295   1.707   5.974
10442SOL    HW232226   2.389   1.575   5.959
10443SOL     OW32227   0.343   1.540   3.333
10443SOL    HW132228   0.436   1.522   3.364
10443SOL    HW232229   0.300   1.608   3.393
10444SOL     OW32230   3.940   5.817   4.250
10444SOL    HW132231   3.859   5.759   4.238
10444SOL    HW232232   3.978   5.839   4.160
10445SOL     OW32233   1.245   4.163   2.959
10445SOL    HW132234   1.262   4.065   2.970
10445SOL    HW232235   1.251   4.188   2.863
10446SOL     OW32236   1.908   4.161   5.537
10446SOL    HW132237   1.863   4.251   5.545
10446SOL    HW232238   1.845   4.097   5.494
10447SOL     OW32239   0.188   2.183   2.919
10447SOL    HW132240   0.242   2.099   2.925
10447SOL    HW232241   0.207   2.228   2.832
10448SOL     OW32242   2.600   6.075   2.836
10448SOL    HW132243   2.562   6.045   2.748
10448SOL    HW232244   2.663   6.151   2.821
10449SOL     OW32245   3.972   5.356   5.149
10449SOL    HW132246   3.950   5.451   5.128
10449SOL    HW232247   4.071   5.343   5.142
10450SOL     OW32248   0.136   0.865   6.055
10450SOL    HW132249   0.090   0.898   6.138
10450SOL    HW232250   0.198   0.790   6.079
10451SOL     OW32251   2.783   0.827   3.257
10451SOL    HW132252   2.846   0.768   3.307
10451SOL    HW232253   2.704   0.774   3.227
10452SOL     OW32254   0.052   3.648   4.405
10452SOL    HW132255   0.032   3.550   4.408
10452SOL    HW232256   7.000   3.698   4.453
10453SOL     OW32257   3.861   5.904   3.724
10453SOL    HW132258   3.957   5.895   3.700
10453SOL    HW232259   3.830   5.821   3.771
10454SOL     OW32260   6.632   0.818   6.091
10454SOL    HW132261   6.677   0.904   6.070
10454SOL    HW232262   6.593   0.779   6.007
10455SOL     OW32263   6.142   6.128   3.685
10455SOL    HW132264   6.185   6.218   3.688
10455SOL    HW232265   6.211   6.057   3.699
10456SOL     OW32266   0.987   5.100   0.095
10456SOL    HW132267   0.919   5.129   0.028
10456SOL    HW232268   1.049   5.033   0.053
10457SOL     OW32269   3.576   2.722   6.516
10457SOL    HW132270   3.517   2.700   6.439
10457SOL    HW232271   3.574   2.648   6.583
10458SOL     OW32272   6.669   5.856   6.496
10458SOL    HW132273   6.579   5.844   6.538
10458SOL    HW232274   6.682   5.952   6.472
10459SOL     OW32275   0.132   5.303   0.054
10459SOL    HW132276   0.194   5.307   6.995
10459SOL    HW232277   0.185   5.306   0.139
10460SOL     OW32278   0.688   2.250   0.567
10460SOL    HW132279   0.602   2.206   0.541
10460SOL    HW232280   0.763   2.213   0.511
10461SOL     OW32281   6.717   5.422   5.612
10461SOL    HW132282   6.778   5.449   5.686
10461SOL    HW232283   6.698   5.324   5.619
10462SOL     OW32284   4.328   2.074   0.923
10462SOL    HW132285   4.337   1.989   0.872
10462SOL    HW232286   4.319   2.151   0.860
10463SOL     OW32287   4.741   2.684   6.089
10463SOL    HW132288   4.753   2.586   6.077
10463SOL    HW232289   4.739   2.729   6.000
10464SOL     OW32290   6.483   4.945   2.233
10464SOL    HW132291   6.500   4.851   2.204
10464SOL    HW232292   6.418   4.988   2.171
10465SOL     OW32293   5.200   4.651   1.726
10465SOL    HW132294   5.277   4.714   1.738
10465SOL    HW232295   5.228   4.559   1.754
10466SOL     OW32296   5.999   5.059   0.008
10466SOL    HW132297   5.987   5.059   0.108
10466SOL    HW232298   5.921   5.015   6.984
10467SOL     OW32299   1.494   2.718   6.856
10467SOL    HW132300   1.514   2.806   6.812
10467SOL    HW232301   1.551   2.708   6.937
10468SOL     OW32302   2.910   4.803   3.549
10468SOL    HW132303   3.008   4.784   3.551
10468SOL    HW232304   2.892   4.880   3.487
10469SOL     OW32305   6.494   1.447   4.514
10469SOL    HW132306   6.557   1.507   4.464
10469SOL    HW232307   6.442   1.392   4.449
10470SOL     OW32308   2.253   2.882   3.728
10470SOL    HW132309   2.310   2.872   3.647
10470SOL    HW232310   2.300   2.844   3.807
10471SOL     OW32311   3.454   6.925   0.009
10471SOL    HW132312   3.400   6.848   6.992
10471SOL    HW232313   3.530   6.889   0.063
10472SOL     OW32314   3.402   4.953   6.504
10472SOL    HW132315   3.392   5.051   6.486
10472SOL    HW232316   3.485   4.937   6.557
10473SOL     OW32317   5.214   5.538   0.259
10473SOL    HW132318   5.221   5.521   0.161
10473SOL    HW232319   5.224   5.452   0.309
10474SOL     OW32320   4.975   0.950   3.901
10474SOL    HW132321   5.021   0.861   3.896
10474SOL    HW232322   5.033   1.014   3.950
10475SOL     OW32323   1.265   6.899   1.440
10475SOL    HW132324   1.188   6.963   1.437
10475SOL    HW232325   1.308   6.903   1.530
10476SOL     OW32326   3.547   5.707   6.531
10476SOL    HW132327   3.526   5.611   6.515
10476SOL    HW232328   3.613   5.738   6.463
10477SOL     OW32329   6.384   5.905   3.761
10477SOL    HW132330   6.361   5.865   3.672
10477SOL    HW232331   6.389   5.833   3.830
10478SOL     OW32332   5.713   0.721   0.220
10478SOL    HW132333   5.707   0.810   0.264
10478SOL    HW232334   5.744   0.653   0.286
10479SOL     OW32335   0.859   2.233   1.914
10479SOL    HW132336   0.948   2.197   1.885
10479SOL    HW232337   0.788   2.200   1.852
10480SOL     OW32338   2.231   0.113   2.497
10480SOL    HW132339   2.209   0.191   2.439
10480SOL    HW232340   2.238   0.143   2.592
10481SOL     OW32341   0.047   1.218   2.452
10481SOL    HW132342   6.995   1.289   2.452
10481SOL    HW232343   0.109   1.232   2.529
10482SOL     OW32344   4.981   4.249   4.323
10482SOL    HW132345   4.984   4.154   4.354
10482SOL    HW232346   5.073   4.280   4.300
10483SOL     OW32347   6.240   6.212   0.206
10483SOL    HW132348   6.198   6.152   0.274
10483SOL    HW232349   6.169   6.250   0.146
10484SOL     OW32350   6.210   0.876   2.190
10484SOL    HW132351   6.248   0.861   2.099
10484SOL    HW232352   6.110   0.875   2.184
10485SOL     OW32353   5.498   3.518   5.514
10485SOL    HW132354   5.539   3.472   5.435
10485SOL    HW232355   5.412   3.560   5.485
10486SOL     OW32356   5.437   2.819   1.780
10486SOL    HW132357   5.478   2.885   1.718
10486SOL    HW232358   5.343   2.847   1.802
10487SOL     OW32359   6.222   6.930   1.983
10487SOL    HW132360   6.305   6.885   2.014
10487SOL    HW232361   6.217   6.926   1.883
10488SOL     OW32362   2.500   2.428   6.208
10488SOL    HW132363   2.488   2.331   6.184
10488SOL    HW232364   2.598   2.450   6.205
10489SOL     OW32365   0.641   5.786   6.254
10489SOL    HW132366   0.700   5.847   6.202
10489SOL    HW232367   0.634   5.697   6.208
10490SOL     OW32368   6.878   1.165   3.474
10490SOL    HW132369   6.887   1.069   3.445
10490SOL    HW232370   6.938   1.222   3.418
10491SOL     OW32371   1.654   4.270   5.949
10491SOL    HW132372   1.554   4.271   5.951
10491SOL    HW232373   1.685   4.210   5.875
10492SOL     OW32374   5.107   3.388   5.179
10492SOL    HW132375   5.044   3.311   5.172
10492SOL    HW232376   5.062   3.471   5.144
10493SOL     OW32377   3.200   1.305   1.311
10493SOL    HW132378   3.219   1.335   1.405
10493SOL    HW232379   3.281   1.257   1.275
10494SOL     OW32380   6.005   2.317   4.344
10494SOL    HW132381   6.074   2.290   4.277
10494SOL    HW232382   6.022   2.269   4.430
10495SOL     OW32383   1.219   6.577   0.531
10495SOL    HW132384   1.146   6.513   0.508
10495SOL    HW232385   1.304   6.547   0.487
10496SOL     OW32386   0.229   0.101   6.093
10496SOL    HW132387   0.301   0.054   6.142
10496SOL    HW232388   0.233   0.199   6.112
10497SOL     OW32389   1.225   0.978   0.906
10497SOL    HW132390   1.132   1.011   0.925
10497SOL    HW232391   1.223   0.878   0.899
10498SOL     OW32392   2.531   6.316   6.094
10498SOL    HW132393   2.459   6.356   6.038
10498SOL    HW232394   2.579   6.245   6.043
10499SOL     OW32395   3.228   6.127   3.329
10499SOL    HW132396   3.157   6.092   3.390
10499SOL    HW232397   3.233   6.068   3.248
10500SOL     OW32398   1.420   1.831   6.152
10500SOL    HW132399   1.334   1.862   6.111
10500SOL    HW232400   1.402   1.750   6.208
10501SOL     OW32401   1.636   3.570   2.696
10501SOL    HW132402   1.619   3.668   2.682
10501SOL    HW232403   1.616   3.520   2.612
10502SOL     OW32404   3.282   6.343   6.434
10502SOL    HW132405   3.357   6.320   6.372
10502SOL    HW232406   3.283   6.278   6.511
10503SOL     OW32407   3.375   2.534   0.281
10503SOL    HW132408   3.447   2.596   0.310
10503SOL    HW232409   3.286   2.579   0.291
10504SOL     OW32410   2.845   3.498   0.872
10504SOL    HW132411   2.783   3.576   0.863
10504SOL    HW232412   2.844   3.465   0.967
10505SOL     OW32413   6.824   5.936   1.682
10505SOL    HW132414   6.780   6.020   1.714
10505SOL    HW232415   6.790   5.913   1.591
10506SOL     OW32416   0.617   3.781   5.782
10506SOL    HW132417   0.519   3.781   5.801
10506SOL    HW232418   0.664   3.720   5.847
10507SOL     OW32419   1.060   0.369   6.047
10507SOL    HW132420   1.055   0.342   6.143
10507SOL    HW232421   1.057   0.288   5.989
10508SOL     OW32422   5.643   4.407   3.024
10508SOL    HW132423   5.568   4.469   3.044
10508SOL    HW232424   5.730   4.447   3.054
10509SOL     OW32425   1.304   6.706   6.771
10509SOL    HW132426   1.317   6.800   6.801
10509SOL    HW232427   1.322   6.699   6.673
10510SOL     OW32428   6.277   5.533   0.015
10510SOL    HW132429   6.343   5.462   7.011
10510SOL    HW232430   6.198   5.526   6.972
10511SOL     OW32431   4.377   2.751   0.620
10511SOL    HW132432   4.296   2.711   0.579
10511SOL    HW232433   4.361   2.848   0.639
10512SOL     OW32434   4.126   0.022   5.790
10512SOL    HW132435   4.100   6.952   5.750
10512SOL    HW232436   4.138   0.012   5.888
10513SOL     OW32437   0.796   2.686   6.520
10513SOL    HW132438   0.815   2.743   6.600
10513SOL    HW232439   0.816   2.590   6.542
10514SOL     OW32440   0.440   4.608   0.377
10514SOL    HW132441   0.446   4.644   0.283
10514SOL    HW232442   0.354   4.558   0.388
10515SOL     OW32443   6.848   1.774   3.412
10515SOL    HW132444   6.774   1.774   3.478
10515SOL    HW232445   6.858   1.681   3.374
10516SOL     OW32446   4.149   1.007   5.899
10516SOL    HW132447   4.075   0.953   5.938
10516SOL    HW232448   4.236   0.958   5.910
10517SOL     OW32449   6.401   1.375   2.094
10517SOL    HW132450   6.302   1.386   2.108
10517SOL    HW232451   6.435   1.302   2.153
10518SOL     OW32452   0.710   6.661   0.985
10518SOL    HW132453   0.772   6.590   0.951
10518SOL    HW232454   0.763   6.736   1.024
10519SOL     OW32455   3.366   3.161   5.845
10519SOL    HW132456   3.412   3.246   5.817
10519SOL    HW232457   3.332   3.113   5.764
10520SOL     OW32458   3.564   2.491   0.089
10520SOL    HW132459   3.494   2.550   0.129
10520SOL    HW232460   3.620   2.544   0.025
10521SOL     OW32461   6.618   5.907   1.044
10521SOL    HW132462   6.717   5.920   1.037
10521SOL    HW232463   6.584   5.949   1.127
10522SOL     OW32464   6.578   0.495   0.788
10522SOL    HW132465   6.622   0.508   0.699
10522SOL    HW232466   6.543   0.583   0.820
10523SOL     OW32467   0.567   5.708   5.882
10523SOL    HW132468   0.588   5.653   5.962
10523SOL    HW232469   0.638   5.777   5.869
10524SOL     OW32470   2.329   0.226   4.648
10524SOL    HW132471   2.307   0.200   4.554
10524SOL    HW232472   2.255   0.280   4.686
10525SOL     OW32473   2.191   5.908   4.921
10525SOL    HW132474   2.218   5.853   5.001
10525SOL    HW232475   2.270   5.918   4.860
10526SOL     OW32476   6.902   1.024   2.351
10526SOL    HW132477   6.823   0.994   2.406
10526SOL    HW232478   6.964   1.077   2.409
10527SOL     OW32479   0.977   2.860   4.567
10527SOL    HW132480   0.897   2.902   4.612
10527SOL    HW232481   1.006   2.780   4.619
10528SOL     OW32482   0.038   4.965   5.244
10528SOL    HW132483   0.025   4.875   5.285
10528SOL    HW232484   0.132   4.996   5.260
10529SOL     OW32485   6.349   0.005   3.707
10529SOL    HW132486   6.267   0.062   3.704
10529SOL    HW232487   6.333   6.938   3.660
10530SOL     OW32488   2.831   2.055   6.313
10530SOL    HW132489   2.897   2.113   6.362
10530SOL    HW232490   2.848   2.062   6.215
10531SOL     OW32491   1.892   3.186   4.610
10531SOL    HW132492   1.886   3.286   4.618
10531SOL    HW232493   1.828   3.155   4.539
10532SOL     OW32494   4.145   2.487   5.917
10532SOL    HW132495   4.194   2.541   5.848
10532SOL    HW232496   4.140   2.392   5.886
10533SOL     OW32497   2.741   1.588   5.923
10533SOL    HW132498   2.763   1.493   5.903
10533SOL    HW232499   2.685   1.594   6.005
10534SOL     OW32500   0.468   5.604   0.289
10534SOL    HW132501   0.381   5.653   0.286
10534SOL    HW232502   0.480   5.552   0.205
10535SOL     OW32503   0.719   1.261   2.262
10535SOL    HW132504   0.774   1.335   2.301
10535SOL    HW232505   0.778   1.201   2.207
10536SOL     OW32506   4.581   0.347   2.636
10536SOL    HW132507   4.603   0.333   2.540
10536SOL    HW232508   4.650   0.302   2.693
10537SOL     OW32509   2.283   5.111   2.120
10537SOL    HW132510   2.333   5.139   2.039
10537SOL    HW232511   2.316   5.022   2.151
10538SOL     OW32512   4.102   4.097   0.398
10538SOL    HW132513   4.140   4.010   0.430
10538SOL    HW232514   4.122   4.169   0.464
10539SOL     OW32515   0.626   3.472   6.227
10539SOL    HW132516   0.570   3.398   6.265
10539SOL    HW232517   0.707   3.484   6.284
10540SOL     OW32518   1.924   0.339   6.521
10540SOL    HW132519   1.888   0.417   6.469
10540SOL    HW232520   1.876   0.256   6.493
10541SOL     OW32521   3.685   3.321   0.059
10541SOL    HW132522   3.594   3.310   0.020
10541SOL    HW232523   3.678   3.361   0.150
10542SOL     OW32524   0.299   2.448   0.280
10542SOL    HW132525   0.227   2.475   0.344
10542SOL    HW232526   0.282   2.355   0.248
10543SOL     OW32527   0.618   1.561   5.539
10543SOL    HW132528   0.646   1.641   5.591
10543SOL    HW232529   0.527   1.576   5.500
10544SOL     OW32530   2.144   1.993   2.318
10544SOL    HW132531   2.220   1.979   2.253
10544SOL    HW232532   2.180   2.031   2.403
10545SOL     OW32533   6.737   0.930   2.546
10545SOL    HW132534   6.806   0.906   2.615
10545SOL    HW232535   6.658   0.971   2.591
10546SOL     OW32536   2.291   0.164   4.382
10546SOL    HW132537   2.382   0.144   4.347
10546SOL    HW232538   2.227   0.169   4.305
10547SOL     OW32539   4.417   1.479   1.297
10547SOL    HW132540   4.422   1.514   1.203
10547SOL    HW232541   4.461   1.389   1.300
10548SOL     OW32542   5.110   3.937   4.670
10548SOL    HW132543   5.111   3.855   4.613
10548SOL    HW232544   5.019   3.978   4.668
10549SOL     OW32545   1.077   0.819   2.075
10549SOL    HW132546   1.155   0.779   2.027
10549SOL    HW232547   1.106   0.902   2.123
10550SOL     OW32548   5.709   0.187   3.939
10550SOL    HW132549   5.625   0.178   3.993
10550SOL    HW232550   5.760   0.101   3.942
10551SOL     OW32551   1.218   1.960   5.985
10551SOL    HW132552   1.139   1.984   6.042
10551SOL    HW232553   1.267   2.044   5.960
10552SOL     OW32554   3.379   2.549   5.493
10552SOL    HW132555   3.291   2.577   5.455
10552SOL    HW232556   3.391   2.451   5.482
10553SOL     OW32557   0.996   5.399   0.343
10553SOL    HW132558   0.929   5.338   0.385
10553SOL    HW232559   0.997   5.487   0.392
10554SOL     OW32560   6.840   4.876   6.890
10554SOL    HW132561   6.772   4.935   6.934
10554SOL    HW232562   6.794   4.797   6.850
10555SOL     OW32563   3.484   1.500   2.075
10555SOL    HW132564   3.531   1.529   1.992
10555SOL    HW232565   3.526   1.545   2.154
10556SOL     OW32566   1.992   3.219   5.307
10556SOL    HW132567   2.048   3.153   5.258
10556SOL    HW232568   1.916   3.248   5.250
10557SOL     OW32569   6.688   2.876   3.337
10557SOL    HW132570   6.625   2.874   3.259
10557SOL    HW232571   6.775   2.917   3.308
10558SOL     OW32572   4.585   6.127   5.281
10558SOL    HW132573   4.488   6.109   5.264
10558SOL    HW232574   4.598   6.147   5.378
10559SOL     OW32575   4.960   1.970   0.841
10559SOL    HW132576   4.909   2.012   0.766
10559SOL    HW232577   4.897   1.948   0.916
10560SOL     OW32578   1.117   3.924   4.759
10560SOL    HW132579   1.053   3.847   4.763
10560SOL    HW232580   1.097   3.980   4.679
10561SOL     OW32581   2.083   4.583   6.901
10561SOL    HW132582   2.042   4.526   6.830
10561SOL    HW232583   2.084   4.533   6.988
10562SOL     OW32584   4.186   0.961   0.763
10562SOL    HW132585   4.111   1.026   0.759
10562SOL    HW232586   4.150   0.868   0.773
10563SOL     OW32587   1.712   1.900   5.437
10563SOL    HW132588   1.776   1.931   5.507
10563SOL    HW232589   1.763   1.866   5.358
10564SOL     OW32590   5.566   1.431   1.638
10564SOL    HW132591   5.666   1.438   1.628
10564SOL    HW232592   5.522   1.462   1.554
10565SOL     OW32593   6.159   1.456   4.827
10565SOL    HW132594   6.237   1.440   4.887
10565SOL    HW232595   6.139   1.554   4.823
10566SOL     OW32596   3.650   4.082   6.200
10566SOL    HW132597   3.590   4.127   6.266
10566SOL    HW232598   3.598   4.057   6.119
10567SOL     OW32599   1.578   3.738   4.330
10567SOL    HW132600   1.645   3.679   4.284
10567SOL    HW232601   1.625   3.814   4.375
10568SOL     OW32602   5.052   1.164   2.462
10568SOL    HW132603   5.110   1.107   2.521
10568SOL    HW232604   4.988   1.215   2.518
10569SOL     OW32605   5.676   2.867   4.083
10569SOL    HW132606   5.602   2.842   4.021
10569SOL    HW232607   5.638   2.908   4.166
10570SOL     OW32608   1.787   4.640   2.496
10570SOL    HW132609   1.815   4.564   2.438
10570SOL    HW232610   1.826   4.725   2.461
10571SOL     OW32611   6.576   6.211   2.978
10571SOL    HW132612   6.576   6.112   2.988
10571SOL    HW232613   6.547   6.235   2.886
10572SOL     OW32614   5.631   3.369   2.412
10572SOL    HW132615   5.720   3.410   2.393
10572SOL    HW232616   5.561   3.440   2.413
10573SOL     OW32617   6.108   5.520   4.739
10573SOL    HW132618   6.208   5.512   4.746
10573SOL    HW232619   6.084   5.550   4.646
10574SOL     OW32620   0.289   1.919   3.702
10574SOL    HW132621   0.348   1.972   3.762
10574SOL    HW232622   0.194   1.941   3.721
10575SOL     OW32623   1.021   0.457   5.106
10575SOL    HW132624   0.927   0.461   5.141
10575SOL    HW232625   1.029   0.518   5.027
10576SOL     OW32626   1.897   5.712   4.505
10576SOL    HW132627   1.863   5.627   4.467
10576SOL    HW232628   1.972   5.746   4.448
10577SOL     OW32629   1.962   3.207   5.870
10577SOL    HW132630   1.901   3.213   5.949
10577SOL    HW232631   1.960   3.293   5.820
10578SOL     OW32632   5.635   0.016   5.340
10578SOL    HW132633   5.672   6.986   5.261
10578SOL    HW232634   5.563   0.078   5.309
10579SOL     OW32635   4.445   1.596   0.490
10579SOL    HW132636   4.514   1.621   0.558
10579SOL    HW232637   4.416   1.678   0.440
10580SOL     OW32638   6.880   6.598   6.949
10580SOL    HW132639   6.947   6.642   6.890
10580SOL    HW232640   6.891   6.498   6.946
10581SOL     OW32641   5.574   0.425   3.286
10581SOL    HW132642   5.618   0.468   3.364
10581SOL    HW232643   5.483   0.394   3.312
10582SOL     OW32644   3.799   4.994   7.016
10582SOL    HW132645   3.791   4.901   6.980
10582SOL    HW232646   3.763   5.058   6.948
10583SOL     OW32647   3.881   0.959   0.142
10583SOL    HW132648   3.909   0.931   0.051
10583SOL    HW232649   3.783   0.945   0.153
10584SOL     OW32650   5.607   6.803   1.008
10584SOL    HW132651   5.621   6.817   0.910
10584SOL    HW232652   5.514   6.771   1.024
10585SOL     OW32653   0.718   3.110   6.450
10585SOL    HW132654   0.690   3.080   6.541
10585SOL    HW232655   0.649   3.172   6.412
10586SOL     OW32656   2.572   5.619   5.838
10586SOL    HW132657   2.530   5.621   5.748
10586SOL    HW232658   2.670   5.600   5.830
10587SOL     OW32659   6.243   3.367   0.821
10587SOL    HW132660   6.169   3.313   0.780
10587SOL    HW232661   6.318   3.306   0.848
10588SOL     OW32662   1.040   5.153   3.216
10588SOL    HW132663   1.124   5.101   3.229
10588SOL    HW232664   1.059   5.235   3.161
10589SOL     OW32665   5.501   1.958   4.294
10589SOL    HW132666   5.466   1.974   4.201
10589SOL    HW232667   5.425   1.937   4.355
10590SOL     OW32668   1.095   0.358   3.613
10590SOL    HW132669   0.998   0.379   3.626
10590SOL    HW232670   1.138   0.430   3.558
10591SOL     OW32671   0.836   1.856   6.589
10591SOL    HW132672   0.846   1.827   6.493
10591SOL    HW232673   0.842   1.776   6.649
10592SOL     OW32674   6.027   1.456   0.221
10592SOL    HW132675   6.100   1.523   0.202
10592SOL    HW232676   5.991   1.472   0.313
10593SOL     OW32677   1.963   5.586   1.626
10593SOL    HW132678   1.936   5.559   1.718
10593SOL    HW232679   2.055   5.626   1.629
10594SOL     OW32680   6.137   1.791   4.011
10594SOL    HW132681   6.165   1.696   4.007
10594SOL    HW232682   6.047   1.798   4.056
10595SOL     OW32683   3.658   6.516   6.408
10595SOL    HW132684   3.744   6.466   6.411
10595SOL    HW232685   3.653   6.579   6.486
10596SOL     OW32686   3.987   7.013   2.351
10596SOL    HW132687   3.998   6.989   2.447
10596SOL    HW232688   3.893   6.994   2.322
10597SOL     OW32689   1.763   1.035   4.619
10597SOL    HW132690   1.805   1.040   4.710
10597SOL    HW232691   1.663   1.036   4.629
10598SOL     OW32692   2.210   2.316   6.858
10598SOL    HW132693   2.183   2.346   6.766
10598SOL    HW232694   2.145   2.351   6.925
10599SOL     OW32695   6.038   1.140   6.775
10599SOL    HW132696   5.967   1.072   6.793
10599SOL    HW232697   6.025   1.219   6.835
10600SOL     OW32698   2.057   3.108   5.615
10600SOL    HW132699   2.036   3.138   5.708
10600SOL    HW232700   1.986   3.142   5.553
10601SOL     OW32701   2.939   6.586   6.190
10601SOL    HW132702   3.020   6.554   6.142
10601SOL    HW232703   2.861   6.529   6.165
10602SOL     OW32704   4.591   1.688   1.408
10602SOL    HW132705   4.505   1.644   1.381
10602SOL    HW232706   4.638   1.630   1.475
10603SOL     OW32707   2.091   5.466   3.985
10603SOL    HW132708   2.122   5.539   3.923
10603SOL    HW232709   2.168   5.404   4.005
10604SOL     OW32710   6.435   3.950   3.912
10604SOL    HW132711   6.391   3.996   3.989
10604SOL    HW232712   6.528   3.986   3.900
10605SOL     OW32713   0.986   5.145   6.462
10605SOL    HW132714   1.067   5.197   6.490
10605SOL    HW232715   1.014   5.056   6.427
10606SOL     OW32716   0.520   0.370   1.797
10606SOL    HW132717   0.572   0.395   1.715
10606SOL    HW232718   0.514   0.270   1.803
10607SOL     OW32719   5.144   4.414   6.976
10607SOL    HW132720   5.240   4.388   6.965
10607SOL    HW232721   5.087   4.353   6.922
10608SOL     OW32722   5.685   1.558   4.119
10608SOL    HW132723   5.691   1.466   4.159
10608SOL    HW232724   5.694   1.551   4.019
10609SOL     OW32725   3.869   6.517   0.736
10609SOL    HW132726   3.959   6.477   0.754
10609SOL    HW232727   3.856   6.524   0.637
10610SOL     OW32728   1.476   2.946   5.729
10610SOL    HW132729   1.495   2.893   5.646
10610SOL    HW232730   1.423   3.028   5.705
10611SOL     OW32731   5.839   2.573   6.031
10611SOL    HW132732   5.837   2.474   6.043
10611SOL    HW232733   5.908   2.612   6.092
10612SOL     OW32734   2.366   0.508   6.675
10612SOL    HW132735   2.314   0.581   6.631
10612SOL    HW232736   2.437   0.475   6.613
10613SOL     OW32737   0.372   6.272   6.000
10613SOL    HW132738   0.331   6.361   5.979
10613SOL    HW232739   0.366   6.213   5.920
10614SOL     OW32740   6.402   1.236   4.038
10614SOL    HW132741   6.491   1.223   3.995
10614SOL    HW232742   6.346   1.297   3.982
10615SOL     OW32743   5.299   5.388   5.025
10615SOL    HW132744   5.386   5.338   5.022
10615SOL    HW232745   5.223   5.324   5.019
10616SOL     OW32746   3.306   6.204   6.721
10616SOL    HW132747   3.220   6.183   6.767
10616SOL    HW232748   3.336   6.124   6.668
10617SOL     OW32749   2.319   1.946   0.548
10617SOL    HW132750   2.266   1.930   0.631
10617SOL    HW232751   2.333   2.044   0.536
10618SOL     OW32752   5.986   3.388   0.230
10618SOL    HW132753   5.989   3.401   0.329
10618SOL    HW232754   6.064   3.332   0.201
10619SOL     OW32755   1.276   4.364   4.201
10619SOL    HW132756   1.195   4.382   4.257
10619SOL    HW232757   1.254   4.295   4.132
10620SOL     OW32758   1.456   6.152   4.818
10620SOL    HW132759   1.363   6.186   4.826
10620SOL    HW232760   1.520   6.221   4.854
10621SOL     OW32761   1.725   6.261   0.222
10621SOL    HW132762   1.695   6.176   0.265
10621SOL    HW232763   1.711   6.255   0.123
10622SOL     OW32764   3.737   0.315   1.435
10622SOL    HW132765   3.782   0.248   1.494
10622SOL    HW232766   3.790   0.399   1.432
10623SOL     OW32767   5.827   2.251   3.760
10623SOL    HW132768   5.791   2.334   3.803
10623SOL    HW232769   5.779   2.235   3.674
10624SOL     OW32770   1.613   0.650   4.649
10624SOL    HW132771   1.609   0.634   4.551
10624SOL    HW232772   1.661   0.736   4.667
10625SOL     OW32773   0.796   3.036   0.067
10625SOL    HW132774   0.837   3.096   0.135
10625SOL    HW232775   0.696   3.042   0.072
10626SOL     OW32776   0.820   1.931   2.035
10626SOL    HW132777   0.799   1.858   2.099
10626SOL    HW232778   0.780   2.017   2.068
10627SOL     OW32779   6.583   6.666   3.101
10627SOL    HW132780   6.554   6.615   3.182
10627SOL    HW232781   6.542   6.757   3.104
10628SOL     OW32782   6.170   5.887   5.518
10628SOL    HW132783   6.224   5.942   5.581
10628SOL    HW232784   6.229   5.820   5.472
10629SOL     OW32785   2.404   5.144   5.598
10629SOL    HW132786   2.414   5.045   5.612
10629SOL    HW232787   2.307   5.165   5.581
10630SOL     OW32788   6.089   1.591   3.096
10630SOL    HW132789   5.996   1.625   3.106
10630SOL    HW232790   6.121   1.608   3.003
10631SOL     OW32791   0.605   6.826   4.003
10631SOL    HW132792   0.626   6.732   3.977
10631SOL    HW232793   0.618   6.837   4.102
10632SOL     OW32794   6.573   1.771   4.787
10632SOL    HW132795   6.505   1.769   4.714
10632SOL    HW232796   6.657   1.727   4.755
10633SOL     OW32797   2.747   5.718   1.627
10633SOL    HW132798   2.685   5.778   1.676
10633SOL    HW232799   2.832   5.708   1.678
10634SOL     OW32800   3.549   6.137   0.801
10634SOL    HW132801   3.576   6.193   0.722
10634SOL    HW232802   3.551   6.193   0.884
10635SOL     OW32803   2.464   0.675   1.234
10635SOL    HW132804   2.381   0.648   1.283
10635SOL    HW232805   2.439   0.729   1.153
10636SOL     OW32806   0.862   1.805   1.422
10636SOL    HW132807   0.956   1.813   1.452
10636SOL    HW232808   0.831   1.893   1.385
10637SOL     OW32809   3.131   4.076   4.591
10637SOL    HW132810   3.044   4.047   4.629
10637SOL    HW232811   3.120   4.094   4.493
10638SOL     OW32812   0.124   6.435   4.938
10638SOL    HW132813   0.145   6.462   4.844
10638SOL    HW232814   0.048   6.370   4.937
10639SOL     OW32815   1.850   0.977   5.159
10639SOL    HW132816   1.861   1.074   5.134
10639SOL    HW232817   1.938   0.939   5.186
10640SOL     OW32818   5.011   1.690   0.209
10640SOL    HW132819   5.055   1.702   0.298
10640SOL    HW232820   5.063   1.623   0.156
10641SOL     OW32821   5.628   1.669   6.956
10641SOL    HW132822   5.717   1.623   6.952
10641SOL    HW232823   5.638   1.764   6.927
10642SOL     OW32824   0.444   2.678   1.683
10642SOL    HW132825   0.509   2.754   1.674
10642SOL    HW232826   0.352   2.714   1.694
10643SOL     OW32827   2.909   3.374   5.222
10643SOL    HW132828   2.936   3.325   5.139
10643SOL    HW232829   2.959   3.461   5.227
10644SOL     OW32830   4.534   1.434   3.679
10644SOL    HW132831   4.540   1.437   3.779
10644SOL    HW232832   4.515   1.526   3.644
10645SOL     OW32833   2.381   6.834   4.907
10645SOL    HW132834   2.377   6.925   4.865
10645SOL    HW232835   2.292   6.788   4.896
10646SOL     OW32836   1.445   3.552   6.248
10646SOL    HW132837   1.464   3.454   6.254
10646SOL    HW232838   1.461   3.595   6.337
10647SOL     OW32839   6.757   5.162   0.466
10647SOL    HW132840   6.777   5.243   0.410
10647SOL    HW232841   6.822   5.090   0.445
10648SOL     OW32842   4.786   2.618   6.686
10648SOL    HW132843   4.855   2.675   6.641
10648SOL    HW232844   4.714   2.595   6.620
10649SOL     OW32845   6.942   5.103   5.830
10649SOL    HW132846   0.016   5.066   5.837
10649SOL    HW232847   6.883   5.058   5.897
10650SOL     OW32848   2.766   6.172   3.887
10650SOL    HW132849   2.773   6.125   3.975
10650SOL    HW232850   2.754   6.105   3.815
10651SOL     OW32851   4.763   6.466   6.125
10651SOL    HW132852   4.752   6.529   6.202
10651SOL    HW232853   4.838   6.403   6.144
10652SOL     OW32854   3.769   0.671   6.167
10652SOL    HW132855   3.780   0.628   6.077
10652SOL    HW232856   3.674   0.666   6.195
10653SOL     OW32857   5.293   4.019   4.307
10653SOL    HW132858   5.272   4.073   4.388
10653SOL    HW232859   5.228   3.943   4.299
10654SOL     OW32860   4.305   1.198   0.920
10654SOL    HW132861   4.220   1.153   0.948
10654SOL    HW232862   4.296   1.296   0.932
10655SOL     OW32863   3.024   5.865   1.250
10655SOL    HW132864   3.026   5.952   1.201
10655SOL    HW232865   3.046   5.791   1.187
10656SOL     OW32866   6.303   2.439   0.054
10656SOL    HW132867   6.336   2.395   0.137
10656SOL    HW232868   6.290   2.537   0.069
10657SOL     OW32869   5.973   0.878   1.423
10657SOL    HW132870   5.930   0.791   1.444
10657SOL    HW232871   6.060   0.886   1.471
10658SOL     OW32872   0.285   5.319   4.472
10658SOL    HW132873   0.290   5.228   4.429
10658SOL    HW232874   0.242   5.311   4.562
10659SOL     OW32875   6.083   0.210   0.584
10659SOL    HW132876   6.043   0.173   0.668
10659SOL    HW232877   6.043   0.164   0.505
10660SOL     OW32878   4.539   5.131   5.583
10660SOL    HW132879   4.496   5.142   5.494
10660SOL    HW232880   4.508   5.204   5.644
10661SOL     OW32881   0.573   6.661   2.712
10661SOL    HW132882   0.589   6.604   2.631
10661SOL    HW232883   0.535   6.605   2.785
10662SOL     OW32884   6.108   1.522   0.932
10662SOL    HW132885   6.013   1.492   0.923
10662SOL    HW232886   6.164   1.479   0.861
10663SOL     OW32887   6.901   0.314   0.021
10663SOL    HW132888   6.894   0.238   0.086
10663SOL    HW232889   6.913   0.399   0.071
10664SOL     OW32890   1.945   5.594   0.071
10664SOL    HW132891   1.958   5.525   0.142
10664SOL    HW232892   2.025   5.655   0.069
10665SOL     OW32893   6.244   1.471   0.686
10665SOL    HW132894   6.283   1.388   0.647
10665SOL    HW232895   6.317   1.532   0.715
10666SOL     OW32896   1.913   6.574   0.153
10666SOL    HW132897   1.897   6.670   0.132
10666SOL    HW232898   1.918   6.521   0.067
10667SOL     OW32899   3.082   2.191   5.727
10667SOL    HW132900   3.091   2.291   5.727
10667SOL    HW232901   2.989   2.166   5.754
10668SOL     OW32902   1.713   1.412   6.351
10668SOL    HW132903   1.741   1.472   6.276
10668SOL    HW232904   1.629   1.447   6.392
10669SOL     OW32905   1.377   0.001   0.080
10669SOL    HW132906   1.344   0.031   0.170
10669SOL    HW232907   1.298   7.006   0.020
10670SOL     OW32908   6.078   4.502   5.905
10670SOL    HW132909   6.124   4.566   5.844
10670SOL    HW232910   6.136   4.421   5.918
10671SOL     OW32911   2.234   1.158   3.490
10671SOL    HW132912   2.280   1.226   3.433
10671SOL    HW232913   2.222   1.195   3.583
10672SOL     OW32914   0.230   2.930   1.399
10672SOL    HW132915   0.204   3.006   1.340
10672SOL    HW232916   0.152   2.867   1.407
10673SOL     OW32917   2.713   2.890   5.322
10673SOL    HW132918   2.646   2.957   5.291
10673SOL    HW232919   2.673   2.835   5.395
10674SOL     OW32920   3.773   3.182   1.466
10674SOL    HW132921   3.747   3.259   1.525
10674SOL    HW232922   3.764   3.097   1.517
10675SOL     OW32923   0.217   0.343   5.733
10675SOL    HW132924   0.199   0.316   5.639
10675SOL    HW232925   0.245   0.439   5.736
10676SOL     OW32926   6.343   0.020   6.367
10676SOL    HW132927   6.344   7.000   6.459
10676SOL    HW232928   6.338   0.120   6.373
10677SOL     OW32929   0.384   0.229   0.895
10677SOL    HW132930   0.349   0.319   0.919
10677SOL    HW232931   0.482   0.224   0.915
10678SOL     OW32932   2.383   6.261   2.531
10678SOL    HW132933   2.296   6.212   2.527
10678SOL    HW232934   2.458   6.195   2.531
10679SOL     OW32935   5.430   4.873   4.603
10679SOL    HW132936   5.360   4.892   4.672
10679SOL    HW232937   5.487   4.955   4.590
10680SOL     OW32938   1.316   2.704   2.819
10680SOL    HW132939   1.342   2.777   2.755
10680SOL    HW232940   1.396   2.675   2.871
10681SOL     OW32941   0.047   1.747   6.057
10681SOL    HW132942   0.071   1.783   6.147
10681SOL    HW232943   0.113   1.677   6.030
10682SOL     OW32944   6.994   2.048   3.114
10682SOL    HW132945   0.053   2.051   3.051
10682SOL    HW232946   6.913   2.015   3.065
10683SOL     OW32947   2.012   1.250   4.655
10683SOL    HW132948   1.973   1.191   4.726
10683SOL    HW232949   2.028   1.196   4.573
10684SOL     OW32950   5.870   4.713   0.087
10684SOL    HW132951   5.937   4.640   0.074
10684SOL    HW232952   5.902   4.775   0.159
10685SOL     OW32953   0.166   2.955   3.052
10685SOL    HW132954   0.214   2.986   2.970
10685SOL    HW232955   0.150   2.856   3.046
10686SOL     OW32956   3.235   5.197   0.398
10686SOL    HW132957   3.203   5.292   0.404
10686SOL    HW232958   3.325   5.190   0.440
10687SOL     OW32959   0.382   4.954   3.023
10687SOL    HW132960   0.402   4.861   3.056
10687SOL    HW232961   0.386   4.955   2.924
10688SOL     OW32962   6.589   5.215   2.272
10688SOL    HW132963   6.573   5.122   2.307
10688SOL    HW232964   6.509   5.244   2.219
10689SOL     OW32965   0.832   1.225   2.917
10689SOL    HW132966   0.853   1.269   2.830
10689SOL    HW232967   0.895   1.148   2.931
10690SOL     OW32968   4.289   4.812   1.974
10690SOL    HW132969   4.199   4.857   1.978
10690SOL    HW232970   4.335   4.835   1.889
10691SOL     OW32971   6.874   1.410   1.670
10691SOL    HW132972   6.893   1.383   1.575
10691SOL    HW232973   6.878   1.330   1.729
10692SOL     OW32974   3.456   6.105   3.744
10692SOL    HW132975   3.401   6.023   3.752
10692SOL    HW232976   3.542   6.084   3.698
10693SOL     OW32977   6.790   1.756   1.975
10693SOL    HW132978   6.820   1.728   1.883
10693SOL    HW232979   6.852   1.717   2.043
10694SOL     OW32980   3.634   6.300   0.586
10694SOL    HW132981   3.557   6.280   0.525
10694SOL    HW232982   3.635   6.397   0.609
10695SOL     OW32983   0.060   2.991   4.092
10695SOL    HW132984   0.048   3.038   4.004
10695SOL    HW232985   7.001   2.929   4.107
10696SOL     OW32986   6.845   6.490   1.779
10696SOL    HW132987   6.825   6.417   1.713
10696SOL    HW232988   6.791   6.476   1.862
10697SOL     OW32989   2.474   5.618   3.232
10697SOL    HW132990   2.397   5.560   3.206
10697SOL    HW232991   2.460   5.652   3.325
10698SOL     OW32992   2.621   6.669   3.247
10698SOL    HW132993   2.580   6.602   3.308
10698SOL    HW232994   2.677   6.732   3.300
10699SOL     OW32995   2.370   2.348   2.603
10699SOL    HW132996   2.451   2.329   2.659
10699SOL    HW232997   2.396   2.352   2.507
10700SOL     OW32998   0.002   6.897   1.274
10700SOL    HW132999   0.031   6.984   1.314
10700SOL    HW233000   6.952   6.913   1.204
10701SOL     OW33001   2.998   6.015   0.919
10701SOL    HW133002   2.997   6.066   1.005
10701SOL    HW233003   2.956   6.070   0.848
10702SOL     OW33004   6.627   3.171   1.643
10702SOL    HW133005   6.680   3.087   1.632
10702SOL    HW233006   6.537   3.160   1.600
10703SOL     OW33007   4.077   3.696   3.619
10703SOL    HW133008   4.060   3.639   3.539
10703SOL    HW233009   4.117   3.641   3.692
10704SOL     OW33010   5.354   6.670   1.966
10704SOL    HW133011   5.381   6.611   2.042
10704SOL    HW233012   5.310   6.615   1.896
10705SOL     OW33013   0.220   2.596   6.412
10705SOL    HW133014   0.307   2.583   6.460
10705SOL    HW233015   0.164   2.661   6.463
10706SOL     OW33016   3.096   1.140   2.136
10706SOL    HW133017   3.148   1.058   2.160
10706SOL    HW233018   3.084   1.196   2.218
10707SOL     OW33019   5.939   0.375   6.223
10707SOL    HW133020   5.918   0.298   6.162
10707SOL    HW233021   5.882   0.369   6.305
10708SOL     OW33022   5.212   0.977   1.267
10708SOL    HW133023   5.292   0.984   1.208
10708SOL    HW233024   5.144   1.045   1.240
10709SOL     OW33025   6.879   5.965   6.175
10709SOL    HW133026   6.784   5.975   6.147
10709SOL    HW233027   6.918   5.883   6.132
10710SOL     OW33028   6.103   5.228   3.595
10710SOL    HW133029   6.114   5.133   3.565
10710SOL    HW233030   6.190   5.276   3.583
10711SOL     OW33031   1.396   6.379   3.848
10711SOL    HW133032   1.355   6.289   3.865
10711SOL    HW233033   1.485   6.366   3.804
10712SOL     OW33034   3.598   1.274   4.752
10712SOL    HW133035   3.625   1.370   4.761
10712SOL    HW233036   3.612   1.244   4.658
10713SOL     OW33037   0.828   6.281   1.184
10713SOL    HW133038   0.733   6.252   1.169
10713SOL    HW233039   0.879   6.274   1.099
10714SOL     OW33040   7.003   4.556   5.857
10714SOL    HW133041   0.063   4.546   5.797
10714SOL    HW233042   0.009   4.610   5.937
10715SOL     OW33043   5.667   1.311   4.190
10715SOL    HW133044   5.580   1.292   4.235
10715SOL    HW233045   5.728   1.233   4.201
10716SOL     OW33046   5.704   0.228   3.443
10716SOL    HW133047   5.686   0.234   3.542
10716SOL    HW233048   5.648   0.296   3.395
10717SOL     OW33049   0.134   6.658   1.315
10717SOL    HW133050   0.092   6.741   1.279
10717SOL    HW233051   0.233   6.671   1.324
10718SOL     OW33052   6.996   4.627   6.714
10718SOL    HW133053   0.034   4.706   6.697
10718SOL    HW233054   6.989   4.612   6.813
10719SOL     OW33055   5.183   0.551   2.378
10719SOL    HW133056   5.272   0.508   2.366
10719SOL    HW233057   5.121   0.520   2.306
10720SOL     OW33058   0.292   3.565   6.821
10720SOL    HW133059   0.377   3.518   6.799
10720SOL    HW233060   0.221   3.537   6.757
10721SOL     OW33061   4.571   2.615   4.153
10721SOL    HW133062   4.633   2.537   4.150
10721SOL    HW233063   4.550   2.645   4.060
10722SOL     OW33064   0.281   4.185   6.999
10722SOL    HW133065   0.289   4.113   0.048
10722SOL    HW233066   0.257   4.271   0.025
10723SOL     OW33067   6.337   4.101   0.328
10723SOL    HW133068   6.409   4.099   0.259
10723SOL    HW233069   6.308   4.195   0.344
10724SOL     OW33070   3.184   6.473   5.776
10724SOL    HW133071   3.211   6.558   5.730
10724SOL    HW233072   3.266   6.423   5.804
10725SOL     OW33073   6.806   6.182   4.736
10725SOL    HW133074   6.738   6.255   4.726
10725SOL    HW233075   6.763   6.093   4.717
10726SOL     OW33076   5.541   0.474   4.125
10726SOL    HW133077   5.539   0.559   4.072
10726SOL    HW233078   5.604   0.484   4.202
10727SOL     OW33079   2.107   5.723   6.755
10727SOL    HW133080   2.064   5.788   6.817
10727SOL    HW233081   2.203   5.710   6.780
10728SOL     OW33082   5.176   5.865   3.240
10728SOL    HW133083   5.120   5.904   3.166
10728SOL    HW233084   5.226   5.786   3.206
10729SOL     OW33085   6.216   3.302   3.843
10729SOL    HW133086   6.261   3.215   3.857
10729SOL    HW233087   6.206   3.350   3.931
10730SOL     OW33088   1.643   5.961   2.925
10730SOL    HW133089   1.675   6.004   2.841
10730SOL    HW233090   1.560   5.908   2.906
10731SOL     OW33091   4.637   6.501   6.733
10731SOL    HW133092   4.561   6.445   6.703
10731SOL    HW233093   4.708   6.443   6.774
10732SOL     OW33094   6.118   6.168   3.393
10732SOL    HW133095   6.029   6.162   3.348
10732SOL    HW233096   6.109   6.143   3.489
10733SOL     OW33097   0.466   0.922   5.971
10733SOL    HW133098   0.436   1.011   6.006
10733SOL    HW233099   0.414   0.849   6.015
10734SOL     OW33100   1.452   1.499   5.079
10734SOL    HW133101   1.431   1.424   5.016
10734SOL    HW233102   1.377   1.565   5.078
10735SOL     OW33103   0.570   5.522   2.149
10735SOL    HW133104   0.470   5.523   2.149
10735SOL    HW233105   0.603   5.527   2.055
10736SOL     OW33106   5.726   6.367   3.812
10736SOL    HW133107   5.628   6.354   3.830
10736SOL    HW233108   5.755   6.303   3.741
10737SOL     OW33109   6.117   1.331   2.194
10737SOL    HW133110   6.074   1.400   2.135
10737SOL    HW233111   6.121   1.244   2.146
10738SOL     OW33112   3.406   1.299   1.809
10738SOL    HW133113   3.497   1.316   1.848
10738SOL    HW233114   3.337   1.313   1.879
10739SOL     OW33115   5.759   2.492   3.843
10739SOL    HW133116   5.802   2.496   3.934
10739SOL    HW233117   5.761   2.583   3.802
10740SOL     OW33118   1.859   0.313   5.935
10740SOL    HW133119   1.828   0.266   6.017
10740SOL    HW233120   1.953   0.346   5.948
10741SOL     OW33121   2.433   2.267   3.334
10741SOL    HW133122   2.498   2.193   3.319
10741SOL    HW233123   2.368   2.242   3.405
10742SOL     OW33124   6.517   6.275   2.715
10742SOL    HW133125   6.427   6.247   2.681
10742SOL    HW233126   6.540   6.365   2.679
10743SOL     OW33127   2.984   1.083   5.639
10743SOL    HW133128   2.953   1.177   5.651
10743SOL    HW233129   2.928   1.037   5.571
10744SOL     OW33130   2.260   0.972   0.595
10744SOL    HW133131   2.319   0.894   0.617
10744SOL    HW233132   2.238   1.022   0.679
10745SOL     OW33133   1.236   4.705   2.260
10745SOL    HW133134   1.255   4.618   2.304
10745SOL    HW233135   1.320   4.759   2.253
10746SOL     OW33136   2.115   6.309   6.633
10746SOL    HW133137   2.214   6.315   6.631
10746SOL    HW233138   2.087   6.214   6.625
10747SOL     OW33139   6.173   1.277   4.627
10747SOL    HW133140   6.107   1.304   4.557
10747SOL    HW233141   6.190   1.353   4.690
10748SOL     OW33142   3.662   5.898   0.990
10748SOL    HW133143   3.609   5.908   0.906
10748SOL    HW233144   3.713   5.983   1.007
10749SOL     OW33145   5.655   5.144   1.887
10749SOL    HW133146   5.587   5.217   1.899
10749SOL    HW233147   5.726   5.154   1.956
10750SOL     OW33148   4.929   2.504   3.901
10750SOL    HW133149   4.859   2.566   3.938
10750SOL    HW233150   4.889   2.413   3.887
10751SOL     OW33151   0.181   4.480   5.227
10751SOL    HW133152   0.211   4.559   5.173
10751SOL    HW233153   0.092   4.449   5.195
10752SOL     OW33154   6.579   6.409   0.584
10752SOL    HW133155   6.516   6.381   0.511
10752SOL    HW233156   6.539   6.485   0.635
10753SOL     OW33157   4.989   6.726   4.102
10753SOL    HW133158   4.939   6.683   4.177
10753SOL    HW233159   5.081   6.751   4.132
10754SOL     OW33160   0.950   3.838   2.044
10754SOL    HW133161   0.959   3.822   1.946
10754SOL    HW233162   0.892   3.918   2.060
10755SOL     OW33163   6.529   2.806   1.133
10755SOL    HW133164   6.551   2.731   1.196
10755SOL    HW233165   6.442   2.787   1.088
10756SOL     OW33166   0.564   1.466   0.342
10756SOL    HW133167   0.662   1.471   0.320
10756SOL    HW233168   0.511   1.496   0.263
10757SOL     OW33169   0.102   4.273   1.986
10757SOL    HW133170   0.159   4.305   1.910
10757SOL    HW233171   0.119   4.175   2.001
10758SOL     OW33172   0.565   0.681   6.695
10758SOL    HW133173   0.647   0.679   6.638
10758SOL    HW233174   0.491   0.633   6.649
10759SOL     OW33175   2.837   2.006   6.033
10759SOL    HW133176   2.862   1.931   5.971
10759SOL    HW233177   2.824   2.090   5.981
10760SOL     OW33178   1.223   5.083   0.269
10760SOL    HW133179   1.205   5.093   0.367
10760SOL    HW233180   1.137   5.071   0.220
10761SOL     OW33181   0.477   0.881   5.683
10761SOL    HW133182   0.448   0.915   5.773
10761SOL    HW233183   0.542   0.945   5.642
10762SOL     OW33184   3.004   6.338   6.367
10762SOL    HW133185   2.973   6.420   6.320
10762SOL    HW233186   3.104   6.332   6.362
10763SOL     OW33187   4.981   0.216   3.604
10763SOL    HW133188   5.048   0.260   3.663
10763SOL    HW233189   5.016   0.127   3.576
10764SOL     OW33190   4.452   0.370   4.150
10764SOL    HW133191   4.506   0.403   4.227
10764SOL    HW233192   4.419   0.278   4.170
10765SOL     OW33193   0.084   2.180   2.203
10765SOL    HW133194   0.162   2.120   2.185
10765SOL    HW233195   0.011   2.127   2.246
10766SOL     OW33196   1.454   5.598   6.488
10766SOL    HW133197   1.467   5.504   6.456
10766SOL    HW233198   1.510   5.613   6.570
10767SOL     OW33199   1.519   5.190   0.556
10767SOL    HW133200   1.558   5.257   0.619
10767SOL    HW233201   1.457   5.130   0.606
10768SOL     OW33202   5.371   6.041   0.539
10768SOL    HW133203   5.365   5.950   0.579
10768SOL    HW233204   5.448   6.044   0.475
10769SOL     OW33205   3.895   2.972   4.674
10769SOL    HW133206   3.928   3.061   4.643
10769SOL    HW233207   3.801   2.959   4.642
10770SOL     OW33208   5.355   0.123   3.436
10770SOL    HW133209   5.420   0.082   3.501
10770SOL    HW233210   5.276   0.063   3.426
10771SOL     OW33211   4.576   6.229   5.545
10771SOL    HW133212   4.563   6.328   5.553
10771SOL    HW233213   4.507   6.182   5.600
10772SOL     OW33214   5.657   5.617   2.442
10772SOL    HW133215   5.557   5.611   2.444
10772SOL    HW233216   5.687   5.699   2.490
10773SOL     OW33217   0.169   3.413   1.730
10773SOL    HW133218   0.114   3.357   1.668
10773SOL    HW233219   0.226   3.475   1.677
10774SOL     OW33220   0.892   2.750   0.394
10774SOL    HW133221   0.839   2.668   0.416
10774SOL    HW233222   0.909   2.753   0.296
10775SOL     OW33223   1.373   4.170   0.182
10775SOL    HW133224   1.327   4.177   0.271
10775SOL    HW233225   1.472   4.175   0.194
10776SOL     OW33226   0.816   2.800   3.749
10776SOL    HW133227   0.810   2.791   3.650
10776SOL    HW233228   0.912   2.792   3.777
10777SOL     OW33229   3.211   1.495   2.142
10777SOL    HW133230   3.302   1.501   2.102
10777SOL    HW233231   3.149   1.557   2.094
10778SOL     OW33232   6.552   0.389   3.197
10778SOL    HW133233   6.614   0.399   3.119
10778SOL    HW233234   6.480   0.459   3.192
10779SOL     OW33235   5.303   3.915   4.870
10779SOL    HW133236   5.249   3.920   4.786
10779SOL    HW233237   5.262   3.850   4.934
10780SOL     OW33238   1.650   5.535   5.159
10780SOL    HW133239   1.613   5.602   5.094
10780SOL    HW233240   1.634   5.568   5.252
10781SOL     OW33241   6.148   2.316   5.354
10781SOL    HW133242   6.086   2.245   5.321
10781SOL    HW233243   6.229   2.321   5.294
10782SOL     OW33244   1.369   2.248   5.141
10782SOL    HW133245   1.310   2.302   5.080
10782SOL    HW233246   1.330   2.157   5.153
10783SOL     OW33247   0.978   2.592   3.482
10783SOL    HW133248   0.996   2.661   3.411
10783SOL    HW233249   0.985   2.635   3.572
10784SOL     OW33250   3.489   5.752   2.560
10784SOL    HW133251   3.481   5.841   2.516
10784SOL    HW233252   3.576   5.745   2.608
10785SOL     OW33253   1.862   5.711   2.331
10785SOL    HW133254   1.875   5.618   2.365
10785SOL    HW233255   1.765   5.728   2.315
10786SOL     OW33256   3.960   1.187   2.000
10786SOL    HW133257   4.040   1.160   2.052
10786SOL    HW233258   3.979   1.273   1.952
10787SOL     OW33259   4.148   0.651   3.069
10787SOL    HW133260   4.180   0.658   3.164
10787SOL    HW233261   4.225   0.629   3.010
10788SOL     OW33262   1.415   4.461   0.448
10788SOL    HW133263   1.468   4.393   0.397
10788SOL    HW233264   1.458   4.551   0.436
10789SOL     OW33265   6.179   1.134   1.749
10789SOL    HW133266   6.174   1.117   1.651
10789SOL    HW233267   6.202   1.229   1.766
10790SOL     OW33268   0.366   1.729   4.925
10790SOL    HW133269   0.425   1.738   4.845
10790SOL    HW233270   0.288   1.790   4.916
10791SOL     OW33271   1.104   1.589   4.001
10791SOL    HW133272   1.026   1.643   3.970
10791SOL    HW233273   1.103   1.499   3.956
10792SOL     OW33274   3.784   1.749   1.674
10792SOL    HW133275   3.834   1.836   1.678
10792SOL    HW233276   3.752   1.725   1.765
10793SOL     OW33277   4.289   2.030   4.781
10793SOL    HW133278   4.303   1.931   4.779
10793SOL    HW233279   4.353   2.074   4.718
10794SOL     OW33280   5.064   2.489   0.859
10794SOL    HW133281   5.144   2.447   0.816
10794SOL    HW233282   5.000   2.418   0.889
10795SOL     OW33283   0.195   3.978   3.210
10795SOL    HW133284   0.099   4.007   3.214
10795SOL    HW233285   0.247   4.025   3.282
10796SOL     OW33286   0.386   6.849   6.189
10796SOL    HW133287   0.310   6.863   6.251
10796SOL    HW233288   0.451   6.785   6.228
10797SOL     OW33289   4.254   4.184   0.174
10797SOL    HW133290   4.321   4.250   0.207
10797SOL    HW233291   4.191   4.160   0.248
10798SOL     OW33292   1.857   6.821   0.037
10798SOL    HW133293   1.918   6.860   6.987
10798SOL    HW233294   1.764   6.856   0.023
10799SOL     OW33295   2.945   0.828   2.808
10799SOL    HW133296   2.924   0.746   2.860
10799SOL    HW233297   2.948   0.907   2.870
10800SOL     OW33298   1.856   0.256   5.652
10800SOL    HW133299   1.833   0.161   5.634
10800SOL    HW233300   1.853   0.273   5.751
10801SOL     OW33301   2.719   6.704   5.914
10801SOL    HW133302   2.664   6.739   5.837
10801SOL    HW233303   2.787   6.772   5.939
10802SOL     OW33304   0.629   4.829   4.509
10802SOL    HW133305   0.562   4.760   4.537
10802SOL    HW233306   0.598   4.872   4.424
10803SOL     OW33307   0.362   4.201   4.613
10803SOL    HW133308   0.275   4.162   4.582
10803SOL    HW233309   0.427   4.201   4.537
10804SOL     OW33310   4.985   4.777   1.051
10804SOL    HW133311   5.026   4.825   1.129
10804SOL    HW233312   4.936   4.697   1.084
10805SOL     OW33313   4.016   6.342   0.355
10805SOL    HW133314   4.033   6.284   0.275
10805SOL    HW233315   3.968   6.289   0.425
10806SOL     OW33316   5.689   3.854   6.829
10806SOL    HW133317   5.653   3.941   6.863
10806SOL    HW233318   5.767   3.871   6.769
10807SOL     OW33319   4.880   0.413   3.431
10807SOL    HW133320   4.917   0.343   3.492
10807SOL    HW233321   4.920   0.402   3.340
10808SOL     OW33322   0.060   2.775   6.528
10808SOL    HW133323   7.000   2.726   6.491
10808SOL    HW233324   0.048   2.873   6.515
10809SOL     OW33325   3.310   0.906   3.008
10809SOL    HW133326   3.278   0.985   2.956
10809SOL    HW233327   3.353   0.840   2.946
10810SOL     OW33328   0.667   1.984   6.224
10810SOL    HW133329   0.623   1.928   6.154
10810SOL    HW233330   0.727   1.927   6.279
10811SOL     OW33331   4.771   4.836   5.494
10811SOL    HW133332   4.810   4.928   5.486
10811SOL    HW233333   4.754   4.814   5.590
10812SOL     OW33334   6.671   2.056   3.164
10812SOL    HW133335   6.727   2.116   3.221
10812SOL    HW233336   6.696   2.068   3.068
10813SOL     OW33337   2.281   5.889   2.531
10813SOL    HW133338   2.215   5.963   2.544
10813SOL    HW233339   2.252   5.809   2.583
10814SOL     OW33340   1.824   6.607   5.112
10814SOL    HW133341   1.761   6.666   5.162
10814SOL    HW233342   1.803   6.614   5.014
10815SOL     OW33343   4.791   2.389   3.015
10815SOL    HW133344   4.763   2.380   3.110
10815SOL    HW233345   4.752   2.313   2.962
10816SOL     OW33346   1.965   1.807   2.445
10816SOL    HW133347   2.011   1.873   2.385
10816SOL    HW233348   2.026   1.784   2.520
10817SOL     OW33349   5.025   6.488   1.956
10817SOL    HW133350   4.937   6.533   1.965
10817SOL    HW233351   5.094   6.538   2.010
10818SOL     OW33352   5.027   3.122   0.250
10818SOL    HW133353   4.930   3.121   0.274
10818SOL    HW233354   5.040   3.175   0.166
10819SOL     OW33355   0.669   3.651   6.034
10819SOL    HW133356   0.733   3.708   6.085
10819SOL    HW233357   0.639   3.576   6.093
10820SOL     OW33358   0.130   6.972   4.381
10820SOL    HW133359   0.156   7.019   4.297
10820SOL    HW233360   0.162   6.877   4.378
10821SOL     OW33361   6.881   0.052   0.228
10821SOL    HW133362   6.940   6.991   0.214
10821SOL    HW233363   6.812   0.030   0.298
10822SOL     OW33364   1.460   5.029   0.913
10822SOL    HW133365   1.434   4.981   0.829
10822SOL    HW233366   1.543   4.988   0.949
10823SOL     OW33367   1.620   1.110   1.937
10823SOL    HW133368   1.666   1.114   1.848
10823SOL    HW233369   1.635   1.195   1.987
10824SOL     OW33370   5.830   0.337   2.526
10824SOL    HW133371   5.772   0.255   2.525
10824SOL    HW233372   5.817   0.386   2.611
10825SOL     OW33373   3.505   1.916   1.225
10825SOL    HW133374   3.410   1.885   1.220
10825SOL    HW233375   3.551   1.868   1.300
10826SOL     OW33376   6.769   2.943   1.601
10826SOL    HW133377   6.716   2.864   1.569
10826SOL    HW233378   6.767   2.946   1.701
10827SOL     OW33379   0.924   2.245   4.360
10827SOL    HW133380   0.947   2.312   4.430
10827SOL    HW233381   1.004   2.187   4.341
10828SOL     OW33382   1.286   5.844   0.159
10828SOL    HW133383   1.192   5.823   0.184
10828SOL    HW233384   1.302   5.943   0.169
10829SOL     OW33385   2.500   3.621   1.510
10829SOL    HW133386   2.560   3.574   1.445
10829SOL    HW233387   2.447   3.552   1.560
10830SOL     OW33388   4.789   1.606   3.886
10830SOL    HW133389   4.877   1.606   3.934
10830SOL    HW233390   4.781   1.690   3.832
10831SOL     OW33391   5.366   2.750   3.299
10831SOL    HW133392   5.408   2.783   3.384
10831SOL    HW233393   5.423   2.678   3.260
10832SOL     OW33394   0.086   2.194   1.649
10832SOL    HW133395   0.025   2.134   1.700
10832SOL    HW233396   0.109   2.273   1.706
10833SOL     OW33397   3.230   6.574   4.303
10833SOL    HW133398   3.224   6.476   4.324
10833SOL    HW233399   3.170   6.625   4.364
10834SOL     OW33400   0.695   1.006   5.590
10834SOL    HW133401   0.695   1.093   5.540
10834SOL    HW233402   0.780   0.998   5.643
10835SOL     OW33403   6.833   2.033   2.162
10835SOL    HW133404   6.903   1.989   2.106
10835SOL    HW233405   6.792   1.965   2.223
10836SOL     OW33406   1.703   2.025   0.068
10836SOL    HW133407   1.713   2.055   0.163
10836SOL    HW233408   1.646   1.943   0.065
10837SOL     OW33409   0.665   5.954   1.548
10837SOL    HW133410   0.580   5.966   1.496
10837SOL    HW233411   0.741   5.994   1.497
10838SOL     OW33412   6.365   6.570   1.124
10838SOL    HW133413   6.301   6.645   1.105
10838SOL    HW233414   6.448   6.606   1.166
10839SOL     OW33415   2.250   1.993   0.821
10839SOL    HW133416   2.156   2.016   0.795
10839SOL    HW233417   2.249   1.938   0.904
10840SOL     OW33418   3.763   5.001   2.739
10840SOL    HW133419   3.720   4.972   2.825
10840SOL    HW233420   3.692   5.008   2.668
10841SOL     OW33421   4.244   4.433   5.841
10841SOL    HW133422   4.301   4.351   5.851
10841SOL    HW233423   4.187   4.445   5.923
10842SOL     OW33424   6.656   2.701   1.468
10842SOL    HW133425   6.601   2.656   1.538
10842SOL    HW233426   6.745   2.655   1.461
10843SOL     OW33427   0.271   0.855   1.755
10843SOL    HW133428   0.355   0.881   1.802
10843SOL    HW233429   0.273   0.757   1.737
10844SOL     OW33430   3.253   6.466   3.804
10844SOL    HW133431   3.275   6.425   3.715
10844SOL    HW233432   3.295   6.412   3.877
10845SOL     OW33433   1.816   2.779   0.842
10845SOL    HW133434   1.728   2.793   0.797
10845SOL    HW233435   1.838   2.859   0.899
10846SOL     OW33436   3.400   2.076   1.981
10846SOL    HW133437   3.482   2.061   2.036
10846SOL    HW233438   3.420   2.142   1.908
10847SOL     OW33439   3.938   2.545   5.636
10847SOL    HW133440   3.881   2.624   5.617
10847SOL    HW233441   4.033   2.573   5.648
10848SOL     OW33442   1.690   1.446   0.589
10848SOL    HW133443   1.728   1.467   0.679
10848SOL    HW233444   1.755   1.476   0.519
10849SOL     OW33445   2.372   4.852   4.616
10849SOL    HW133446   2.416   4.865   4.705
10849SOL    HW233447   2.277   4.883   4.622
10850SOL     OW33448   5.807   0.651   1.341
10850SOL    HW133449   5.738   0.705   1.388
10850SOL    HW233450   5.762   0.586   1.279
10851SOL     OW33451   4.380   2.244   6.204
10851SOL    HW133452   4.409   2.337   6.225
10851SOL    HW233453   4.315   2.213   6.274
10852SOL     OW33454   0.343   6.629   6.494
10852SOL    HW133455   0.349   6.568   6.415
10852SOL    HW233456   0.365   6.578   6.577
10853SOL     OW33457   2.120   1.460   4.812
10853SOL    HW133458   2.196   1.482   4.751
10853SOL    HW233459   2.073   1.378   4.779
10854SOL     OW33460   0.155   6.498   0.404
10854SOL    HW133461   0.109   6.421   0.360
10854SOL    HW233462   0.239   6.520   0.355
10855SOL     OW33463   1.462   6.048   1.593
10855SOL    HW133464   1.386   6.111   1.580
10855SOL    HW233465   1.542   6.097   1.628
10856SOL     OW33466   6.244   0.297   6.960
10856SOL    HW133467   6.220   0.314   6.865
10856SOL    HW233468   6.312   0.224   6.965
10857SOL     OW33469   5.963   0.434   5.005
10857SOL    HW133470   6.061   0.450   5.017
10857SOL    HW233471   5.947   0.338   4.981
10858SOL     OW33472   2.397   1.941   0.292
10858SOL    HW133473   2.448   1.856   0.301
10858SOL    HW233474   2.329   1.948   0.365
10859SOL     OW33475   0.803   5.102   1.981
10859SOL    HW133476   0.721   5.089   2.037
10859SOL    HW233477   0.844   5.012   1.960
10860SOL     OW33478   6.031   2.704   0.752
10860SOL    HW133479   5.995   2.706   0.846
10860SOL    HW233480   5.960   2.734   0.689
10861SOL     OW33481   3.281   2.821   2.115
10861SOL    HW133482   3.249   2.728   2.135
10861SOL    HW233483   3.379   2.821   2.099
10862SOL     OW33484   3.701   2.895   5.836
10862SOL    HW133485   3.603   2.899   5.817
10862SOL    HW233486   3.750   2.869   5.753
10863SOL     OW33487   2.348   1.401   3.373
10863SOL    HW133488   2.360   1.405   3.273
10863SOL    HW233489   2.390   1.482   3.414
10864SOL     OW33490   3.139   4.729   1.882
10864SOL    HW133491   3.100   4.668   1.951
10864SOL    HW233492   3.065   4.767   1.826
10865SOL     OW33493   3.631   1.367   2.615
10865SOL    HW133494   3.706   1.371   2.549
10865SOL    HW233495   3.659   1.312   2.694
10866SOL     OW33496   6.749   3.622   3.160
10866SOL    HW133497   6.832   3.675   3.144
10866SOL    HW233498   6.681   3.645   3.090
10867SOL     OW33499   4.258   3.250   0.775
10867SOL    HW133500   4.158   3.243   0.770
10867SOL    HW233501   4.285   3.273   0.869
10868SOL     OW33502   1.390   0.943   5.217
10868SOL    HW133503   1.317   1.006   5.192
10868SOL    HW233504   1.353   0.851   5.226
10869NA      NA33505   6.985   1.835   5.856
10870NA      NA33506   4.503   4.574   5.167
10871NA      NA33507   1.554   4.798   3.086
10872NA      NA33508   6.006   3.943   3.400
10873NA      NA33509   3.665   2.283   5.467
10874NA      NA33510   2.171   4.874   0.354
10875NA      NA33511   1.210   5.460   6.909
10876NA      NA33512   3.670   4.220   0.998
10877NA      NA33513   4.083   5.269   0.618
10878NA      NA33514   3.471   1.232   6.314
10879NA      NA33515   5.553   6.871   1.669
10880NA      NA33516   2.131   6.381   5.320
10881NA      NA33517   4.119   5.215   1.777
10882NA      NA33518   3.691   3.383   6.614
   7.01900   7.01900   7.01900
