Generated by trjconv : CNT in water t=  54.00000
33518
    1C        C    1   2.837   2.762   4.746
    1C        C    2   2.892   2.712   4.867
    1C        C    3   2.839   2.766   4.984
    1C        C    4   2.847   2.772   4.259
    1C        C    5   2.899   2.724   4.381
    1C        C    6   2.844   2.768   4.504
    1C        C    7   3.010   2.635   4.627
    1C        C    8   2.893   2.715   4.625
    1C        C    9   3.073   2.600   4.748
    1C        C   10   3.003   2.625   4.868
    1C        C   11   3.181   2.492   4.978
    1C        C   12   3.059   2.560   4.979
    1C        C   13   2.852   2.772   3.770
    1C        C   14   2.900   2.724   3.894
    1C        C   15   2.848   2.775   4.015
    1C        C   16   3.014   2.642   4.137
    1C        C   17   2.901   2.726   4.137
    1C        C   18   3.077   2.610   4.260
    1C        C   19   3.018   2.648   4.382
    1C        C   20   3.206   2.555   4.502
    1C        C   21   3.074   2.606   4.505
    1C        C   22   3.272   2.532   4.625
    1C        C   23   3.205   2.546   4.748
    1C        C   24   3.412   2.487   4.865
    1C        C   25   3.271   2.510   4.868
    1C        C   26   3.489   2.481   4.982
    1C        C   27   2.849   2.770   3.280
    1C        C   28   2.905   2.727   3.403
    1C        C   29   2.854   2.775   3.526
    1C        C   30   3.020   2.643   3.649
    1C        C   31   2.907   2.728   3.648
    1C        C   32   3.078   2.601   3.771
    1C        C   33   3.013   2.639   3.891
    1C        C   34   3.205   2.553   4.016
    1C        C   35   3.074   2.605   4.014
    1C        C   36   3.272   2.532   4.138
    1C        C   37   3.205   2.551   4.262
    1C        C   38   3.416   2.512   4.381
    1C        C   39   3.276   2.531   4.382
    1C        C   40   3.485   2.504   4.504
    1C        C   41   3.411   2.505   4.624
    1C        C   42   3.628   2.483   4.743
    1C        C   43   3.486   2.487   4.743
    1C        C   44   3.702   2.488   4.863
    1C        C   45   3.628   2.477   4.982
    1C        C   46   2.835   2.753   2.794
    1C        C   47   2.895   2.712   2.915
    1C        C   48   2.844   2.765   3.036
    1C        C   49   3.015   2.639   3.159
    1C        C   50   2.901   2.722   3.158
    1C        C   51   3.076   2.604   3.281
    1C        C   52   3.017   2.641   3.404
    1C        C   53   3.205   2.543   3.525
    1C        C   54   3.078   2.604   3.526
    1C        C   55   3.273   2.523   3.647
    1C        C   56   3.208   2.546   3.770
    1C        C   57   3.412   2.502   3.894
    1C        C   58   3.274   2.532   3.894
    1C        C   59   3.483   2.499   4.017
    1C        C   60   3.411   2.506   4.138
    1C        C   61   3.626   2.500   4.260
    1C        C   62   3.485   2.499   4.258
    1C        C   63   3.699   2.509   4.380
    1C        C   64   3.626   2.503   4.502
    1C        C   65   3.833   2.545   4.622
    1C        C   66   3.699   2.501   4.623
    1C        C   67   3.906   2.557   4.743
    1C        C   68   3.838   2.525   4.862
    1C        C   69   4.051   2.585   4.980
    1C        C   70   3.922   2.531   4.975
    1C        C   71   2.819   2.733   2.306
    1C        C   72   2.882   2.694   2.426
    1C        C   73   2.835   2.747   2.548
    1C        C   74   3.002   2.622   2.672
    1C        C   75   2.886   2.702   2.672
    1C        C   76   3.069   2.589   2.792
    1C        C   77   3.008   2.628   2.914
    1C        C   78   3.205   2.549   3.038
    1C        C   79   3.072   2.597   3.036
    1C        C   80   3.274   2.529   3.160
    1C        C   81   3.207   2.552   3.283
    1C        C   82   3.414   2.501   3.403
    1C        C   83   3.275   2.523   3.403
    1C        C   84   3.484   2.490   3.526
    1C        C   85   3.412   2.497   3.647
    1C        C   86   3.622   2.499   3.766
    1C        C   87   3.480   2.493   3.771
    1C        C   88   3.691   2.510   3.889
    1C        C   89   3.624   2.505   4.013
    1C        C   90   3.829   2.549   4.136
    1C        C   91   3.693   2.512   4.136
    1C        C   92   3.901   2.569   4.256
    1C        C   93   3.836   2.544   4.379
    1C        C   94   4.028   2.631   4.501
    1C        C   95   3.903   2.566   4.501
    1C        C   96   4.090   2.670   4.622
    1C        C   97   4.030   2.626   4.742
    1C        C   98   4.191   2.763   4.861
    1C        C   99   4.099   2.652   4.864
    1C        C  100   4.208   2.842   4.975
    1C        C  101   2.822   2.731   2.070
    1C        C  102   2.989   2.592   2.190
    1C        C  103   2.871   2.673   2.188
    1C        C  104   3.060   2.568   2.310
    1C        C  105   3.000   2.617   2.429
    1C        C  106   3.199   2.543   2.548
    1C        C  107   3.066   2.590   2.551
    1C        C  108   3.270   2.523   2.669
    1C        C  109   3.201   2.539   2.791
    1C        C  110   3.408   2.499   2.912
    1C        C  111   3.269   2.525   2.915
    1C        C  112   3.480   2.495   3.033
    1C        C  113   3.413   2.507   3.157
    1C        C  114   3.624   2.498   3.278
    1C        C  115   3.483   2.496   3.280
    1C        C  116   3.694   2.509   3.400
    1C        C  117   3.625   2.499   3.523
    1C        C  118   3.832   2.540   3.646
    1C        C  119   3.694   2.508   3.645
    1C        C  120   3.896   2.567   3.769
    1C        C  121   3.827   2.550   3.891
    1C        C  122   4.022   2.634   4.013
    1C        C  123   3.893   2.575   4.013
    1C        C  124   4.087   2.668   4.133
    1C        C  125   4.028   2.631   4.257
    1C        C  126   4.192   2.765   4.374
    1C        C  127   4.087   2.671   4.379
    1C        C  128   4.239   2.821   4.495
    1C        C  129   4.197   2.762   4.616
    1C        C  130   4.325   2.931   4.739
    1C        C  131   4.244   2.814   4.739
    1C        C  132   4.350   3.004   4.857
    1C        C  133   4.284   2.959   4.972
    1C        C  134   3.172   2.466   2.078
    1C        C  135   3.039   2.507   2.085
    1C        C  136   3.257   2.479   2.189
    1C        C  137   3.192   2.516   2.309
    1C        C  138   3.405   2.485   2.425
    1C        C  139   3.265   2.505   2.429
    1C        C  140   3.478   2.482   2.546
    1C        C  141   3.409   2.498   2.668
    1C        C  142   3.621   2.495   2.789
    1C        C  143   3.479   2.490   2.790
    1C        C  144   3.693   2.500   2.910
    1C        C  145   3.621   2.493   3.032
    1C        C  146   3.828   2.539   3.155
    1C        C  147   3.692   2.501   3.154
    1C        C  148   3.896   2.567   3.275
    1C        C  149   3.832   2.543   3.398
    1C        C  150   4.022   2.628   3.522
    1C        C  151   3.895   2.567   3.522
    1C        C  152   4.080   2.666   3.646
    1C        C  153   4.021   2.633   3.770
    1C        C  154   4.193   2.759   3.887
    1C        C  155   4.084   2.670   3.891
    1C        C  156   4.245   2.808   4.009
    1C        C  157   4.195   2.758   4.131
    1C        C  158   4.335   2.920   4.250
    1C        C  159   4.247   2.809   4.252
    1C        C  160   4.377   2.980   4.371
    1C        C  161   4.331   2.928   4.494
    1C        C  162   4.437   3.111   4.614
    1C        C  163   4.366   2.989   4.617
    1C        C  164   4.463   3.182   4.733
    1C        C  165   4.432   3.119   4.855
    1C        C  166   4.519   3.317   4.971
    1C        C  167   4.476   3.185   4.971
    1C        C  168   3.474   2.432   2.072
    1C        C  169   3.396   2.457   2.186
    1C        C  170   3.616   2.466   2.306
    1C        C  171   3.474   2.459   2.304
    1C        C  172   3.690   2.487   2.424
    1C        C  173   3.619   2.487   2.546
    1C        C  174   3.827   2.539   2.665
    1C        C  175   3.691   2.504   2.666
    1C        C  176   3.894   2.559   2.787
    1C        C  177   3.828   2.540   2.911
    1C        C  178   4.025   2.620   3.031
    1C        C  179   3.895   2.564   3.033
    1C        C  180   4.087   2.661   3.152
    1C        C  181   4.023   2.629   3.274
    1C        C  182   4.192   2.750   3.399
    1C        C  183   4.082   2.661   3.398
    1C        C  184   4.241   2.803   3.521
    1C        C  185   4.191   2.754   3.643
    1C        C  186   4.332   2.916   3.761
    1C        C  187   4.244   2.806   3.763
    1C        C  188   4.372   2.976   3.883
    1C        C  189   4.334   2.918   4.006
    1C        C  190   4.438   3.105   4.128
    1C        C  191   4.373   2.979   4.127
    1C        C  192   4.467   3.171   4.249
    1C        C  193   4.441   3.106   4.371
    1C        C  194   4.505   3.311   4.489
    1C        C  195   4.468   3.174   4.492
    1C        C  196   4.521   3.384   4.609
    1C        C  197   4.502   3.319   4.733
    1C        C  198   4.553   3.532   4.848
    1C        C  199   4.532   3.390   4.852
    1C        C  200   4.582   3.618   4.959
    1C        C  201   3.613   2.418   2.072
    1C        C  202   3.825   2.508   2.181
    1C        C  203   3.690   2.460   2.185
    1C        C  204   3.898   2.537   2.299
    1C        C  205   3.827   2.523   2.421
    1C        C  206   4.023   2.612   2.540
    1C        C  207   3.893   2.558   2.541
    1C        C  208   4.080   2.654   2.663
    1C        C  209   4.022   2.619   2.787
    1C        C  210   4.198   2.738   2.907
    1C        C  211   4.086   2.653   2.908
    1C        C  212   4.247   2.795   3.028
    1C        C  213   4.198   2.748   3.152
    1C        C  214   4.330   2.907   3.271
    1C        C  215   4.245   2.795   3.276
    1C        C  216   4.369   2.969   3.392
    1C        C  217   4.327   2.915   3.515
    1C        C  218   4.429   3.102   3.638
    1C        C  219   4.363   2.977   3.637
    1C        C  220   4.454   3.169   3.760
    1C        C  221   4.433   3.103   3.883
    1C        C  222   4.498   3.306   4.002
    1C        C  223   4.461   3.169   4.005
    1C        C  224   4.511   3.377   4.124
    1C        C  225   4.503   3.308   4.247
    1C        C  226   4.519   3.522   4.366
    1C        C  227   4.514   3.381   4.367
    1C        C  228   4.514   3.596   4.486
    1C        C  229   4.531   3.525   4.607
    1C        C  230   4.497   3.738   4.726
    1C        C  231   4.538   3.602   4.725
    1C        C  232   4.491   3.815   4.844
    1C        C  233   4.544   3.753   4.958
    1C        C  234   4.015   2.613   2.060
    1C        C  235   3.892   2.547   2.065
    1C        C  236   4.083   2.647   2.177
    1C        C  237   4.024   2.603   2.298
    1C        C  238   4.198   2.731   2.421
    1C        C  239   4.084   2.647   2.418
    1C        C  240   4.250   2.782   2.542
    1C        C  241   4.192   2.740   2.663
    1C        C  242   4.334   2.900   2.781
    1C        C  243   4.247   2.788   2.784
    1C        C  244   4.371   2.963   2.902
    1C        C  245   4.334   2.906   3.026
    1C        C  246   4.430   3.093   3.147
    1C        C  247   4.373   2.964   3.149
    1C        C  248   4.451   3.159   3.270
    1C        C  249   4.430   3.097   3.395
    1C        C  250   4.496   3.302   3.513
    1C        C  251   4.457   3.166   3.516
    1C        C  252   4.509   3.372   3.634
    1C        C  253   4.494   3.305   3.758
    1C        C  254   4.516   3.516   3.874
    1C        C  255   4.508   3.375   3.879
    1C        C  256   4.508   3.584   3.998
    1C        C  257   4.506   3.518   4.123
    1C        C  258   4.489   3.731   4.238
    1C        C  259   4.508   3.591   4.243
    1C        C  260   4.477   3.803   4.359
    1C        C  261   4.491   3.735   4.482
    1C        C  262   4.423   3.937   4.603
    1C        C  263   4.475   3.806   4.603
    1C        C  264   4.399   4.008   4.722
    1C        C  265   4.431   3.943   4.843
    1C        C  266   4.313   4.128   4.956
    1C        C  267   4.388   4.010   4.958
    1C        C  268   4.263   2.769   2.061
    1C        C  269   4.198   2.728   2.178
    1C        C  270   4.345   2.886   2.298
    1C        C  271   4.253   2.777   2.299
    1C        C  272   4.379   2.954   2.417
    1C        C  273   4.340   2.891   2.538
    1C        C  274   4.440   3.082   2.658
    1C        C  275   4.373   2.957   2.658
    1C        C  276   4.460   3.151   2.780
    1C        C  277   4.433   3.089   2.904
    1C        C  278   4.503   3.292   3.024
    1C        C  279   4.462   3.156   3.025
    1C        C  280   4.510   3.363   3.146
    1C        C  281   4.493   3.294   3.268
    1C        C  282   4.515   3.508   3.388
    1C        C  283   4.509   3.367   3.388
    1C        C  284   4.514   3.583   3.508
    1C        C  285   4.514   3.513   3.631
    1C        C  286   4.491   3.726   3.751
    1C        C  287   4.512   3.586   3.752
    1C        C  288   4.474   3.795   3.873
    1C        C  289   4.485   3.723   3.995
    1C        C  290   4.427   3.931   4.114
    1C        C  291   4.470   3.797   4.114
    1C        C  292   4.396   3.996   4.235
    1C        C  293   4.427   3.935   4.359
    1C        C  294   4.323   4.122   4.477
    1C        C  295   4.397   4.002   4.480
    1C        C  296   4.283   4.184   4.598
    1C        C  297   4.330   4.133   4.720
    1C        C  298   4.198   4.312   4.835
    1C        C  299   4.281   4.196   4.838
    1C        C  300   4.164   4.397   4.945
    1C        C  301   4.351   2.876   2.061
    1C        C  302   4.467   3.064   2.177
    1C        C  303   4.399   2.938   2.177
    1C        C  304   4.485   3.140   2.296
    1C        C  305   4.447   3.077   2.416
    1C        C  306   4.506   3.284   2.536
    1C        C  307   4.471   3.147   2.537
    1C        C  308   4.507   3.355   2.658
    1C        C  309   4.496   3.287   2.781
    1C        C  310   4.517   3.501   2.900
    1C        C  311   4.514   3.360   2.901
    1C        C  312   4.510   3.574   3.021
    1C        C  313   4.512   3.504   3.144
    1C        C  314   4.487   3.717   3.262
    1C        C  315   4.511   3.577   3.265
    1C        C  316   4.472   3.788   3.383
    1C        C  317   4.490   3.722   3.506
    1C        C  318   4.425   3.925   3.625
    1C        C  319   4.472   3.792   3.628
    1C        C  320   4.394   3.989   3.747
    1C        C  321   4.423   3.926   3.870
    1C        C  322   4.316   4.110   3.990
    1C        C  323   4.393   3.992   3.991
    1C        C  324   4.273   4.166   4.112
    1C        C  325   4.321   4.116   4.235
    1C        C  326   4.186   4.284   4.351
    1C        C  327   4.280   4.179   4.355
    1C        C  328   4.136   4.337   4.473
    1C        C  329   4.189   4.289   4.595
    1C        C  330   4.022   4.433   4.712
    1C        C  331   4.138   4.351   4.711
    1C        C  332   3.965   4.487   4.829
    1C        C  333   4.048   4.476   4.942
    1C        C  334   4.544   3.267   2.059
    1C        C  335   4.530   3.128   2.066
    1C        C  336   4.534   3.348   2.173
    1C        C  337   4.514   3.279   2.295
    1C        C  338   4.527   3.495   2.411
    1C        C  339   4.522   3.354   2.414
    1C        C  340   4.521   3.568   2.532
    1C        C  341   4.513   3.496   2.654
    1C        C  342   4.492   3.707   2.774
    1C        C  343   4.515   3.567   2.776
    1C        C  344   4.479   3.782   2.892
    1C        C  345   4.487   3.713   3.016
    1C        C  346   4.419   3.914   3.132
    1C        C  347   4.466   3.781   3.138
    1C        C  348   4.387   3.977   3.254
    1C        C  349   4.423   3.921   3.379
    1C        C  350   4.322   4.106   3.499
    1C        C  351   4.398   3.988   3.501
    1C        C  352   4.276   4.164   3.620
    1C        C  353   4.322   4.110   3.742
    1C        C  354   4.178   4.264   3.868
    1C        C  355   4.275   4.162   3.865
    1C        C  356   4.123   4.315   3.988
    1C        C  357   4.176   4.269   4.110
    1C        C  358   4.013   4.407   4.228
    1C        C  359   4.131   4.330   4.229
    1C        C  360   3.951   4.444   4.350
    1C        C  361   4.018   4.415   4.470
    1C        C  362   3.828   4.514   4.593
    1C        C  363   3.958   4.461   4.590
    1C        C  364   3.759   4.550   4.711
    1C        C  365   3.837   4.547   4.828
    1C        C  366   3.630   4.592   4.949
    1C        C  367   3.768   4.577   4.946
    1C        C  368   4.501   3.561   2.055
    1C        C  369   4.524   3.489   2.173
    1C        C  370   4.503   3.707   2.286
    1C        C  371   4.526   3.568   2.290
    1C        C  372   4.485   3.778   2.407
    1C        C  373   4.501   3.707   2.528
    1C        C  374   4.425   3.905   2.645
    1C        C  375   4.474   3.773   2.650
    1C        C  376   4.402   3.977   2.764
    1C        C  377   4.427   3.913   2.888
    1C        C  378   4.322   4.100   3.010
    1C        C  379   4.392   3.977   3.009
    1C        C  380   4.277   4.155   3.132
    1C        C  381   4.312   4.097   3.255
    1C        C  382   4.175   4.259   3.376
    1C        C  383   4.272   4.157   3.377
    1C        C  384   4.121   4.305   3.498
    1C        C  385   4.172   4.260   3.622
    1C        C  386   4.009   4.392   3.741
    1C        C  387   4.124   4.310   3.745
    1C        C  388   3.946   4.430   3.862
    1C        C  389   4.008   4.396   3.984
    1C        C  390   3.814   4.480   4.108
    1C        C  391   3.948   4.435   4.106
    1C        C  392   3.747   4.510   4.229
    1C        C  393   3.820   4.498   4.349
    1C        C  394   3.617   4.549   4.476
    1C        C  395   3.756   4.527   4.472
    1C        C  396   3.544   4.564   4.596
    1C        C  397   3.619   4.565   4.716
    1C        C  398   3.407   4.558   4.838
    1C        C  399   3.547   4.573   4.838
    1C        C  400   3.339   4.523   4.955
    1C        C  401   4.499   3.700   2.050
    1C        C  402   4.454   3.914   2.166
    1C        C  403   4.498   3.780   2.165
    1C        C  404   4.414   3.979   2.285
    1C        C  405   4.436   3.910   2.406
    1C        C  406   4.327   4.097   2.523
    1C        C  407   4.402   3.977   2.526
    1C        C  408   4.278   4.151   2.644
    1C        C  409   4.327   4.097   2.765
    1C        C  410   4.175   4.247   2.884
    1C        C  411   4.280   4.153   2.886
    1C        C  412   4.118   4.293   3.005
    1C        C  413   4.173   4.251   3.129
    1C        C  414   4.003   4.375   3.250
    1C        C  415   4.121   4.298   3.251
    1C        C  416   3.947   4.417   3.373
    1C        C  417   4.005   4.386   3.498
    1C        C  418   3.814   4.479   3.616
    1C        C  419   3.943   4.421   3.620
    1C        C  420   3.747   4.499   3.739
    1C        C  421   3.815   4.482   3.862
    1C        C  422   3.610   4.531   3.984
    1C        C  423   3.748   4.501   3.986
    1C        C  424   3.543   4.542   4.107
    1C        C  425   3.608   4.533   4.232
    1C        C  426   3.400   4.542   4.356
    1C        C  427   3.541   4.549   4.356
    1C        C  428   3.330   4.543   4.478
    1C        C  429   3.403   4.562   4.598
    1C        C  430   3.192   4.521   4.721
    1C        C  431   3.331   4.553   4.719
    1C        C  432   3.121   4.500   4.842
    1C        C  433   3.202   4.500   4.956
    1C        C  434   4.379   4.116   2.046
    1C        C  435   4.444   3.992   2.049
    1C        C  436   4.299   4.155   2.158
    1C        C  437   4.338   4.099   2.283
    1C        C  438   4.183   4.252   2.400
    1C        C  439   4.287   4.157   2.401
    1C        C  440   4.125   4.298   2.521
    1C        C  441   4.179   4.252   2.643
    1C        C  442   4.005   4.378   2.762
    1C        C  443   4.122   4.298   2.763
    1C        C  444   3.939   4.406   2.884
    1C        C  445   4.001   4.372   3.006
    1C        C  446   3.811   4.465   3.130
    1C        C  447   3.938   4.404   3.128
    1C        C  448   3.745   4.488   3.253
    1C        C  449   3.815   4.469   3.373
    1C        C  450   3.608   4.520   3.496
    1C        C  451   3.747   4.498   3.494
    1C        C  452   3.538   4.534   3.619
    1C        C  453   3.609   4.528   3.741
    1C        C  454   3.397   4.542   3.859
    1C        C  455   3.538   4.542   3.862
    1C        C  456   3.332   4.533   3.984
    1C        C  457   3.402   4.537   4.107
    1C        C  458   3.196   4.503   4.234
    1C        C  459   3.334   4.533   4.231
    1C        C  460   3.125   4.493   4.356
    1C        C  461   3.192   4.514   4.479
    1C        C  462   2.997   4.428   4.602
    1C        C  463   3.125   4.489   4.601
    1C        C  464   2.934   4.395   4.724
    1C        C  465   2.989   4.445   4.846
    1C        C  466   2.805   4.335   4.955
    1C        C  467   2.906   4.433   4.962
    1C        C  468   4.123   4.282   2.040
    1C        C  469   4.188   4.245   2.158
    1C        C  470   4.005   4.366   2.276
    1C        C  471   4.128   4.295   2.278
    1C        C  472   3.937   4.401   2.395
    1C        C  473   4.006   4.374   2.515
    1C        C  474   3.814   4.461   2.639
    1C        C  475   3.945   4.409   2.638
    1C        C  476   3.746   4.487   2.760
    1C        C  477   3.811   4.466   2.884
    1C        C  478   3.607   4.517   3.009
    1C        C  479   3.746   4.492   3.007
    1C        C  480   3.537   4.531   3.131
    1C        C  481   3.606   4.515   3.253
    1C        C  482   3.395   4.535   3.376
    1C        C  483   3.536   4.526   3.375
    1C        C  484   3.323   4.529   3.498
    1C        C  485   3.397   4.540   3.618
    1C        C  486   3.187   4.501   3.743
    1C        C  487   3.324   4.533   3.738
    1C        C  488   3.128   4.473   3.869
    1C        C  489   3.196   4.497   3.990
    1C        C  490   3.004   4.411   4.113
    1C        C  491   3.129   4.477   4.113
    1C        C  492   2.945   4.379   4.237
    1C        C  493   3.000   4.428   4.358
    1C        C  494   2.834   4.299   4.481
    1C        C  495   2.935   4.398   4.479
    1C        C  496   2.775   4.253   4.601
    1C        C  497   2.821   4.309   4.722
    1C        C  498   2.665   4.163   4.844
    1C        C  499   2.755   4.271   4.841
    1C        C  500   2.591   4.118   4.954
    1C        C  501   4.004   4.355   2.038
    1C        C  502   3.813   4.460   2.153
    1C        C  503   3.940   4.398   2.155
    1C        C  504   3.739   4.474   2.273
    1C        C  505   3.804   4.447   2.396
    1C        C  506   3.602   4.500   2.519
    1C        C  507   3.741   4.477   2.519
    1C        C  508   3.535   4.515   2.643
    1C        C  509   3.608   4.515   2.764
    1C        C  510   3.395   4.524   2.886
    1C        C  511   3.537   4.522   2.886
    1C        C  512   3.324   4.521   3.008
    1C        C  513   3.396   4.532   3.129
    1C        C  514   3.189   4.492   3.254
    1C        C  515   3.327   4.526   3.252
    1C        C  516   3.122   4.465   3.375
    1C        C  517   3.187   4.491   3.498
    1C        C  518   2.995   4.410   3.622
    1C        C  519   3.120   4.476   3.621
    1C        C  520   2.939   4.372   3.745
    1C        C  521   3.002   4.408   3.866
    1C        C  522   2.835   4.284   3.994
    1C        C  523   2.946   4.372   3.990
    1C        C  524   2.788   4.236   4.118
    1C        C  525   2.834   4.291   4.240
    1C        C  526   2.698   4.131   4.364
    1C        C  527   2.779   4.246   4.362
    1C        C  528   2.663   4.069   4.487
    1C        C  529   2.691   4.139   4.606
    1C        C  530   2.589   3.955   4.731
    1C        C  531   2.638   4.089   4.727
    1C        C  532   2.546   3.900   4.855
    1C        C  533   2.529   3.992   4.964
    1C        C  534   3.614   4.548   2.036
    1C        C  535   3.746   4.500   2.037
    1C        C  536   3.533   4.534   2.153
    1C        C  537   3.602   4.511   2.275
    1C        C  538   3.391   4.523   2.399
    1C        C  539   3.532   4.514   2.397
    1C        C  540   3.323   4.507   2.521
    1C        C  541   3.394   4.516   2.643
    1C        C  542   3.185   4.482   2.764
    1C        C  543   3.322   4.514   2.765
    1C        C  544   3.122   4.458   2.888
    1C        C  545   3.189   4.481   3.011
    1C        C  546   2.994   4.401   3.132
    1C        C  547   3.121   4.463   3.133
    1C        C  548   2.934   4.365   3.255
    1C        C  549   2.994   4.407   3.377
    1C        C  550   2.831   4.274   3.502
    1C        C  551   2.937   4.368   3.500
    1C        C  552   2.781   4.230   3.627
    1C        C  553   2.832   4.279   3.749
    1C        C  554   2.699   4.119   3.875
    1C        C  555   2.786   4.230   3.873
    1C        C  556   2.662   4.061   3.998
    1C        C  557   2.701   4.125   4.119
    1C        C  558   2.606   3.939   4.247
    1C        C  559   2.664   4.067   4.242
    1C        C  560   2.573   3.873   4.368
    1C        C  561   2.599   3.944   4.487
    1C        C  562   2.529   3.749   4.614
    1C        C  563   2.564   3.885   4.611
    1C        C  564   2.518   3.680   4.737
    1C        C  565   2.525   3.759   4.855
    1C        C  566   2.524   3.542   4.975
    1C        C  567   2.523   3.681   4.972
    1C        C  568   3.325   4.468   2.041
    1C        C  569   3.393   4.509   2.156
    1C        C  570   3.180   4.478   2.277
    1C        C  571   3.320   4.504   2.278
    1C        C  572   3.117   4.453   2.401
    1C        C  573   3.185   4.475   2.522
    1C        C  574   2.988   4.396   2.645
    1C        C  575   3.114   4.461   2.643
    1C        C  576   2.928   4.363   2.768
    1C        C  577   2.993   4.401   2.888
    1C        C  578   2.824   4.274   3.013
    1C        C  579   2.932   4.366   3.010
    1C        C  580   2.779   4.219   3.135
    1C        C  581   2.831   4.268   3.257
    1C        C  582   2.700   4.106   3.384
    1C        C  583   2.786   4.218   3.381
    1C        C  584   2.661   4.055   3.510
    1C        C  585   2.695   4.118   3.632
    1C        C  586   2.598   3.930   3.754
    1C        C  587   2.658   4.058   3.754
    1C        C  588   2.575   3.867   3.878
    1C        C  589   2.602   3.933   4.000
    1C        C  590   2.533   3.739   4.127
    1C        C  591   2.578   3.873   4.126
    1C        C  592   2.515   3.672   4.250
    1C        C  593   2.524   3.740   4.373
    1C        C  594   2.500   3.532   4.497
    1C        C  595   2.508   3.673   4.496
    1C        C  596   2.511   3.462   4.619
    1C        C  597   2.515   3.538   4.737
    1C        C  598   2.531   3.324   4.859
    1C        C  599   2.521   3.465   4.858
    1C        C  600   2.527   3.247   4.976
    1C        C  601   3.193   4.429   2.040
    1C        C  602   2.980   4.393   2.157
    1C        C  603   3.116   4.438   2.157
    1C        C  604   2.922   4.360   2.282
    1C        C  605   2.990   4.390   2.402
    1C        C  606   2.816   4.268   2.525
    1C        C  607   2.926   4.357   2.524
    1C        C  608   2.772   4.222   2.650
    1C        C  609   2.817   4.277   2.772
    1C        C  610   2.690   4.104   2.894
    1C        C  611   2.773   4.218   2.893
    1C        C  612   2.652   4.045   3.017
    1C        C  613   2.693   4.108   3.137
    1C        C  614   2.600   3.920   3.263
    1C        C  615   2.658   4.049   3.261
    1C        C  616   2.574   3.862   3.389
    1C        C  617   2.597   3.929   3.511
    1C        C  618   2.524   3.729   3.635
    1C        C  619   2.568   3.863   3.633
    1C        C  620   2.511   3.663   3.760
    1C        C  621   2.532   3.732   3.881
    1C        C  622   2.510   3.526   4.007
    1C        C  623   2.520   3.667   4.006
    1C        C  624   2.514   3.458   4.131
    1C        C  625   2.511   3.531   4.252
    1C        C  626   2.533   3.322   4.376
    1C        C  627   2.508   3.461   4.375
    1C        C  628   2.554   3.254   4.498
    1C        C  629   2.533   3.322   4.620
    1C        C  630   2.591   3.115   4.741
    1C        C  631   2.549   3.250   4.740
    1C        C  632   2.618   3.048   4.863
    1C        C  633   2.562   3.111   4.979
    1C        C  634   2.782   4.296   2.054
    1C        C  635   2.891   4.384   2.046
    1C        C  636   2.747   4.225   2.169
    1C        C  637   2.811   4.271   2.287
    1C        C  638   2.683   4.098   2.410
    1C        C  639   2.760   4.216   2.406
    1C        C  640   2.642   4.045   2.535
    1C        C  641   2.683   4.112   2.652
    1C        C  642   2.587   3.919   2.774
    1C        C  643   2.647   4.047   2.772
    1C        C  644   2.561   3.852   2.896
    1C        C  645   2.591   3.918   3.017
    1C        C  646   2.524   3.721   3.148
    1C        C  647   2.572   3.854   3.142
    1C        C  648   2.508   3.654   3.272
    1C        C  649   2.527   3.729   3.390
    1C        C  650   2.504   3.519   3.519
    1C        C  651   2.512   3.660   3.513
    1C        C  652   2.504   3.450   3.643
    1C        C  653   2.501   3.522   3.764
    1C        C  654   2.535   3.314   3.890
    1C        C  655   2.510   3.453   3.887
    1C        C  656   2.555   3.247   4.013
    1C        C  657   2.538   3.319   4.133
    1C        C  658   2.606   3.119   4.255
    1C        C  659   2.553   3.251   4.255
    1C        C  660   2.641   3.059   4.378
    1C        C  661   2.606   3.123   4.499
    1C        C  662   2.716   2.942   4.624
    1C        C  663   2.627   3.052   4.619
    1C        C  664   2.753   2.876   4.743
    1C        C  665   2.701   2.932   4.863
    1C        C  666   2.741   2.865   4.980
    1C        C  667   2.675   4.016   2.054
    1C        C  668   2.683   4.100   2.167
    1C        C  669   2.590   3.906   2.291
    1C        C  670   2.648   4.036   2.288
    1C        C  671   2.559   3.845   2.414
    1C        C  672   2.582   3.917   2.533
    1C        C  673   2.522   3.712   2.660
    1C        C  674   2.559   3.848   2.655
    1C        C  675   2.502   3.646   2.783
    1C        C  676   2.524   3.716   2.904
    1C        C  677   2.500   3.508   3.031
    1C        C  678   2.516   3.648   3.027
    1C        C  679   2.493   3.438   3.154
    1C        C  680   2.496   3.514   3.274
    1C        C  681   2.528   3.307   3.399
    1C        C  682   2.504   3.446   3.398
    1C        C  683   2.550   3.243   3.523
    1C        C  684   2.533   3.312   3.645
    1C        C  685   2.597   3.111   3.769
    1C        C  686   2.548   3.244   3.768
    1C        C  687   2.635   3.051   3.891
    1C        C  688   2.604   3.115   4.013
    1C        C  689   2.710   2.932   4.139
    1C        C  690   2.634   3.051   4.135
    1C        C  691   2.755   2.879   4.262
    1C        C  692   2.714   2.938   4.383
    1C        C  693   2.756   2.878   4.504
    1C        C  694   2.626   3.885   2.053
    1C        C  695   2.525   3.699   2.173
    1C        C  696   2.581   3.829   2.173
    1C        C  697   2.497   3.635   2.296
    1C        C  698   2.520   3.709   2.414
    1C        C  699   2.488   3.502   2.540
    1C        C  700   2.504   3.642   2.538
    1C        C  701   2.499   3.433   2.663
    1C        C  702   2.493   3.505   2.784
    1C        C  703   2.516   3.298   2.912
    1C        C  704   2.496   3.438   2.909
    1C        C  705   2.537   3.228   3.033
    1C        C  706   2.525   3.301   3.154
    1C        C  707   2.593   3.104   3.279
    1C        C  708   2.542   3.235   3.278
    1C        C  709   2.630   3.045   3.402
    1C        C  710   2.601   3.111   3.524
    1C        C  711   2.704   2.928   3.648
    1C        C  712   2.627   3.046   3.647
    1C        C  713   2.755   2.875   3.768
    1C        C  714   2.717   2.935   3.890
    1C        C  715   2.754   2.880   4.015
    1C        C  716   2.452   3.494   2.060
    1C        C  717   2.499   3.626   2.056
    1C        C  718   2.471   3.418   2.179
    1C        C  719   2.482   3.494   2.299
    1C        C  720   2.508   3.286   2.425
    1C        C  721   2.483   3.425   2.422
    1C        C  722   2.524   3.219   2.548
    1C        C  723   2.518   3.293   2.668
    1C        C  724   2.586   3.094   2.790
    1C        C  725   2.535   3.226   2.792
    1C        C  726   2.621   3.032   2.912
    1C        C  727   2.591   3.098   3.034
    1C        C  728   2.710   2.926   3.159
    1C        C  729   2.623   3.037   3.158
    1C        C  730   2.753   2.874   3.283
    1C        C  731   2.706   2.926   3.405
    1C        C  732   2.750   2.870   3.527
    1C        C  733   2.491   3.194   2.068
    1C        C  734   2.486   3.276   2.182
    1C        C  735   2.578   3.083   2.304
    1C        C  736   2.520   3.213   2.305
    1C        C  737   2.613   3.022   2.426
    1C        C  738   2.581   3.089   2.546
    1C        C  739   2.690   2.909   2.667
    1C        C  740   2.614   3.028   2.669
    1C        C  741   2.742   2.859   2.789
    1C        C  742   2.699   2.915   2.911
    1C        C  743   2.751   2.871   3.035
    1C        C  744   2.543   3.066   2.070
    1C        C  745   2.683   2.895   2.182
    1C        C  746   2.605   3.013   2.185
    1C        C  747   2.727   2.842   2.305
    1C        C  748   2.689   2.902   2.427
    1C        C  749   2.738   2.849   2.548
    1C        C  750   2.730   2.835   2.065
    1C        C  751   3.672   2.327   1.971
    1C        O  752   3.616   2.215   1.957
    1C        O  753   3.719   2.374   1.848
    1C        C  754   4.603   3.057   1.958
    1C        O  755   4.559   3.060   1.840
    1C        O  756   4.712   2.970   1.965
    1C        C  757   4.474   4.214   1.989
    1C        O  758   4.582   4.241   2.047
    1C        O  759   4.473   4.247   1.852
    1C        C  760   3.603   4.659   1.939
    1C        O  761   3.668   4.763   1.965
    1C        O  762   3.557   4.643   1.807
    1C        C  763   2.877   4.497   1.951
    1C        O  764   2.864   4.480   1.827
    1C        O  765   2.804   4.610   1.991
    1C        C  766   2.352   3.455   1.958
    1C        O  767   2.375   3.435   1.836
    1C        O  768   2.213   3.471   1.970
    1C        C  769   4.698   3.584   5.043
    1C        O  770   4.694   3.598   5.168
    1C        O  771   4.832   3.580   5.001
    1C        C  772   4.272   4.444   5.034
    1C        O  773   4.286   4.412   5.155
    1C        O  774   4.361   4.544   4.991
    1C        C  775   4.143   2.544   5.089
    1C        O  776   4.187   2.427   5.098
    1C        O  777   4.122   2.596   5.217
    1C        C  778   2.864   4.552   5.040
    1C        O  779   2.797   4.639   4.979
    1C        O  780   2.938   4.612   5.142
    1C        C  781   2.498   3.031   5.086
    1C        O  782   2.412   2.944   5.057
    1C        O  783   2.555   3.015   5.212
    1C        C  784   2.404   3.998   5.042
    1C        O  785   2.296   4.028   4.983
    1C        O  786   2.394   3.982   5.180
    1C        C  787   2.943   2.452   1.986
    1C        O  788   2.960   2.485   1.866
    1C        O  789   2.882   2.328   1.996
    1C        C  790   3.180   2.356   5.037
    1C        O  791   3.127   2.258   4.979
    1C        O  792   3.225   2.320   5.165
    1C        H  793   4.271   3.021   5.058
    1C        H  794   4.133   2.839   5.050
    1C        H  795   4.523   3.116   5.039
    1C        H  796   4.572   3.352   5.057
    1C        H  797   4.571   3.815   5.041
    1C        H  798   4.420   3.979   5.055
    1C        H  799   4.239   4.126   5.033
    1C        H  800   4.033   4.546   5.021
    1C        H  801   3.813   4.567   5.043
    1C        H  802   3.582   4.640   5.032
    1C        H  803   3.381   4.476   5.042
    1C        H  804   3.170   4.435   5.034
    1C        H  805   3.904   2.457   5.050
    1C        H  806   3.675   2.431   5.066
    1C        H  807   2.990   2.540   5.059
    1C        H  808   3.439   2.444   5.069
    1C        H  809   2.895   2.754   5.075
    1C        H  810   2.734   2.925   5.068
    1C        H  811   2.524   3.301   5.069
    1C        H  812   2.522   3.498   5.072
    1C        H  813   2.510   3.729   5.067
    1C        H  814   2.587   4.176   5.043
    1C        H  815   2.796   4.284   5.048
    1C        H  816   2.653   2.819   1.992
    1C        H  817   2.861   2.695   1.977
    1C        H  818   3.196   2.386   2.011
    1C        H  819   3.423   2.448   1.979
    1C        H  820   3.856   2.510   1.971
    1C        H  821   4.062   2.637   1.967
    1C        H  822   4.283   2.694   1.987
    1C        H  823   4.361   2.929   1.969
    1C        H  824   4.567   3.313   1.965
    1C        H  825   4.479   3.510   1.963
    1C        H  826   4.524   3.743   1.956
    1C        H  827   3.805   4.528   1.952
    1C        H  828   3.974   4.400   1.946
    1C        H  829   4.159   4.242   1.948
    1C        H  830   4.495   3.959   1.961
    1C        H  831   2.656   3.817   1.976
    1C        H  832   2.746   4.046   1.981
    1C        H  833   2.704   4.317   1.984
    1C        H  834   3.389   4.419   1.970
    1C        H  835   3.158   4.366   1.961
    1C        H  836   2.500   2.996   2.002
    1C        H  837   2.441   3.212   1.975
    1C        H  838   2.463   3.689   1.978
    2V3OU   H29  839   2.799   3.553   1.052
    2V3OU   C27  840   2.775   3.501   1.149
    2V3OU   H27  841   2.721   3.565   1.223
    2V3OU   H28  842   2.726   3.401   1.140
    2V3OU   O11  843   2.901   3.475   1.211
    2V3OU   C15  844   2.917   3.395   1.322
    2V3OU   C13  845   3.047   3.378   1.374
    2V3OU   C14  846   3.073   3.272   1.461
    2V3OU   C16  847   2.969   3.187   1.499
    2V3OU    H6  848   2.989   3.095   1.555
    2V3OU   C12  849   3.210   3.218   1.477
    2V3OU    O2  850   3.233   3.124   1.555
    2V3OU   C10  851   3.322   3.307   1.438
    2V3OU    C8  852   3.454   3.267   1.453
    2V3OU   O10  853   3.489   3.156   1.523
    2V3OU   H26  854   3.401   3.117   1.534
    2V3OU    C6  855   3.562   3.344   1.399
    2V3OU    C5  856   3.537   3.461   1.329
    2V3OU    C4  857   3.701   3.291   1.394
    2V3OU    H4  858   3.722   3.224   1.483
    2V3OU    H5  859   3.711   3.233   1.298
    2V3OU    C2  860   3.809   3.399   1.395
    2V3OU    O6  861   3.802   3.472   1.518
    2V3OU   H21  862   3.764   3.556   1.490
    2V3OU    C3  863   3.781   3.498   1.281
    2V3OU    H2  864   3.864   3.573   1.280
    2V3OU    H3  865   3.782   3.439   1.186
    2V3OU   C25  866   3.945   3.333   1.372
    2V3OU    O7  867   3.996   3.301   1.265
    2V3OU   C26  868   4.021   3.295   1.498
    2V3OU   H22  869   4.064   3.384   1.551
    2V3OU   H23  870   4.106   3.226   1.472
    2V3OU    O8  871   3.953   3.211   1.588
    2V3OU   H24  872   3.926   3.271   1.659
    2V3OU    C1  873   3.643   3.561   1.291
    2V3OU    H1  874   3.620   3.615   1.194
    2V3OU    O3  875   3.652   3.655   1.398
    2V3OU   C19  876   3.616   3.793   1.391
    2V3OU    H9  877   3.523   3.797   1.327
    2V3OU    O4  878   3.711   3.852   1.305
    2V3OU   C20  879   3.842   3.874   1.356
    2V3OU   H10  880   3.889   3.771   1.367
    2V3OU   C24  881   3.609   3.856   1.530
    2V3OU   H16  882   3.538   3.793   1.590
    2V3OU   H17  883   3.561   3.955   1.511
    2V3OU   C23  884   3.749   3.876   1.588
    2V3OU   H15  885   3.791   3.772   1.609
    2V3OU    N1  886   3.738   3.961   1.704
    2V3OU   H19  887   3.806   3.922   1.766
    2V3OU   H20  888   3.651   3.936   1.748
    2V3OU   C21  889   3.847   3.948   1.490
    2V3OU   H11  890   3.950   3.928   1.532
    2V3OU    O5  891   3.826   4.088   1.483
    2V3OU   H18  892   3.777   4.105   1.565
    2V3OU   C22  893   3.911   3.949   1.243
    2V3OU   H12  894   3.862   4.049   1.229
    2V3OU   H13  895   3.903   3.889   1.149
    2V3OU   H14  896   4.020   3.963   1.265
    2V3OU   C11  897   3.157   3.466   1.333
    2V3OU    O1  898   3.138   3.586   1.302
    2V3OU    C9  899   3.296   3.425   1.365
    2V3OU    C7  900   3.400   3.498   1.310
    2V3OU    O9  901   3.382   3.609   1.229
    2V3OU   H25  902   3.285   3.621   1.229
    2V3OU   C17  903   2.815   3.307   1.364
    2V3OU    H7  904   2.713   3.332   1.335
    2V3OU   C18  905   2.839   3.203   1.454
    2V3OU    H8  906   2.756   3.136   1.481
    3SOL     OW  907   1.100   3.299   0.810
    3SOL    HW1  908   1.085   3.388   0.769
    3SOL    HW2  909   1.079   3.303   0.908
    4SOL     OW  910   5.856   0.872   2.229
    4SOL    HW1  911   5.817   0.920   2.308
    4SOL    HW2  912   5.891   0.939   2.164
    5SOL     OW  913   3.474   3.286   1.080
    5SOL    HW1  914   3.572   3.287   1.101
    5SOL    HW2  915   3.430   3.211   1.129
    6SOL     OW  916   2.743   2.326   0.904
    6SOL    HW1  917   2.774   2.365   0.991
    6SOL    HW2  918   2.702   2.398   0.848
    7SOL     OW  919   6.299   1.069   1.759
    7SOL    HW1  920   6.200   1.077   1.766
    7SOL    HW2  921   6.337   1.045   1.849
    8SOL     OW  922   2.520   1.497   3.992
    8SOL    HW1  923   2.554   1.562   3.925
    8SOL    HW2  924   2.592   1.432   4.016
    9SOL     OW  925   0.947   3.889   5.915
    9SOL    HW1  926   0.944   3.816   5.984
    9SOL    HW2  927   1.043   3.912   5.895
   10SOL     OW  928   0.402   4.121   0.248
   10SOL    HW1  929   0.461   4.193   0.211
   10SOL    HW2  930   0.457   4.059   0.304
   11SOL     OW  931   4.079   6.340   6.797
   11SOL    HW1  932   4.098   6.395   6.715
   11SOL    HW2  933   3.981   6.323   6.803
   12SOL     OW  934   5.480   6.140   2.616
   12SOL    HW1  935   5.446   6.077   2.547
   12SOL    HW2  936   5.492   6.231   2.577
   13SOL     OW  937   2.135   0.216   3.218
   13SOL    HW1  938   2.220   0.164   3.210
   13SOL    HW2  939   2.136   0.269   3.303
   14SOL     OW  940   2.848   6.842   1.843
   14SOL    HW1  941   2.833   6.755   1.890
   14SOL    HW2  942   2.843   6.916   1.910
   15SOL     OW  943   2.032   6.556   6.194
   15SOL    HW1  944   1.937   6.574   6.218
   15SOL    HW2  945   2.035   6.503   6.109
   16SOL     OW  946   6.683   1.423   6.272
   16SOL    HW1  947   6.621   1.349   6.245
   16SOL    HW2  948   6.709   1.475   6.190
   17SOL     OW  949   5.008   5.897   3.686
   17SOL    HW1  950   4.914   5.872   3.707
   17SOL    HW2  951   5.066   5.816   3.689
   18SOL     OW  952   1.420   1.317   0.006
   18SOL    HW1  953   1.393   1.360   0.093
   18SOL    HW2  954   1.373   1.362   6.951
   19SOL     OW  955   0.855   0.045   1.544
   19SOL    HW1  956   0.948   0.070   1.567
   19SOL    HW2  957   0.793   0.119   1.568
   20SOL     OW  958   3.182   1.050   4.465
   20SOL    HW1  959   3.206   0.954   4.452
   20SOL    HW2  960   3.243   1.108   4.410
   21SOL     OW  961   3.083   2.632   1.238
   21SOL    HW1  962   3.146   2.556   1.224
   21SOL    HW2  963   3.115   2.688   1.315
   22SOL     OW  964   1.058   1.101   5.416
   22SOL    HW1  965   1.054   1.162   5.337
   22SOL    HW2  966   0.993   1.026   5.404
   23SOL     OW  967   4.172   6.156   4.247
   23SOL    HW1  968   4.229   6.236   4.226
   23SOL    HW2  969   4.118   6.132   4.167
   24SOL     OW  970   4.140   1.194   4.722
   24SOL    HW1  971   4.216   1.232   4.669
   24SOL    HW2  972   4.168   1.108   4.764
   25SOL     OW  973   3.208   4.299   1.219
   25SOL    HW1  974   3.197   4.263   1.126
   25SOL    HW2  975   3.146   4.377   1.232
   26SOL     OW  976   5.937   1.362   2.646
   26SOL    HW1  977   5.907   1.269   2.666
   26SOL    HW2  978   5.969   1.368   2.551
   27SOL     OW  979   6.025   6.174   1.966
   27SOL    HW1  980   6.076   6.145   2.047
   27SOL    HW2  981   5.989   6.094   1.918
   28SOL     OW  982   3.286   0.631   0.629
   28SOL    HW1  983   3.235   0.711   0.597
   28SOL    HW2  984   3.365   0.616   0.570
   29SOL     OW  985   4.159   2.394   1.568
   29SOL    HW1  986   4.184   2.387   1.471
   29SOL    HW2  987   4.079   2.454   1.577
   30SOL     OW  988   3.965   1.240   4.934
   30SOL    HW1  989   4.012   1.223   5.020
   30SOL    HW2  990   4.032   1.245   4.860
   31SOL     OW  991   0.303   0.889   5.010
   31SOL    HW1  992   0.258   0.814   5.058
   31SOL    HW2  993   0.296   0.874   4.911
   32SOL     OW  994   0.024   2.332   1.700
   32SOL    HW1  995   0.065   2.423   1.704
   32SOL    HW2  996   0.093   2.265   1.672
   33SOL     OW  997   1.868   2.017   5.052
   33SOL    HW1  998   1.908   1.929   5.026
   33SOL    HW2  999   1.768   2.009   5.053
   34SOL     OW 1000   1.018   0.722   4.703
   34SOL    HW1 1001   1.110   0.682   4.706
   34SOL    HW2 1002   1.005   0.768   4.615
   35SOL     OW 1003   4.247   1.703   6.550
   35SOL    HW1 1004   4.187   1.750   6.486
   35SOL    HW2 1005   4.217   1.608   6.560
   36SOL     OW 1006   1.801   1.263   5.564
   36SOL    HW1 1007   1.799   1.362   5.580
   36SOL    HW2 1008   1.861   1.243   5.487
   37SOL     OW 1009   2.228   6.665   0.706
   37SOL    HW1 1010   2.234   6.592   0.637
   37SOL    HW2 1011   2.274   6.637   0.790
   38SOL     OW 1012   0.095   6.147   1.964
   38SOL    HW1 1013   0.079   6.189   2.053
   38SOL    HW2 1014   0.012   6.099   1.934
   39SOL     OW 1015   6.900   2.903   5.912
   39SOL    HW1 1016   6.827   2.872   5.974
   39SOL    HW2 1017   6.904   2.842   5.833
   40SOL     OW 1018   6.745   1.111   1.691
   40SOL    HW1 1019   6.820   1.099   1.756
   40SOL    HW2 1020   6.673   1.045   1.711
   41SOL     OW 1021   1.375   0.223   5.316
   41SOL    HW1 1022   1.351   0.182   5.228
   41SOL    HW2 1023   1.403   0.318   5.303
   42SOL     OW 1024   3.882   0.669   0.619
   42SOL    HW1 1025   3.792   0.668   0.661
   42SOL    HW2 1026   3.949   0.704   0.684
   43SOL     OW 1027   5.239   5.340   5.555
   43SOL    HW1 1028   5.227   5.438   5.538
   43SOL    HW2 1029   5.309   5.304   5.493
   44SOL     OW 1030   0.763   3.380   6.608
   44SOL    HW1 1031   0.833   3.378   6.537
   44SOL    HW2 1032   0.675   3.351   6.569
   45SOL     OW 1033   2.794   0.675   1.577
   45SOL    HW1 1034   2.753   0.587   1.602
   45SOL    HW2 1035   2.796   0.684   1.477
   46SOL     OW 1036   1.186   4.607   3.744
   46SOL    HW1 1037   1.158   4.569   3.833
   46SOL    HW2 1038   1.236   4.692   3.759
   47SOL     OW 1039   6.094   4.420   3.039
   47SOL    HW1 1040   6.052   4.365   3.110
   47SOL    HW2 1041   6.175   4.372   3.004
   48SOL     OW 1042   0.921   1.720   5.474
   48SOL    HW1 1043   0.828   1.735   5.504
   48SOL    HW2 1044   0.925   1.724   5.374
   49SOL     OW 1045   5.535   2.551   0.675
   49SOL    HW1 1046   5.527   2.532   0.773
   49SOL    HW2 1047   5.622   2.597   0.656
   50SOL     OW 1048   6.888   3.987   4.644
   50SOL    HW1 1049   6.983   4.018   4.656
   50SOL    HW2 1050   6.886   3.913   4.578
   51SOL     OW 1051   3.045   5.607   2.530
   51SOL    HW1 1052   2.989   5.524   2.530
   51SOL    HW2 1053   3.037   5.653   2.442
   52SOL     OW 1054   1.049   2.168   1.504
   52SOL    HW1 1055   1.022   2.137   1.595
   52SOL    HW2 1056   1.020   2.101   1.436
   53SOL     OW 1057   4.669   6.603   3.985
   53SOL    HW1 1058   4.755   6.555   3.970
   53SOL    HW2 1059   4.673   6.694   3.943
   54SOL     OW 1060   4.244   5.996   6.260
   54SOL    HW1 1061   4.320   6.043   6.215
   54SOL    HW2 1062   4.247   5.898   6.236
   55SOL     OW 1063   3.845   2.394   0.275
   55SOL    HW1 1064   3.836   2.462   0.201
   55SOL    HW2 1065   3.925   2.416   0.330
   56SOL     OW 1066   0.775   6.821   1.700
   56SOL    HW1 1067   0.732   6.768   1.627
   56SOL    HW2 1068   0.799   6.912   1.665
   57SOL     OW 1069   5.753   0.628   0.719
   57SOL    HW1 1070   5.756   0.535   0.754
   57SOL    HW2 1071   5.831   0.644   0.658
   58SOL     OW 1072   0.207   6.655   6.830
   58SOL    HW1 1073   0.195   6.693   6.922
   58SOL    HW2 1074   0.150   6.707   6.766
   59SOL     OW 1075   0.796   0.076   4.575
   59SOL    HW1 1076   0.704   0.068   4.613
   59SOL    HW2 1077   0.791   0.108   4.480
   60SOL     OW 1078   4.692   6.663   5.200
   60SOL    HW1 1079   4.656   6.689   5.289
   60SOL    HW2 1080   4.791   6.650   5.206
   61SOL     OW 1081   3.778   0.546   5.254
   61SOL    HW1 1082   3.831   0.542   5.339
   61SOL    HW2 1083   3.836   0.578   5.179
   62SOL     OW 1084   2.785   1.431   4.752
   62SOL    HW1 1085   2.773   1.438   4.851
   62SOL    HW2 1086   2.710   1.480   4.706
   63SOL     OW 1087   6.779   3.379   3.225
   63SOL    HW1 1088   6.820   3.289   3.240
   63SOL    HW2 1089   6.738   3.383   3.134
   64SOL     OW 1090   6.770   2.443   5.664
   64SOL    HW1 1091   6.769   2.346   5.638
   64SOL    HW2 1092   6.731   2.454   5.755
   65SOL     OW 1093   6.945   3.873   5.884
   65SOL    HW1 1094   6.987   3.963   5.874
   65SOL    HW2 1095   6.848   3.879   5.863
   66SOL     OW 1096   2.412   1.374   0.963
   66SOL    HW1 1097   2.499   1.352   1.007
   66SOL    HW2 1098   2.415   1.468   0.929
   67SOL     OW 1099   4.868   5.954   4.284
   67SOL    HW1 1100   4.927   6.023   4.243
   67SOL    HW2 1101   4.789   5.998   4.326
   68SOL     OW 1102   5.294   2.842   6.070
   68SOL    HW1 1103   5.230   2.778   6.028
   68SOL    HW2 1104   5.299   2.925   6.014
   69SOL     OW 1105   2.374   3.091   5.856
   69SOL    HW1 1106   2.434   3.123   5.930
   69SOL    HW2 1107   2.280   3.121   5.875
   70SOL     OW 1108   6.745   5.369   1.901
   70SOL    HW1 1109   6.810   5.369   1.977
   70SOL    HW2 1110   6.750   5.280   1.854
   71SOL     OW 1111   1.874   2.800   2.996
   71SOL    HW1 1112   1.958   2.754   2.965
   71SOL    HW2 1113   1.896   2.865   3.068
   72SOL     OW 1114   2.919   5.563   4.198
   72SOL    HW1 1115   2.984   5.511   4.142
   72SOL    HW2 1116   2.860   5.618   4.138
   73SOL     OW 1117   4.274   2.556   6.837
   73SOL    HW1 1118   4.319   2.515   6.916
   73SOL    HW2 1119   4.182   2.586   6.863
   74SOL     OW 1120   4.975   5.821   6.029
   74SOL    HW1 1121   4.990   5.726   6.056
   74SOL    HW2 1122   4.943   5.874   6.108
   75SOL     OW 1123   3.908   5.047   5.359
   75SOL    HW1 1124   3.965   5.128   5.344
   75SOL    HW2 1125   3.910   4.989   5.278
   76SOL     OW 1126   2.499   3.047   1.322
   76SOL    HW1 1127   2.407   3.085   1.331
   76SOL    HW2 1128   2.548   3.096   1.249
   77SOL     OW 1129   5.541   4.592   6.286
   77SOL    HW1 1130   5.638   4.615   6.294
   77SOL    HW2 1131   5.499   4.652   6.217
   78SOL     OW 1132   6.483   6.643   6.295
   78SOL    HW1 1133   6.455   6.626   6.201
   78SOL    HW2 1134   6.407   6.621   6.357
   79SOL     OW 1135   3.113   0.041   0.044
   79SOL    HW1 1136   3.194   0.100   0.045
   79SOL    HW2 1137   3.046   0.077   6.998
   80SOL     OW 1138   0.389   1.345   4.049
   80SOL    HW1 1139   0.320   1.414   4.070
   80SOL    HW2 1140   0.352   1.279   3.983
   81SOL     OW 1141   1.552   0.287   3.717
   81SOL    HW1 1142   1.520   0.197   3.688
   81SOL    HW2 1143   1.612   0.325   3.646
   82SOL     OW 1144   0.040   4.554   5.551
   82SOL    HW1 1145   6.968   4.531   5.582
   82SOL    HW2 1146   0.071   4.637   5.598
   83SOL     OW 1147   6.680   6.988   6.905
   83SOL    HW1 1148   6.724   6.925   6.969
   83SOL    HW2 1149   6.582   6.968   6.901
   84SOL     OW 1150   6.238   3.507   1.729
   84SOL    HW1 1151   6.189   3.587   1.696
   84SOL    HW2 1152   6.262   3.448   1.652
   85SOL     OW 1153   0.271   2.605   5.434
   85SOL    HW1 1154   0.238   2.510   5.437
   85SOL    HW2 1155   0.346   2.616   5.498
   86SOL     OW 1156   1.185   1.166   5.022
   86SOL    HW1 1157   1.202   1.141   5.117
   86SOL    HW2 1158   1.202   1.263   5.009
   87SOL     OW 1159   4.197   0.608   1.788
   87SOL    HW1 1160   4.165   0.559   1.707
   87SOL    HW2 1161   4.279   0.660   1.766
   88SOL     OW 1162   5.042   0.400   0.773
   88SOL    HW1 1163   5.071   0.305   0.776
   88SOL    HW2 1164   4.972   0.416   0.843
   89SOL     OW 1165   2.078   1.913   5.910
   89SOL    HW1 1166   2.043   1.838   5.966
   89SOL    HW2 1167   2.144   1.876   5.844
   90SOL     OW 1168   6.727   6.182   3.623
   90SOL    HW1 1169   6.822   6.153   3.637
   90SOL    HW2 1170   6.674   6.104   3.590
   91SOL     OW 1171   4.846   4.668   4.747
   91SOL    HW1 1172   4.822   4.605   4.821
   91SOL    HW2 1173   4.762   4.699   4.701
   92SOL     OW 1174   2.654   6.425   0.900
   92SOL    HW1 1175   2.572   6.370   0.890
   92SOL    HW2 1176   2.632   6.521   0.882
   93SOL     OW 1177   3.313   5.190   5.617
   93SOL    HW1 1178   3.361   5.263   5.568
   93SOL    HW2 1179   3.378   5.118   5.642
   94SOL     OW 1180   2.202   5.809   0.868
   94SOL    HW1 1181   2.298   5.794   0.843
   94SOL    HW2 1182   2.197   5.851   0.958
   95SOL     OW 1183   6.410   0.300   4.856
   95SOL    HW1 1184   6.395   0.338   4.764
   95SOL    HW2 1185   6.341   0.336   4.919
   96SOL     OW 1186   1.311   6.955   4.781
   96SOL    HW1 1187   1.220   6.914   4.789
   96SOL    HW2 1188   1.365   6.931   4.862
   97SOL     OW 1189   6.044   2.415   5.303
   97SOL    HW1 1190   5.976   2.479   5.339
   97SOL    HW2 1191   6.035   2.410   5.203
   98SOL     OW 1192   5.664   2.355   6.060
   98SOL    HW1 1193   5.742   2.417   6.048
   98SOL    HW2 1194   5.652   2.336   6.157
   99SOL     OW 1195   4.481   2.214   1.166
   99SOL    HW1 1196   4.549   2.188   1.096
   99SOL    HW2 1197   4.434   2.132   1.198
  100SOL     OW 1198   6.121   4.931   6.508
  100SOL    HW1 1199   6.184   4.875   6.563
  100SOL    HW2 1200   6.165   5.018   6.485
  101SOL     OW 1201   1.186   6.406   3.976
  101SOL    HW1 1202   1.196   6.490   3.923
  101SOL    HW2 1203   1.090   6.378   3.977
  102SOL     OW 1204   5.097   0.003   3.075
  102SOL    HW1 1205   5.083   0.065   2.999
  102SOL    HW2 1206   5.065   6.931   3.050
  103SOL     OW 1207   3.871   2.023   1.663
  103SOL    HW1 1208   3.969   2.025   1.644
  103SOL    HW2 1209   3.828   2.107   1.628
  104SOL     OW 1210   0.053   5.863   1.686
  104SOL    HW1 1211   6.982   5.904   1.673
  104SOL    HW2 1212   0.122   5.924   1.647
  105SOL     OW 1213   5.092   1.457   5.253
  105SOL    HW1 1214   5.169   1.415   5.205
  105SOL    HW2 1215   5.087   1.422   5.346
  106SOL     OW 1216   3.664   6.476   0.220
  106SOL    HW1 1217   3.585   6.416   0.208
  106SOL    HW2 1218   3.746   6.429   0.185
  107SOL     OW 1219   2.303   3.247   1.378
  107SOL    HW1 1220   2.275   3.257   1.473
  107SOL    HW2 1221   2.366   3.320   1.354
  108SOL     OW 1222   5.233   4.369   5.199
  108SOL    HW1 1223   5.157   4.346   5.259
  108SOL    HW2 1224   5.216   4.334   5.107
  109SOL     OW 1225   6.701   0.991   1.438
  109SOL    HW1 1226   6.619   0.962   1.487
  109SOL    HW2 1227   6.677   1.010   1.343
  110SOL     OW 1228   3.524   5.816   5.304
  110SOL    HW1 1229   3.605   5.828   5.361
  110SOL    HW2 1230   3.480   5.904   5.290
  111SOL     OW 1231   3.767   1.005   3.094
  111SOL    HW1 1232   3.696   1.027   3.161
  111SOL    HW2 1233   3.857   1.021   3.135
  112SOL     OW 1234   0.324   0.727   6.047
  112SOL    HW1 1235   0.351   0.822   6.062
  112SOL    HW2 1236   0.369   0.669   6.115
  113SOL     OW 1237   0.126   5.691   3.886
  113SOL    HW1 1238   0.199   5.709   3.952
  113SOL    HW2 1239   0.137   5.752   3.807
  114SOL     OW 1240   0.465   6.696   6.864
  114SOL    HW1 1241   0.368   6.678   6.849
  114SOL    HW2 1242   0.478   6.793   6.883
  115SOL     OW 1243   5.203   1.087   5.101
  115SOL    HW1 1244   5.139   1.029   5.052
  115SOL    HW2 1245   5.273   1.030   5.145
  116SOL     OW 1246   6.343   4.655   2.569
  116SOL    HW1 1247   6.367   4.669   2.665
  116SOL    HW2 1248   6.417   4.690   2.511
  117SOL     OW 1249   1.253   6.784   6.404
  117SOL    HW1 1250   1.296   6.732   6.478
  117SOL    HW2 1251   1.202   6.722   6.345
  118SOL     OW 1252   1.645   0.581   2.169
  118SOL    HW1 1253   1.734   0.539   2.187
  118SOL    HW2 1254   1.636   0.598   2.071
  119SOL     OW 1255   6.701   2.595   6.457
  119SOL    HW1 1256   6.766   2.653   6.507
  119SOL    HW2 1257   6.636   2.653   6.407
  120SOL     OW 1258   5.640   6.477   1.300
  120SOL    HW1 1259   5.673   6.500   1.208
  120SOL    HW2 1260   5.718   6.465   1.361
  121SOL     OW 1261   2.789   3.364   5.877
  121SOL    HW1 1262   2.883   3.398   5.879
  121SOL    HW2 1263   2.756   3.353   5.971
  122SOL     OW 1264   0.462   3.422   4.504
  122SOL    HW1 1265   0.466   3.513   4.464
  122SOL    HW2 1266   0.429   3.428   4.598
  123SOL     OW 1267   1.147   1.858   1.439
  123SOL    HW1 1268   1.123   1.816   1.351
  123SOL    HW2 1269   1.078   1.833   1.507
  124SOL     OW 1270   4.951   2.839   0.941
  124SOL    HW1 1271   4.913   2.908   0.879
  124SOL    HW2 1272   4.877   2.801   0.997
  125SOL     OW 1273   2.041   3.336   1.811
  125SOL    HW1 1274   2.023   3.366   1.717
  125SOL    HW2 1275   2.110   3.395   1.852
  126SOL     OW 1276   3.173   4.549   1.351
  126SOL    HW1 1277   3.169   4.491   1.432
  126SOL    HW2 1278   3.246   4.617   1.363
  127SOL     OW 1279   0.768   5.841   5.967
  127SOL    HW1 1280   0.782   5.744   5.945
  127SOL    HW2 1281   0.739   5.890   5.885
  128SOL     OW 1282   4.670   2.207   1.751
  128SOL    HW1 1283   4.705   2.247   1.666
  128SOL    HW2 1284   4.593   2.261   1.785
  129SOL     OW 1285   2.634   3.448   6.414
  129SOL    HW1 1286   2.565   3.454   6.485
  129SOL    HW2 1287   2.725   3.444   6.456
  130SOL     OW 1288   1.226   2.228   4.600
  130SOL    HW1 1289   1.165   2.297   4.639
  130SOL    HW2 1290   1.315   2.270   4.580
  131SOL     OW 1291   5.271   1.978   2.498
  131SOL    HW1 1292   5.238   2.058   2.447
  131SOL    HW2 1293   5.202   1.951   2.565
  132SOL     OW 1294   0.386   2.449   0.867
  132SOL    HW1 1295   0.398   2.471   0.770
  132SOL    HW2 1296   0.371   2.533   0.919
  133SOL     OW 1297   6.271   5.244   2.268
  133SOL    HW1 1298   6.358   5.280   2.233
  133SOL    HW2 1299   6.228   5.187   2.198
  134SOL     OW 1300   0.479   3.463   2.937
  134SOL    HW1 1301   0.393   3.460   2.886
  134SOL    HW2 1302   0.459   3.462   3.035
  135SOL     OW 1303   4.753   1.524   4.102
  135SOL    HW1 1304   4.804   1.463   4.041
  135SOL    HW2 1305   4.759   1.618   4.069
  136SOL     OW 1306   5.693   4.555   5.655
  136SOL    HW1 1307   5.601   4.594   5.645
  136SOL    HW2 1308   5.747   4.614   5.715
  137SOL     OW 1309   3.864   0.219   5.861
  137SOL    HW1 1310   3.950   0.229   5.810
  137SOL    HW2 1311   3.806   0.152   5.815
  138SOL     OW 1312   6.622   4.987   4.850
  138SOL    HW1 1313   6.579   4.967   4.762
  138SOL    HW2 1314   6.619   4.905   4.908
  139SOL     OW 1315   3.785   5.480   5.330
  139SOL    HW1 1316   3.726   5.494   5.250
  139SOL    HW2 1317   3.743   5.412   5.391
  140SOL     OW 1318   6.127   3.916   4.945
  140SOL    HW1 1319   6.129   3.861   5.029
  140SOL    HW2 1320   6.189   3.993   4.954
  141SOL     OW 1321   1.080   2.136   3.613
  141SOL    HW1 1322   1.046   2.127   3.519
  141SOL    HW2 1323   1.147   2.063   3.631
  142SOL     OW 1324   1.626   5.706   1.305
  142SOL    HW1 1325   1.664   5.693   1.396
  142SOL    HW2 1326   1.685   5.766   1.252
  143SOL     OW 1327   5.570   3.941   1.471
  143SOL    HW1 1328   5.610   3.954   1.562
  143SOL    HW2 1329   5.512   3.859   1.471
  144SOL     OW 1330   2.695   6.642   0.528
  144SOL    HW1 1331   2.792   6.657   0.511
  144SOL    HW2 1332   2.661   6.710   0.593
  145SOL     OW 1333   6.874   5.684   0.482
  145SOL    HW1 1334   6.896   5.706   0.386
  145SOL    HW2 1335   6.808   5.751   0.517
  146SOL     OW 1336   6.101   4.783   0.889
  146SOL    HW1 1337   6.177   4.846   0.872
  146SOL    HW2 1338   6.018   4.817   0.845
  147SOL     OW 1339   5.957   2.286   1.053
  147SOL    HW1 1340   5.859   2.288   1.033
  147SOL    HW2 1341   5.986   2.191   1.067
  148SOL     OW 1342   1.273   5.142   5.720
  148SOL    HW1 1343   1.356   5.140   5.776
  148SOL    HW2 1344   1.253   5.049   5.687
  149SOL     OW 1345   3.121   1.172   6.111
  149SOL    HW1 1346   3.098   1.138   6.202
  149SOL    HW2 1347   3.207   1.131   6.081
  150SOL     OW 1348   0.320   5.795   5.904
  150SOL    HW1 1349   0.264   5.779   5.986
  150SOL    HW2 1350   0.371   5.712   5.882
  151SOL     OW 1351   4.072   1.443   1.660
  151SOL    HW1 1352   4.068   1.537   1.694
  151SOL    HW2 1353   4.024   1.382   1.723
  152SOL     OW 1354   3.586   0.923   4.649
  152SOL    HW1 1355   3.616   0.958   4.560
  152SOL    HW2 1356   3.490   0.947   4.662
  153SOL     OW 1357   1.607   0.878   3.118
  153SOL    HW1 1358   1.696   0.835   3.133
  153SOL    HW2 1359   1.537   0.827   3.168
  154SOL     OW 1360   6.739   2.144   2.672
  154SOL    HW1 1361   6.812   2.208   2.648
  154SOL    HW2 1362   6.778   2.054   2.694
  155SOL     OW 1363   0.358   0.655   2.885
  155SOL    HW1 1364   0.429   0.726   2.888
  155SOL    HW2 1365   0.320   0.643   2.977
  156SOL     OW 1366   6.686   2.059   0.926
  156SOL    HW1 1367   6.626   2.078   1.004
  156SOL    HW2 1368   6.776   2.032   0.959
  157SOL     OW 1369   5.784   3.731   2.505
  157SOL    HW1 1370   5.836   3.681   2.574
  157SOL    HW2 1371   5.686   3.724   2.525
  158SOL     OW 1372   1.290   1.805   3.328
  158SOL    HW1 1373   1.235   1.825   3.409
  158SOL    HW2 1374   1.285   1.707   3.308
  159SOL     OW 1375   5.045   3.678   2.028
  159SOL    HW1 1376   5.129   3.625   2.013
  159SOL    HW2 1377   4.969   3.635   1.979
  160SOL     OW 1378   6.869   4.232   5.960
  160SOL    HW1 1379   6.953   4.199   5.917
  160SOL    HW2 1380   6.882   4.326   5.991
  161SOL     OW 1381   3.467   4.757   5.212
  161SOL    HW1 1382   3.431   4.776   5.121
  161SOL    HW2 1383   3.471   4.842   5.264
  162SOL     OW 1384   4.415   6.162   1.811
  162SOL    HW1 1385   4.316   6.148   1.809
  162SOL    HW2 1386   4.453   6.144   1.720
  163SOL     OW 1387   5.148   0.742   2.231
  163SOL    HW1 1388   5.126   0.649   2.262
  163SOL    HW2 1389   5.240   0.744   2.192
  164SOL     OW 1390   6.389   3.332   1.263
  164SOL    HW1 1391   6.357   3.249   1.218
  164SOL    HW2 1392   6.394   3.406   1.196
  165SOL     OW 1393   5.434   4.008   6.692
  165SOL    HW1 1394   5.368   4.025   6.765
  165SOL    HW2 1395   5.391   3.954   6.619
  166SOL     OW 1396   1.269   0.737   1.641
  166SOL    HW1 1397   1.245   0.733   1.543
  166SOL    HW2 1398   1.185   0.733   1.695
  167SOL     OW 1399   6.657   3.124   0.371
  167SOL    HW1 1400   6.653   3.162   0.279
  167SOL    HW2 1401   6.710   3.186   0.430
  168SOL     OW 1402   2.188   5.533   1.327
  168SOL    HW1 1403   2.093   5.533   1.295
  168SOL    HW2 1404   2.227   5.441   1.315
  169SOL     OW 1405   1.031   0.080   1.265
  169SOL    HW1 1406   1.040   7.008   1.303
  169SOL    HW2 1407   1.117   0.130   1.279
  170SOL     OW 1408   0.328   1.649   3.133
  170SOL    HW1 1409   0.303   1.690   3.046
  170SOL    HW2 1410   0.325   1.549   3.125
  171SOL     OW 1411   3.515   3.367   0.045
  171SOL    HW1 1412   3.515   3.412   6.975
  171SOL    HW2 1413   3.491   3.271   0.035
  172SOL     OW 1414   0.304   2.873   6.985
  172SOL    HW1 1415   0.294   2.872   0.065
  172SOL    HW2 1416   0.215   2.888   6.942
  173SOL     OW 1417   0.412   6.238   5.663
  173SOL    HW1 1418   0.315   6.228   5.682
  173SOL    HW2 1419   0.430   6.218   5.566
  174SOL     OW 1420   3.018   5.577   3.904
  174SOL    HW1 1421   3.091   5.565   3.971
  174SOL    HW2 1422   2.998   5.489   3.860
  175SOL     OW 1423   0.804   5.441   2.956
  175SOL    HW1 1424   0.762   5.517   3.006
  175SOL    HW2 1425   0.785   5.451   2.859
  176SOL     OW 1426   2.782   5.361   1.232
  176SOL    HW1 1427   2.776   5.441   1.173
  176SOL    HW2 1428   2.691   5.338   1.268
  177SOL     OW 1429   4.542   1.939   2.526
  177SOL    HW1 1430   4.603   1.891   2.589
  177SOL    HW2 1431   4.594   2.008   2.476
  178SOL     OW 1432   5.827   4.359   6.421
  178SOL    HW1 1433   5.826   4.458   6.410
  178SOL    HW2 1434   5.812   4.315   6.332
  179SOL     OW 1435   3.083   0.233   1.038
  179SOL    HW1 1436   3.045   0.263   0.951
  179SOL    HW2 1437   3.010   0.203   1.098
  180SOL     OW 1438   1.122   2.303   6.650
  180SOL    HW1 1439   1.122   2.399   6.678
  180SOL    HW2 1440   1.211   2.262   6.669
  181SOL     OW 1441   3.261   2.780   5.329
  181SOL    HW1 1442   3.268   2.680   5.327
  181SOL    HW2 1443   3.331   2.820   5.270
  182SOL     OW 1444   4.751   2.945   4.856
  182SOL    HW1 1445   4.821   3.011   4.882
  182SOL    HW2 1446   4.712   2.903   4.938
  183SOL     OW 1447   5.505   1.458   2.240
  183SOL    HW1 1448   5.476   1.549   2.271
  183SOL    HW2 1449   5.569   1.419   2.306
  184SOL     OW 1450   0.287   4.680   3.252
  184SOL    HW1 1451   0.208   4.642   3.204
  184SOL    HW2 1452   0.302   4.629   3.337
  185SOL     OW 1453   2.744   3.238   6.860
  185SOL    HW1 1454   2.680   3.162   6.846
  185SOL    HW2 1455   2.717   3.289   6.941
  186SOL     OW 1456   5.986   6.432   3.138
  186SOL    HW1 1457   5.982   6.530   3.118
  186SOL    HW2 1458   6.073   6.395   3.106
  187SOL     OW 1459   5.382   1.096   3.757
  187SOL    HW1 1460   5.459   1.143   3.800
  187SOL    HW2 1461   5.327   1.162   3.706
  188SOL     OW 1462   6.353   2.619   3.861
  188SOL    HW1 1463   6.335   2.650   3.768
  188SOL    HW2 1464   6.319   2.526   3.873
  189SOL     OW 1465   2.168   4.040   2.857
  189SOL    HW1 1466   2.088   3.985   2.882
  189SOL    HW2 1467   2.188   4.029   2.760
  190SOL     OW 1468   3.271   1.132   6.610
  190SOL    HW1 1469   3.298   1.065   6.678
  190SOL    HW2 1470   3.341   1.136   6.538
  191SOL     OW 1471   4.653   5.856   5.524
  191SOL    HW1 1472   4.651   5.956   5.530
  191SOL    HW2 1473   4.709   5.828   5.446
  192SOL     OW 1474   0.022   0.462   1.215
  192SOL    HW1 1475   0.006   0.513   1.131
  192SOL    HW2 1476   6.966   0.476   1.278
  193SOL     OW 1477   5.689   4.376   6.654
  193SOL    HW1 1478   5.740   4.364   6.569
  193SOL    HW2 1479   5.732   4.321   6.726
  194SOL     OW 1480   3.982   0.238   4.306
  194SOL    HW1 1481   3.901   0.297   4.302
  194SOL    HW2 1482   4.063   0.293   4.326
  195SOL     OW 1483   6.985   5.672   3.472
  195SOL    HW1 1484   0.052   5.623   3.484
  195SOL    HW2 1485   7.000   5.752   3.415
  196SOL     OW 1486   0.800   1.400   0.926
  196SOL    HW1 1487   0.866   1.408   1.001
  196SOL    HW2 1488   0.781   1.303   0.909
  197SOL     OW 1489   1.846   1.104   0.780
  197SOL    HW1 1490   1.755   1.085   0.816
  197SOL    HW2 1491   1.912   1.104   0.855
  198SOL     OW 1492   2.487   1.423   3.671
  198SOL    HW1 1493   2.529   1.456   3.755
  198SOL    HW2 1494   2.395   1.389   3.690
  199SOL     OW 1495   0.779   1.783   4.250
  199SOL    HW1 1496   0.865   1.783   4.199
  199SOL    HW2 1497   0.737   1.873   4.245
  200SOL     OW 1498   7.006   2.846   0.123
  200SOL    HW1 1499   6.970   2.924   0.073
  200SOL    HW2 1500   0.023   2.877   0.211
  201SOL     OW 1501   0.873   0.823   6.194
  201SOL    HW1 1502   0.868   0.823   6.294
  201SOL    HW2 1503   0.820   0.900   6.158
  202SOL     OW 1504   4.752   6.742   0.591
  202SOL    HW1 1505   4.845   6.722   0.561
  202SOL    HW2 1506   4.707   6.800   0.524
  203SOL     OW 1507   6.297   2.831   6.736
  203SOL    HW1 1508   6.210   2.781   6.743
  203SOL    HW2 1509   6.370   2.768   6.708
  204SOL     OW 1510   6.212   1.015   4.837
  204SOL    HW1 1511   6.301   0.979   4.810
  204SOL    HW2 1512   6.189   0.982   4.929
  205SOL     OW 1513   2.021   3.404   2.963
  205SOL    HW1 1514   2.047   3.426   3.057
  205SOL    HW2 1515   2.087   3.445   2.900
  206SOL     OW 1516   0.590   3.355   0.265
  206SOL    HW1 1517   0.501   3.319   0.235
  206SOL    HW2 1518   0.585   3.380   0.362
  207SOL     OW 1519   6.114   2.811   4.727
  207SOL    HW1 1520   6.022   2.772   4.725
  207SOL    HW2 1521   6.153   2.800   4.818
  208SOL     OW 1522   1.324   3.879   4.649
  208SOL    HW1 1523   1.371   3.933   4.719
  208SOL    HW2 1524   1.276   3.803   4.692
  209SOL     OW 1525   6.590   4.191   2.882
  209SOL    HW1 1526   6.601   4.107   2.937
  209SOL    HW2 1527   6.672   4.207   2.829
  210SOL     OW 1528   4.528   3.000   0.307
  210SOL    HW1 1529   4.456   2.995   0.237
  210SOL    HW2 1530   4.594   3.071   0.281
  211SOL     OW 1531   0.404   1.482   2.473
  211SOL    HW1 1532   0.352   1.396   2.474
  211SOL    HW2 1533   0.497   1.465   2.441
  212SOL     OW 1534   2.152   3.914   2.305
  212SOL    HW1 1535   2.179   3.989   2.245
  212SOL    HW2 1536   2.155   3.828   2.255
  213SOL     OW 1537   0.740   4.973   1.664
  213SOL    HW1 1538   0.733   4.894   1.725
  213SOL    HW2 1539   0.837   4.993   1.647
  214SOL     OW 1540   5.170   5.831   1.529
  214SOL    HW1 1541   5.117   5.870   1.604
  214SOL    HW2 1542   5.187   5.734   1.547
  215SOL     OW 1543   2.762   5.867   3.145
  215SOL    HW1 1544   2.711   5.785   3.169
  215SOL    HW2 1545   2.856   5.858   3.179
  216SOL     OW 1546   1.005   6.569   2.746
  216SOL    HW1 1547   0.956   6.523   2.672
  216SOL    HW2 1548   1.027   6.662   2.719
  217SOL     OW 1549   1.073   4.525   5.662
  217SOL    HW1 1550   1.089   4.426   5.653
  217SOL    HW2 1551   1.046   4.562   5.573
  218SOL     OW 1552   2.005   1.780   5.048
  218SOL    HW1 1553   2.062   1.701   5.027
  218SOL    HW2 1554   2.010   1.800   5.146
  219SOL     OW 1555   4.238   1.826   1.079
  219SOL    HW1 1556   4.163   1.799   1.139
  219SOL    HW2 1557   4.201   1.869   0.997
  220SOL     OW 1558   3.006   6.634   0.952
  220SOL    HW1 1559   3.011   6.595   1.044
  220SOL    HW2 1560   3.019   6.733   0.957
  221SOL     OW 1561   5.333   5.016   1.897
  221SOL    HW1 1562   5.285   4.936   1.860
  221SOL    HW2 1563   5.378   4.992   1.983
  222SOL     OW 1564   2.361   4.965   6.508
  222SOL    HW1 1565   2.297   5.018   6.453
  222SOL    HW2 1566   2.324   4.952   6.600
  223SOL     OW 1567   5.905   2.337   5.682
  223SOL    HW1 1568   5.843   2.277   5.732
  223SOL    HW2 1569   5.859   2.371   5.600
  224SOL     OW 1570   2.279   1.344   6.392
  224SOL    HW1 1571   2.366   1.295   6.392
  224SOL    HW2 1572   2.224   1.315   6.471
  225SOL     OW 1573   4.260   6.513   5.789
  225SOL    HW1 1574   4.176   6.474   5.825
  225SOL    HW2 1575   4.244   6.550   5.697
  226SOL     OW 1576   1.283   2.577   6.651
  226SOL    HW1 1577   1.290   2.597   6.749
  226SOL    HW2 1578   1.202   2.623   6.614
  227SOL     OW 1579   1.785   3.743   1.384
  227SOL    HW1 1580   1.787   3.809   1.309
  227SOL    HW2 1581   1.878   3.716   1.407
  228SOL     OW 1582   1.349   0.217   2.367
  228SOL    HW1 1583   1.418   0.190   2.434
  228SOL    HW2 1584   1.361   0.314   2.345
  229SOL     OW 1585   3.733   6.495   6.052
  229SOL    HW1 1586   3.733   6.396   6.040
  229SOL    HW2 1587   3.639   6.527   6.063
  230SOL     OW 1588   5.507   5.520   5.672
  230SOL    HW1 1589   5.514   5.422   5.650
  230SOL    HW2 1590   5.475   5.531   5.766
  231SOL     OW 1591   5.395   2.000   6.520
  231SOL    HW1 1592   5.386   1.905   6.491
  231SOL    HW2 1593   5.361   2.010   6.614
  232SOL     OW 1594   1.494   1.760   5.663
  232SOL    HW1 1595   1.435   1.704   5.606
  232SOL    HW2 1596   1.569   1.703   5.698
  233SOL     OW 1597   3.358   1.712   3.055
  233SOL    HW1 1598   3.305   1.630   3.034
  233SOL    HW2 1599   3.408   1.741   2.974
  234SOL     OW 1600   4.556   0.517   0.295
  234SOL    HW1 1601   4.482   0.565   0.246
  234SOL    HW2 1602   4.555   0.420   0.269
  235SOL     OW 1603   4.781   2.870   3.076
  235SOL    HW1 1604   4.779   2.969   3.065
  235SOL    HW2 1605   4.756   2.846   3.170
  236SOL     OW 1606   4.064   5.238   6.028
  236SOL    HW1 1607   4.121   5.287   5.961
  236SOL    HW2 1608   4.091   5.142   6.028
  237SOL     OW 1609   6.044   3.267   3.003
  237SOL    HW1 1610   6.109   3.340   2.982
  237SOL    HW2 1611   6.077   3.214   3.080
  238SOL     OW 1612   6.628   1.831   0.743
  238SOL    HW1 1613   6.679   1.906   0.783
  238SOL    HW2 1614   6.533   1.859   0.727
  239SOL     OW 1615   1.178   3.331   0.254
  239SOL    HW1 1616   1.217   3.367   0.169
  239SOL    HW2 1617   1.230   3.366   0.331
  240SOL     OW 1618   5.154   3.511   3.100
  240SOL    HW1 1619   5.182   3.417   3.120
  240SOL    HW2 1620   5.140   3.561   3.186
  241SOL     OW 1621   2.846   2.280   4.142
  241SOL    HW1 1622   2.791   2.318   4.218
  241SOL    HW2 1623   2.787   2.223   4.085
  242SOL     OW 1624   3.579   3.637   2.532
  242SOL    HW1 1625   3.500   3.579   2.553
  242SOL    HW2 1626   3.662   3.597   2.571
  243SOL     OW 1627   4.057   2.621   5.893
  243SOL    HW1 1628   4.041   2.663   5.982
  243SOL    HW2 1629   4.133   2.557   5.899
  244SOL     OW 1630   4.778   3.472   5.392
  244SOL    HW1 1631   4.843   3.526   5.445
  244SOL    HW2 1632   4.756   3.521   5.307
  245SOL     OW 1633   4.081   1.378   3.077
  245SOL    HW1 1634   4.084   1.456   3.140
  245SOL    HW2 1635   4.037   1.407   2.992
  246SOL     OW 1636   6.163   1.305   2.091
  246SOL    HW1 1637   6.210   1.298   2.003
  246SOL    HW2 1638   6.188   1.391   2.135
  247SOL     OW 1639   1.308   1.429   1.449
  247SOL    HW1 1640   1.371   1.436   1.371
  247SOL    HW2 1641   1.281   1.520   1.479
  248SOL     OW 1642   2.182   2.718   2.016
  248SOL    HW1 1643   2.248   2.655   1.975
  248SOL    HW2 1644   2.192   2.808   1.975
  249SOL     OW 1645   4.904   6.107   5.206
  249SOL    HW1 1646   4.972   6.146   5.268
  249SOL    HW2 1647   4.936   6.113   5.112
  250SOL     OW 1648   4.016   2.577   0.825
  250SOL    HW1 1649   4.098   2.552   0.876
  250SOL    HW2 1650   3.993   2.673   0.843
  251SOL     OW 1651   4.013   4.018   5.525
  251SOL    HW1 1652   4.000   3.925   5.558
  251SOL    HW2 1653   3.925   4.065   5.523
  252SOL     OW 1654   6.265   6.298   5.279
  252SOL    HW1 1655   6.270   6.251   5.367
  252SOL    HW2 1656   6.297   6.236   5.207
  253SOL     OW 1657   3.943   6.443   6.265
  253SOL    HW1 1658   3.907   6.503   6.336
  253SOL    HW2 1659   3.893   6.458   6.179
  254SOL     OW 1660   5.505   2.689   5.339
  254SOL    HW1 1661   5.562   2.747   5.397
  254SOL    HW2 1662   5.448   2.630   5.396
  255SOL     OW 1663   1.766   4.289   6.231
  255SOL    HW1 1664   1.844   4.249   6.183
  255SOL    HW2 1665   1.695   4.315   6.166
  256SOL     OW 1666   5.139   2.136   5.353
  256SOL    HW1 1667   5.184   2.221   5.326
  256SOL    HW2 1668   5.046   2.155   5.383
  257SOL     OW 1669   4.918   6.760   2.605
  257SOL    HW1 1670   4.997   6.760   2.666
  257SOL    HW2 1671   4.912   6.672   2.559
  258SOL     OW 1672   1.587   3.308   5.598
  258SOL    HW1 1673   1.683   3.305   5.572
  258SOL    HW2 1674   1.577   3.355   5.685
  259SOL     OW 1675   3.863   6.967   3.788
  259SOL    HW1 1676   3.826   0.032   3.751
  259SOL    HW2 1677   3.949   6.986   3.835
  260SOL     OW 1678   3.844   5.371   3.565
  260SOL    HW1 1679   3.897   5.349   3.648
  260SOL    HW2 1680   3.907   5.404   3.495
  261SOL     OW 1681   4.435   5.028   0.372
  261SOL    HW1 1682   4.346   5.067   0.394
  261SOL    HW2 1683   4.464   5.060   0.282
  262SOL     OW 1684   1.447   4.129   6.297
  262SOL    HW1 1685   1.542   4.150   6.278
  262SOL    HW2 1686   1.389   4.206   6.268
  263SOL     OW 1687   0.900   6.693   4.213
  263SOL    HW1 1688   0.883   6.733   4.303
  263SOL    HW2 1689   0.837   6.617   4.198
  264SOL     OW 1690   6.601   3.256   6.352
  264SOL    HW1 1691   6.629   3.281   6.445
  264SOL    HW2 1692   6.599   3.338   6.294
  265SOL     OW 1693   6.476   0.100   4.262
  265SOL    HW1 1694   6.527   0.186   4.257
  265SOL    HW2 1695   6.406   0.098   4.191
  266SOL     OW 1696   3.610   0.841   6.066
  266SOL    HW1 1697   3.597   0.881   6.157
  266SOL    HW2 1698   3.606   0.914   5.997
  267SOL     OW 1699   1.601   0.910   3.935
  267SOL    HW1 1700   1.517   0.961   3.954
  267SOL    HW2 1701   1.649   0.893   4.021
  268SOL     OW 1702   3.291   1.992   1.316
  268SOL    HW1 1703   3.349   1.924   1.273
  268SOL    HW2 1704   3.328   2.016   1.406
  269SOL     OW 1705   4.555   1.835   0.459
  269SOL    HW1 1706   4.598   1.923   0.439
  269SOL    HW2 1707   4.471   1.826   0.406
  270SOL     OW 1708   5.372   0.483   0.098
  270SOL    HW1 1709   5.364   0.582   0.103
  270SOL    HW2 1710   5.416   0.449   0.181
  271SOL     OW 1711   1.166   3.402   6.476
  271SOL    HW1 1712   1.075   3.380   6.442
  271SOL    HW2 1713   1.232   3.335   6.440
  272SOL     OW 1714   3.287   6.403   3.852
  272SOL    HW1 1715   3.242   6.448   3.775
  272SOL    HW2 1716   3.386   6.406   3.840
  273SOL     OW 1717   1.797   4.991   6.235
  273SOL    HW1 1718   1.882   4.938   6.236
  273SOL    HW2 1719   1.724   4.938   6.278
  274SOL     OW 1720   4.915   2.527   3.721
  274SOL    HW1 1721   4.858   2.492   3.647
  274SOL    HW2 1722   4.968   2.452   3.761
  275SOL     OW 1723   6.480   6.598   1.558
  275SOL    HW1 1724   6.558   6.586   1.498
  275SOL    HW2 1725   6.497   6.550   1.645
  276SOL     OW 1726   0.745   0.997   4.771
  276SOL    HW1 1727   0.779   0.903   4.773
  276SOL    HW2 1728   0.819   1.060   4.797
  277SOL     OW 1729   2.056   3.886   1.104
  277SOL    HW1 1730   2.133   3.923   1.156
  277SOL    HW2 1731   2.056   3.786   1.111
  278SOL     OW 1732   0.384   2.831   1.899
  278SOL    HW1 1733   0.453   2.893   1.862
  278SOL    HW2 1734   0.303   2.832   1.840
  279SOL     OW 1735   5.877   1.676   3.620
  279SOL    HW1 1736   5.918   1.588   3.597
  279SOL    HW2 1737   5.778   1.665   3.633
  280SOL     OW 1738   1.851   4.919   2.394
  280SOL    HW1 1739   1.887   4.974   2.318
  280SOL    HW2 1740   1.878   4.824   2.382
  281SOL     OW 1741   2.315   4.706   1.206
  281SOL    HW1 1742   2.328   4.749   1.116
  281SOL    HW2 1743   2.226   4.734   1.243
  282SOL     OW 1744   2.941   2.083   6.256
  282SOL    HW1 1745   2.857   2.120   6.216
  282SOL    HW2 1746   2.923   2.054   6.350
  283SOL     OW 1747   4.078   2.265   6.097
  283SOL    HW1 1748   3.986   2.227   6.086
  283SOL    HW2 1749   4.075   2.363   6.081
  284SOL     OW 1750   1.432   4.359   3.848
  284SOL    HW1 1751   1.354   4.299   3.868
  284SOL    HW2 1752   1.435   4.377   3.749
  285SOL     OW 1753   5.764   4.876   4.507
  285SOL    HW1 1754   5.783   4.829   4.593
  285SOL    HW2 1755   5.709   4.957   4.526
  286SOL     OW 1756   3.011   3.541   6.925
  286SOL    HW1 1757   2.951   3.615   6.895
  286SOL    HW2 1758   3.015   3.470   6.855
  287SOL     OW 1759   1.638   3.573   0.014
  287SOL    HW1 1760   1.693   3.501   0.056
  287SOL    HW2 1761   1.692   3.621   6.965
  288SOL     OW 1762   4.953   3.523   0.858
  288SOL    HW1 1763   4.961   3.546   0.955
  288SOL    HW2 1764   4.871   3.470   0.842
  289SOL     OW 1765   3.229   4.902   6.341
  289SOL    HW1 1766   3.207   4.854   6.426
  289SOL    HW2 1767   3.237   5.000   6.358
  290SOL     OW 1768   1.158   1.408   4.879
  290SOL    HW1 1769   1.193   1.499   4.904
  290SOL    HW2 1770   1.060   1.403   4.899
  291SOL     OW 1771   0.101   2.065   2.566
  291SOL    HW1 1772   0.037   1.988   2.574
  291SOL    HW2 1773   0.177   2.038   2.507
  292SOL     OW 1774   2.564   6.792   3.893
  292SOL    HW1 1775   2.482   6.738   3.917
  292SOL    HW2 1776   2.570   6.871   3.954
  293SOL     OW 1777   3.386   5.086   3.419
  293SOL    HW1 1778   3.391   5.173   3.370
  293SOL    HW2 1779   3.328   5.023   3.368
  294SOL     OW 1780   4.654   0.447   6.952
  294SOL    HW1 1781   4.748   0.458   6.918
  294SOL    HW2 1782   4.612   0.537   6.961
  295SOL     OW 1783   5.174   6.855   3.383
  295SOL    HW1 1784   5.222   6.802   3.313
  295SOL    HW2 1785   5.077   6.861   3.360
  296SOL     OW 1786   2.557   1.948   3.369
  296SOL    HW1 1787   2.527   1.892   3.445
  296SOL    HW2 1788   2.477   1.977   3.315
  297SOL     OW 1789   1.553   4.709   3.093
  297SOL    HW1 1790   1.644   4.676   3.120
  297SOL    HW2 1791   1.561   4.798   3.049
  298SOL     OW 1792   6.399   5.220   0.681
  298SOL    HW1 1793   6.315   5.275   0.676
  298SOL    HW2 1794   6.479   5.279   0.669
  299SOL     OW 1795   6.149   2.689   4.402
  299SOL    HW1 1796   6.156   2.747   4.483
  299SOL    HW2 1797   6.223   2.621   4.404
  300SOL     OW 1798   6.526   6.721   2.405
  300SOL    HW1 1799   6.528   6.740   2.504
  300SOL    HW2 1800   6.563   6.800   2.356
  301SOL     OW 1801   4.532   3.452   6.118
  301SOL    HW1 1802   4.563   3.391   6.045
  301SOL    HW2 1803   4.490   3.534   6.077
  302SOL     OW 1804   1.218   6.608   3.809
  302SOL    HW1 1805   1.302   6.663   3.809
  302SOL    HW2 1806   1.139   6.669   3.811
  303SOL     OW 1807   6.164   6.483   2.911
  303SOL    HW1 1808   6.185   6.476   2.813
  303SOL    HW2 1809   6.221   6.554   2.952
  304SOL     OW 1810   3.574   6.498   3.797
  304SOL    HW1 1811   3.625   6.478   3.714
  304SOL    HW2 1812   3.581   6.595   3.818
  305SOL     OW 1813   1.438   3.909   1.826
  305SOL    HW1 1814   1.487   3.847   1.888
  305SOL    HW2 1815   1.455   3.881   1.732
  306SOL     OW 1816   2.402   0.702   3.403
  306SOL    HW1 1817   2.406   0.782   3.342
  306SOL    HW2 1818   2.357   0.728   3.488
  307SOL     OW 1819   3.291   0.227   1.746
  307SOL    HW1 1820   3.318   0.134   1.770
  307SOL    HW2 1821   3.356   0.292   1.786
  308SOL     OW 1822   1.079   5.024   4.460
  308SOL    HW1 1823   1.058   5.010   4.556
  308SOL    HW2 1824   1.133   5.107   4.449
  309SOL     OW 1825   3.745   4.863   5.158
  309SOL    HW1 1826   3.693   4.851   5.073
  309SOL    HW2 1827   3.706   4.805   5.229
  310SOL     OW 1828   1.014   6.146   6.251
  310SOL    HW1 1829   1.101   6.192   6.271
  310SOL    HW2 1830   1.009   6.060   6.302
  311SOL     OW 1831   0.721   0.417   1.459
  311SOL    HW1 1832   0.726   0.401   1.557
  311SOL    HW2 1833   0.626   0.414   1.429
  312SOL     OW 1834   3.854   1.575   4.479
  312SOL    HW1 1835   3.919   1.533   4.543
  312SOL    HW2 1836   3.825   1.664   4.514
  313SOL     OW 1837   6.829   4.646   0.657
  313SOL    HW1 1838   6.789   4.664   0.748
  313SOL    HW2 1839   6.902   4.578   0.666
  314SOL     OW 1840   3.113   6.397   1.171
  314SOL    HW1 1841   3.074   6.375   1.081
  314SOL    HW2 1842   3.210   6.372   1.171
  315SOL     OW 1843   1.025   3.131   2.444
  315SOL    HW1 1844   1.057   3.049   2.396
  315SOL    HW2 1845   0.955   3.176   2.390
  316SOL     OW 1846   2.230   4.023   4.454
  316SOL    HW1 1847   2.237   4.051   4.359
  316SOL    HW2 1848   2.137   4.040   4.487
  317SOL     OW 1849   6.464   1.227   0.132
  317SOL    HW1 1850   6.494   1.319   0.105
  317SOL    HW2 1851   6.544   1.170   0.148
  318SOL     OW 1852   2.040   5.015   0.795
  318SOL    HW1 1853   2.078   4.999   0.886
  318SOL    HW2 1854   2.106   4.985   0.726
  319SOL     OW 1855   1.155   7.020   6.693
  319SOL    HW1 1856   1.129   0.043   6.780
  319SOL    HW2 1857   1.212   0.063   6.641
  320SOL     OW 1858   4.923   3.134   0.920
  320SOL    HW1 1859   5.014   3.166   0.891
  320SOL    HW2 1860   4.933   3.075   1.001
  321SOL     OW 1861   2.134   1.219   1.757
  321SOL    HW1 1862   2.180   1.286   1.815
  321SOL    HW2 1863   2.121   1.258   1.666
  322SOL     OW 1864   3.169   2.770   5.582
  322SOL    HW1 1865   3.162   2.672   5.600
  322SOL    HW2 1866   3.198   2.784   5.487
  323SOL     OW 1867   0.751   3.908   1.963
  323SOL    HW1 1868   0.774   3.825   1.914
  323SOL    HW2 1869   0.753   3.891   2.062
  324SOL     OW 1870   0.663   3.324   4.335
  324SOL    HW1 1871   0.584   3.368   4.376
  324SOL    HW2 1872   0.737   3.391   4.325
  325SOL     OW 1873   2.434   2.353   2.748
  325SOL    HW1 1874   2.362   2.320   2.687
  325SOL    HW2 1875   2.454   2.284   2.818
  326SOL     OW 1876   2.449   4.794   5.666
  326SOL    HW1 1877   2.467   4.860   5.593
  326SOL    HW2 1878   2.499   4.821   5.748
  327SOL     OW 1879   6.145   5.153   6.162
  327SOL    HW1 1880   6.168   5.144   6.259
  327SOL    HW2 1881   6.227   5.178   6.110
  328SOL     OW 1882   2.925   5.681   1.577
  328SOL    HW1 1883   2.855   5.623   1.537
  328SOL    HW2 1884   2.947   5.756   1.515
  329SOL     OW 1885   3.214   3.646   2.448
  329SOL    HW1 1886   3.170   3.557   2.437
  329SOL    HW2 1887   3.145   3.715   2.469
  330SOL     OW 1888   3.210   1.569   1.757
  330SOL    HW1 1889   3.221   1.595   1.661
  330SOL    HW2 1890   3.285   1.508   1.783
  331SOL     OW 1891   5.704   4.310   5.887
  331SOL    HW1 1892   5.616   4.317   5.841
  331SOL    HW2 1893   5.774   4.354   5.831
  332SOL     OW 1894   4.600   1.994   3.949
  332SOL    HW1 1895   4.564   1.977   3.857
  332SOL    HW2 1896   4.527   2.027   4.008
  333SOL     OW 1897   4.053   6.327   0.318
  333SOL    HW1 1898   4.097   6.380   0.245
  333SOL    HW2 1899   4.124   6.291   0.379
  334SOL     OW 1900   4.589   6.622   2.948
  334SOL    HW1 1901   4.666   6.560   2.936
  334SOL    HW2 1902   4.516   6.598   2.884
  335SOL     OW 1903   3.414   6.924   3.210
  335SOL    HW1 1904   3.489   6.879   3.161
  335SOL    HW2 1905   3.441   7.018   3.232
  336SOL     OW 1906   3.445   0.427   4.769
  336SOL    HW1 1907   3.436   0.526   4.771
  336SOL    HW2 1908   3.529   0.402   4.720
  337SOL     OW 1909   0.446   4.113   1.436
  337SOL    HW1 1910   0.490   4.127   1.347
  337SOL    HW2 1911   0.355   4.073   1.423
  338SOL     OW 1912   2.594   2.693   1.533
  338SOL    HW1 1913   2.669   2.628   1.549
  338SOL    HW2 1914   2.569   2.738   1.619
  339SOL     OW 1915   3.966   0.625   2.939
  339SOL    HW1 1916   3.975   0.542   2.885
  339SOL    HW2 1917   4.044   0.633   3.001
  340SOL     OW 1918   4.965   3.546   4.496
  340SOL    HW1 1919   4.917   3.505   4.419
  340SOL    HW2 1920   4.936   3.642   4.506
  341SOL     OW 1921   5.296   4.923   5.570
  341SOL    HW1 1922   5.307   4.911   5.669
  341SOL    HW2 1923   5.270   4.836   5.529
  342SOL     OW 1924   5.538   3.672   0.447
  342SOL    HW1 1925   5.609   3.603   0.462
  342SOL    HW2 1926   5.465   3.659   0.514
  343SOL     OW 1927   2.256   0.922   2.683
  343SOL    HW1 1928   2.281   1.000   2.741
  343SOL    HW2 1929   2.260   0.949   2.587
  344SOL     OW 1930   3.583   5.373   6.512
  344SOL    HW1 1931   3.535   5.289   6.488
  344SOL    HW2 1932   3.583   5.384   6.612
  345SOL     OW 1933   1.353   0.294   5.974
  345SOL    HW1 1934   1.358   0.219   6.040
  345SOL    HW2 1935   1.395   0.266   5.888
  346SOL     OW 1936   3.322   0.802   4.352
  346SOL    HW1 1937   3.338   0.806   4.253
  346SOL    HW2 1938   3.402   0.761   4.396
  347SOL     OW 1939   4.811   6.574   5.758
  347SOL    HW1 1940   4.738   6.641   5.764
  347SOL    HW2 1941   4.832   6.540   5.850
  348SOL     OW 1942   2.827   6.277   2.845
  348SOL    HW1 1943   2.838   6.177   2.849
  348SOL    HW2 1944   2.733   6.298   2.821
  349SOL     OW 1945   2.291   4.821   1.607
  349SOL    HW1 1946   2.247   4.841   1.519
  349SOL    HW2 1947   2.223   4.785   1.671
  350SOL     OW 1948   4.514   2.912   0.705
  350SOL    HW1 1949   4.597   2.934   0.757
  350SOL    HW2 1950   4.515   2.815   0.680
  351SOL     OW 1951   2.929   1.551   0.590
  351SOL    HW1 1952   2.973   1.540   0.679
  351SOL    HW2 1953   2.831   1.568   0.603
  352SOL     OW 1954   3.393   1.576   6.346
  352SOL    HW1 1955   3.420   1.502   6.284
  352SOL    HW2 1956   3.308   1.617   6.313
  353SOL     OW 1957   2.103   0.615   1.099
  353SOL    HW1 1958   2.087   0.694   1.041
  353SOL    HW2 1959   2.082   0.638   1.194
  354SOL     OW 1960   5.202   1.276   2.413
  354SOL    HW1 1961   5.113   1.253   2.374
  354SOL    HW2 1962   5.274   1.241   2.353
  355SOL     OW 1963   1.361   1.370   1.706
  355SOL    HW1 1964   1.350   1.414   1.616
  355SOL    HW2 1965   1.278   1.383   1.759
  356SOL     OW 1966   3.884   6.168   2.695
  356SOL    HW1 1967   3.819   6.235   2.658
  356SOL    HW2 1968   3.958   6.154   2.629
  357SOL     OW 1969   1.737   4.634   5.980
  357SOL    HW1 1970   1.647   4.673   5.999
  357SOL    HW2 1971   1.731   4.576   5.898
  358SOL     OW 1972   5.490   0.940   2.498
  358SOL    HW1 1973   5.546   0.857   2.501
  358SOL    HW2 1974   5.430   0.943   2.578
  359SOL     OW 1975   1.216   2.254   0.693
  359SOL    HW1 1976   1.308   2.259   0.654
  359SOL    HW2 1977   1.223   2.237   0.792
  360SOL     OW 1978   4.617   6.611   0.800
  360SOL    HW1 1979   4.598   6.685   0.865
  360SOL    HW2 1980   4.686   6.642   0.734
  361SOL     OW 1981   3.612   0.967   3.580
  361SOL    HW1 1982   3.543   0.955   3.507
  361SOL    HW2 1983   3.591   0.905   3.656
  362SOL     OW 1984   2.817   3.937   0.911
  362SOL    HW1 1985   2.779   3.873   0.844
  362SOL    HW2 1986   2.742   3.977   0.964
  363SOL     OW 1987   4.121   4.750   3.701
  363SOL    HW1 1988   4.186   4.677   3.683
  363SOL    HW2 1989   4.110   4.762   3.800
  364SOL     OW 1990   1.848   6.190   5.969
  364SOL    HW1 1991   1.793   6.122   5.921
  364SOL    HW2 1992   1.788   6.258   6.010
  365SOL     OW 1993   4.594   6.655   2.468
  365SOL    HW1 1994   4.662   6.677   2.538
  365SOL    HW2 1995   4.545   6.571   2.493
  366SOL     OW 1996   4.941   0.887   0.441
  366SOL    HW1 1997   4.978   0.807   0.488
  366SOL    HW2 1998   4.925   0.961   0.507
  367SOL     OW 1999   4.658   1.807   1.887
  367SOL    HW1 2000   4.675   1.847   1.797
  367SOL    HW2 2001   4.560   1.791   1.898
  368SOL     OW 2002   1.778   5.090   5.731
  368SOL    HW1 2003   1.821   5.006   5.762
  368SOL    HW2 2004   1.679   5.077   5.726
  369SOL     OW 2005   0.713   3.446   1.509
  369SOL    HW1 2006   0.752   3.505   1.438
  369SOL    HW2 2007   0.745   3.352   1.495
  370SOL     OW 2008   3.215   1.724   0.034
  370SOL    HW1 2009   3.310   1.731   0.005
  370SOL    HW2 2010   3.176   1.816   0.043
  371SOL     OW 2011   3.885   3.066   6.154
  371SOL    HW1 2012   3.940   2.985   6.136
  371SOL    HW2 2013   3.788   3.039   6.162
  372SOL     OW 2014   1.718   5.159   0.036
  372SOL    HW1 2015   1.803   5.113   0.012
  372SOL    HW2 2016   1.661   5.170   6.973
  373SOL     OW 2017   6.556   6.530   0.152
  373SOL    HW1 2018   6.456   6.537   0.159
  373SOL    HW2 2019   6.598   6.609   0.197
  374SOL     OW 2020   4.576   1.127   1.139
  374SOL    HW1 2021   4.482   1.104   1.165
  374SOL    HW2 2022   4.577   1.166   1.047
  375SOL     OW 2023   6.678   4.477   1.161
  375SOL    HW1 2024   6.711   4.544   1.227
  375SOL    HW2 2025   6.721   4.388   1.180
  376SOL     OW 2026   2.061   3.600   4.445
  376SOL    HW1 2027   1.985   3.536   4.449
  376SOL    HW2 2028   2.045   3.676   4.508
  377SOL     OW 2029   4.529   2.157   4.610
  377SOL    HW1 2030   4.471   2.137   4.531
  377SOL    HW2 2031   4.619   2.186   4.578
  378SOL     OW 2032   5.004   2.672   4.382
  378SOL    HW1 2033   4.910   2.706   4.372
  378SOL    HW2 2034   5.053   2.728   4.448
  379SOL     OW 2035   0.159   2.613   1.412
  379SOL    HW1 2036   0.164   2.571   1.322
  379SOL    HW2 2037   0.066   2.603   1.448
  380SOL     OW 2038   1.386   2.023   0.400
  380SOL    HW1 2039   1.449   1.979   0.464
  380SOL    HW2 2040   1.410   1.996   0.306
  381SOL     OW 2041   3.743   4.780   0.562
  381SOL    HW1 2042   3.776   4.757   0.470
  381SOL    HW2 2043   3.812   4.755   0.630
  382SOL     OW 2044   2.227   4.899   0.627
  382SOL    HW1 2045   2.260   4.804   0.633
  382SOL    HW2 2046   2.197   4.918   0.533
  383SOL     OW 2047   6.398   2.119   0.452
  383SOL    HW1 2048   6.493   2.091   0.448
  383SOL    HW2 2049   6.389   2.212   0.416
  384SOL     OW 2050   1.963   5.006   5.143
  384SOL    HW1 2051   1.905   4.924   5.145
  384SOL    HW2 2052   1.909   5.086   5.169
  385SOL     OW 2053   4.576   5.414   1.614
  385SOL    HW1 2054   4.499   5.359   1.646
  385SOL    HW2 2055   4.595   5.393   1.518
  386SOL     OW 2056   2.591   6.491   4.678
  386SOL    HW1 2057   2.540   6.459   4.598
  386SOL    HW2 2058   2.572   6.431   4.756
  387SOL     OW 2059   6.511   0.211   6.130
  387SOL    HW1 2060   6.588   0.188   6.188
  387SOL    HW2 2061   6.432   0.233   6.186
  388SOL     OW 2062   0.291   2.240   4.531
  388SOL    HW1 2063   0.209   2.292   4.504
  388SOL    HW2 2064   0.373   2.292   4.505
  389SOL     OW 2065   5.013   4.361   1.987
  389SOL    HW1 2066   4.924   4.395   1.956
  389SOL    HW2 2067   5.066   4.435   2.028
  390SOL     OW 2068   4.028   2.648   6.935
  390SOL    HW1 2069   3.951   2.589   6.960
  390SOL    HW2 2070   4.069   2.685   7.018
  391SOL     OW 2071   4.067   3.746   3.671
  391SOL    HW1 2072   3.995   3.682   3.700
  391SOL    HW2 2073   4.080   3.816   3.741
  392SOL     OW 2074   1.910   4.161   1.826
  392SOL    HW1 2075   1.972   4.122   1.757
  392SOL    HW2 2076   1.908   4.102   1.907
  393SOL     OW 2077   1.552   5.441   1.280
  393SOL    HW1 2078   1.568   5.423   1.377
  393SOL    HW2 2079   1.588   5.531   1.256
  394SOL     OW 2080   6.164   1.185   6.333
  394SOL    HW1 2081   6.175   1.284   6.347
  394SOL    HW2 2082   6.152   1.140   6.421
  395SOL     OW 2083   5.866   4.579   0.336
  395SOL    HW1 2084   5.890   4.531   0.421
  395SOL    HW2 2085   5.937   4.562   0.268
  396SOL     OW 2086   1.515   0.634   1.247
  396SOL    HW1 2087   1.610   0.619   1.223
  396SOL    HW2 2088   1.497   0.732   1.256
  397SOL     OW 2089   4.412   2.372   4.725
  397SOL    HW1 2090   4.333   2.327   4.768
  397SOL    HW2 2091   4.469   2.303   4.681
  398SOL     OW 2092   0.126   0.751   3.345
  398SOL    HW1 2093   0.048   0.705   3.389
  398SOL    HW2 2094   0.096   0.837   3.305
  399SOL     OW 2095   5.800   5.803   3.590
  399SOL    HW1 2096   5.741   5.832   3.666
  399SOL    HW2 2097   5.760   5.833   3.504
  400SOL     OW 2098   6.688   6.933   3.605
  400SOL    HW1 2099   6.737   6.846   3.614
  400SOL    HW2 2100   6.750   7.003   3.569
  401SOL     OW 2101   1.134   5.294   4.457
  401SOL    HW1 2102   1.061   5.362   4.447
  401SOL    HW2 2103   1.196   5.323   4.530
  402SOL     OW 2104   5.805   1.755   4.178
  402SOL    HW1 2105   5.800   1.656   4.195
  402SOL    HW2 2106   5.757   1.803   4.251
  403SOL     OW 2107   3.062   1.591   4.888
  403SOL    HW1 2108   3.011   1.603   4.973
  403SOL    HW2 2109   3.036   1.505   4.845
  404SOL     OW 2110   3.005   5.549   3.465
  404SOL    HW1 2111   3.070   5.486   3.507
  404SOL    HW2 2112   3.037   5.576   3.375
  405SOL     OW 2113   2.433   5.077   4.219
  405SOL    HW1 2114   2.452   5.161   4.169
  405SOL    HW2 2115   2.507   5.011   4.202
  406SOL     OW 2116   0.580   6.763   6.121
  406SOL    HW1 2117   0.582   6.821   6.202
  406SOL    HW2 2118   0.524   6.682   6.139
  407SOL     OW 2119   2.049   3.571   4.002
  407SOL    HW1 2120   2.027   3.661   4.038
  407SOL    HW2 2121   2.100   3.519   4.071
  408SOL     OW 2122   2.181   2.691   2.758
  408SOL    HW1 2123   2.097   2.712   2.708
  408SOL    HW2 2124   2.224   2.777   2.789
  409SOL     OW 2125   0.369   2.793   2.772
  409SOL    HW1 2126   0.420   2.751   2.847
  409SOL    HW2 2127   0.398   2.753   2.685
  410SOL     OW 2128   1.759   2.897   1.520
  410SOL    HW1 2129   1.846   2.943   1.501
  410SOL    HW2 2130   1.740   2.899   1.618
  411SOL     OW 2131   6.721   2.196   0.416
  411SOL    HW1 2132   6.740   2.233   0.507
  411SOL    HW2 2133   6.808   2.180   0.368
  412SOL     OW 2134   1.511   5.027   2.850
  412SOL    HW1 2135   1.460   5.111   2.830
  412SOL    HW2 2136   1.469   4.950   2.802
  413SOL     OW 2137   6.175   4.809   2.010
  413SOL    HW1 2138   6.199   4.732   1.950
  413SOL    HW2 2139   6.250   4.875   2.011
  414SOL     OW 2140   2.305   6.705   3.233
  414SOL    HW1 2141   2.382   6.660   3.278
  414SOL    HW2 2142   2.221   6.686   3.283
  415SOL     OW 2143   5.602   1.743   6.483
  415SOL    HW1 2144   5.616   1.686   6.563
  415SOL    HW2 2145   5.658   1.709   6.407
  416SOL     OW 2146   5.747   2.934   6.102
  416SOL    HW1 2147   5.840   2.945   6.137
  416SOL    HW2 2148   5.687   2.906   6.177
  417SOL     OW 2149   2.348   2.522   5.640
  417SOL    HW1 2150   2.395   2.609   5.632
  417SOL    HW2 2151   2.410   2.454   5.678
  418SOL     OW 2152   3.553   6.760   5.789
  418SOL    HW1 2153   3.497   6.842   5.777
  418SOL    HW2 2154   3.597   6.737   5.702
  419SOL     OW 2155   5.644   0.547   6.903
  419SOL    HW1 2156   5.722   0.609   6.896
  419SOL    HW2 2157   5.562   0.599   6.930
  420SOL     OW 2158   3.800   6.983   1.009
  420SOL    HW1 2159   3.777   0.040   1.069
  420SOL    HW2 2160   3.716   6.951   0.963
  421SOL     OW 2161   4.932   4.257   2.535
  421SOL    HW1 2162   4.915   4.329   2.468
  421SOL    HW2 2163   4.932   4.296   2.627
  422SOL     OW 2164   4.131   2.093   1.603
  422SOL    HW1 2165   4.154   2.047   1.689
  422SOL    HW2 2166   4.146   2.191   1.612
  423SOL     OW 2167   2.995   0.920   6.288
  423SOL    HW1 2168   3.075   0.861   6.279
  423SOL    HW2 2169   3.011   0.987   6.360
  424SOL     OW 2170   1.888   3.848   4.230
  424SOL    HW1 2171   1.856   3.925   4.174
  424SOL    HW2 2172   1.982   3.825   4.205
  425SOL     OW 2173   3.337   1.504   6.888
  425SOL    HW1 2174   3.295   1.477   6.975
  425SOL    HW2 2175   3.272   1.488   6.813
  426SOL     OW 2176   2.389   2.274   4.445
  426SOL    HW1 2177   2.371   2.371   4.461
  426SOL    HW2 2178   2.331   2.219   4.505
  427SOL     OW 2179   4.748   1.657   3.447
  427SOL    HW1 2180   4.821   1.654   3.516
  427SOL    HW2 2181   4.665   1.617   3.485
  428SOL     OW 2182   2.476   1.944   6.387
  428SOL    HW1 2183   2.449   1.945   6.483
  428SOL    HW2 2184   2.443   2.027   6.342
  429SOL     OW 2185   0.352   6.009   3.807
  429SOL    HW1 2186   0.415   6.085   3.794
  429SOL    HW2 2187   0.280   6.036   3.870
  430SOL     OW 2188   2.123   0.284   3.953
  430SOL    HW1 2189   2.053   0.278   3.882
  430SOL    HW2 2190   2.207   0.239   3.921
  431SOL     OW 2191   2.784   1.493   1.163
  431SOL    HW1 2192   2.717   1.565   1.181
  431SOL    HW2 2193   2.737   1.410   1.135
  432SOL     OW 2194   5.167   1.840   1.269
  432SOL    HW1 2195   5.142   1.928   1.308
  432SOL    HW2 2196   5.204   1.781   1.340
  433SOL     OW 2197   1.680   4.453   0.592
  433SOL    HW1 2198   1.593   4.420   0.628
  433SOL    HW2 2199   1.687   4.552   0.607
  434SOL     OW 2200   4.235   5.521   2.943
  434SOL    HW1 2201   4.203   5.442   2.891
  434SOL    HW2 2202   4.310   5.493   3.003
  435SOL     OW 2203   3.883   2.764   6.353
  435SOL    HW1 2204   3.863   2.806   6.441
  435SOL    HW2 2205   3.810   2.700   6.329
  436SOL     OW 2206   5.186   5.855   1.930
  436SOL    HW1 2207   5.190   5.895   2.022
  436SOL    HW2 2208   5.256   5.897   1.872
  437SOL     OW 2209   6.868   1.536   5.046
  437SOL    HW1 2210   6.923   1.472   4.992
  437SOL    HW2 2211   6.906   1.546   5.137
  438SOL     OW 2212   0.843   4.411   2.553
  438SOL    HW1 2213   0.751   4.436   2.583
  438SOL    HW2 2214   0.839   4.374   2.460
  439SOL     OW 2215   0.295   0.627   5.804
  439SOL    HW1 2216   0.304   0.657   5.899
  439SOL    HW2 2217   0.278   0.528   5.802
  440SOL     OW 2218   4.346   2.090   0.858
  440SOL    HW1 2219   4.406   2.040   0.921
  440SOL    HW2 2220   4.317   2.028   0.785
  441SOL     OW 2221   0.048   4.669   2.482
  441SOL    HW1 2222   0.086   4.582   2.515
  441SOL    HW2 2223   0.119   4.739   2.484
  442SOL     OW 2224   3.604   3.445   5.076
  442SOL    HW1 2225   3.668   3.496   5.018
  442SOL    HW2 2226   3.588   3.496   5.160
  443SOL     OW 2227   4.760   2.773   3.354
  443SOL    HW1 2228   4.800   2.692   3.310
  443SOL    HW2 2229   4.686   2.745   3.414
  444SOL     OW 2230   4.407   1.969   1.232
  444SOL    HW1 2231   4.366   1.912   1.161
  444SOL    HW2 2232   4.347   1.970   1.312
  445SOL     OW 2233   2.829   5.408   2.476
  445SOL    HW1 2234   2.800   5.371   2.565
  445SOL    HW2 2235   2.753   5.459   2.435
  446SOL     OW 2236   6.222   0.108   1.603
  446SOL    HW1 2237   6.321   0.096   1.600
  446SOL    HW2 2238   6.188   0.130   1.512
  447SOL     OW 2239   5.883   3.976   0.557
  447SOL    HW1 2240   5.815   4.029   0.507
  447SOL    HW2 2241   5.849   3.956   0.649
  448SOL     OW 2242   3.653   6.266   3.940
  448SOL    HW1 2243   3.608   6.347   3.904
  448SOL    HW2 2244   3.750   6.267   3.916
  449SOL     OW 2245   0.938   4.036   4.784
  449SOL    HW1 2246   1.022   4.061   4.831
  449SOL    HW2 2247   0.903   4.114   4.733
  450SOL     OW 2248   6.709   4.192   3.325
  450SOL    HW1 2249   6.721   4.248   3.407
  450SOL    HW2 2250   6.777   4.119   3.324
  451SOL     OW 2251   1.477   2.365   0.357
  451SOL    HW1 2252   1.423   2.437   0.400
  451SOL    HW2 2253   1.482   2.286   0.418
  452SOL     OW 2254   4.309   5.556   1.868
  452SOL    HW1 2255   4.222   5.603   1.885
  452SOL    HW2 2256   4.384   5.623   1.873
  453SOL     OW 2257   4.054   0.953   0.206
  453SOL    HW1 2258   3.955   0.955   0.221
  453SOL    HW2 2259   4.086   0.859   0.212
  454SOL     OW 2260   0.145   3.225   4.161
  454SOL    HW1 2261   0.216   3.294   4.145
  454SOL    HW2 2262   0.118   3.227   4.257
  455SOL     OW 2263   5.423   5.249   6.602
  455SOL    HW1 2264   5.478   5.320   6.647
  455SOL    HW2 2265   5.440   5.161   6.646
  456SOL     OW 2266   1.958   0.891   3.079
  456SOL    HW1 2267   1.940   0.990   3.077
  456SOL    HW2 2268   2.007   0.865   2.996
  457SOL     OW 2269   2.919   5.780   0.065
  457SOL    HW1 2270   3.003   5.834   0.070
  457SOL    HW2 2271   2.940   5.693   0.020
  458SOL     OW 2272   3.914   1.551   3.395
  458SOL    HW1 2273   3.975   1.610   3.344
  458SOL    HW2 2274   3.960   1.516   3.476
  459SOL     OW 2275   3.006   1.218   3.316
  459SOL    HW1 2276   3.065   1.264   3.382
  459SOL    HW2 2277   2.992   1.123   3.344
  460SOL     OW 2278   0.629   1.593   6.237
  460SOL    HW1 2279   0.710   1.590   6.297
  460SOL    HW2 2280   0.647   1.656   6.161
  461SOL     OW 2281   1.559   6.728   5.395
  461SOL    HW1 2282   1.525   6.822   5.402
  461SOL    HW2 2283   1.559   6.686   5.486
  462SOL     OW 2284   3.501   4.079   4.554
  462SOL    HW1 2285   3.515   4.123   4.643
  462SOL    HW2 2286   3.553   3.994   4.550
  463SOL     OW 2287   5.482   5.990   3.183
  463SOL    HW1 2288   5.453   6.041   3.264
  463SOL    HW2 2289   5.494   6.053   3.106
  464SOL     OW 2290   4.331   5.374   5.017
  464SOL    HW1 2291   4.366   5.421   5.098
  464SOL    HW2 2292   4.241   5.411   4.993
  465SOL     OW 2293   0.139   4.843   6.920
  465SOL    HW1 2294   0.183   4.791   6.847
  465SOL    HW2 2295   0.050   4.802   6.940
  466SOL     OW 2296   3.886   4.946   4.109
  466SOL    HW1 2297   3.880   4.923   4.206
  466SOL    HW2 2298   3.801   4.989   4.080
  467SOL     OW 2299   6.551   0.015   1.997
  467SOL    HW1 2300   6.595   7.007   1.912
  467SOL    HW2 2301   6.522   0.111   1.990
  468SOL     OW 2302   2.510   6.105   6.378
  468SOL    HW1 2303   2.539   6.011   6.357
  468SOL    HW2 2304   2.410   6.109   6.380
  469SOL     OW 2305   3.215   4.562   5.298
  469SOL    HW1 2306   3.135   4.565   5.237
  469SOL    HW2 2307   3.283   4.628   5.267
  470SOL     OW 2308   2.186   5.074   2.555
  470SOL    HW1 2309   2.254   5.081   2.482
  470SOL    HW2 2310   2.215   5.129   2.634
  471SOL     OW 2311   1.677   1.808   3.991
  471SOL    HW1 2312   1.761   1.859   3.971
  471SOL    HW2 2313   1.598   1.869   3.985
  472SOL     OW 2314   5.491   4.215   6.542
  472SOL    HW1 2315   5.485   4.131   6.596
  472SOL    HW2 2316   5.563   4.273   6.578
  473SOL     OW 2317   5.401   3.361   2.188
  473SOL    HW1 2318   5.316   3.354   2.241
  473SOL    HW2 2319   5.435   3.270   2.167
  474SOL     OW 2320   5.225   5.302   3.514
  474SOL    HW1 2321   5.302   5.334   3.459
  474SOL    HW2 2322   5.256   5.233   3.579
  475SOL     OW 2323   5.522   1.474   0.231
  475SOL    HW1 2324   5.494   1.558   0.184
  475SOL    HW2 2325   5.441   1.427   0.266
  476SOL     OW 2326   1.349   3.655   0.267
  476SOL    HW1 2327   1.444   3.684   0.275
  476SOL    HW2 2328   1.332   3.621   0.174
  477SOL     OW 2329   6.924   5.322   3.431
  477SOL    HW1 2330   7.011   5.354   3.469
  477SOL    HW2 2331   6.880   5.397   3.381
  478SOL     OW 2332   5.991   5.288   2.549
  478SOL    HW1 2333   6.081   5.315   2.584
  478SOL    HW2 2334   6.000   5.205   2.495
  479SOL     OW 2335   3.098   4.027   2.625
  479SOL    HW1 2336   3.089   4.049   2.528
  479SOL    HW2 2337   3.173   4.080   2.664
  480SOL     OW 2338   0.777   1.049   1.935
  480SOL    HW1 2339   0.800   1.143   1.958
  480SOL    HW2 2340   0.791   1.034   1.837
  481SOL     OW 2341   5.795   6.604   1.092
  481SOL    HW1 2342   5.892   6.603   1.067
  481SOL    HW2 2343   5.745   6.541   1.032
  482SOL     OW 2344   3.777   5.136   2.611
  482SOL    HW1 2345   3.863   5.129   2.561
  482SOL    HW2 2346   3.703   5.161   2.548
  483SOL     OW 2347   5.844   0.991   3.812
  483SOL    HW1 2348   5.783   0.927   3.764
  483SOL    HW2 2349   5.900   1.040   3.745
  484SOL     OW 2350   1.992   5.151   3.260
  484SOL    HW1 2351   2.017   5.179   3.168
  484SOL    HW2 2352   1.963   5.056   3.260
  485SOL     OW 2353   4.904   2.127   0.701
  485SOL    HW1 2354   4.897   2.226   0.713
  485SOL    HW2 2355   4.983   2.093   0.752
  486SOL     OW 2356   6.194   6.743   5.629
  486SOL    HW1 2357   6.112   6.751   5.686
  486SOL    HW2 2358   6.169   6.752   5.533
  487SOL     OW 2359   0.200   0.819   6.706
  487SOL    HW1 2360   0.140   0.828   6.785
  487SOL    HW2 2361   0.238   0.726   6.703
  488SOL     OW 2362   1.902   5.821   3.195
  488SOL    HW1 2363   1.904   5.829   3.096
  488SOL    HW2 2364   1.939   5.905   3.236
  489SOL     OW 2365   2.988   5.030   5.220
  489SOL    HW1 2366   3.026   4.983   5.300
  489SOL    HW2 2367   2.933   4.965   5.167
  490SOL     OW 2368   1.582   3.396   4.597
  490SOL    HW1 2369   1.558   3.493   4.602
  490SOL    HW2 2370   1.588   3.368   4.501
  491SOL     OW 2371   6.258   3.104   1.130
  491SOL    HW1 2372   6.318   3.058   1.065
  491SOL    HW2 2373   6.173   3.051   1.139
  492SOL     OW 2374   1.860   2.076   5.676
  492SOL    HW1 2375   1.869   2.089   5.775
  492SOL    HW2 2376   1.940   2.116   5.630
  493SOL     OW 2377   2.061   5.511   3.762
  493SOL    HW1 2378   2.088   5.515   3.666
  493SOL    HW2 2379   2.095   5.593   3.810
  494SOL     OW 2380   2.962   0.785   4.173
  494SOL    HW1 2381   3.023   0.708   4.190
  494SOL    HW2 2382   3.007   0.851   4.111
  495SOL     OW 2383   3.834   4.319   6.681
  495SOL    HW1 2384   3.783   4.403   6.662
  495SOL    HW2 2385   3.893   4.297   6.603
  496SOL     OW 2386   5.124   1.075   2.870
  496SOL    HW1 2387   5.102   1.067   2.967
  496SOL    HW2 2388   5.140   1.171   2.848
  497SOL     OW 2389   4.229   2.548   1.033
  497SOL    HW1 2390   4.170   2.580   1.107
  497SOL    HW2 2391   4.223   2.448   1.027
  498SOL     OW 2392   0.334   0.074   1.192
  498SOL    HW1 2393   0.394   0.099   1.268
  498SOL    HW2 2394   0.246   0.042   1.228
  499SOL     OW 2395   3.101   6.328   0.106
  499SOL    HW1 2396   3.076   6.311   0.010
  499SOL    HW2 2397   3.139   6.244   0.145
  500SOL     OW 2398   5.571   1.995   6.058
  500SOL    HW1 2399   5.670   1.976   6.055
  500SOL    HW2 2400   5.544   2.017   6.151
  501SOL     OW 2401   1.787   1.748   4.317
  501SOL    HW1 2402   1.783   1.835   4.366
  501SOL    HW2 2403   1.713   1.745   4.250
  502SOL     OW 2404   2.522   3.959   6.829
  502SOL    HW1 2405   2.616   3.941   6.861
  502SOL    HW2 2406   2.499   3.894   6.756
  503SOL     OW 2407   3.383   5.268   1.190
  503SOL    HW1 2408   3.448   5.293   1.119
  503SOL    HW2 2409   3.422   5.290   1.280
  504SOL     OW 2410   6.097   0.110   0.365
  504SOL    HW1 2411   6.140   0.124   0.454
  504SOL    HW2 2412   6.004   0.074   0.379
  505SOL     OW 2413   6.468   4.089   5.685
  505SOL    HW1 2414   6.527   4.169   5.690
  505SOL    HW2 2415   6.373   4.117   5.699
  506SOL     OW 2416   3.111   5.269   3.411
  506SOL    HW1 2417   3.068   5.246   3.499
  506SOL    HW2 2418   3.113   5.187   3.353
  507SOL     OW 2419   3.437   0.272   2.854
  507SOL    HW1 2420   3.371   0.204   2.887
  507SOL    HW2 2421   3.401   0.364   2.867
  508SOL     OW 2422   0.440   5.181   3.622
  508SOL    HW1 2423   0.403   5.129   3.544
  508SOL    HW2 2424   0.444   5.121   3.702
  509SOL     OW 2425   4.274   0.147   6.513
  509SOL    HW1 2426   4.328   0.225   6.544
  509SOL    HW2 2427   4.335   0.070   6.495
  510SOL     OW 2428   6.193   4.090   6.806
  510SOL    HW1 2429   6.270   4.125   6.861
  510SOL    HW2 2430   6.212   4.107   6.710
  511SOL     OW 2431   0.936   1.218   6.865
  511SOL    HW1 2432   0.907   1.171   6.949
  511SOL    HW2 2433   0.861   1.274   6.831
  512SOL     OW 2434   0.063   2.262   4.156
  512SOL    HW1 2435   0.107   2.178   4.124
  512SOL    HW2 2436   0.060   2.261   4.256
  513SOL     OW 2437   5.926   6.393   2.835
  513SOL    HW1 2438   6.005   6.437   2.877
  513SOL    HW2 2439   5.875   6.342   2.905
  514SOL     OW 2440   4.948   1.603   5.093
  514SOL    HW1 2441   5.006   1.547   5.151
  514SOL    HW2 2442   4.986   1.606   5.001
  515SOL     OW 2443   3.114   0.949   0.007
  515SOL    HW1 2444   3.020   0.950   6.992
  515SOL    HW2 2445   3.157   1.038   7.010
  516SOL     OW 2446   1.445   6.085   1.960
  516SOL    HW1 2447   1.492   6.164   1.998
  516SOL    HW2 2448   1.430   6.099   1.862
  517SOL     OW 2449   3.157   5.266   1.412
  517SOL    HW1 2450   3.139   5.263   1.314
  517SOL    HW2 2451   3.087   5.215   1.461
  518SOL     OW 2452   2.190   6.008   4.134
  518SOL    HW1 2453   2.274   6.037   4.089
  518SOL    HW2 2454   2.122   6.081   4.129
  519SOL     OW 2455   6.731   0.110   2.392
  519SOL    HW1 2456   6.668   0.044   2.350
  519SOL    HW2 2457   6.740   0.091   2.489
  520SOL     OW 2458   2.366   5.104   1.030
  520SOL    HW1 2459   2.324   5.183   0.985
  520SOL    HW2 2460   2.457   5.088   0.990
  521SOL     OW 2461   6.531   5.930   5.443
  521SOL    HW1 2462   6.554   5.918   5.346
  521SOL    HW2 2463   6.574   5.856   5.496
  522SOL     OW 2464   4.064   4.702   6.942
  522SOL    HW1 2465   4.072   4.615   6.894
  522SOL    HW2 2466   4.147   4.720   6.994
  523SOL     OW 2467   1.885   7.013   6.011
  523SOL    HW1 2468   1.977   6.982   6.036
  523SOL    HW2 2469   1.864   6.983   5.917
  524SOL     OW 2470   0.334   1.036   0.844
  524SOL    HW1 2471   0.263   1.026   0.773
  524SOL    HW2 2472   0.299   1.094   0.917
  525SOL     OW 2473   0.813   3.143   3.348
  525SOL    HW1 2474   0.861   3.129   3.262
  525SOL    HW2 2475   0.846   3.227   3.392
  526SOL     OW 2476   4.225   6.970   5.029
  526SOL    HW1 2477   4.287   6.904   5.072
  526SOL    HW2 2478   4.216   6.950   4.932
  527SOL     OW 2479   0.260   1.018   1.458
  527SOL    HW1 2480   0.188   0.997   1.392
  527SOL    HW2 2481   0.310   1.099   1.428
  528SOL     OW 2482   0.096   2.527   4.558
  528SOL    HW1 2483   7.019   2.530   4.532
  528SOL    HW2 2484   0.151   2.564   4.483
  529SOL     OW 2485   1.347   0.893   5.989
  529SOL    HW1 2486   1.444   0.873   5.978
  529SOL    HW2 2487   1.302   0.888   5.900
  530SOL     OW 2488   2.952   4.850   1.457
  530SOL    HW1 2489   2.924   4.776   1.519
  530SOL    HW2 2490   3.045   4.833   1.425
  531SOL     OW 2491   0.911   0.823   6.489
  531SOL    HW1 2492   0.943   0.857   6.577
  531SOL    HW2 2493   0.958   0.738   6.466
  532SOL     OW 2494   2.889   0.506   6.815
  532SOL    HW1 2495   2.836   0.473   6.737
  532SOL    HW2 2496   2.947   0.583   6.786
  533SOL     OW 2497   4.131   0.212   4.602
  533SOL    HW1 2498   4.141   0.124   4.556
  533SOL    HW2 2499   4.105   0.282   4.536
  534SOL     OW 2500   1.841   4.422   1.844
  534SOL    HW1 2501   1.873   4.329   1.827
  534SOL    HW2 2502   1.762   4.419   1.906
  535SOL     OW 2503   4.874   3.818   4.513
  535SOL    HW1 2504   4.807   3.867   4.457
  535SOL    HW2 2505   4.883   3.863   4.601
  536SOL     OW 2506   6.772   6.557   1.446
  536SOL    HW1 2507   6.846   6.577   1.510
  536SOL    HW2 2508   6.784   6.465   1.409
  537SOL     OW 2509   2.534   1.895   2.127
  537SOL    HW1 2510   2.504   1.867   2.035
  537SOL    HW2 2511   2.478   1.972   2.158
  538SOL     OW 2512   4.293   4.787   5.147
  538SOL    HW1 2513   4.196   4.808   5.137
  538SOL    HW2 2514   4.324   4.733   5.069
  539SOL     OW 2515   2.256   0.117   0.026
  539SOL    HW1 2516   2.206   0.173   6.980
  539SOL    HW2 2517   2.192   0.056   0.073
  540SOL     OW 2518   1.996   1.375   5.343
  540SOL    HW1 2519   1.926   1.385   5.272
  540SOL    HW2 2520   2.047   1.291   5.328
  541SOL     OW 2521   5.192   6.344   3.520
  541SOL    HW1 2522   5.099   6.379   3.533
  541SOL    HW2 2523   5.204   6.261   3.574
  542SOL     OW 2524   3.286   6.442   6.279
  542SOL    HW1 2525   3.279   6.349   6.316
  542SOL    HW2 2526   3.239   6.505   6.341
  543SOL     OW 2527   5.874   2.468   4.198
  543SOL    HW1 2528   5.920   2.418   4.272
  543SOL    HW2 2529   5.886   2.566   4.212
  544SOL     OW 2530   1.387   3.653   0.989
  544SOL    HW1 2531   1.328   3.656   1.070
  544SOL    HW2 2532   1.398   3.559   0.959
  545SOL     OW 2533   6.661   5.323   0.680
  545SOL    HW1 2534   6.662   5.417   0.713
  545SOL    HW2 2535   6.711   5.317   0.593
  546SOL     OW 2536   6.957   4.531   2.043
  546SOL    HW1 2537   0.012   4.594   2.025
  546SOL    HW2 2538   6.918   4.549   2.134
  547SOL     OW 2539   3.790   0.281   6.743
  547SOL    HW1 2540   3.817   0.367   6.785
  547SOL    HW2 2541   3.872   0.228   6.719
  548SOL     OW 2542   4.257   2.921   0.094
  548SOL    HW1 2543   4.230   2.985   0.167
  548SOL    HW2 2544   4.265   2.971   0.008
  549SOL     OW 2545   5.224   1.980   3.505
  549SOL    HW1 2546   5.302   2.018   3.455
  549SOL    HW2 2547   5.156   2.051   3.520
  550SOL     OW 2548   6.818   5.834   3.828
  550SOL    HW1 2549   6.723   5.807   3.844
  550SOL    HW2 2550   6.874   5.752   3.815
  551SOL     OW 2551   5.490   0.476   0.343
  551SOL    HW1 2552   5.528   0.568   0.349
  551SOL    HW2 2553   5.407   0.470   0.397
  552SOL     OW 2554   0.477   0.179   4.861
  552SOL    HW1 2555   0.403   0.158   4.926
  552SOL    HW2 2556   0.437   0.206   4.773
  553SOL     OW 2557   3.735   2.279   6.134
  553SOL    HW1 2558   3.777   2.216   6.069
  553SOL    HW2 2559   3.648   2.313   6.096
  554SOL     OW 2560   6.659   6.205   0.578
  554SOL    HW1 2561   6.669   6.160   0.489
  554SOL    HW2 2562   6.635   6.138   0.648
  555SOL     OW 2563   2.716   3.942   5.978
  555SOL    HW1 2564   2.640   3.897   5.933
  555SOL    HW2 2565   2.787   3.964   5.910
  556SOL     OW 2566   6.191   6.005   2.934
  556SOL    HW1 2567   6.211   6.061   2.854
  556SOL    HW2 2568   6.098   5.971   2.928
  557SOL     OW 2569   5.519   4.057   6.308
  557SOL    HW1 2570   5.434   4.024   6.266
  557SOL    HW2 2571   5.497   4.125   6.378
  558SOL     OW 2572   3.787   3.640   2.154
  558SOL    HW1 2573   3.763   3.716   2.215
  558SOL    HW2 2574   3.727   3.562   2.174
  559SOL     OW 2575   6.699   1.166   5.904
  559SOL    HW1 2576   6.743   1.255   5.913
  559SOL    HW2 2577   6.755   1.097   5.950
  560SOL     OW 2578   0.075   2.562   3.678
  560SOL    HW1 2579   0.141   2.515   3.619
  560SOL    HW2 2580   0.025   2.630   3.624
  561SOL     OW 2581   0.568   4.263   0.092
  561SOL    HW1 2582   0.600   4.347   0.135
  561SOL    HW2 2583   0.646   4.213   0.054
  562SOL     OW 2584   4.680   6.440   3.663
  562SOL    HW1 2585   4.605   6.452   3.727
  562SOL    HW2 2586   4.686   6.344   3.635
  563SOL     OW 2587   1.141   1.341   4.063
  563SOL    HW1 2588   1.185   1.311   3.978
  563SOL    HW2 2589   1.210   1.354   4.134
  564SOL     OW 2590   5.978   1.593   6.082
  564SOL    HW1 2591   6.042   1.593   6.005
  564SOL    HW2 2592   6.024   1.629   6.163
  565SOL     OW 2593   2.900   3.506   3.575
  565SOL    HW1 2594   2.818   3.486   3.520
  565SOL    HW2 2595   2.918   3.604   3.573
  566SOL     OW 2596   2.197   1.934   3.753
  566SOL    HW1 2597   2.244   1.990   3.822
  566SOL    HW2 2598   2.238   1.842   3.752
  567SOL     OW 2599   1.915   3.265   5.097
  567SOL    HW1 2600   2.010   3.246   5.071
  567SOL    HW2 2601   1.913   3.302   5.190
  568SOL     OW 2602   1.012   6.694   6.942
  568SOL    HW1 2603   1.106   6.710   6.911
  568SOL    HW2 2604   1.008   6.702   0.022
  569SOL     OW 2605   5.291   3.511   6.087
  569SOL    HW1 2606   5.311   3.608   6.094
  569SOL    HW2 2607   5.208   3.498   6.032
  570SOL     OW 2608   3.937   0.460   6.070
  570SOL    HW1 2609   3.952   0.453   5.972
  570SOL    HW2 2610   3.854   0.410   6.095
  571SOL     OW 2611   2.469   4.320   1.795
  571SOL    HW1 2612   2.562   4.288   1.778
  571SOL    HW2 2613   2.472   4.411   1.836
  572SOL     OW 2614   3.106   1.231   4.669
  572SOL    HW1 2615   3.106   1.178   4.754
  572SOL    HW2 2616   3.115   1.169   4.591
  573SOL     OW 2617   0.461   0.886   5.418
  573SOL    HW1 2618   0.536   0.893   5.352
  573SOL    HW2 2619   0.498   0.860   5.507
  574SOL     OW 2620   2.120   1.250   6.190
  574SOL    HW1 2621   2.178   1.308   6.246
  574SOL    HW2 2622   2.139   1.268   6.093
  575SOL     OW 2623   3.937   3.970   0.024
  575SOL    HW1 2624   3.930   4.069   0.024
  575SOL    HW2 2625   3.967   3.938   0.114
  576SOL     OW 2626   1.056   1.129   2.815
  576SOL    HW1 2627   1.059   1.121   2.715
  576SOL    HW2 2628   1.107   1.053   2.856
  577SOL     OW 2629   0.423   0.377   1.955
  577SOL    HW1 2630   0.331   0.384   1.994
  577SOL    HW2 2631   0.480   0.322   2.016
  578SOL     OW 2632   3.869   6.775   0.020
  578SOL    HW1 2633   3.829   6.805   0.107
  578SOL    HW2 2634   3.812   6.807   6.964
  579SOL     OW 2635   1.144   3.709   1.920
  579SOL    HW1 2636   1.113   3.635   1.861
  579SOL    HW2 2637   1.077   3.783   1.920
  580SOL     OW 2638   4.695   5.222   4.303
  580SOL    HW1 2639   4.781   5.273   4.291
  580SOL    HW2 2640   4.711   5.143   4.361
  581SOL     OW 2641   2.058   2.434   4.208
  581SOL    HW1 2642   2.155   2.454   4.197
  581SOL    HW2 2643   2.010   2.516   4.240
  582SOL     OW 2644   5.698   4.255   5.276
  582SOL    HW1 2645   5.666   4.336   5.324
  582SOL    HW2 2646   5.640   4.239   5.195
  583SOL     OW 2647   3.429   6.183   5.859
  583SOL    HW1 2648   3.339   6.158   5.823
  583SOL    HW2 2649   3.463   6.262   5.808
  584SOL     OW 2650   4.114   0.636   5.343
  584SOL    HW1 2651   4.092   0.723   5.299
  584SOL    HW2 2652   4.185   0.590   5.291
  585SOL     OW 2653   3.337   6.581   1.545
  585SOL    HW1 2654   3.357   6.485   1.562
  585SOL    HW2 2655   3.239   6.592   1.526
  586SOL     OW 2656   3.198   0.074   0.723
  586SOL    HW1 2657   3.126   0.139   0.749
  586SOL    HW2 2658   3.184   0.045   0.629
  587SOL     OW 2659   4.786   1.468   2.460
  587SOL    HW1 2660   4.771   1.515   2.373
  587SOL    HW2 2661   4.702   1.419   2.486
  588SOL     OW 2662   1.856   4.779   2.723
  588SOL    HW1 2663   1.764   4.746   2.701
  588SOL    HW2 2664   1.920   4.746   2.653
  589SOL     OW 2665   3.479   5.157   0.806
  589SOL    HW1 2666   3.544   5.090   0.770
  589SOL    HW2 2667   3.513   5.194   0.892
  590SOL     OW 2668   3.191   2.228   6.326
  590SOL    HW1 2669   3.190   2.269   6.417
  590SOL    HW2 2670   3.144   2.288   6.262
  591SOL     OW 2671   2.702   6.808   3.649
  591SOL    HW1 2672   2.667   6.805   3.743
  591SOL    HW2 2673   2.625   6.804   3.585
  592SOL     OW 2674   5.316   2.433   4.588
  592SOL    HW1 2675   5.373   2.351   4.578
  592SOL    HW2 2676   5.221   2.410   4.566
  593SOL     OW 2677   1.704   1.314   6.777
  593SOL    HW1 2678   1.763   1.329   6.697
  593SOL    HW2 2679   1.749   1.351   6.858
  594SOL     OW 2680   3.918   0.894   3.843
  594SOL    HW1 2681   3.941   0.897   3.745
  594SOL    HW2 2682   3.934   0.985   3.883
  595SOL     OW 2683   6.008   4.344   2.408
  595SOL    HW1 2684   6.097   4.297   2.404
  595SOL    HW2 2685   6.021   4.441   2.389
  596SOL     OW 2686   6.359   4.906   4.690
  596SOL    HW1 2687   6.314   4.883   4.777
  596SOL    HW2 2688   6.402   4.823   4.653
  597SOL     OW 2689   3.248   1.805   6.618
  597SOL    HW1 2690   3.176   1.741   6.591
  597SOL    HW2 2691   3.303   1.829   6.537
  598SOL     OW 2692   3.205   3.570   2.977
  598SOL    HW1 2693   3.232   3.639   2.910
  598SOL    HW2 2694   3.106   3.573   2.990
  599SOL     OW 2695   1.714   4.785   1.554
  599SOL    HW1 2696   1.729   4.871   1.505
  599SOL    HW2 2697   1.658   4.801   1.635
  600SOL     OW 2698   0.255   3.660   5.278
  600SOL    HW1 2699   0.305   3.573   5.273
  600SOL    HW2 2700   0.165   3.650   5.236
  601SOL     OW 2701   0.363   6.413   5.924
  601SOL    HW1 2702   0.310   6.330   5.905
  601SOL    HW2 2703   0.461   6.390   5.927
  602SOL     OW 2704   1.691   1.112   3.397
  602SOL    HW1 2705   1.732   1.131   3.486
  602SOL    HW2 2706   1.624   1.038   3.405
  603SOL     OW 2707   1.878   1.981   3.997
  603SOL    HW1 2708   1.882   2.059   4.060
  603SOL    HW2 2709   1.934   2.000   3.917
  604SOL     OW 2710   5.809   2.553   0.777
  604SOL    HW1 2711   5.893   2.543   0.830
  604SOL    HW2 2712   5.796   2.474   0.718
  605SOL     OW 2713   6.089   6.494   1.075
  605SOL    HW1 2714   6.036   6.488   0.991
  605SOL    HW2 2715   6.182   6.525   1.054
  606SOL     OW 2716   3.320   6.617   5.012
  606SOL    HW1 2717   3.285   6.548   4.949
  606SOL    HW2 2718   3.291   6.708   4.980
  607SOL     OW 2719   1.505   2.499   6.184
  607SOL    HW1 2720   1.456   2.436   6.244
  607SOL    HW2 2721   1.570   2.448   6.127
  608SOL     OW 2722   3.374   1.013   6.846
  608SOL    HW1 2723   3.389   1.045   6.940
  608SOL    HW2 2724   3.461   0.989   6.804
  609SOL     OW 2725   3.837   2.880   2.260
  609SOL    HW1 2726   3.928   2.841   2.250
  609SOL    HW2 2727   3.827   2.959   2.199
  610SOL     OW 2728   4.803   3.466   1.687
  610SOL    HW1 2729   4.704   3.472   1.701
  610SOL    HW2 2730   4.823   3.459   1.589
  611SOL     OW 2731   4.064   1.108   2.634
  611SOL    HW1 2732   3.999   1.091   2.709
  611SOL    HW2 2733   4.108   1.196   2.648
  612SOL     OW 2734   5.003   4.533   4.177
  612SOL    HW1 2735   5.037   4.620   4.213
  612SOL    HW2 2736   5.057   4.506   4.097
  613SOL     OW 2737   3.836   4.952   6.477
  613SOL    HW1 2738   3.764   5.007   6.435
  613SOL    HW2 2739   3.836   4.861   6.435
  614SOL     OW 2740   2.542   6.574   6.502
  614SOL    HW1 2741   2.472   6.509   6.530
  614SOL    HW2 2742   2.629   6.551   6.547
  615SOL     OW 2743   0.077   4.598   3.107
  615SOL    HW1 2744   7.014   4.552   3.139
  615SOL    HW2 2745   0.058   4.644   3.020
  616SOL     OW 2746   6.489   3.463   4.036
  616SOL    HW1 2747   6.553   3.387   4.021
  616SOL    HW2 2748   6.396   3.426   4.041
  617SOL     OW 2749   2.949   0.039   5.763
  617SOL    HW1 2750   2.865   0.092   5.761
  617SOL    HW2 2751   2.927   6.962   5.781
  618SOL     OW 2752   1.624   0.675   3.533
  618SOL    HW1 2753   1.580   0.666   3.622
  618SOL    HW2 2754   1.649   0.584   3.499
  619SOL     OW 2755   1.114   1.945   6.284
  619SOL    HW1 2756   1.028   1.895   6.274
  619SOL    HW2 2757   1.102   2.020   6.349
  620SOL     OW 2758   4.568   3.400   0.687
  620SOL    HW1 2759   4.630   3.448   0.625
  620SOL    HW2 2760   4.620   3.360   0.762
  621SOL     OW 2761   7.002   5.996   0.701
  621SOL    HW1 2762   0.042   6.062   0.746
  621SOL    HW2 2763   0.037   5.935   0.644
  622SOL     OW 2764   0.293   0.552   6.711
  622SOL    HW1 2765   0.235   0.470   6.713
  622SOL    HW2 2766   0.381   0.531   6.753
  623SOL     OW 2767   0.522   4.559   4.839
  623SOL    HW1 2768   0.605   4.588   4.791
  623SOL    HW2 2769   0.453   4.531   4.772
  624SOL     OW 2770   1.007   1.760   1.664
  624SOL    HW1 2771   1.089   1.732   1.713
  624SOL    HW2 2772   0.926   1.740   1.720
  625SOL     OW 2773   1.246   1.566   2.958
  625SOL    HW1 2774   1.200   1.655   2.955
  625SOL    HW2 2775   1.180   1.495   2.934
  626SOL     OW 2776   2.923   5.874   4.565
  626SOL    HW1 2777   2.950   5.896   4.659
  626SOL    HW2 2778   2.941   5.777   4.547
  627SOL     OW 2779   5.356   6.839   6.933
  627SOL    HW1 2780   5.366   6.917   6.995
  627SOL    HW2 2781   5.296   6.770   6.975
  628SOL     OW 2782   5.513   4.059   3.038
  628SOL    HW1 2783   5.414   4.050   3.030
  628SOL    HW2 2784   5.556   3.969   3.033
  629SOL     OW 2785   1.330   0.087   0.947
  629SOL    HW1 2786   1.379   0.165   0.987
  629SOL    HW2 2787   1.263   0.120   0.881
  630SOL     OW 2788   2.730   1.793   0.962
  630SOL    HW1 2789   2.829   1.781   0.958
  630SOL    HW2 2790   2.706   1.882   0.923
  631SOL     OW 2791   2.613   0.489   4.446
  631SOL    HW1 2792   2.676   0.558   4.412
  631SOL    HW2 2793   2.543   0.471   4.377
  632SOL     OW 2794   3.093   0.390   1.314
  632SOL    HW1 2795   3.080   0.315   1.250
  632SOL    HW2 2796   3.052   0.367   1.402
  633SOL     OW 2797   2.413   6.906   5.079
  633SOL    HW1 2798   2.339   6.972   5.090
  633SOL    HW2 2799   2.388   6.821   5.125
  634SOL     OW 2800   2.360   5.460   1.992
  634SOL    HW1 2801   2.369   5.369   1.950
  634SOL    HW2 2802   2.330   5.526   1.924
  635SOL     OW 2803   2.769   0.232   2.949
  635SOL    HW1 2804   2.810   0.270   3.031
  635SOL    HW2 2805   2.723   0.146   2.971
  636SOL     OW 2806   4.282   5.464   6.579
  636SOL    HW1 2807   4.314   5.518   6.502
  636SOL    HW2 2808   4.358   5.414   6.619
  637SOL     OW 2809   6.182   4.531   6.660
  637SOL    HW1 2810   6.209   4.509   6.753
  637SOL    HW2 2811   6.150   4.447   6.615
  638SOL     OW 2812   5.349   1.214   3.112
  638SOL    HW1 2813   5.253   1.206   3.084
  638SOL    HW2 2814   5.393   1.287   3.059
  639SOL     OW 2815   4.822   3.753   1.581
  639SOL    HW1 2816   4.784   3.665   1.610
  639SOL    HW2 2817   4.773   3.827   1.627
  640SOL     OW 2818   2.139   3.246   5.319
  640SOL    HW1 2819   2.224   3.284   5.355
  640SOL    HW2 2820   2.109   3.171   5.377
  641SOL     OW 2821   7.005   5.697   4.953
  641SOL    HW1 2822   6.951   5.667   4.875
  641SOL    HW2 2823   6.990   5.635   5.030
  642SOL     OW 2824   1.994   4.657   6.082
  642SOL    HW1 2825   1.897   4.643   6.060
  642SOL    HW2 2826   2.004   4.740   6.136
  643SOL     OW 2827   5.955   6.063   5.174
  643SOL    HW1 2828   5.898   6.048   5.093
  643SOL    HW2 2829   5.928   6.148   5.218
  644SOL     OW 2830   2.506   6.351   1.664
  644SOL    HW1 2831   2.525   6.412   1.741
  644SOL    HW2 2832   2.557   6.383   1.584
  645SOL     OW 2833   6.771   2.317   2.964
  645SOL    HW1 2834   6.734   2.317   3.057
  645SOL    HW2 2835   6.870   2.331   2.968
  646SOL     OW 2836   1.067   2.865   4.417
  646SOL    HW1 2837   1.016   2.785   4.388
  646SOL    HW2 2838   1.029   2.947   4.374
  647SOL     OW 2839   5.184   3.425   0.734
  647SOL    HW1 2840   5.120   3.486   0.781
  647SOL    HW2 2841   5.244   3.382   0.802
  648SOL     OW 2842   4.467   2.492   4.304
  648SOL    HW1 2843   4.451   2.575   4.249
  648SOL    HW2 2844   4.383   2.468   4.352
  649SOL     OW 2845   4.487   4.532   1.879
  649SOL    HW1 2846   4.548   4.566   1.951
  649SOL    HW2 2847   4.479   4.432   1.887
  650SOL     OW 2848   4.951   4.251   0.681
  650SOL    HW1 2849   4.950   4.246   0.781
  650SOL    HW2 2850   4.897   4.177   0.643
  651SOL     OW 2851   1.080   5.906   6.375
  651SOL    HW1 2852   1.038   5.821   6.344
  651SOL    HW2 2853   1.122   5.893   6.464
  652SOL     OW 2854   4.744   1.788   2.680
  652SOL    HW1 2855   4.793   1.862   2.727
  652SOL    HW2 2856   4.809   1.736   2.625
  653SOL     OW 2857   3.908   4.947   2.446
  653SOL    HW1 2858   3.853   4.935   2.364
  653SOL    HW2 2859   3.912   4.861   2.496
  654SOL     OW 2860   6.704   5.819   6.472
  654SOL    HW1 2861   6.693   5.892   6.538
  654SOL    HW2 2862   6.626   5.756   6.478
  655SOL     OW 2863   0.687   1.782   6.896
  655SOL    HW1 2864   0.767   1.725   6.882
  655SOL    HW2 2865   0.683   1.812   6.991
  656SOL     OW 2866   2.530   6.136   0.922
  656SOL    HW1 2867   2.612   6.123   0.867
  656SOL    HW2 2868   2.460   6.070   0.894
  657SOL     OW 2869   4.096   1.247   0.328
  657SOL    HW1 2870   4.095   1.281   0.234
  657SOL    HW2 2871   4.060   1.154   0.331
  658SOL     OW 2872   3.522   5.711   6.365
  658SOL    HW1 2873   3.519   5.684   6.461
  658SOL    HW2 2874   3.607   5.762   6.348
  659SOL     OW 2875   3.872   0.735   6.016
  659SOL    HW1 2876   3.874   0.646   6.062
  659SOL    HW2 2877   3.777   0.766   6.008
  660SOL     OW 2878   3.800   6.071   2.959
  660SOL    HW1 2879   3.849   6.083   2.873
  660SOL    HW2 2880   3.865   6.078   3.035
  661SOL     OW 2881   5.487   5.098   2.623
  661SOL    HW1 2882   5.584   5.123   2.615
  661SOL    HW2 2883   5.454   5.062   2.536
  662SOL     OW 2884   4.120   1.940   0.574
  662SOL    HW1 2885   4.156   1.882   0.500
  662SOL    HW2 2886   4.097   2.030   0.538
  663SOL     OW 2887   1.641   4.545   4.902
  663SOL    HW1 2888   1.603   4.567   4.992
  663SOL    HW2 2889   1.737   4.519   4.911
  664SOL     OW 2890   6.025   0.091   6.275
  664SOL    HW1 2891   6.061   0.124   6.188
  664SOL    HW2 2892   6.072   0.007   6.301
  665SOL     OW 2893   1.012   4.501   1.990
  665SOL    HW1 2894   0.917   4.487   2.019
  665SOL    HW2 2895   1.013   4.535   1.896
  666SOL     OW 2896   4.331   1.416   1.655
  666SOL    HW1 2897   4.235   1.421   1.681
  666SOL    HW2 2898   4.369   1.508   1.647
  667SOL     OW 2899   1.060   0.216   2.313
  667SOL    HW1 2900   1.074   0.132   2.262
  667SOL    HW2 2901   1.148   0.260   2.330
  668SOL     OW 2902   5.914   2.978   0.264
  668SOL    HW1 2903   5.879   2.898   0.313
  668SOL    HW2 2904   5.894   3.061   0.316
  669SOL     OW 2905   5.287   1.573   3.225
  669SOL    HW1 2906   5.245   1.487   3.253
  669SOL    HW2 2907   5.300   1.631   3.306
  670SOL     OW 2908   3.384   1.923   2.550
  670SOL    HW1 2909   3.291   1.941   2.519
  670SOL    HW2 2910   3.382   1.871   2.635
  671SOL     OW 2911   1.982   6.341   1.959
  671SOL    HW1 2912   1.996   6.312   2.053
  671SOL    HW2 2913   1.931   6.427   1.957
  672SOL     OW 2914   0.601   0.258   2.143
  672SOL    HW1 2915   0.626   0.319   2.219
  672SOL    HW2 2916   0.633   0.165   2.162
  673SOL     OW 2917   6.037   6.882   6.884
  673SOL    HW1 2918   6.053   6.894   6.982
  673SOL    HW2 2919   5.947   6.919   6.860
  674SOL     OW 2920   5.226   0.339   4.068
  674SOL    HW1 2921   5.212   0.292   4.155
  674SOL    HW2 2922   5.238   0.437   4.084
  675SOL     OW 2923   0.602   3.767   2.739
  675SOL    HW1 2924   0.629   3.704   2.811
  675SOL    HW2 2925   0.643   3.738   2.652
  676SOL     OW 2926   2.253   5.962   6.585
  676SOL    HW1 2927   2.198   6.042   6.560
  676SOL    HW2 2928   2.318   5.987   6.656
  677SOL     OW 2929   6.063   1.464   1.180
  677SOL    HW1 2930   6.111   1.459   1.092
  677SOL    HW2 2931   6.131   1.463   1.254
  678SOL     OW 2932   0.871   5.318   3.596
  678SOL    HW1 2933   0.915   5.278   3.516
  678SOL    HW2 2934   0.794   5.374   3.567
  679SOL     OW 2935   4.829   2.258   4.891
  679SOL    HW1 2936   4.908   2.292   4.942
  679SOL    HW2 2937   4.809   2.320   4.815
  680SOL     OW 2938   6.520   6.615   3.749
  680SOL    HW1 2939   6.616   6.592   3.732
  680SOL    HW2 2940   6.505   6.626   3.847
  681SOL     OW 2941   4.594   4.889   2.922
  681SOL    HW1 2942   4.557   4.815   2.978
  681SOL    HW2 2943   4.644   4.953   2.980
  682SOL     OW 2944   0.025   1.500   3.334
  682SOL    HW1 2945   6.974   1.491   3.404
  682SOL    HW2 2946   0.036   1.597   3.310
  683SOL     OW 2947   3.502   3.645   0.970
  683SOL    HW1 2948   3.434   3.718   0.972
  683SOL    HW2 2949   3.486   3.582   1.046
  684SOL     OW 2950   6.327   1.280   5.351
  684SOL    HW1 2951   6.233   1.312   5.359
  684SOL    HW2 2952   6.340   1.236   5.262
  685SOL     OW 2953   3.190   6.607   3.088
  685SOL    HW1 2954   3.119   6.677   3.089
  685SOL    HW2 2955   3.249   6.618   3.168
  686SOL     OW 2956   4.367   1.001   5.360
  686SOL    HW1 2957   4.430   1.075   5.337
  686SOL    HW2 2958   4.275   1.037   5.371
  687SOL     OW 2959   6.948   1.367   4.412
  687SOL    HW1 2960   6.851   1.355   4.430
  687SOL    HW2 2961   6.978   1.456   4.448
  688SOL     OW 2962   5.858   1.788   6.852
  688SOL    HW1 2963   5.833   1.816   6.759
  688SOL    HW2 2964   5.777   1.790   6.910
  689SOL     OW 2965   1.923   5.455   0.363
  689SOL    HW1 2966   1.973   5.530   0.406
  689SOL    HW2 2967   1.989   5.390   0.324
  690SOL     OW 2968   5.353   3.951   3.341
  690SOL    HW1 2969   5.405   3.866   3.335
  690SOL    HW2 2970   5.417   4.029   3.345
  691SOL     OW 2971   6.014   1.188   1.269
  691SOL    HW1 2972   5.943   1.155   1.332
  691SOL    HW2 2973   5.997   1.284   1.247
  692SOL     OW 2974   1.907   1.366   4.064
  692SOL    HW1 2975   1.880   1.391   4.157
  692SOL    HW2 2976   1.883   1.439   4.001
  693SOL     OW 2977   5.816   5.107   3.425
  693SOL    HW1 2978   5.840   5.174   3.497
  693SOL    HW2 2979   5.804   5.017   3.466
  694SOL     OW 2980   4.304   5.726   4.566
  694SOL    HW1 2981   4.336   5.703   4.658
  694SOL    HW2 2982   4.210   5.760   4.572
  695SOL     OW 2983   4.905   6.800   3.774
  695SOL    HW1 2984   4.955   6.723   3.813
  695SOL    HW2 2985   4.845   6.767   3.700
  696SOL     OW 2986   5.564   4.089   2.205
  696SOL    HW1 2987   5.500   4.164   2.222
  696SOL    HW2 2988   5.655   4.115   2.238
  697SOL     OW 2989   1.023   7.001   2.098
  697SOL    HW1 2990   1.001   6.908   2.129
  697SOL    HW2 2991   1.121   7.018   2.110
  698SOL     OW 2992   5.619   6.094   6.201
  698SOL    HW1 2993   5.703   6.045   6.226
  698SOL    HW2 2994   5.546   6.068   6.265
  699SOL     OW 2995   4.246   3.906   0.446
  699SOL    HW1 2996   4.295   3.970   0.505
  699SOL    HW2 2997   4.147   3.921   0.455
  700SOL     OW 2998   3.668   6.550   5.364
  700SOL    HW1 2999   3.744   6.521   5.423
  700SOL    HW2 3000   3.628   6.469   5.321
  701SOL     OW 3001   4.531   4.951   1.221
  701SOL    HW1 3002   4.585   4.883   1.271
  701SOL    HW2 3003   4.470   4.904   1.157
  702SOL     OW 3004   4.447   0.651   4.973
  702SOL    HW1 3005   4.359   0.697   4.964
  702SOL    HW2 3006   4.516   0.715   5.008
  703SOL     OW 3007   2.981   2.865   0.127
  703SOL    HW1 3008   3.051   2.887   0.059
  703SOL    HW2 3009   3.025   2.820   0.205
  704SOL     OW 3010   3.665   1.211   5.952
  704SOL    HW1 3011   3.619   1.287   5.907
  704SOL    HW2 3012   3.735   1.173   5.891
  705SOL     OW 3013   0.073   6.106   5.552
  705SOL    HW1 3014   0.070   6.144   5.644
  705SOL    HW2 3015   0.145   6.037   5.546
  706SOL     OW 3016   3.999   0.835   5.200
  706SOL    HW1 3017   3.943   0.859   5.278
  706SOL    HW2 3018   4.033   0.918   5.155
  707SOL     OW 3019   2.649   5.296   4.199
  707SOL    HW1 3020   2.701   5.250   4.270
  707SOL    HW2 3021   2.678   5.392   4.193
  708SOL     OW 3022   4.015   6.086   4.038
  708SOL    HW1 3023   3.947   6.017   4.061
  708SOL    HW2 3024   4.005   6.112   3.942
  709SOL     OW 3025   2.700   0.437   1.694
  709SOL    HW1 3026   2.796   0.416   1.674
  709SOL    HW2 3027   2.642   0.393   1.625
  710SOL     OW 3028   4.892   3.487   2.515
  710SOL    HW1 3029   4.988   3.511   2.533
  710SOL    HW2 3030   4.833   3.563   2.545
  711SOL     OW 3031   0.497   1.801   0.217
  711SOL    HW1 3032   0.451   1.771   0.301
  711SOL    HW2 3033   0.428   1.831   0.151
  712SOL     OW 3034   5.222   4.011   6.864
  712SOL    HW1 3035   5.181   3.937   6.918
  712SOL    HW2 3036   5.150   4.073   6.833
  713SOL     OW 3037   4.305   3.519   5.547
  713SOL    HW1 3038   4.371   3.477   5.485
  713SOL    HW2 3039   4.321   3.618   5.551
  714SOL     OW 3040   5.277   6.377   2.920
  714SOL    HW1 3041   5.332   6.298   2.949
  714SOL    HW2 3042   5.194   6.382   2.976
  715SOL     OW 3043   6.158   4.805   5.387
  715SOL    HW1 3044   6.122   4.714   5.368
  715SOL    HW2 3045   6.082   4.869   5.399
  716SOL     OW 3046   2.967   2.105   3.521
  716SOL    HW1 3047   2.906   2.082   3.446
  716SOL    HW2 3048   3.053   2.142   3.484
  717SOL     OW 3049   5.239   4.827   3.885
  717SOL    HW1 3050   5.146   4.833   3.848
  717SOL    HW2 3051   5.295   4.769   3.825
  718SOL     OW 3052   6.142   2.158   5.264
  718SOL    HW1 3053   6.121   2.251   5.294
  718SOL    HW2 3054   6.209   2.118   5.327
  719SOL     OW 3055   4.918   6.397   3.517
  719SOL    HW1 3056   4.891   6.450   3.437
  719SOL    HW2 3057   4.850   6.406   3.589
  720SOL     OW 3058   2.841   1.375   1.422
  720SOL    HW1 3059   2.832   1.427   1.337
  720SOL    HW2 3060   2.762   1.314   1.432
  721SOL     OW 3061   6.468   3.047   2.037
  721SOL    HW1 3062   6.401   2.974   2.052
  721SOL    HW2 3063   6.451   3.121   2.102
  722SOL     OW 3064   4.724   6.371   1.160
  722SOL    HW1 3065   4.776   6.314   1.096
  722SOL    HW2 3066   4.655   6.422   1.110
  723SOL     OW 3067   1.972   0.394   4.516
  723SOL    HW1 3068   1.908   0.471   4.523
  723SOL    HW2 3069   1.996   0.362   4.607
  724SOL     OW 3070   1.164   2.074   4.358
  724SOL    HW1 3071   1.070   2.093   4.329
  724SOL    HW2 3072   1.183   2.122   4.443
  725SOL     OW 3073   1.949   4.960   2.904
  725SOL    HW1 3074   1.912   4.890   2.843
  725SOL    HW2 3075   2.018   4.918   2.964
  726SOL     OW 3076   2.118   3.948   0.789
  726SOL    HW1 3077   2.039   3.960   0.730
  726SOL    HW2 3078   2.115   3.858   0.832
  727SOL     OW 3079   3.592   5.327   4.867
  727SOL    HW1 3080   3.613   5.293   4.959
  727SOL    HW2 3081   3.519   5.271   4.827
  728SOL     OW 3082   6.895   3.187   3.836
  728SOL    HW1 3083   6.993   3.194   3.854
  728SOL    HW2 3084   6.875   3.100   3.790
  729SOL     OW 3085   0.749   4.162   0.828
  729SOL    HW1 3086   0.659   4.168   0.784
  729SOL    HW2 3087   0.738   4.168   0.927
  730SOL     OW 3088   4.376   1.529   3.099
  730SOL    HW1 3089   4.394   1.578   3.014
  730SOL    HW2 3090   4.290   1.479   3.092
  731SOL     OW 3091   4.661   4.389   4.656
  731SOL    HW1 3092   4.572   4.402   4.612
  731SOL    HW2 3093   4.666   4.446   4.738
  732SOL     OW 3094   4.060   0.911   4.523
  732SOL    HW1 3095   4.112   0.903   4.608
  732SOL    HW2 3096   4.021   1.003   4.518
  733SOL     OW 3097   6.355   5.406   3.880
  733SOL    HW1 3098   6.325   5.358   3.798
  733SOL    HW2 3099   6.429   5.470   3.856
  734SOL     OW 3100   6.521   6.364   2.750
  734SOL    HW1 3101   6.618   6.362   2.775
  734SOL    HW2 3102   6.507   6.310   2.667
  735SOL     OW 3103   4.014   0.205   2.443
  735SOL    HW1 3104   3.924   0.241   2.464
  735SOL    HW2 3105   4.057   0.170   2.526
  736SOL     OW 3106   1.619   1.948   3.615
  736SOL    HW1 3107   1.598   1.969   3.520
  736SOL    HW2 3108   1.556   1.997   3.676
  737SOL     OW 3109   3.489   1.390   6.153
  737SOL    HW1 3110   3.566   1.327   6.157
  737SOL    HW2 3111   3.487   1.434   6.063
  738SOL     OW 3112   1.739   4.783   0.465
  738SOL    HW1 3113   1.733   4.859   0.401
  738SOL    HW2 3114   1.785   4.706   0.420
  739SOL     OW 3115   1.926   6.868   3.554
  739SOL    HW1 3116   1.847   6.888   3.612
  739SOL    HW2 3117   2.006   6.918   3.590
  740SOL     OW 3118   5.008   3.634   3.486
  740SOL    HW1 3119   5.006   3.699   3.561
  740SOL    HW2 3120   5.101   3.628   3.449
  741SOL     OW 3121   2.998   1.275   3.033
  741SOL    HW1 3122   2.975   1.274   3.130
  741SOL    HW2 3123   3.043   1.189   3.009
  742SOL     OW 3124   1.545   0.012   2.169
  742SOL    HW1 3125   1.588   0.020   2.259
  742SOL    HW2 3126   1.522   0.103   2.135
  743SOL     OW 3127   0.351   6.146   2.735
  743SOL    HW1 3128   0.324   6.051   2.746
  743SOL    HW2 3129   0.450   6.152   2.721
  744SOL     OW 3130   5.110   1.387   0.515
  744SOL    HW1 3131   5.122   1.358   0.610
  744SOL    HW2 3132   5.012   1.394   0.495
  745SOL     OW 3133   2.296   6.247   4.868
  745SOL    HW1 3134   2.314   6.150   4.852
  745SOL    HW2 3135   2.367   6.285   4.927
  746SOL     OW 3136   0.213   4.748   4.584
  746SOL    HW1 3137   0.149   4.816   4.621
  746SOL    HW2 3138   0.293   4.795   4.545
  747SOL     OW 3139   4.549   5.256   2.843
  747SOL    HW1 3140   4.530   5.253   2.745
  747SOL    HW2 3141   4.642   5.291   2.858
  748SOL     OW 3142   5.577   4.890   1.078
  748SOL    HW1 3143   5.503   4.827   1.054
  748SOL    HW2 3144   5.663   4.840   1.081
  749SOL     OW 3145   5.017   4.746   5.240
  749SOL    HW1 3146   5.025   4.814   5.313
  749SOL    HW2 3147   5.108   4.728   5.201
  750SOL     OW 3148   2.346   1.945   3.157
  750SOL    HW1 3149   2.318   2.032   3.118
  750SOL    HW2 3150   2.300   1.871   3.108
  751SOL     OW 3151   3.588   1.019   0.365
  751SOL    HW1 3152   3.504   0.984   0.324
  751SOL    HW2 3153   3.584   1.119   0.370
  752SOL     OW 3154   3.417   2.820   5.098
  752SOL    HW1 3155   3.345   2.881   5.063
  752SOL    HW2 3156   3.428   2.744   5.035
  753SOL     OW 3157   3.543   4.145   3.861
  753SOL    HW1 3158   3.619   4.206   3.839
  753SOL    HW2 3159   3.491   4.125   3.777
  754SOL     OW 3160   4.997   0.522   0.082
  754SOL    HW1 3161   4.996   0.522   7.002
  754SOL    HW2 3162   5.069   0.582   0.115
  755SOL     OW 3163   4.563   4.617   5.194
  755SOL    HW1 3164   4.629   4.550   5.229
  755SOL    HW2 3165   4.480   4.569   5.165
  756SOL     OW 3166   2.860   5.099   6.343
  756SOL    HW1 3167   2.951   5.078   6.378
  756SOL    HW2 3168   2.858   5.193   6.309
  757SOL     OW 3169   1.802   6.539   1.873
  757SOL    HW1 3170   1.888   6.553   1.823
  757SOL    HW2 3171   1.777   6.623   1.920
  758SOL     OW 3172   4.965   1.412   4.507
  758SOL    HW1 3173   4.903   1.338   4.535
  758SOL    HW2 3174   5.038   1.374   4.451
  759SOL     OW 3175   0.169   3.786   4.072
  759SOL    HW1 3176   0.155   3.884   4.085
  759SOL    HW2 3177   0.267   3.767   4.065
  760SOL     OW 3178   6.695   5.262   3.561
  760SOL    HW1 3179   6.790   5.276   3.532
  760SOL    HW2 3180   6.643   5.346   3.546
  761SOL     OW 3181   4.996   4.988   6.156
  761SOL    HW1 3182   5.027   4.922   6.087
  761SOL    HW2 3183   4.932   5.053   6.113
  762SOL     OW 3184   3.922   5.625   4.040
  762SOL    HW1 3185   3.857   5.591   4.109
  762SOL    HW2 3186   4.013   5.632   4.080
  763SOL     OW 3187   5.013   0.664   0.642
  763SOL    HW1 3188   4.982   0.577   0.679
  763SOL    HW2 3189   5.104   0.685   0.679
  764SOL     OW 3190   5.122   6.234   5.066
  764SOL    HW1 3191   5.110   6.149   5.014
  764SOL    HW2 3192   5.149   6.212   5.159
  765SOL     OW 3193   6.034   6.556   0.593
  765SOL    HW1 3194   5.974   6.495   0.541
  765SOL    HW2 3195   6.127   6.549   0.557
  766SOL     OW 3196   2.602   1.973   4.313
  766SOL    HW1 3197   2.683   2.007   4.361
  766SOL    HW2 3198   2.630   1.899   4.251
  767SOL     OW 3199   6.906   5.979   4.082
  767SOL    HW1 3200   6.903   5.955   3.984
  767SOL    HW2 3201   6.826   5.938   4.128
  768SOL     OW 3202   2.141   5.528   2.461
  768SOL    HW1 3203   2.052   5.484   2.470
  768SOL    HW2 3204   2.163   5.542   2.365
  769SOL     OW 3205   3.256   1.926   5.276
  769SOL    HW1 3206   3.251   1.974   5.363
  769SOL    HW2 3207   3.199   1.972   5.208
  770SOL     OW 3208   1.450   4.557   5.634
  770SOL    HW1 3209   1.410   4.580   5.723
  770SOL    HW2 3210   1.389   4.496   5.585
  771SOL     OW 3211   1.387   4.821   2.716
  771SOL    HW1 3212   1.321   4.746   2.711
  771SOL    HW2 3213   1.479   4.785   2.707
  772SOL     OW 3214   5.318   4.623   0.285
  772SOL    HW1 3215   5.348   4.628   0.380
  772SOL    HW2 3216   5.352   4.537   0.244
  773SOL     OW 3217   2.387   4.498   3.733
  773SOL    HW1 3218   2.414   4.407   3.766
  773SOL    HW2 3219   2.395   4.501   3.634
  774SOL     OW 3220   2.206   1.493   3.553
  774SOL    HW1 3221   2.273   1.463   3.484
  774SOL    HW2 3222   2.117   1.507   3.508
  775SOL     OW 3223   1.240   4.565   2.729
  775SOL    HW1 3224   1.299   4.573   2.809
  775SOL    HW2 3225   1.239   4.469   2.699
  776SOL     OW 3226   2.361   5.351   6.091
  776SOL    HW1 3227   2.353   5.419   6.018
  776SOL    HW2 3228   2.279   5.353   6.148
  777SOL     OW 3229   2.321   3.783   6.055
  777SOL    HW1 3230   2.365   3.745   6.136
  777SOL    HW2 3231   2.324   3.717   5.981
  778SOL     OW 3232   3.299   5.883   6.615
  778SOL    HW1 3233   3.361   5.805   6.614
  778SOL    HW2 3234   3.214   5.860   6.568
  779SOL     OW 3235   6.212   1.950   2.971
  779SOL    HW1 3236   6.213   2.030   2.911
  779SOL    HW2 3237   6.290   1.891   2.950
  780SOL     OW 3238   6.737   2.158   4.420
  780SOL    HW1 3239   6.711   2.251   4.449
  780SOL    HW2 3240   6.654   2.106   4.400
  781SOL     OW 3241   0.507   4.345   6.713
  781SOL    HW1 3242   0.524   4.373   6.618
  781SOL    HW2 3243   0.591   4.306   6.751
  782SOL     OW 3244   2.234   4.025   5.397
  782SOL    HW1 3245   2.272   4.059   5.483
  782SOL    HW2 3246   2.306   4.018   5.329
  783SOL     OW 3247   6.574   5.114   6.963
  783SOL    HW1 3248   6.506   5.130   0.015
  783SOL    HW2 3249   6.664   5.141   6.996
  784SOL     OW 3250   1.966   5.786   0.712
  784SOL    HW1 3251   1.877   5.831   0.704
  784SOL    HW2 3252   2.015   5.822   0.792
  785SOL     OW 3253   0.518   0.641   4.434
  785SOL    HW1 3254   0.547   0.627   4.529
  785SOL    HW2 3255   0.456   0.568   4.407
  786SOL     OW 3256   6.010   0.734   4.156
  786SOL    HW1 3257   5.910   0.726   4.150
  786SOL    HW2 3258   6.039   0.716   4.249
  787SOL     OW 3259   1.870   6.503   1.277
  787SOL    HW1 3260   1.878   6.539   1.370
  787SOL    HW2 3261   1.790   6.544   1.232
  788SOL     OW 3262   2.223   2.836   2.283
  788SOL    HW1 3263   2.288   2.776   2.330
  788SOL    HW2 3264   2.188   2.789   2.202
  789SOL     OW 3265   3.995   4.945   2.827
  789SOL    HW1 3266   4.006   4.909   2.919
  789SOL    HW2 3267   3.899   4.940   2.800
  790SOL     OW 3268   0.447   3.136   2.256
  790SOL    HW1 3269   0.456   3.221   2.205
  790SOL    HW2 3270   0.373   3.081   2.217
  791SOL     OW 3271   3.054   0.439   3.972
  791SOL    HW1 3272   3.117   0.361   3.982
  791SOL    HW2 3273   2.989   0.439   4.048
  792SOL     OW 3274   2.554   0.681   0.719
  792SOL    HW1 3275   2.499   0.615   0.771
  792SOL    HW2 3276   2.496   0.725   0.650
  793SOL     OW 3277   1.975   6.034   4.655
  793SOL    HW1 3278   1.994   6.005   4.562
  793SOL    HW2 3279   2.000   6.130   4.666
  794SOL     OW 3280   2.996   3.799   2.511
  794SOL    HW1 3281   2.935   3.735   2.558
  794SOL    HW2 3282   3.024   3.871   2.574
  795SOL     OW 3283   4.908   0.807   5.325
  795SOL    HW1 3284   4.980   0.761   5.273
  795SOL    HW2 3285   4.832   0.829   5.264
  796SOL     OW 3286   0.677   2.003   0.082
  796SOL    HW1 3287   0.771   2.032   0.102
  796SOL    HW2 3288   0.638   1.961   0.164
  797SOL     OW 3289   3.337   6.650   1.187
  797SOL    HW1 3290   3.243   6.677   1.206
  797SOL    HW2 3291   3.342   6.551   1.174
  798SOL     OW 3292   5.009   4.332   1.501
  798SOL    HW1 3293   5.095   4.300   1.542
  798SOL    HW2 3294   5.023   4.420   1.456
  799SOL     OW 3295   2.908   2.614   5.775
  799SOL    HW1 3296   2.910   2.713   5.761
  799SOL    HW2 3297   2.983   2.571   5.724
  800SOL     OW 3298   5.821   2.979   3.424
  800SOL    HW1 3299   5.822   2.883   3.395
  800SOL    HW2 3300   5.864   2.987   3.514
  801SOL     OW 3301   1.987   5.958   6.412
  801SOL    HW1 3302   2.039   5.874   6.428
  801SOL    HW2 3303   1.898   5.951   6.456
  802SOL     OW 3304   4.424   2.311   6.258
  802SOL    HW1 3305   4.464   2.380   6.318
  802SOL    HW2 3306   4.332   2.288   6.290
  803SOL     OW 3307   2.308   2.138   3.908
  803SOL    HW1 3308   2.332   2.135   4.005
  803SOL    HW2 3309   2.277   2.230   3.884
  804SOL     OW 3310   5.117   0.129   2.860
  804SOL    HW1 3311   5.098   0.226   2.850
  804SOL    HW2 3312   5.141   0.090   2.771
  805SOL     OW 3313   3.387   0.764   4.019
  805SOL    HW1 3314   3.343   0.845   4.058
  805SOL    HW2 3315   3.482   0.785   3.996
  806SOL     OW 3316   3.098   6.539   5.824
  806SOL    HW1 3317   3.079   6.516   5.920
  806SOL    HW2 3318   3.140   6.629   5.819
  807SOL     OW 3319   1.003   6.006   5.987
  807SOL    HW1 3320   0.917   5.955   5.997
  807SOL    HW2 3321   1.013   6.069   6.064
  808SOL     OW 3322   5.082   2.726   6.285
  808SOL    HW1 3323   4.993   2.733   6.239
  808SOL    HW2 3324   5.133   2.650   6.247
  809SOL     OW 3325   3.079   5.799   6.471
  809SOL    HW1 3326   3.094   5.702   6.491
  809SOL    HW2 3327   2.997   5.809   6.415
  810SOL     OW 3328   3.304   3.927   0.060
  810SOL    HW1 3329   3.389   3.912   0.110
  810SOL    HW2 3330   3.313   3.890   6.987
  811SOL     OW 3331   5.819   5.572   4.130
  811SOL    HW1 3332   5.734   5.625   4.121
  811SOL    HW2 3333   5.818   5.497   4.064
  812SOL     OW 3334   1.052   3.110   1.469
  812SOL    HW1 3335   1.090   3.068   1.387
  812SOL    HW2 3336   1.026   3.038   1.534
  813SOL     OW 3337   2.190   1.279   4.789
  813SOL    HW1 3338   2.178   1.196   4.734
  813SOL    HW2 3339   2.175   1.360   4.731
  814SOL     OW 3340   0.550   4.275   2.229
  814SOL    HW1 3341   0.486   4.314   2.295
  814SOL    HW2 3342   0.512   4.281   2.137
  815SOL     OW 3343   4.770   2.936   4.570
  815SOL    HW1 3344   4.721   2.924   4.656
  815SOL    HW2 3345   4.743   2.864   4.506
  816SOL     OW 3346   4.987   3.736   6.386
  816SOL    HW1 3347   5.022   3.760   6.295
  816SOL    HW2 3348   4.941   3.816   6.425
  817SOL     OW 3349   6.858   5.092   6.676
  817SOL    HW1 3350   6.762   5.074   6.698
  817SOL    HW2 3351   6.899   5.012   6.633
  818SOL     OW 3352   0.205   1.644   5.050
  818SOL    HW1 3353   0.186   1.547   5.035
  818SOL    HW2 3354   0.238   1.658   5.143
  819SOL     OW 3355   5.136   2.865   1.453
  819SOL    HW1 3356   5.058   2.886   1.513
  819SOL    HW2 3357   5.176   2.778   1.480
  820SOL     OW 3358   2.691   1.767   4.962
  820SOL    HW1 3359   2.760   1.826   4.921
  820SOL    HW2 3360   2.622   1.823   5.008
  821SOL     OW 3361   4.756   3.909   6.935
  821SOL    HW1 3362   4.680   3.858   6.894
  821SOL    HW2 3363   4.777   3.988   6.877
  822SOL     OW 3364   6.918   5.098   3.692
  822SOL    HW1 3365   6.909   5.083   3.593
  822SOL    HW2 3366   6.955   5.016   3.735
  823SOL     OW 3367   1.888   2.455   4.542
  823SOL    HW1 3368   1.862   2.509   4.463
  823SOL    HW2 3369   1.959   2.502   4.594
  824SOL     OW 3370   5.037   0.229   6.867
  824SOL    HW1 3371   5.104   0.271   6.928
  824SOL    HW2 3372   5.030   0.283   6.783
  825SOL     OW 3373   6.089   5.751   0.624
  825SOL    HW1 3374   6.024   5.734   0.698
  825SOL    HW2 3375   6.047   5.810   0.555
  826SOL     OW 3376   4.024   1.838   0.312
  826SOL    HW1 3377   4.053   1.743   0.297
  826SOL    HW2 3378   4.082   1.899   0.258
  827SOL     OW 3379   3.304   3.449   4.331
  827SOL    HW1 3380   3.365   3.455   4.410
  827SOL    HW2 3381   3.226   3.391   4.353
  828SOL     OW 3382   0.183   6.776   6.392
  828SOL    HW1 3383   0.259   6.728   6.436
  828SOL    HW2 3384   0.195   6.774   6.293
  829SOL     OW 3385   3.850   3.366   1.758
  829SOL    HW1 3386   3.774   3.334   1.815
  829SOL    HW2 3387   3.814   3.407   1.675
  830SOL     OW 3388   6.977   4.403   6.168
  830SOL    HW1 3389   0.058   4.408   6.167
  830SOL    HW2 3390   6.947   4.357   6.251
  831SOL     OW 3391   5.828   1.099   2.730
  831SOL    HW1 3392   5.751   1.125   2.790
  831SOL    HW2 3393   5.847   1.001   2.742
  832SOL     OW 3394   2.939   1.976   4.355
  832SOL    HW1 3395   2.875   1.924   4.298
  832SOL    HW2 3396   2.985   2.045   4.298
  833SOL     OW 3397   3.724   3.254   0.212
  833SOL    HW1 3398   3.659   3.290   0.146
  833SOL    HW2 3399   3.817   3.263   0.176
  834SOL     OW 3400   5.329   2.802   0.372
  834SOL    HW1 3401   5.328   2.766   0.465
  834SOL    HW2 3402   5.236   2.827   0.345
  835SOL     OW 3403   7.019   0.259   4.525
  835SOL    HW1 3404   7.013   0.244   4.426
  835SOL    HW2 3405   6.965   0.339   4.551
  836SOL     OW 3406   5.144   0.491   4.540
  836SOL    HW1 3407   5.110   0.529   4.626
  836SOL    HW2 3408   5.231   0.533   4.516
  837SOL     OW 3409   1.614   0.516   6.622
  837SOL    HW1 3410   1.526   0.553   6.652
  837SOL    HW2 3411   1.639   0.438   6.679
  838SOL     OW 3412   1.966   6.152   2.794
  838SOL    HW1 3413   1.931   6.207   2.870
  838SOL    HW2 3414   1.997   6.064   2.829
  839SOL     OW 3415   1.083   2.499   0.559
  839SOL    HW1 3416   1.001   2.508   0.502
  839SOL    HW2 3417   1.097   2.403   0.582
  840SOL     OW 3418   4.479   4.898   0.802
  840SOL    HW1 3419   4.535   4.893   0.719
  840SOL    HW2 3420   4.397   4.951   0.784
  841SOL     OW 3421   2.235   5.307   6.586
  841SOL    HW1 3422   2.288   5.325   6.503
  841SOL    HW2 3423   2.271   5.363   6.661
  842SOL     OW 3424   4.183   6.058   0.733
  842SOL    HW1 3425   4.194   6.014   0.822
  842SOL    HW2 3426   4.183   6.157   0.745
  843SOL     OW 3427   1.561   0.414   1.667
  843SOL    HW1 3428   1.542   0.512   1.656
  843SOL    HW2 3429   1.581   0.394   1.763
  844SOL     OW 3430   6.915   0.499   1.655
  844SOL    HW1 3431   6.978   0.455   1.590
  844SOL    HW2 3432   6.968   0.537   1.730
  845SOL     OW 3433   3.670   1.355   2.390
  845SOL    HW1 3434   3.651   1.419   2.465
  845SOL    HW2 3435   3.743   1.292   2.419
  846SOL     OW 3436   2.119   2.126   0.671
  846SOL    HW1 3437   2.115   2.186   0.751
  846SOL    HW2 3438   2.110   2.031   0.701
  847SOL     OW 3439   2.519   3.742   1.567
  847SOL    HW1 3440   2.534   3.725   1.470
  847SOL    HW2 3441   2.589   3.805   1.601
  848SOL     OW 3442   6.580   6.242   0.143
  848SOL    HW1 3443   6.592   6.264   0.046
  848SOL    HW2 3444   6.581   6.326   0.196
  849SOL     OW 3445   5.674   3.048   6.999
  849SOL    HW1 3446   5.690   2.957   6.959
  849SOL    HW2 3447   5.661   3.114   6.926
  850SOL     OW 3448   1.719   1.002   4.563
  850SOL    HW1 3449   1.803   1.015   4.510
  850SOL    HW2 3450   1.719   1.065   4.641
  851SOL     OW 3451   5.037   2.712   6.582
  851SOL    HW1 3452   5.064   2.763   6.500
  851SOL    HW2 3453   5.063   2.765   6.663
  852SOL     OW 3454   6.842   4.562   1.671
  852SOL    HW1 3455   6.793   4.475   1.665
  852SOL    HW2 3456   6.776   4.637   1.679
  853SOL     OW 3457   2.956   3.106   0.749
  853SOL    HW1 3458   3.017   3.028   0.766
  853SOL    HW2 3459   2.907   3.092   0.663
  854SOL     OW 3460   6.808   0.187   5.372
  854SOL    HW1 3461   6.833   0.100   5.330
  854SOL    HW2 3462   6.715   0.181   5.408
  855SOL     OW 3463   5.200   1.860   0.336
  855SOL    HW1 3464   5.222   1.763   0.323
  855SOL    HW2 3465   5.271   1.916   0.292
  856SOL     OW 3466   2.025   5.306   1.828
  856SOL    HW1 3467   1.971   5.229   1.794
  856SOL    HW2 3468   1.975   5.352   1.902
  857SOL     OW 3469   7.003   5.265   5.010
  857SOL    HW1 3470   6.955   5.296   5.093
  857SOL    HW2 3471   6.941   5.209   4.955
  858SOL     OW 3472   4.373   4.172   0.208
  858SOL    HW1 3473   4.372   4.145   0.112
  858SOL    HW2 3474   4.440   4.115   0.258
  859SOL     OW 3475   4.979   5.252   5.569
  859SOL    HW1 3476   4.940   5.254   5.477
  859SOL    HW2 3477   5.072   5.287   5.567
  860SOL     OW 3478   4.674   3.337   6.350
  860SOL    HW1 3479   4.611   3.364   6.278
  860SOL    HW2 3480   4.734   3.264   6.317
  861SOL     OW 3481   1.441   5.578   2.390
  861SOL    HW1 3482   1.409   5.626   2.471
  861SOL    HW2 3483   1.541   5.572   2.392
  862SOL     OW 3484   0.741   4.013   3.801
  862SOL    HW1 3485   0.781   3.961   3.877
  862SOL    HW2 3486   0.792   3.994   3.717
  863SOL     OW 3487   6.352   0.653   1.512
  863SOL    HW1 3488   6.322   0.630   1.605
  863SOL    HW2 3489   6.416   0.729   1.516
  864SOL     OW 3490   6.022   5.763   2.714
  864SOL    HW1 3491   5.979   5.688   2.663
  864SOL    HW2 3492   6.120   5.763   2.696
  865SOL     OW 3493   1.798   5.665   5.239
  865SOL    HW1 3494   1.833   5.755   5.265
  865SOL    HW2 3495   1.702   5.657   5.267
  866SOL     OW 3496   3.343   0.687   1.945
  866SOL    HW1 3497   3.339   0.589   1.927
  866SOL    HW2 3498   3.330   0.704   2.043
  867SOL     OW 3499   5.826   2.790   5.733
  867SOL    HW1 3500   5.808   2.773   5.830
  867SOL    HW2 3501   5.744   2.828   5.690
  868SOL     OW 3502   0.570   2.504   1.602
  868SOL    HW1 3503   0.545   2.499   1.699
  868SOL    HW2 3504   0.669   2.499   1.593
  869SOL     OW 3505   6.952   3.941   2.993
  869SOL    HW1 3506   6.989   3.946   3.086
  869SOL    HW2 3507   6.957   4.032   2.950
  870SOL     OW 3508   3.596   5.183   2.379
  870SOL    HW1 3509   3.549   5.098   2.403
  870SOL    HW2 3510   3.574   5.207   2.284
  871SOL     OW 3511   5.089   1.878   3.923
  871SOL    HW1 3512   5.096   1.862   4.022
  871SOL    HW2 3513   5.155   1.948   3.896
  872SOL     OW 3514   1.315   2.015   4.783
  872SOL    HW1 3515   1.413   2.006   4.763
  872SOL    HW2 3516   1.272   2.068   4.711
  873SOL     OW 3517   4.429   0.324   6.619
  873SOL    HW1 3518   4.524   0.313   6.590
  873SOL    HW2 3519   4.423   0.400   6.683
  874SOL     OW 3520   5.669   3.573   1.560
  874SOL    HW1 3521   5.706   3.497   1.506
  874SOL    HW2 3522   5.712   3.574   1.650
  875SOL     OW 3523   5.004   5.523   1.727
  875SOL    HW1 3524   4.942   5.545   1.653
  875SOL    HW2 3525   5.097   5.552   1.703
  876SOL     OW 3526   5.799   0.349   0.094
  876SOL    HW1 3527   5.726   0.309   0.039
  876SOL    HW2 3528   5.779   0.446   0.110
  877SOL     OW 3529   1.239   3.885   0.068
  877SOL    HW1 3530   1.155   3.874   0.015
  877SOL    HW2 3531   1.286   3.797   0.075
  878SOL     OW 3532   4.087   6.375   4.643
  878SOL    HW1 3533   4.125   6.465   4.667
  878SOL    HW2 3534   4.064   6.325   4.727
  879SOL     OW 3535   5.920   6.553   6.750
  879SOL    HW1 3536   5.870   6.473   6.715
  879SOL    HW2 3537   5.996   6.523   6.807
  880SOL     OW 3538   3.014   3.853   2.881
  880SOL    HW1 3539   3.036   3.935   2.827
  880SOL    HW2 3540   3.006   3.879   2.977
  881SOL     OW 3541   4.761   1.647   0.432
  881SOL    HW1 3542   4.820   1.613   0.358
  881SOL    HW2 3543   4.695   1.712   0.395
  882SOL     OW 3544   1.661   3.024   3.366
  882SOL    HW1 3545   1.667   3.122   3.345
  882SOL    HW2 3546   1.737   2.976   3.323
  883SOL     OW 3547   2.685   0.112   3.325
  883SOL    HW1 3548   2.702   0.209   3.308
  883SOL    HW2 3549   2.772   0.064   3.336
  884SOL     OW 3550   3.549   3.475   5.973
  884SOL    HW1 3551   3.621   3.436   5.916
  884SOL    HW2 3552   3.460   3.452   5.935
  885SOL     OW 3553   4.327   2.515   6.013
  885SOL    HW1 3554   4.396   2.503   5.942
  885SOL    HW2 3555   4.351   2.460   6.093
  886SOL     OW 3556   3.428   1.939   6.796
  886SOL    HW1 3557   3.382   2.025   6.773
  886SOL    HW2 3558   3.400   1.868   6.731
  887SOL     OW 3559   5.386   0.922   5.218
  887SOL    HW1 3560   5.332   0.919   5.302
  887SOL    HW2 3561   5.480   0.946   5.239
  888SOL     OW 3562   6.952   5.937   2.038
  888SOL    HW1 3563   6.953   5.989   2.123
  888SOL    HW2 3564   6.944   5.839   2.059
  889SOL     OW 3565   0.708   3.800   6.913
  889SOL    HW1 3566   0.639   3.863   6.878
  889SOL    HW2 3567   0.662   3.723   6.959
  890SOL     OW 3568   2.558   6.201   4.711
  890SOL    HW1 3569   2.563   6.164   4.804
  890SOL    HW2 3570   2.566   6.128   4.645
  891SOL     OW 3571   5.158   5.138   2.152
  891SOL    HW1 3572   5.124   5.225   2.187
  891SOL    HW2 3573   5.102   5.108   2.075
  892SOL     OW 3574   2.561   4.653   0.663
  892SOL    HW1 3575   2.525   4.628   0.753
  892SOL    HW2 3576   2.604   4.573   0.621
  893SOL     OW 3577   1.336   5.670   2.646
  893SOL    HW1 3578   1.328   5.746   2.710
  893SOL    HW2 3579   1.263   5.604   2.662
  894SOL     OW 3580   1.034   4.104   0.982
  894SOL    HW1 3581   0.941   4.124   1.012
  894SOL    HW2 3582   1.097   4.113   1.058
  895SOL     OW 3583   0.231   5.765   4.511
  895SOL    HW1 3584   0.173   5.771   4.430
  895SOL    HW2 3585   0.230   5.671   4.546
  896SOL     OW 3586   0.686   0.907   6.652
  896SOL    HW1 3587   0.626   0.971   6.604
  896SOL    HW2 3588   0.766   0.887   6.595
  897SOL     OW 3589   4.656   0.820   0.422
  897SOL    HW1 3590   4.755   0.825   0.407
  897SOL    HW2 3591   4.623   0.728   0.399
  898SOL     OW 3592   4.325   0.161   3.230
  898SOL    HW1 3593   4.363   0.237   3.282
  898SOL    HW2 3594   4.358   0.074   3.268
  899SOL     OW 3595   6.904   5.755   0.221
  899SOL    HW1 3596   6.834   5.743   0.150
  899SOL    HW2 3597   6.926   5.852   0.230
  900SOL     OW 3598   5.277   5.625   1.040
  900SOL    HW1 3599   5.218   5.553   1.076
  900SOL    HW2 3600   5.359   5.632   1.096
  901SOL     OW 3601   1.054   0.558   2.948
  901SOL    HW1 3602   1.017   0.479   2.899
  901SOL    HW2 3603   1.071   0.533   3.043
  902SOL     OW 3604   6.139   2.699   1.814
  902SOL    HW1 3605   6.160   2.776   1.754
  902SOL    HW2 3606   6.174   2.615   1.774
  903SOL     OW 3607   0.109   1.849   1.392
  903SOL    HW1 3608   0.090   1.761   1.435
  903SOL    HW2 3609   0.199   1.845   1.348
  904SOL     OW 3610   2.663   1.197   2.398
  904SOL    HW1 3611   2.751   1.204   2.445
  904SOL    HW2 3612   2.675   1.149   2.311
  905SOL     OW 3613   5.710   2.355   6.707
  905SOL    HW1 3614   5.667   2.265   6.696
  905SOL    HW2 3615   5.799   2.343   6.752
  906SOL     OW 3616   5.236   2.721   6.992
  906SOL    HW1 3617   5.207   2.791   6.927
  906SOL    HW2 3618   5.244   2.633   6.945
  907SOL     OW 3619   5.438   4.571   6.871
  907SOL    HW1 3620   5.468   4.559   6.777
  907SOL    HW2 3621   5.445   4.668   6.896
  908SOL     OW 3622   1.340   4.570   2.987
  908SOL    HW1 3623   1.367   4.473   2.986
  908SOL    HW2 3624   1.397   4.620   3.051
  909SOL     OW 3625   5.355   5.303   6.339
  909SOL    HW1 3626   5.352   5.268   6.432
  909SOL    HW2 3627   5.425   5.375   6.332
  910SOL     OW 3628   2.708   5.132   0.741
  910SOL    HW1 3629   2.759   5.053   0.776
  910SOL    HW2 3630   2.648   5.167   0.813
  911SOL     OW 3631   1.047   4.675   5.873
  911SOL    HW1 3632   1.043   4.607   5.801
  911SOL    HW2 3633   1.088   4.636   5.955
  912SOL     OW 3634   5.481   1.813   4.521
  912SOL    HW1 3635   5.477   1.731   4.577
  912SOL    HW2 3636   5.400   1.869   4.538
  913SOL     OW 3637   5.776   6.755   2.734
  913SOL    HW1 3638   5.796   6.694   2.658
  913SOL    HW2 3639   5.723   6.705   2.803
  914SOL     OW 3640   3.134   6.536   6.852
  914SOL    HW1 3641   3.101   6.443   6.861
  914SOL    HW2 3642   3.197   6.557   6.927
  915SOL     OW 3643   5.153   5.903   1.222
  915SOL    HW1 3644   5.176   5.887   1.318
  915SOL    HW2 3645   5.110   5.821   1.185
  916SOL     OW 3646   1.683   3.483   2.616
  916SOL    HW1 3647   1.678   3.579   2.642
  916SOL    HW2 3648   1.639   3.427   2.686
  917SOL     OW 3649   0.231   6.386   0.311
  917SOL    HW1 3650   0.302   6.457   0.316
  917SOL    HW2 3651   0.176   6.388   0.394
  918SOL     OW 3652   3.064   6.283   6.855
  918SOL    HW1 3653   3.093   6.192   6.825
  918SOL    HW2 3654   2.965   6.293   6.840
  919SOL     OW 3655   5.343   1.226   6.129
  919SOL    HW1 3656   5.413   1.219   6.199
  919SOL    HW2 3657   5.259   1.263   6.169
  920SOL     OW 3658   2.834   4.942   2.217
  920SOL    HW1 3659   2.748   4.992   2.219
  920SOL    HW2 3660   2.863   4.930   2.122
  921SOL     OW 3661   4.966   5.430   4.804
  921SOL    HW1 3662   4.934   5.521   4.832
  921SOL    HW2 3663   5.051   5.439   4.753
  922SOL     OW 3664   3.168   2.966   3.834
  922SOL    HW1 3665   3.239   2.934   3.897
  922SOL    HW2 3666   3.081   2.921   3.855
  923SOL     OW 3667   2.102   3.426   5.730
  923SOL    HW1 3668   2.071   3.520   5.718
  923SOL    HW2 3669   2.190   3.414   5.685
  924SOL     OW 3670   6.773   2.991   1.573
  924SOL    HW1 3671   6.709   2.976   1.648
  924SOL    HW2 3672   6.769   2.913   1.510
  925SOL     OW 3673   0.857   1.838   0.362
  925SOL    HW1 3674   0.953   1.859   0.339
  925SOL    HW2 3675   0.808   1.924   0.378
  926SOL     OW 3676   1.777   1.963   1.801
  926SOL    HW1 3677   1.727   1.938   1.718
  926SOL    HW2 3678   1.875   1.969   1.781
  927SOL     OW 3679   6.936   3.560   4.652
  927SOL    HW1 3680   6.948   3.463   4.631
  927SOL    HW2 3681   6.861   3.570   4.717
  928SOL     OW 3682   3.276   4.377   5.690
  928SOL    HW1 3683   3.359   4.395   5.742
  928SOL    HW2 3684   3.210   4.330   5.748
  929SOL     OW 3685   0.236   1.567   4.212
  929SOL    HW1 3686   0.157   1.627   4.197
  929SOL    HW2 3687   0.246   1.550   4.310
  930SOL     OW 3688   5.033   5.366   5.143
  930SOL    HW1 3689   5.066   5.282   5.187
  930SOL    HW2 3690   4.965   5.343   5.074
  931SOL     OW 3691   6.294   0.688   3.042
  931SOL    HW1 3692   6.236   0.625   2.990
  931SOL    HW2 3693   6.356   0.636   3.100
  932SOL     OW 3694   3.621   0.832   3.857
  932SOL    HW1 3695   3.648   0.735   3.852
  932SOL    HW2 3696   3.702   0.889   3.867
  933SOL     OW 3697   1.662   5.764   2.058
  933SOL    HW1 3698   1.750   5.725   2.084
  933SOL    HW2 3699   1.652   5.855   2.098
  934SOL     OW 3700   1.908   3.037   0.628
  934SOL    HW1 3701   1.989   3.040   0.687
  934SOL    HW2 3702   1.935   3.053   0.533
  935SOL     OW 3703   5.539   2.389   5.495
  935SOL    HW1 3704   5.520   2.466   5.555
  935SOL    HW2 3705   5.516   2.304   5.543
  936SOL     OW 3706   1.820   0.407   5.883
  936SOL    HW1 3707   1.915   0.418   5.854
  936SOL    HW2 3708   1.814   0.333   5.950
  937SOL     OW 3709   3.461   1.654   5.645
  937SOL    HW1 3710   3.371   1.612   5.645
  937SOL    HW2 3711   3.458   1.741   5.694
  938SOL     OW 3712   5.642   6.007   4.246
  938SOL    HW1 3713   5.635   6.079   4.314
  938SOL    HW2 3714   5.571   6.020   4.176
  939SOL     OW 3715   1.122   6.785   5.732
  939SOL    HW1 3716   1.165   6.871   5.707
  939SOL    HW2 3717   1.153   6.713   5.670
  940SOL     OW 3718   1.682   4.988   0.270
  940SOL    HW1 3719   1.697   5.057   0.342
  940SOL    HW2 3720   1.720   5.021   0.184
  941SOL     OW 3721   3.341   0.082   0.417
  941SOL    HW1 3722   3.345   0.168   0.469
  941SOL    HW2 3723   3.431   0.039   0.418
  942SOL     OW 3724   6.392   4.754   0.002
  942SOL    HW1 3725   6.357   4.840   6.986
  942SOL    HW2 3726   6.360   4.741   0.096
  943SOL     OW 3727   3.490   5.603   1.248
  943SOL    HW1 3728   3.565   5.591   1.314
  943SOL    HW2 3729   3.405   5.620   1.298
  944SOL     OW 3730   6.852   6.457   3.392
  944SOL    HW1 3731   6.945   6.491   3.381
  944SOL    HW2 3732   6.843   6.369   3.346
  945SOL     OW 3733   0.512   5.182   5.996
  945SOL    HW1 3734   0.441   5.132   5.947
  945SOL    HW2 3735   0.526   5.140   6.086
  946SOL     OW 3736   5.972   2.050   4.503
  946SOL    HW1 3737   6.003   2.122   4.565
  946SOL    HW2 3738   5.991   1.961   4.545
  947SOL     OW 3739   3.633   3.826   3.776
  947SOL    HW1 3740   3.607   3.761   3.848
  947SOL    HW2 3741   3.554   3.846   3.719
  948SOL     OW 3742   3.235   1.150   3.869
  948SOL    HW1 3743   3.276   1.164   3.779
  948SOL    HW2 3744   3.306   1.129   3.935
  949SOL     OW 3745   3.204   0.262   5.654
  949SOL    HW1 3746   3.196   0.229   5.748
  949SOL    HW2 3747   3.120   0.308   5.627
  950SOL     OW 3748   0.085   0.431   2.529
  950SOL    HW1 3749   0.103   0.450   2.625
  950SOL    HW2 3750   0.151   0.479   2.472
  951SOL     OW 3751   1.751   6.915   3.044
  951SOL    HW1 3752   1.802   6.904   2.958
  951SOL    HW2 3753   1.815   6.920   3.120
  952SOL     OW 3754   3.754   1.761   3.481
  952SOL    HW1 3755   3.805   1.683   3.444
  952SOL    HW2 3756   3.679   1.784   3.419
  953SOL     OW 3757   0.423   4.446   5.756
  953SOL    HW1 3758   0.441   4.504   5.677
  953SOL    HW2 3759   0.338   4.475   5.800
  954SOL     OW 3760   4.880   6.469   2.467
  954SOL    HW1 3761   4.881   6.371   2.446
  954SOL    HW2 3762   4.880   6.521   2.382
  955SOL     OW 3763   2.073   5.084   1.108
  955SOL    HW1 3764   1.981   5.122   1.122
  955SOL    HW2 3765   2.111   5.122   1.023
  956SOL     OW 3766   4.364   0.818   1.184
  956SOL    HW1 3767   4.339   0.883   1.256
  956SOL    HW2 3768   4.286   0.760   1.163
  957SOL     OW 3769   5.936   0.572   3.142
  957SOL    HW1 3770   6.005   0.588   3.213
  957SOL    HW2 3771   5.979   0.575   3.052
  958SOL     OW 3772   4.897   6.448   1.335
  958SOL    HW1 3773   4.980   6.457   1.280
  958SOL    HW2 3774   4.820   6.423   1.276
  959SOL     OW 3775   5.040   6.735   2.970
  959SOL    HW1 3776   5.126   6.763   2.927
  959SOL    HW2 3777   4.964   6.773   2.918
  960SOL     OW 3778   1.399   6.636   6.595
  960SOL    HW1 3779   1.464   6.662   6.667
  960SOL    HW2 3780   1.322   6.588   6.635
  961SOL     OW 3781   3.797   1.334   3.286
  961SOL    HW1 3782   3.822   1.268   3.357
  961SOL    HW2 3783   3.828   1.425   3.312
  962SOL     OW 3784   0.394   0.286   4.614
  962SOL    HW1 3785   0.312   0.246   4.573
  962SOL    HW2 3786   0.413   0.374   4.570
  963SOL     OW 3787   5.858   3.104   1.208
  963SOL    HW1 3788   5.775   3.128   1.157
  963SOL    HW2 3789   5.907   3.032   1.158
  964SOL     OW 3790   3.800   6.306   4.834
  964SOL    HW1 3791   3.808   6.295   4.735
  964SOL    HW2 3792   3.891   6.305   4.875
  965SOL     OW 3793   5.850   2.125   3.605
  965SOL    HW1 3794   5.806   2.210   3.576
  965SOL    HW2 3795   5.816   2.050   3.548
  966SOL     OW 3796   4.972   0.905   4.441
  966SOL    HW1 3797   5.002   0.894   4.346
  966SOL    HW2 3798   4.938   0.817   4.475
  967SOL     OW 3799   4.160   4.902   6.327
  967SOL    HW1 3800   4.252   4.864   6.317
  967SOL    HW2 3801   4.116   4.906   6.238
  968SOL     OW 3802   3.382   0.566   1.644
  968SOL    HW1 3803   3.386   0.482   1.699
  968SOL    HW2 3804   3.425   0.549   1.555
  969SOL     OW 3805   2.707   3.908   6.473
  969SOL    HW1 3806   2.770   3.945   6.542
  969SOL    HW2 3807   2.710   3.965   6.391
  970SOL     OW 3808   5.199   6.467   5.849
  970SOL    HW1 3809   5.223   6.564   5.857
  970SOL    HW2 3810   5.231   6.419   5.931
  971SOL     OW 3811   5.253   3.604   3.406
  971SOL    HW1 3812   5.302   3.680   3.362
  971SOL    HW2 3813   5.315   3.555   3.467
  972SOL     OW 3814   0.434   2.809   0.695
  972SOL    HW1 3815   0.348   2.777   0.655
  972SOL    HW2 3816   0.483   2.731   0.734
  973SOL     OW 3817   0.136   2.907   4.975
  973SOL    HW1 3818   0.210   2.952   4.923
  973SOL    HW2 3819   0.134   2.810   4.953
  974SOL     OW 3820   0.799   4.322   2.312
  974SOL    HW1 3821   0.866   4.256   2.279
  974SOL    HW2 3822   0.707   4.286   2.298
  975SOL     OW 3823   3.144   0.618   2.577
  975SOL    HW1 3824   3.048   0.614   2.604
  975SOL    HW2 3825   3.187   0.529   2.595
  976SOL     OW 3826   6.855   3.113   3.287
  976SOL    HW1 3827   6.930   3.150   3.343
  976SOL    HW2 3828   6.890   3.039   3.229
  977SOL     OW 3829   6.320   1.406   1.849
  977SOL    HW1 3830   6.397   1.347   1.828
  977SOL    HW2 3831   6.340   1.499   1.818
  978SOL     OW 3832   5.312   2.839   1.075
  978SOL    HW1 3833   5.342   2.924   1.117
  978SOL    HW2 3834   5.303   2.852   0.976
  979SOL     OW 3835   0.418   4.822   6.478
  979SOL    HW1 3836   0.483   4.895   6.501
  979SOL    HW2 3837   0.376   4.843   6.389
  980SOL     OW 3838   4.521   1.133   4.546
  980SOL    HW1 3839   4.502   1.042   4.584
  980SOL    HW2 3840   4.459   1.150   4.470
  981SOL     OW 3841   0.807   6.464   5.445
  981SOL    HW1 3842   0.891   6.500   5.405
  981SOL    HW2 3843   0.730   6.521   5.418
  982SOL     OW 3844   0.052   1.359   6.324
  982SOL    HW1 3845   0.051   1.459   6.318
  982SOL    HW2 3846   7.014   1.330   6.400
  983SOL     OW 3847   0.637   4.258   3.108
  983SOL    HW1 3848   0.557   4.232   3.054
  983SOL    HW2 3849   0.716   4.272   3.048
  984SOL     OW 3850   0.633   3.692   3.946
  984SOL    HW1 3851   0.683   3.641   3.876
  984SOL    HW2 3852   0.695   3.757   3.991
  985SOL     OW 3853   6.234   5.449   5.025
  985SOL    HW1 3854   6.162   5.398   4.978
  985SOL    HW2 3855   6.316   5.451   4.969
  986SOL     OW 3856   4.257   5.397   1.478
  986SOL    HW1 3857   4.322   5.326   1.452
  986SOL    HW2 3858   4.238   5.455   1.399
  987SOL     OW 3859   4.841   4.612   5.090
  987SOL    HW1 3860   4.917   4.668   5.123
  987SOL    HW2 3861   4.875   4.521   5.065
  988SOL     OW 3862   2.635   4.726   2.142
  988SOL    HW1 3863   2.684   4.752   2.225
  988SOL    HW2 3864   2.695   4.673   2.082
  989SOL     OW 3865   1.022   2.398   0.896
  989SOL    HW1 3866   1.085   2.455   0.844
  989SOL    HW2 3867   0.971   2.339   0.834
  990SOL     OW 3868   3.702   6.623   4.733
  990SOL    HW1 3869   3.617   6.570   4.729
  990SOL    HW2 3870   3.734   6.627   4.828
  991SOL     OW 3871   0.847   5.751   4.078
  991SOL    HW1 3872   0.759   5.763   4.124
  991SOL    HW2 3873   0.918   5.797   4.131
  992SOL     OW 3874   6.947   2.616   6.845
  992SOL    HW1 3875   6.908   2.620   6.937
  992SOL    HW2 3876   6.937   2.524   6.808
  993SOL     OW 3877   1.442   4.959   0.133
  993SOL    HW1 3878   1.439   4.908   0.048
  993SOL    HW2 3879   1.532   4.949   0.175
  994SOL     OW 3880   3.165   6.877   0.968
  994SOL    HW1 3881   3.143   6.963   0.922
  994SOL    HW2 3882   3.247   6.837   0.927
  995SOL     OW 3883   6.381   3.670   5.660
  995SOL    HW1 3884   6.365   3.720   5.746
  995SOL    HW2 3885   6.355   3.728   5.583
  996SOL     OW 3886   4.205   6.601   4.752
  996SOL    HW1 3887   4.301   6.585   4.772
  996SOL    HW2 3888   4.152   6.598   4.837
  997SOL     OW 3889   1.483   6.526   3.446
  997SOL    HW1 3890   1.517   6.507   3.538
  997SOL    HW2 3891   1.404   6.468   3.427
  998SOL     OW 3892   4.695   0.293   6.523
  998SOL    HW1 3893   4.692   0.248   6.434
  998SOL    HW2 3894   4.751   0.375   6.517
  999SOL     OW 3895   5.401   3.137   2.775
  999SOL    HW1 3896   5.442   3.183   2.855
  999SOL    HW2 3897   5.473   3.116   2.709
 1000SOL     OW 3898   5.215   1.873   2.077
 1000SOL    HW1 3899   5.118   1.867   2.053
 1000SOL    HW2 3900   5.270   1.839   2.000
 1001SOL     OW 3901   2.954   6.700   2.753
 1001SOL    HW1 3902   2.922   6.787   2.789
 1001SOL    HW2 3903   2.926   6.626   2.815
 1002SOL     OW 3904   4.070   2.707   1.205
 1002SOL    HW1 3905   4.101   2.773   1.136
 1002SOL    HW2 3906   3.982   2.735   1.242
 1003SOL     OW 3907   1.242   0.235   2.872
 1003SOL    HW1 3908   1.209   0.304   2.936
 1003SOL    HW2 3909   1.335   0.259   2.843
 1004SOL     OW 3910   5.225   1.285   4.819
 1004SOL    HW1 3911   5.318   1.257   4.796
 1004SOL    HW2 3912   5.168   1.282   4.737
 1005SOL     OW 3913   0.720   5.105   2.055
 1005SOL    HW1 3914   0.662   5.026   2.035
 1005SOL    HW2 3915   0.670   5.189   2.034
 1006SOL     OW 3916   2.101   4.067   1.641
 1006SOL    HW1 3917   2.119   4.092   1.546
 1006SOL    HW2 3918   2.187   4.047   1.688
 1007SOL     OW 3919   5.026   0.467   6.209
 1007SOL    HW1 3920   4.984   0.525   6.139
 1007SOL    HW2 3921   5.126   0.472   6.201
 1008SOL     OW 3922   0.692   4.999   5.245
 1008SOL    HW1 3923   0.730   5.022   5.334
 1008SOL    HW2 3924   0.631   5.073   5.215
 1009SOL     OW 3925   6.525   5.953   5.916
 1009SOL    HW1 3926   6.619   5.975   5.889
 1009SOL    HW2 3927   6.477   6.036   5.943
 1010SOL     OW 3928   3.114   3.884   0.653
 1010SOL    HW1 3929   3.153   3.792   0.650
 1010SOL    HW2 3930   3.153   3.940   0.580
 1011SOL     OW 3931   6.666   4.903   3.026
 1011SOL    HW1 3932   6.663   4.906   3.126
 1011SOL    HW2 3933   6.628   4.816   2.994
 1012SOL     OW 3934   5.685   6.342   2.700
 1012SOL    HW1 3935   5.755   6.382   2.759
 1012SOL    HW2 3936   5.671   6.246   2.725
 1013SOL     OW 3937   0.223   0.072   6.205
 1013SOL    HW1 3938   0.310   0.122   6.206
 1013SOL    HW2 3939   0.239   6.995   6.186
 1014SOL     OW 3940   1.104   4.793   4.834
 1014SOL    HW1 3941   1.141   4.800   4.927
 1014SOL    HW2 3942   1.024   4.732   4.835
 1015SOL     OW 3943   2.028   6.261   0.459
 1015SOL    HW1 3944   2.022   6.352   0.416
 1015SOL    HW2 3945   2.015   6.191   0.389
 1016SOL     OW 3946   6.841   3.742   0.608
 1016SOL    HW1 3947   6.859   3.839   0.591
 1016SOL    HW2 3948   6.917   3.702   0.659
 1017SOL     OW 3949   2.487   1.221   2.582
 1017SOL    HW1 3950   2.390   1.216   2.558
 1017SOL    HW2 3951   2.543   1.206   2.501
 1018SOL     OW 3952   6.142   6.301   3.976
 1018SOL    HW1 3953   6.087   6.253   4.044
 1018SOL    HW2 3954   6.197   6.234   3.926
 1019SOL     OW 3955   6.209   4.130   1.127
 1019SOL    HW1 3956   6.124   4.175   1.152
 1019SOL    HW2 3957   6.256   4.098   1.209
 1020SOL     OW 3958   5.071   1.274   1.215
 1020SOL    HW1 3959   5.027   1.224   1.140
 1020SOL    HW2 3960   5.163   1.303   1.187
 1021SOL     OW 3961   0.914   6.581   1.296
 1021SOL    HW1 3962   0.957   6.516   1.234
 1021SOL    HW2 3963   0.866   6.651   1.242
 1022SOL     OW 3964   2.428   5.339   6.399
 1022SOL    HW1 3965   2.497   5.278   6.439
 1022SOL    HW2 3966   2.429   5.329   6.299
 1023SOL     OW 3967   0.735   1.869   2.441
 1023SOL    HW1 3968   0.725   1.898   2.537
 1023SOL    HW2 3969   0.832   1.868   2.417
 1024SOL     OW 3970   1.626   2.143   4.190
 1024SOL    HW1 3971   1.568   2.223   4.202
 1024SOL    HW2 3972   1.573   2.070   4.147
 1025SOL     OW 3973   4.839   4.628   0.901
 1025SOL    HW1 3974   4.879   4.688   0.832
 1025SOL    HW2 3975   4.740   4.638   0.901
 1026SOL     OW 3976   2.878   2.836   1.695
 1026SOL    HW1 3977   2.969   2.839   1.738
 1026SOL    HW2 3978   2.874   2.905   1.623
 1027SOL     OW 3979   6.818   6.816   0.031
 1027SOL    HW1 3980   6.781   6.799   0.123
 1027SOL    HW2 3981   6.903   6.764   0.020
 1028SOL     OW 3982   1.038   5.852   2.589
 1028SOL    HW1 3983   1.062   5.908   2.669
 1028SOL    HW2 3984   1.117   5.847   2.528
 1029SOL     OW 3985   1.291   1.035   5.255
 1029SOL    HW1 3986   1.222   1.032   5.326
 1029SOL    HW2 3987   1.336   0.946   5.248
 1030SOL     OW 3988   3.891   3.457   0.843
 1030SOL    HW1 3989   3.920   3.547   0.875
 1030SOL    HW2 3990   3.972   3.400   0.826
 1031SOL     OW 3991   4.120   3.639   0.473
 1031SOL    HW1 3992   4.142   3.732   0.445
 1031SOL    HW2 3993   4.023   3.632   0.494
 1032SOL     OW 3994   1.870   1.485   0.364
 1032SOL    HW1 3995   1.862   1.401   0.418
 1032SOL    HW2 3996   1.954   1.533   0.389
 1033SOL     OW 3997   0.245   0.951   2.124
 1033SOL    HW1 3998   0.269   0.894   2.046
 1033SOL    HW2 3999   0.176   1.018   2.096
 1034SOL     OW 4000   3.311   0.900   5.130
 1034SOL    HW1 4001   3.358   0.817   5.159
 1034SOL    HW2 4002   3.353   0.980   5.174
 1035SOL     OW 4003   1.455   0.803   0.334
 1035SOL    HW1 4004   1.550   0.804   0.365
 1035SOL    HW2 4005   1.450   0.760   0.244
 1036SOL     OW 4006   4.707   1.294   1.437
 1036SOL    HW1 4007   4.666   1.316   1.526
 1036SOL    HW2 4008   4.672   1.357   1.368
 1037SOL     OW 4009   1.407   3.852   2.196
 1037SOL    HW1 4010   1.446   3.823   2.108
 1037SOL    HW2 4011   1.454   3.804   2.270
 1038SOL     OW 4012   2.036   5.975   0.317
 1038SOL    HW1 4013   1.956   5.988   0.257
 1038SOL    HW2 4014   2.008   5.922   0.397
 1039SOL     OW 4015   3.260   3.759   2.768
 1039SOL    HW1 4016   3.328   3.791   2.702
 1039SOL    HW2 4017   3.198   3.834   2.793
 1040SOL     OW 4018   3.492   1.827   3.387
 1040SOL    HW1 4019   3.465   1.898   3.322
 1040SOL    HW2 4020   3.436   1.834   3.470
 1041SOL     OW 4021   6.207   6.285   6.697
 1041SOL    HW1 4022   6.197   6.375   6.654
 1041SOL    HW2 4023   6.250   6.296   6.787
 1042SOL     OW 4024   5.495   4.133   3.568
 1042SOL    HW1 4025   5.417   4.093   3.617
 1042SOL    HW2 4026   5.483   4.233   3.564
 1043SOL     OW 4027   2.633   1.729   4.153
 1043SOL    HW1 4028   2.536   1.703   4.150
 1043SOL    HW2 4029   2.688   1.650   4.181
 1044SOL     OW 4030   6.054   4.992   1.849
 1044SOL    HW1 4031   5.959   4.966   1.830
 1044SOL    HW2 4032   6.096   4.923   1.908
 1045SOL     OW 4033   2.203   0.655   2.142
 1045SOL    HW1 4034   2.287   0.658   2.087
 1045SOL    HW2 4035   2.140   0.725   2.110
 1046SOL     OW 4036   2.844   2.159   1.475
 1046SOL    HW1 4037   2.908   2.103   1.422
 1046SOL    HW2 4038   2.894   2.233   1.521
 1047SOL     OW 4039   3.729   0.344   3.369
 1047SOL    HW1 4040   3.670   0.391   3.435
 1047SOL    HW2 4041   3.682   0.262   3.336
 1048SOL     OW 4042   0.954   0.370   1.889
 1048SOL    HW1 4043   0.928   0.297   1.952
 1048SOL    HW2 4044   0.936   0.458   1.931
 1049SOL     OW 4045   4.137   6.768   6.402
 1049SOL    HW1 4046   4.220   6.822   6.417
 1049SOL    HW2 4047   4.061   6.830   6.380
 1050SOL     OW 4048   3.313   0.222   4.311
 1050SOL    HW1 4049   3.378   0.187   4.380
 1050SOL    HW2 4050   3.250   0.285   4.355
 1051SOL     OW 4051   1.808   1.380   5.135
 1051SOL    HW1 4052   1.749   1.322   5.191
 1051SOL    HW2 4053   1.858   1.323   5.069
 1052SOL     OW 4054   3.928   1.397   0.476
 1052SOL    HW1 4055   4.007   1.340   0.455
 1052SOL    HW2 4056   3.859   1.386   0.404
 1053SOL     OW 4057   5.337   2.411   4.969
 1053SOL    HW1 4058   5.329   2.312   4.965
 1053SOL    HW2 4059   5.269   2.453   4.909
 1054SOL     OW 4060   4.198   5.272   6.364
 1054SOL    HW1 4061   4.138   5.270   6.284
 1054SOL    HW2 4062   4.195   5.363   6.406
 1055SOL     OW 4063   4.770   5.694   6.370
 1055SOL    HW1 4064   4.685   5.676   6.321
 1055SOL    HW2 4065   4.751   5.699   6.468
 1056SOL     OW 4066   3.331   3.738   6.552
 1056SOL    HW1 4067   3.408   3.741   6.490
 1056SOL    HW2 4068   3.363   3.752   6.646
 1057SOL     OW 4069   3.229   2.786   7.007
 1057SOL    HW1 4070   3.183   2.790   6.918
 1057SOL    HW2 4071   3.328   2.783   6.993
 1058SOL     OW 4072   2.929   2.082   1.979
 1058SOL    HW1 4073   2.893   2.174   1.998
 1058SOL    HW2 4074   3.007   2.090   1.916
 1059SOL     OW 4075   2.586   6.244   2.067
 1059SOL    HW1 4076   2.605   6.290   2.153
 1059SOL    HW2 4077   2.564   6.148   2.083
 1060SOL     OW 4078   6.212   0.868   5.085
 1060SOL    HW1 4079   6.158   0.787   5.064
 1060SOL    HW2 4080   6.284   0.843   5.150
 1061SOL     OW 4081   0.606   3.573   6.043
 1061SOL    HW1 4082   0.586   3.658   5.995
 1061SOL    HW2 4083   0.618   3.499   5.976
 1062SOL     OW 4084   3.311   5.207   4.824
 1062SOL    HW1 4085   3.367   5.128   4.798
 1062SOL    HW2 4086   3.220   5.176   4.851
 1063SOL     OW 4087   3.161   6.497   4.256
 1063SOL    HW1 4088   3.232   6.457   4.314
 1063SOL    HW2 4089   3.177   6.595   4.247
 1064SOL     OW 4090   1.240   3.055   0.301
 1064SOL    HW1 4091   1.182   3.131   0.273
 1064SOL    HW2 4092   1.189   2.996   0.364
 1065SOL     OW 4093   6.159   1.035   4.467
 1065SOL    HW1 4094   6.094   1.023   4.542
 1065SOL    HW2 4095   6.164   1.132   4.443
 1066SOL     OW 4096   5.108   6.657   0.775
 1066SOL    HW1 4097   5.106   6.624   0.680
 1066SOL    HW2 4098   5.038   6.609   0.828
 1067SOL     OW 4099   2.159   1.513   0.066
 1067SOL    HW1 4100   2.241   1.561   0.033
 1067SOL    HW2 4101   2.095   1.501   7.010
 1068SOL     OW 4102   6.615   2.813   1.178
 1068SOL    HW1 4103   6.521   2.821   1.211
 1068SOL    HW2 4104   6.644   2.900   1.139
 1069SOL     OW 4105   6.449   3.096   2.862
 1069SOL    HW1 4106   6.463   3.104   2.763
 1069SOL    HW2 4107   6.390   3.017   2.881
 1070SOL     OW 4108   0.943   0.837   2.036
 1070SOL    HW1 4109   0.924   0.926   1.996
 1070SOL    HW2 4110   0.995   0.849   2.121
 1071SOL     OW 4111   0.993   3.007   6.487
 1071SOL    HW1 4112   0.974   3.030   6.392
 1071SOL    HW2 4113   1.092   3.004   6.501
 1072SOL     OW 4114   1.622   1.691   2.299
 1072SOL    HW1 4115   1.529   1.672   2.269
 1072SOL    HW2 4116   1.685   1.683   2.222
 1073SOL     OW 4117   5.388   2.413   3.019
 1073SOL    HW1 4118   5.355   2.439   3.110
 1073SOL    HW2 4119   5.312   2.417   2.953
 1074SOL     OW 4120   2.982   5.107   1.580
 1074SOL    HW1 4121   2.901   5.162   1.559
 1074SOL    HW2 4122   2.969   5.014   1.546
 1075SOL     OW 4123   6.686   3.886   5.810
 1075SOL    HW1 4124   6.630   3.962   5.777
 1075SOL    HW2 4125   6.673   3.807   5.749
 1076SOL     OW 4126   2.174   4.550   5.052
 1076SOL    HW1 4127   2.257   4.499   5.026
 1076SOL    HW2 4128   2.197   4.646   5.063
 1077SOL     OW 4129   6.757   6.675   0.271
 1077SOL    HW1 4130   6.703   6.700   0.351
 1077SOL    HW2 4131   6.850   6.652   0.300
 1078SOL     OW 4132   6.524   6.174   4.614
 1078SOL    HW1 4133   6.443   6.183   4.672
 1078SOL    HW2 4134   6.572   6.262   4.610
 1079SOL     OW 4135   0.697   6.675   1.488
 1079SOL    HW1 4136   0.765   6.622   1.438
 1079SOL    HW2 4137   0.646   6.733   1.424
 1080SOL     OW 4138   3.923   6.744   0.556
 1080SOL    HW1 4139   3.874   6.744   0.469
 1080SOL    HW2 4140   3.864   6.781   0.628
 1081SOL     OW 4141   6.436   6.437   3.455
 1081SOL    HW1 4142   6.459   6.481   3.542
 1081SOL    HW2 4143   6.513   6.447   3.391
 1082SOL     OW 4144   4.064   0.012   0.476
 1082SOL    HW1 4145   4.031   6.997   0.564
 1082SOL    HW2 4146   3.990   0.006   0.409
 1083SOL     OW 4147   5.967   3.950   1.898
 1083SOL    HW1 4148   5.993   3.959   1.994
 1083SOL    HW2 4149   5.900   3.876   1.888
 1084SOL     OW 4150   5.490   0.230   5.711
 1084SOL    HW1 4151   5.457   0.141   5.680
 1084SOL    HW2 4152   5.525   0.222   5.804
 1085SOL     OW 4153   2.049   3.803   4.626
 1085SOL    HW1 4154   2.047   3.824   4.724
 1085SOL    HW2 4155   2.138   3.828   4.589
 1086SOL     OW 4156   5.271   5.298   0.617
 1086SOL    HW1 4157   5.289   5.383   0.666
 1086SOL    HW2 4158   5.297   5.309   0.521
 1087SOL     OW 4159   4.134   0.122   5.737
 1087SOL    HW1 4160   4.138   0.129   5.836
 1087SOL    HW2 4161   4.133   0.025   5.711
 1088SOL     OW 4162   6.571   5.108   4.198
 1088SOL    HW1 4163   6.649   5.108   4.261
 1088SOL    HW2 4164   6.604   5.122   4.105
 1089SOL     OW 4165   5.589   5.358   4.084
 1089SOL    HW1 4166   5.664   5.375   4.020
 1089SOL    HW2 4167   5.615   5.284   4.147
 1090SOL     OW 4168   5.548   2.260   5.270
 1090SOL    HW1 4169   5.542   2.317   5.352
 1090SOL    HW2 4170   5.637   2.214   5.268
 1091SOL     OW 4171   1.714   3.354   3.538
 1091SOL    HW1 4172   1.621   3.364   3.571
 1091SOL    HW2 4173   1.713   3.337   3.439
 1092SOL     OW 4174   0.599   6.120   0.803
 1092SOL    HW1 4175   0.503   6.107   0.828
 1092SOL    HW2 4176   0.617   6.077   0.715
 1093SOL     OW 4177   1.428   0.709   3.247
 1093SOL    HW1 4178   1.433   0.620   3.293
 1093SOL    HW2 4179   1.352   0.707   3.181
 1094SOL     OW 4180   0.239   0.149   2.923
 1094SOL    HW1 4181   0.327   0.193   2.943
 1094SOL    HW2 4182   0.239   0.115   2.829
 1095SOL     OW 4183   5.563   3.620   0.144
 1095SOL    HW1 4184   5.562   3.630   0.243
 1095SOL    HW2 4185   5.656   3.636   0.110
 1096SOL     OW 4186   1.856   5.414   2.010
 1096SOL    HW1 4187   1.798   5.429   2.091
 1096SOL    HW2 4188   1.802   5.424   1.927
 1097SOL     OW 4189   3.194   6.370   4.589
 1097SOL    HW1 4190   3.185   6.276   4.622
 1097SOL    HW2 4191   3.246   6.370   4.504
 1098SOL     OW 4192   6.933   3.769   0.309
 1098SOL    HW1 4193   6.834   3.762   0.303
 1098SOL    HW2 4194   6.960   3.866   0.312
 1099SOL     OW 4195   5.067   0.412   6.635
 1099SOL    HW1 4196   5.008   0.452   6.565
 1099SOL    HW2 4197   5.154   0.384   6.594
 1100SOL     OW 4198   4.712   1.993   4.317
 1100SOL    HW1 4199   4.630   2.051   4.313
 1100SOL    HW2 4200   4.687   1.904   4.356
 1101SOL     OW 4201   4.619   2.830   6.739
 1101SOL    HW1 4202   4.689   2.887   6.696
 1101SOL    HW2 4203   4.662   2.750   6.781
 1102SOL     OW 4204   2.911   0.670   3.333
 1102SOL    HW1 4205   2.837   0.711   3.386
 1102SOL    HW2 4206   2.878   0.650   3.240
 1103SOL     OW 4207   3.464   6.134   0.791
 1103SOL    HW1 4208   3.554   6.165   0.763
 1103SOL    HW2 4209   3.400   6.210   0.789
 1104SOL     OW 4210   6.623   2.620   3.834
 1104SOL    HW1 4211   6.697   2.684   3.858
 1104SOL    HW2 4212   6.539   2.646   3.881
 1105SOL     OW 4213   5.057   1.512   6.411
 1105SOL    HW1 4214   5.130   1.499   6.343
 1105SOL    HW2 4215   5.009   1.598   6.392
 1106SOL     OW 4216   6.483   1.421   0.816
 1106SOL    HW1 4217   6.565   1.464   0.778
 1106SOL    HW2 4218   6.419   1.399   0.742
 1107SOL     OW 4219   0.963   1.473   6.645
 1107SOL    HW1 4220   0.983   1.376   6.628
 1107SOL    HW2 4221   0.890   1.502   6.583
 1108SOL     OW 4222   2.601   0.659   4.041
 1108SOL    HW1 4223   2.631   0.754   4.049
 1108SOL    HW2 4224   2.642   0.619   3.959
 1109SOL     OW 4225   4.941   2.683   4.962
 1109SOL    HW1 4226   4.881   2.743   4.908
 1109SOL    HW2 4227   5.004   2.740   5.016
 1110SOL     OW 4228   1.612   1.142   2.296
 1110SOL    HW1 4229   1.580   1.065   2.242
 1110SOL    HW2 4230   1.687   1.112   2.356
 1111SOL     OW 4231   5.801   3.603   6.296
 1111SOL    HW1 4232   5.885   3.561   6.261
 1111SOL    HW2 4233   5.736   3.531   6.321
 1112SOL     OW 4234   5.644   0.331   2.556
 1112SOL    HW1 4235   5.640   0.261   2.627
 1112SOL    HW2 4236   5.678   0.291   2.471
 1113SOL     OW 4237   6.449   3.080   2.583
 1113SOL    HW1 4238   6.385   3.028   2.527
 1113SOL    HW2 4239   6.521   3.119   2.525
 1114SOL     OW 4240   3.817   3.870   4.775
 1114SOL    HW1 4241   3.896   3.833   4.823
 1114SOL    HW2 4242   3.752   3.909   4.840
 1115SOL     OW 4243   2.865   4.740   5.906
 1115SOL    HW1 4244   2.767   4.752   5.922
 1115SOL    HW2 4245   2.879   4.695   5.818
 1116SOL     OW 4246   4.132   6.976   0.132
 1116SOL    HW1 4247   4.115   6.985   0.034
 1116SOL    HW2 4248   4.048   6.993   0.182
 1117SOL     OW 4249   2.203   2.380   1.815
 1117SOL    HW1 4250   2.208   2.318   1.893
 1117SOL    HW2 4251   2.264   2.458   1.831
 1118SOL     OW 4252   4.280   6.069   0.146
 1118SOL    HW1 4253   4.347   6.035   0.213
 1118SOL    HW2 4254   4.253   5.995   0.085
 1119SOL     OW 4255   3.448   4.972   3.816
 1119SOL    HW1 4256   3.374   5.020   3.768
 1119SOL    HW2 4257   3.534   4.989   3.769
 1120SOL     OW 4258   6.915   3.140   1.210
 1120SOL    HW1 4259   7.010   3.171   1.207
 1120SOL    HW2 4260   6.857   3.213   1.246
 1121SOL     OW 4261   6.674   4.582   5.026
 1121SOL    HW1 4262   6.725   4.577   4.940
 1121SOL    HW2 4263   6.603   4.653   5.018
 1122SOL     OW 4264   6.054   1.759   1.928
 1122SOL    HW1 4265   5.963   1.780   1.964
 1122SOL    HW2 4266   6.123   1.809   1.981
 1123SOL     OW 4267   3.901   1.386   4.291
 1123SOL    HW1 4268   3.867   1.436   4.211
 1123SOL    HW2 4269   3.874   1.433   4.374
 1124SOL     OW 4270   2.357   2.717   4.045
 1124SOL    HW1 4271   2.318   2.809   4.037
 1124SOL    HW2 4272   2.377   2.698   4.142
 1125SOL     OW 4273   1.709   3.671   3.721
 1125SOL    HW1 4274   1.772   3.738   3.760
 1125SOL    HW2 4275   1.712   3.676   3.621
 1126SOL     OW 4276   4.231   4.984   4.386
 1126SOL    HW1 4277   4.326   5.002   4.410
 1126SOL    HW2 4278   4.187   5.070   4.360
 1127SOL     OW 4279   6.680   6.924   1.697
 1127SOL    HW1 4280   6.725   6.846   1.741
 1127SOL    HW2 4281   6.725   6.943   1.610
 1128SOL     OW 4282   4.719   1.518   4.805
 1128SOL    HW1 4283   4.717   1.550   4.900
 1128SOL    HW2 4284   4.810   1.534   4.767
 1129SOL     OW 4285   0.958   0.410   0.037
 1129SOL    HW1 4286   0.934   0.314   0.022
 1129SOL    HW2 4287   0.876   0.467   0.030
 1130SOL     OW 4288   2.151   4.678   2.071
 1130SOL    HW1 4289   2.102   4.599   2.034
 1130SOL    HW2 4290   2.177   4.739   1.996
 1131SOL     OW 4291   2.157   5.483   3.502
 1131SOL    HW1 4292   2.103   5.540   3.441
 1131SOL    HW2 4293   2.253   5.485   3.474
 1132SOL     OW 4294   1.863   1.701   2.530
 1132SOL    HW1 4295   1.904   1.641   2.461
 1132SOL    HW2 4296   1.924   1.779   2.546
 1133SOL     OW 4297   1.201   6.551   6.245
 1133SOL    HW1 4298   1.271   6.539   6.175
 1133SOL    HW2 4299   1.178   6.462   6.285
 1134SOL     OW 4300   3.696   6.027   1.210
 1134SOL    HW1 4301   3.604   6.031   1.173
 1134SOL    HW2 4302   3.699   5.962   1.286
 1135SOL     OW 4303   1.661   6.647   3.057
 1135SOL    HW1 4304   1.695   6.634   3.150
 1135SOL    HW2 4305   1.666   6.743   3.032
 1136SOL     OW 4306   1.360   5.249   2.573
 1136SOL    HW1 4307   1.452   5.289   2.574
 1136SOL    HW2 4308   1.322   5.254   2.666
 1137SOL     OW 4309   1.089   6.063   4.645
 1137SOL    HW1 4310   1.140   6.077   4.559
 1137SOL    HW2 4311   1.153   6.036   4.717
 1138SOL     OW 4312   1.676   4.011   5.271
 1138SOL    HW1 4313   1.756   4.060   5.239
 1138SOL    HW2 4314   1.617   3.988   5.193
 1139SOL     OW 4315   2.401   5.182   5.019
 1139SOL    HW1 4316   2.476   5.248   5.030
 1139SOL    HW2 4317   2.391   5.158   4.923
 1140SOL     OW 4318   1.937   2.233   1.599
 1140SOL    HW1 4319   1.931   2.301   1.673
 1140SOL    HW2 4320   1.982   2.273   1.520
 1141SOL     OW 4321   0.269   4.633   5.899
 1141SOL    HW1 4322   0.198   4.668   5.959
 1141SOL    HW2 4323   0.346   4.698   5.897
 1142SOL     OW 4324   1.612   6.362   1.948
 1142SOL    HW1 4325   1.553   6.394   2.023
 1142SOL    HW2 4326   1.675   6.435   1.922
 1143SOL     OW 4327   0.343   3.794   1.987
 1143SOL    HW1 4328   0.325   3.702   1.953
 1143SOL    HW2 4329   0.266   3.824   2.044
 1144SOL     OW 4330   5.378   4.351   0.192
 1144SOL    HW1 4331   5.470   4.389   0.178
 1144SOL    HW2 4332   5.370   4.266   0.140
 1145SOL     OW 4333   5.498   6.946   0.667
 1145SOL    HW1 4334   5.461   6.872   0.610
 1145SOL    HW2 4335   5.596   6.957   0.649
 1146SOL     OW 4336   1.207   1.047   1.325
 1146SOL    HW1 4337   1.204   1.079   1.230
 1146SOL    HW2 4338   1.166   0.956   1.331
 1147SOL     OW 4339   1.751   6.593   0.377
 1147SOL    HW1 4340   1.774   6.623   0.470
 1147SOL    HW2 4341   1.833   6.554   0.334
 1148SOL     OW 4342   4.549   5.768   3.168
 1148SOL    HW1 4343   4.499   5.797   3.249
 1148SOL    HW2 4344   4.550   5.668   3.164
 1149SOL     OW 4345   5.024   3.220   1.658
 1149SOL    HW1 4346   4.932   3.245   1.630
 1149SOL    HW2 4347   5.024   3.192   1.755
 1150SOL     OW 4348   1.283   3.450   0.474
 1150SOL    HW1 4349   1.286   3.529   0.413
 1150SOL    HW2 4350   1.375   3.431   0.509
 1151SOL     OW 4351   5.870   5.420   4.344
 1151SOL    HW1 4352   5.959   5.443   4.383
 1151SOL    HW2 4353   5.838   5.496   4.287
 1152SOL     OW 4354   3.295   6.689   6.692
 1152SOL    HW1 4355   3.208   6.658   6.730
 1152SOL    HW2 4356   3.302   6.660   6.597
 1153SOL     OW 4357   5.636   6.529   2.017
 1153SOL    HW1 4358   5.676   6.546   1.927
 1153SOL    HW2 4359   5.546   6.571   2.022
 1154SOL     OW 4360   2.651   2.680   0.538
 1154SOL    HW1 4361   2.734   2.629   0.515
 1154SOL    HW2 4362   2.618   2.728   0.457
 1155SOL     OW 4363   3.569   5.884   4.173
 1155SOL    HW1 4364   3.603   5.913   4.084
 1155SOL    HW2 4365   3.623   5.808   4.207
 1156SOL     OW 4366   2.725   1.553   2.732
 1156SOL    HW1 4367   2.789   1.556   2.809
 1156SOL    HW2 4368   2.659   1.480   2.746
 1157SOL     OW 4369   2.694   1.231   0.538
 1157SOL    HW1 4370   2.659   1.163   0.602
 1157SOL    HW2 4371   2.759   1.291   0.585
 1158SOL     OW 4372   5.983   4.232   3.227
 1158SOL    HW1 4373   5.927   4.156   3.193
 1158SOL    HW2 4374   5.999   4.220   3.325
 1159SOL     OW 4375   6.606   4.974   0.534
 1159SOL    HW1 4376   6.651   4.914   0.467
 1159SOL    HW2 4377   6.604   5.067   0.499
 1160SOL     OW 4378   4.994   2.096   0.136
 1160SOL    HW1 4379   4.965   2.182   0.096
 1160SOL    HW2 4380   5.088   2.104   0.170
 1161SOL     OW 4381   6.464   5.276   1.000
 1161SOL    HW1 4382   6.366   5.278   1.023
 1161SOL    HW2 4383   6.476   5.236   0.910
 1162SOL     OW 4384   2.830   2.288   4.624
 1162SOL    HW1 4385   2.923   2.291   4.662
 1162SOL    HW2 4386   2.794   2.195   4.631
 1163SOL     OW 4387   5.931   2.745   1.311
 1163SOL    HW1 4388   5.961   2.651   1.292
 1163SOL    HW2 4389   5.831   2.746   1.320
 1164SOL     OW 4390   4.306   2.770   6.120
 1164SOL    HW1 4391   4.327   2.680   6.082
 1164SOL    HW2 4392   4.343   2.776   6.213
 1165SOL     OW 4393   4.493   6.810   3.503
 1165SOL    HW1 4394   4.519   6.899   3.465
 1165SOL    HW2 4395   4.419   6.822   3.568
 1166SOL     OW 4396   2.923   4.645   6.536
 1166SOL    HW1 4397   2.982   4.583   6.483
 1166SOL    HW2 4398   2.834   4.653   6.491
 1167SOL     OW 4399   4.862   4.643   2.569
 1167SOL    HW1 4400   4.912   4.577   2.513
 1167SOL    HW2 4401   4.919   4.724   2.584
 1168SOL     OW 4402   6.971   7.020   2.216
 1168SOL    HW1 4403   6.906   0.021   2.289
 1168SOL    HW2 4404   6.929   6.957   2.150
 1169SOL     OW 4405   4.468   1.436   5.411
 1169SOL    HW1 4406   4.376   1.442   5.448
 1169SOL    HW2 4407   4.492   1.340   5.397
 1170SOL     OW 4408   4.951   5.027   2.923
 1170SOL    HW1 4409   5.030   4.965   2.924
 1170SOL    HW2 4410   4.981   5.120   2.904
 1171SOL     OW 4411   0.063   6.420   0.535
 1171SOL    HW1 4412   0.033   6.337   0.584
 1171SOL    HW2 4413   0.054   6.499   0.596
 1172SOL     OW 4414   0.076   3.304   6.394
 1172SOL    HW1 4415   0.119   3.266   6.476
 1172SOL    HW2 4416   0.063   3.231   6.327
 1173SOL     OW 4417   4.057   2.196   0.517
 1173SOL    HW1 4418   4.147   2.216   0.556
 1173SOL    HW2 4419   3.991   2.265   0.547
 1174SOL     OW 4420   1.908   4.542   0.420
 1174SOL    HW1 4421   1.828   4.502   0.464
 1174SOL    HW2 4422   1.991   4.501   0.459
 1175SOL     OW 4423   3.146   3.456   4.098
 1175SOL    HW1 4424   3.200   3.470   4.015
 1175SOL    HW2 4425   3.206   3.457   4.177
 1176SOL     OW 4426   4.953   2.956   0.067
 1176SOL    HW1 4427   4.946   3.048   0.028
 1176SOL    HW2 4428   4.864   2.910   0.062
 1177SOL     OW 4429   1.034   1.817   4.122
 1177SOL    HW1 4430   1.049   1.756   4.044
 1177SOL    HW2 4431   1.103   1.889   4.121
 1178SOL     OW 4432   4.530   6.057   7.001
 1178SOL    HW1 4433   4.514   6.131   6.936
 1178SOL    HW2 4434   4.460   6.059   0.052
 1179SOL     OW 4435   0.953   5.772   0.136
 1179SOL    HW1 4436   0.908   5.685   0.155
 1179SOL    HW2 4437   0.913   5.843   0.194
 1180SOL     OW 4438   3.600   6.422   0.604
 1180SOL    HW1 4439   3.624   6.414   0.507
 1180SOL    HW2 4440   3.663   6.367   0.658
 1181SOL     OW 4441   6.394   6.929   6.833
 1181SOL    HW1 4442   6.372   7.003   6.770
 1181SOL    HW2 4443   6.320   6.918   6.899
 1182SOL     OW 4444   4.653   4.778   2.362
 1182SOL    HW1 4445   4.720   4.740   2.426
 1182SOL    HW2 4446   4.561   4.753   2.392
 1183SOL     OW 4447   2.119   3.941   6.104
 1183SOL    HW1 4448   2.045   3.927   6.038
 1183SOL    HW2 4449   2.188   3.870   6.090
 1184SOL     OW 4450   0.467   0.213   5.595
 1184SOL    HW1 4451   0.457   0.235   5.692
 1184SOL    HW2 4452   0.384   0.240   5.546
 1185SOL     OW 4453   6.780   1.367   6.780
 1185SOL    HW1 4454   6.714   1.302   6.815
 1185SOL    HW2 4455   6.860   1.370   6.840
 1186SOL     OW 4456   5.900   6.386   4.707
 1186SOL    HW1 4457   5.808   6.404   4.674
 1186SOL    HW2 4458   5.960   6.462   4.680
 1187SOL     OW 4459   6.420   1.209   5.828
 1187SOL    HW1 4460   6.360   1.188   5.750
 1187SOL    HW2 4461   6.515   1.196   5.802
 1188SOL     OW 4462   2.836   0.724   6.361
 1188SOL    HW1 4463   2.900   0.794   6.328
 1188SOL    HW2 4464   2.870   0.684   6.446
 1189SOL     OW 4465   5.591   3.202   3.967
 1189SOL    HW1 4466   5.574   3.267   3.892
 1189SOL    HW2 4467   5.629   3.118   3.930
 1190SOL     OW 4468   2.387   6.475   3.779
 1190SOL    HW1 4469   2.483   6.498   3.763
 1190SOL    HW2 4470   2.370   6.380   3.754
 1191SOL     OW 4471   4.171   6.158   2.539
 1191SOL    HW1 4472   4.141   6.099   2.465
 1191SOL    HW2 4473   4.228   6.106   2.603
 1192SOL     OW 4474   5.755   6.140   3.275
 1192SOL    HW1 4475   5.664   6.180   3.288
 1192SOL    HW2 4476   5.785   6.154   3.181
 1193SOL     OW 4477   0.170   5.553   4.288
 1193SOL    HW1 4478   0.205   5.509   4.370
 1193SOL    HW2 4479   0.247   5.576   4.228
 1194SOL     OW 4480   3.736   0.430   1.516
 1194SOL    HW1 4481   3.810   0.483   1.475
 1194SOL    HW2 4482   3.672   0.402   1.444
 1195SOL     OW 4483   5.510   2.465   3.751
 1195SOL    HW1 4484   5.460   2.550   3.740
 1195SOL    HW2 4485   5.590   2.480   3.809
 1196SOL     OW 4486   6.996   6.457   4.863
 1196SOL    HW1 4487   6.923   6.390   4.851
 1196SOL    HW2 4488   6.964   6.547   4.833
 1197SOL     OW 4489   2.246   6.275   0.618
 1197SOL    HW1 4490   2.159   6.283   0.569
 1197SOL    HW2 4491   2.314   6.334   0.575
 1198SOL     OW 4492   1.600   2.649   6.830
 1198SOL    HW1 4493   1.669   2.585   6.864
 1198SOL    HW2 4494   1.537   2.602   6.768
 1199SOL     OW 4495   5.976   4.115   1.680
 1199SOL    HW1 4496   5.976   4.039   1.745
 1199SOL    HW2 4497   6.070   4.138   1.656
 1200SOL     OW 4498   2.991   3.947   2.268
 1200SOL    HW1 4499   3.072   3.999   2.296
 1200SOL    HW2 4500   2.944   3.913   2.350
 1201SOL     OW 4501   1.553   2.040   4.665
 1201SOL    HW1 4502   1.577   1.946   4.691
 1201SOL    HW2 4503   1.637   2.089   4.640
 1202SOL     OW 4504   1.418   5.635   5.594
 1202SOL    HW1 4505   1.501   5.602   5.550
 1202SOL    HW2 4506   1.427   5.628   5.693
 1203SOL     OW 4507   4.105   5.782   5.169
 1203SOL    HW1 4508   4.098   5.859   5.232
 1203SOL    HW2 4509   4.063   5.701   5.211
 1204SOL     OW 4510   2.164   6.967   2.623
 1204SOL    HW1 4511   2.075   6.931   2.593
 1204SOL    HW2 4512   2.223   6.978   2.544
 1205SOL     OW 4513   5.394   3.961   2.051
 1205SOL    HW1 4514   5.467   4.015   2.093
 1205SOL    HW2 4515   5.332   3.928   2.121
 1206SOL     OW 4516   3.432   3.832   4.858
 1206SOL    HW1 4517   3.453   3.924   4.826
 1206SOL    HW2 4518   3.388   3.781   4.783
 1207SOL     OW 4519   1.257   6.098   2.567
 1207SOL    HW1 4520   1.273   6.034   2.491
 1207SOL    HW2 4521   1.342   6.108   2.620
 1208SOL     OW 4522   3.134   3.783   5.992
 1208SOL    HW1 4523   3.043   3.765   5.955
 1208SOL    HW2 4524   3.133   3.772   6.091
 1209SOL     OW 4525   3.469   6.502   5.840
 1209SOL    HW1 4526   3.450   6.467   5.748
 1209SOL    HW2 4527   3.504   6.595   5.834
 1210SOL     OW 4528   3.346   0.948   3.385
 1210SOL    HW1 4529   3.286   0.879   3.345
 1210SOL    HW2 4530   3.290   1.017   3.433
 1211SOL     OW 4531   1.186   2.603   0.230
 1211SOL    HW1 4532   1.123   2.576   0.157
 1211SOL    HW2 4533   1.225   2.692   0.209
 1212SOL     OW 4534   1.357   0.254   6.920
 1212SOL    HW1 4535   1.365   0.344   6.963
 1212SOL    HW2 4536   1.337   0.266   6.823
 1213SOL     OW 4537   5.381   3.088   1.151
 1213SOL    HW1 4538   5.384   3.123   1.245
 1213SOL    HW2 4539   5.470   3.101   1.107
 1214SOL     OW 4540   6.743   2.766   1.407
 1214SOL    HW1 4541   6.758   2.667   1.405
 1214SOL    HW2 4542   6.708   2.796   1.319
 1215SOL     OW 4543   1.573   6.043   3.401
 1215SOL    HW1 4544   1.648   5.977   3.398
 1215SOL    HW2 4545   1.610   6.136   3.392
 1216SOL     OW 4546   3.469   6.807   1.527
 1216SOL    HW1 4547   3.428   6.717   1.545
 1216SOL    HW2 4548   3.504   6.810   1.434
 1217SOL     OW 4549   3.120   4.843   0.104
 1217SOL    HW1 4550   3.219   4.852   0.105
 1217SOL    HW2 4551   3.094   4.747   0.111
 1218SOL     OW 4552   2.239   5.203   3.849
 1218SOL    HW1 4553   2.325   5.240   3.886
 1218SOL    HW2 4554   2.185   5.165   3.923
 1219SOL     OW 4555   3.808   6.648   2.254
 1219SOL    HW1 4556   3.743   6.587   2.300
 1219SOL    HW2 4557   3.758   6.714   2.199
 1220SOL     OW 4558   0.997   4.682   2.601
 1220SOL    HW1 4559   0.965   4.598   2.557
 1220SOL    HW2 4560   1.076   4.661   2.659
 1221SOL     OW 4561   5.196   4.575   6.646
 1221SOL    HW1 4562   5.167   4.518   6.568
 1221SOL    HW2 4563   5.295   4.573   6.654
 1222SOL     OW 4564   6.685   0.473   6.157
 1222SOL    HW1 4565   6.764   0.473   6.095
 1222SOL    HW2 4566   6.623   0.547   6.132
 1223SOL     OW 4567   3.627   6.628   0.801
 1223SOL    HW1 4568   3.700   6.592   0.858
 1223SOL    HW2 4569   3.598   6.558   0.736
 1224SOL     OW 4570   2.694   0.108   2.321
 1224SOL    HW1 4571   2.687   0.207   2.308
 1224SOL    HW2 4572   2.657   0.061   2.241
 1225SOL     OW 4573   2.451   3.669   5.588
 1225SOL    HW1 4574   2.425   3.616   5.668
 1225SOL    HW2 4575   2.514   3.616   5.532
 1226SOL     OW 4576   1.944   4.700   0.818
 1226SOL    HW1 4577   1.946   4.798   0.797
 1226SOL    HW2 4578   1.849   4.670   0.826
 1227SOL     OW 4579   1.174   3.058   5.864
 1227SOL    HW1 4580   1.272   3.041   5.868
 1227SOL    HW2 4581   1.150   3.092   5.773
 1228SOL     OW 4582   3.687   1.998   6.753
 1228SOL    HW1 4583   3.756   1.926   6.766
 1228SOL    HW2 4584   3.597   1.960   6.774
 1229SOL     OW 4585   2.987   4.097   6.805
 1229SOL    HW1 4586   2.916   4.168   6.803
 1229SOL    HW2 4587   2.944   4.007   6.800
 1230SOL     OW 4588   4.607   0.634   3.466
 1230SOL    HW1 4589   4.568   0.636   3.374
 1230SOL    HW2 4590   4.666   0.554   3.476
 1231SOL     OW 4591   1.284   4.819   4.617
 1231SOL    HW1 4592   1.223   4.825   4.696
 1231SOL    HW2 4593   1.229   4.814   4.533
 1232SOL     OW 4594   1.782   2.612   3.961
 1232SOL    HW1 4595   1.771   2.568   3.872
 1232SOL    HW2 4596   1.876   2.643   3.972
 1233SOL     OW 4597   0.585   3.186   4.104
 1233SOL    HW1 4598   0.659   3.170   4.038
 1233SOL    HW2 4599   0.617   3.247   4.176
 1234SOL     OW 4600   6.794   3.803   4.259
 1234SOL    HW1 4601   6.739   3.761   4.188
 1234SOL    HW2 4602   6.747   3.884   4.296
 1235SOL     OW 4603   6.723   5.389   4.037
 1235SOL    HW1 4604   6.796   5.452   4.012
 1235SOL    HW2 4605   6.740   5.299   3.996
 1236SOL     OW 4606   5.368   0.949   6.109
 1236SOL    HW1 4607   5.385   0.913   6.017
 1236SOL    HW2 4608   5.341   1.045   6.103
 1237SOL     OW 4609   2.964   4.883   6.646
 1237SOL    HW1 4610   2.928   4.799   6.605
 1237SOL    HW2 4611   2.909   4.907   6.726
 1238SOL     OW 4612   1.303   1.730   0.934
 1238SOL    HW1 4613   1.402   1.739   0.947
 1238SOL    HW2 4614   1.258   1.814   0.963
 1239SOL     OW 4615   0.868   6.873   5.675
 1239SOL    HW1 4616   0.946   6.816   5.698
 1239SOL    HW2 4617   0.791   6.849   5.735
 1240SOL     OW 4618   4.317   6.055   2.147
 1240SOL    HW1 4619   4.252   6.116   2.193
 1240SOL    HW2 4620   4.408   6.070   2.186
 1241SOL     OW 4621   0.374   2.613   4.279
 1241SOL    HW1 4622   0.426   2.547   4.333
 1241SOL    HW2 4623   0.347   2.570   4.192
 1242SOL     OW 4624   2.360   3.429   6.250
 1242SOL    HW1 4625   2.306   3.380   6.319
 1242SOL    HW2 4626   2.318   3.417   6.160
 1243SOL     OW 4627   2.546   5.374   5.482
 1243SOL    HW1 4628   2.499   5.305   5.536
 1243SOL    HW2 4629   2.480   5.426   5.429
 1244SOL     OW 4630   0.699   0.993   3.252
 1244SOL    HW1 4631   0.708   0.898   3.279
 1244SOL    HW2 4632   0.769   1.016   3.184
 1245SOL     OW 4633   3.105   2.683   6.095
 1245SOL    HW1 4634   3.154   2.770   6.088
 1245SOL    HW2 4635   3.007   2.701   6.108
 1246SOL     OW 4636   0.774   0.130   1.179
 1246SOL    HW1 4637   0.864   0.117   1.221
 1246SOL    HW2 4638   0.703   0.103   1.244
 1247SOL     OW 4639   0.898   6.385   6.867
 1247SOL    HW1 4640   0.802   6.410   6.855
 1247SOL    HW2 4641   0.906   6.285   6.870
 1248SOL     OW 4642   1.875   6.427   3.450
 1248SOL    HW1 4643   1.898   6.447   3.545
 1248SOL    HW2 4644   1.952   6.379   3.407
 1249SOL     OW 4645   5.931   2.960   3.682
 1249SOL    HW1 4646   5.983   3.028   3.733
 1249SOL    HW2 4647   5.968   2.869   3.700
 1250SOL     OW 4648   0.334   4.256   4.376
 1250SOL    HW1 4649   0.320   4.158   4.361
 1250SOL    HW2 4650   0.424   4.283   4.339
 1251SOL     OW 4651   3.186   6.944   6.190
 1251SOL    HW1 4652   3.264   6.917   6.132
 1251SOL    HW2 4653   3.109   6.883   6.172
 1252SOL     OW 4654   3.587   3.462   6.824
 1252SOL    HW1 4655   3.553   3.387   6.767
 1252SOL    HW2 4656   3.621   3.535   6.765
 1253SOL     OW 4657   4.119   6.710   2.963
 1253SOL    HW1 4658   4.029   6.754   2.968
 1253SOL    HW2 4659   4.140   6.689   2.868
 1254SOL     OW 4660   6.252   1.790   2.546
 1254SOL    HW1 4661   6.294   1.867   2.593
 1254SOL    HW2 4662   6.234   1.815   2.451
 1255SOL     OW 4663   6.288   0.651   0.319
 1255SOL    HW1 4664   6.337   0.620   0.400
 1255SOL    HW2 4665   6.350   0.703   0.259
 1256SOL     OW 4666   4.990   2.321   4.048
 1256SOL    HW1 4667   4.919   2.257   4.077
 1256SOL    HW2 4668   5.065   2.270   4.005
 1257SOL     OW 4669   6.059   1.675   4.086
 1257SOL    HW1 4670   6.131   1.744   4.086
 1257SOL    HW2 4671   5.977   1.712   4.129
 1258SOL     OW 4672   0.184   5.860   3.667
 1258SOL    HW1 4673   0.105   5.914   3.636
 1258SOL    HW2 4674   0.248   5.919   3.715
 1259SOL     OW 4675   4.468   2.305   5.506
 1259SOL    HW1 4676   4.388   2.298   5.565
 1259SOL    HW2 4677   4.446   2.269   5.415
 1260SOL     OW 4678   0.675   1.836   5.541
 1260SOL    HW1 4679   0.670   1.908   5.610
 1260SOL    HW2 4680   0.583   1.804   5.519
 1261SOL     OW 4681   6.726   3.507   0.736
 1261SOL    HW1 4682   6.748   3.570   0.661
 1261SOL    HW2 4683   6.794   3.516   0.808
 1262SOL     OW 4684   4.815   5.865   2.598
 1262SOL    HW1 4685   4.886   5.922   2.557
 1262SOL    HW2 4686   4.856   5.803   2.665
 1263SOL     OW 4687   6.361   2.150   3.487
 1263SOL    HW1 4688   6.361   2.241   3.447
 1263SOL    HW2 4689   6.279   2.138   3.543
 1264SOL     OW 4690   1.253   2.837   5.552
 1264SOL    HW1 4691   1.327   2.788   5.598
 1264SOL    HW2 4692   1.282   2.861   5.459
 1265SOL     OW 4693   6.028   0.003   5.815
 1265SOL    HW1 4694   6.019   6.923   5.811
 1265SOL    HW2 4695   6.122   0.029   5.790
 1266SOL     OW 4696   2.327   1.171   5.698
 1266SOL    HW1 4697   2.291   1.181   5.791
 1266SOL    HW2 4698   2.265   1.112   5.646
 1267SOL     OW 4699   3.587   0.206   2.642
 1267SOL    HW1 4700   3.530   0.134   2.603
 1267SOL    HW2 4701   3.547   0.238   2.728
 1268SOL     OW 4702   4.125   2.797   5.551
 1268SOL    HW1 4703   4.177   2.852   5.616
 1268SOL    HW2 4704   4.161   2.813   5.459
 1269SOL     OW 4705   5.993   1.880   3.746
 1269SOL    HW1 4706   5.952   1.817   3.680
 1269SOL    HW2 4707   5.934   1.889   3.825
 1270SOL     OW 4708   6.085   5.067   2.932
 1270SOL    HW1 4709   5.997   5.114   2.926
 1270SOL    HW2 4710   6.070   4.969   2.947
 1271SOL     OW 4711   2.242   1.296   1.137
 1271SOL    HW1 4712   2.324   1.308   1.082
 1271SOL    HW2 4713   2.184   1.377   1.129
 1272SOL     OW 4714   6.050   2.026   0.229
 1272SOL    HW1 4715   6.009   1.943   0.193
 1272SOL    HW2 4716   5.980   2.083   0.272
 1273SOL     OW 4717   2.014   4.229   5.804
 1273SOL    HW1 4718   2.112   4.207   5.804
 1273SOL    HW2 4719   1.998   4.308   5.746
 1274SOL     OW 4720   0.003   4.820   3.762
 1274SOL    HW1 4721   0.086   4.802   3.816
 1274SOL    HW2 4722   6.943   4.818   3.823
 1275SOL     OW 4723   2.222   1.503   2.574
 1275SOL    HW1 4724   2.188   1.558   2.498
 1275SOL    HW2 4725   2.304   1.546   2.612
 1276SOL     OW 4726   5.644   4.478   3.340
 1276SOL    HW1 4727   5.737   4.478   3.377
 1276SOL    HW2 4728   5.638   4.413   3.264
 1277SOL     OW 4729   0.589   6.263   6.983
 1277SOL    HW1 4730   0.493   6.236   6.977
 1277SOL    HW2 4731   0.600   6.353   6.940
 1278SOL     OW 4732   0.438   5.666   2.881
 1278SOL    HW1 4733   0.414   5.604   2.807
 1278SOL    HW2 4734   0.510   5.626   2.937
 1279SOL     OW 4735   2.595   3.075   1.025
 1279SOL    HW1 4736   2.639   3.127   0.951
 1279SOL    HW2 4737   2.496   3.081   1.016
 1280SOL     OW 4738   2.663   2.459   3.990
 1280SOL    HW1 4739   2.659   2.420   3.898
 1280SOL    HW2 4740   2.758   2.458   4.022
 1281SOL     OW 4741   6.224   6.411   4.867
 1281SOL    HW1 4742   6.154   6.368   4.924
 1281SOL    HW2 4743   6.180   6.463   4.794
 1282SOL     OW 4744   0.605   2.869   1.294
 1282SOL    HW1 4745   0.701   2.879   1.266
 1282SOL    HW2 4746   0.572   2.955   1.331
 1283SOL     OW 4747   6.903   1.802   4.405
 1283SOL    HW1 4748   6.912   1.874   4.473
 1283SOL    HW2 4749   6.965   1.821   4.329
 1284SOL     OW 4750   3.901   2.039   2.136
 1284SOL    HW1 4751   3.900   2.127   2.185
 1284SOL    HW2 4752   3.841   2.045   2.056
 1285SOL     OW 4753   4.688   0.962   4.069
 1285SOL    HW1 4754   4.694   0.863   4.088
 1285SOL    HW2 4755   4.773   1.006   4.098
 1286SOL     OW 4756   5.375   1.546   1.232
 1286SOL    HW1 4757   5.475   1.551   1.242
 1286SOL    HW2 4758   5.331   1.596   1.306
 1287SOL     OW 4759   5.903   4.917   5.180
 1287SOL    HW1 4760   5.909   4.831   5.130
 1287SOL    HW2 4761   5.809   4.931   5.212
 1288SOL     OW 4762   4.899   4.771   0.089
 1288SOL    HW1 4763   4.860   4.681   0.072
 1288SOL    HW2 4764   4.999   4.764   0.092
 1289SOL     OW 4765   6.547   0.174   0.414
 1289SOL    HW1 4766   6.508   0.082   0.408
 1289SOL    HW2 4767   6.584   0.189   0.506
 1290SOL     OW 4768   1.502   6.532   5.589
 1290SOL    HW1 4769   1.565   6.511   5.664
 1290SOL    HW2 4770   1.408   6.527   5.623
 1291SOL     OW 4771   6.053   5.278   3.891
 1291SOL    HW1 4772   6.129   5.338   3.913
 1291SOL    HW2 4773   6.065   5.190   3.938
 1292SOL     OW 4774   0.755   0.048   2.268
 1292SOL    HW1 4775   0.809   7.007   2.209
 1292SOL    HW2 4776   0.817   0.100   2.327
 1293SOL     OW 4777   4.926   1.016   0.729
 1293SOL    HW1 4778   5.023   1.039   0.719
 1293SOL    HW2 4779   4.917   0.920   0.753
 1294SOL     OW 4780   2.087   4.657   4.770
 1294SOL    HW1 4781   2.177   4.683   4.804
 1294SOL    HW2 4782   2.094   4.632   4.673
 1295SOL     OW 4783   7.002   4.439   0.729
 1295SOL    HW1 4784   6.940   4.430   0.807
 1295SOL    HW2 4785   0.077   4.438   0.761
 1296SOL     OW 4786   4.975   6.738   5.997
 1296SOL    HW1 4787   5.009   6.701   5.911
 1296SOL    HW2 4788   5.051   6.779   6.048
 1297SOL     OW 4789   6.462   0.103   0.725
 1297SOL    HW1 4790   6.489   0.198   0.741
 1297SOL    HW2 4791   6.523   0.042   0.775
 1298SOL     OW 4792   5.164   0.698   3.066
 1298SOL    HW1 4793   5.074   0.676   3.029
 1298SOL    HW2 4794   5.220   0.615   3.067
 1299SOL     OW 4795   0.945   3.447   4.344
 1299SOL    HW1 4796   1.005   3.418   4.418
 1299SOL    HW2 4797   0.905   3.536   4.366
 1300SOL     OW 4798   0.507   5.639   1.022
 1300SOL    HW1 4799   0.521   5.678   1.113
 1300SOL    HW2 4800   0.536   5.706   0.952
 1301SOL     OW 4801   6.586   0.441   0.039
 1301SOL    HW1 4802   6.601   0.446   0.138
 1301SOL    HW2 4803   6.531   0.360   0.018
 1302SOL     OW 4804   6.501   0.053   5.201
 1302SOL    HW1 4805   6.439   0.128   5.179
 1302SOL    HW2 4806   6.592   0.074   5.166
 1303SOL     OW 4807   2.983   6.434   1.577
 1303SOL    HW1 4808   3.016   6.517   1.531
 1303SOL    HW2 4809   3.014   6.354   1.527
 1304SOL     OW 4810   0.139   0.754   0.970
 1304SOL    HW1 4811   0.192   0.753   1.055
 1304SOL    HW2 4812   0.202   0.747   0.892
 1305SOL     OW 4813   3.993   4.704   5.981
 1305SOL    HW1 4814   3.963   4.626   6.036
 1305SOL    HW2 4815   4.063   4.674   5.917
 1306SOL     OW 4816   2.926   5.987   3.889
 1306SOL    HW1 4817   3.007   5.958   3.838
 1306SOL    HW2 4818   2.891   6.073   3.852
 1307SOL     OW 4819   2.163   3.267   4.132
 1307SOL    HW1 4820   2.065   3.267   4.111
 1307SOL    HW2 4821   2.176   3.278   4.230
 1308SOL     OW 4822   6.627   3.593   6.297
 1308SOL    HW1 4823   6.716   3.558   6.326
 1308SOL    HW2 4824   6.625   3.601   6.197
 1309SOL     OW 4825   6.128   3.789   6.811
 1309SOL    HW1 4826   6.091   3.863   6.866
 1309SOL    HW2 4827   6.055   3.747   6.757
 1310SOL     OW 4828   1.885   4.180   3.330
 1310SOL    HW1 4829   1.800   4.130   3.319
 1310SOL    HW2 4830   1.882   4.234   3.415
 1311SOL     OW 4831   5.296   5.242   0.287
 1311SOL    HW1 4832   5.202   5.233   0.255
 1311SOL    HW2 4833   5.337   5.325   0.248
 1312SOL     OW 4834   2.664   1.021   6.292
 1312SOL    HW1 4835   2.742   1.051   6.237
 1312SOL    HW2 4836   2.644   0.925   6.271
 1313SOL     OW 4837   6.451   5.646   1.150
 1313SOL    HW1 4838   6.451   5.707   1.230
 1313SOL    HW2 4839   6.519   5.575   1.163
 1314SOL     OW 4840   2.170   1.560   3.971
 1314SOL    HW1 4841   2.086   1.601   4.008
 1314SOL    HW2 4842   2.161   1.461   3.970
 1315SOL     OW 4843   6.158   0.970   2.825
 1315SOL    HW1 4844   6.130   0.933   2.914
 1315SOL    HW2 4845   6.238   1.029   2.836
 1316SOL     OW 4846   5.058   0.009   6.704
 1316SOL    HW1 4847   5.144   6.979   6.712
 1316SOL    HW2 4848   5.058   0.086   6.766
 1317SOL     OW 4849   3.108   3.009   5.333
 1317SOL    HW1 4850   3.168   3.052   5.400
 1317SOL    HW2 4851   3.156   2.933   5.289
 1318SOL     OW 4852   2.030   1.541   6.014
 1318SOL    HW1 4853   2.101   1.530   5.944
 1318SOL    HW2 4854   1.948   1.492   5.986
 1319SOL     OW 4855   6.865   0.506   0.265
 1319SOL    HW1 4856   6.928   0.455   0.323
 1319SOL    HW2 4857   6.772   0.473   0.280
 1320SOL     OW 4858   3.164   3.169   6.417
 1320SOL    HW1 4859   3.169   3.073   6.392
 1320SOL    HW2 4860   3.148   3.224   6.335
 1321SOL     OW 4861   0.062   2.857   0.763
 1321SOL    HW1 4862   0.006   2.815   0.834
 1321SOL    HW2 4863   0.083   2.788   0.693
 1322SOL     OW 4864   3.507   2.399   0.263
 1322SOL    HW1 4865   3.498   2.316   0.209
 1322SOL    HW2 4866   3.601   2.409   0.295
 1323SOL     OW 4867   3.787   0.124   1.523
 1323SOL    HW1 4868   3.768   0.222   1.527
 1323SOL    HW2 4869   3.868   0.108   1.467
 1324SOL     OW 4870   2.254   4.127   5.921
 1324SOL    HW1 4871   2.290   4.107   6.012
 1324SOL    HW2 4872   2.297   4.067   5.854
 1325SOL     OW 4873   3.427   6.005   4.940
 1325SOL    HW1 4874   3.494   6.077   4.921
 1325SOL    HW2 4875   3.436   5.932   4.871
 1326SOL     OW 4876   5.301   1.559   4.927
 1326SOL    HW1 4877   5.293   1.593   5.021
 1326SOL    HW2 4878   5.266   1.465   4.923
 1327SOL     OW 4879   4.859   5.330   2.641
 1327SOL    HW1 4880   4.793   5.400   2.668
 1327SOL    HW2 4881   4.914   5.304   2.720
 1328SOL     OW 4882   2.484   2.154   6.125
 1328SOL    HW1 4883   2.500   2.059   6.099
 1328SOL    HW2 4884   2.449   2.205   6.046
 1329SOL     OW 4885   0.874   2.750   3.850
 1329SOL    HW1 4886   0.859   2.651   3.863
 1329SOL    HW2 4887   0.917   2.788   3.932
 1330SOL     OW 4888   6.058   3.053   2.750
 1330SOL    HW1 4889   6.002   3.109   2.811
 1330SOL    HW2 4890   6.124   3.001   2.803
 1331SOL     OW 4891   4.772   2.426   3.481
 1331SOL    HW1 4892   4.814   2.394   3.396
 1331SOL    HW2 4893   4.755   2.348   3.541
 1332SOL     OW 4894   1.737   5.579   0.724
 1332SOL    HW1 4895   1.700   5.539   0.808
 1332SOL    HW2 4896   1.832   5.550   0.713
 1333SOL     OW 4897   3.608   3.708   2.797
 1333SOL    HW1 4898   3.572   3.710   2.703
 1333SOL    HW2 4899   3.577   3.625   2.843
 1334SOL     OW 4900   6.853   3.463   1.691
 1334SOL    HW1 4901   6.940   3.420   1.667
 1334SOL    HW2 4902   6.865   3.515   1.776
 1335SOL     OW 4903   0.438   3.651   3.395
 1335SOL    HW1 4904   0.478   3.595   3.467
 1335SOL    HW2 4905   0.478   3.743   3.398
 1336SOL     OW 4906   1.950   0.214   5.401
 1336SOL    HW1 4907   1.993   0.278   5.464
 1336SOL    HW2 4908   1.883   0.262   5.345
 1337SOL     OW 4909   6.800   6.645   2.093
 1337SOL    HW1 4910   6.719   6.689   2.131
 1337SOL    HW2 4911   6.855   6.607   2.168
 1338SOL     OW 4912   6.650   4.035   5.253
 1338SOL    HW1 4913   6.694   4.093   5.185
 1338SOL    HW2 4914   6.591   3.968   5.206
 1339SOL     OW 4915   6.046   0.809   6.633
 1339SOL    HW1 4916   6.063   0.905   6.612
 1339SOL    HW2 4917   6.132   0.759   6.635
 1340SOL     OW 4918   3.672   3.097   1.749
 1340SOL    HW1 4919   3.760   3.052   1.762
 1340SOL    HW2 4920   3.611   3.036   1.698
 1341SOL     OW 4921   4.959   5.584   6.674
 1341SOL    HW1 4922   5.004   5.634   6.747
 1341SOL    HW2 4923   5.026   5.528   6.625
 1342SOL     OW 4924   1.623   6.257   1.471
 1342SOL    HW1 4925   1.719   6.233   1.459
 1342SOL    HW2 4926   1.614   6.322   1.546
 1343SOL     OW 4927   5.383   5.788   2.896
 1343SOL    HW1 4928   5.347   5.790   2.989
 1343SOL    HW2 4929   5.312   5.815   2.832
 1344SOL     OW 4930   1.034   0.801   4.432
 1344SOL    HW1 4931   1.110   0.773   4.372
 1344SOL    HW2 4932   0.949   0.759   4.400
 1345SOL     OW 4933   0.917   6.656   6.688
 1345SOL    HW1 4934   0.923   6.633   6.785
 1345SOL    HW2 4935   0.828   6.699   6.669
 1346SOL     OW 4936   3.191   5.132   4.436
 1346SOL    HW1 4937   3.196   5.110   4.339
 1346SOL    HW2 4938   3.221   5.226   4.451
 1347SOL     OW 4939   1.671   0.612   6.382
 1347SOL    HW1 4940   1.629   0.544   6.322
 1347SOL    HW2 4941   1.655   0.587   6.477
 1348SOL     OW 4942   1.104   6.486   5.100
 1348SOL    HW1 4943   1.090   6.535   5.186
 1348SOL    HW2 4944   1.154   6.402   5.118
 1349SOL     OW 4945   5.261   3.535   4.144
 1349SOL    HW1 4946   5.350   3.491   4.133
 1349SOL    HW2 4947   5.273   3.634   4.147
 1350SOL     OW 4948   4.837   4.903   6.839
 1350SOL    HW1 4949   4.805   4.810   6.823
 1350SOL    HW2 4950   4.864   4.914   6.935
 1351SOL     OW 4951   6.582   2.600   6.159
 1351SOL    HW1 4952   6.674   2.564   6.176
 1351SOL    HW2 4953   6.527   2.530   6.113
 1352SOL     OW 4954   0.303   1.136   2.987
 1352SOL    HW1 4955   0.356   1.072   3.043
 1352SOL    HW2 4956   0.218   1.093   2.958
 1353SOL     OW 4957   6.990   1.059   0.289
 1353SOL    HW1 4958   0.029   0.978   0.297
 1353SOL    HW2 4959   0.018   1.139   0.325
 1354SOL     OW 4960   4.852   5.047   2.301
 1354SOL    HW1 4961   4.950   5.063   2.291
 1354SOL    HW2 4962   4.816   5.009   2.216
 1355SOL     OW 4963   4.646   3.248   5.462
 1355SOL    HW1 4964   4.695   3.329   5.429
 1355SOL    HW2 4965   4.707   3.170   5.462
 1356SOL     OW 4966   2.849   3.111   0.148
 1356SOL    HW1 4967   2.925   3.172   0.125
 1356SOL    HW2 4968   2.879   3.016   0.140
 1357SOL     OW 4969   1.397   2.470   5.930
 1357SOL    HW1 4970   1.438   2.531   5.998
 1357SOL    HW2 4971   1.469   2.428   5.875
 1358SOL     OW 4972   2.076   6.448   0.085
 1358SOL    HW1 4973   2.137   6.388   0.034
 1358SOL    HW2 4974   1.982   6.414   0.078
 1359SOL     OW 4975   6.258   3.929   0.878
 1359SOL    HW1 4976   6.180   3.990   0.893
 1359SOL    HW2 4977   6.265   3.865   0.955
 1360SOL     OW 4978   2.357   2.654   0.279
 1360SOL    HW1 4979   2.444   2.673   0.325
 1360SOL    HW2 4980   2.288   2.629   0.346
 1361SOL     OW 4981   6.352   4.522   4.709
 1361SOL    HW1 4982   6.368   4.427   4.734
 1361SOL    HW2 4983   6.439   4.566   4.686
 1362SOL     OW 4984   3.234   4.048   3.254
 1362SOL    HW1 4985   3.286   4.066   3.171
 1362SOL    HW2 4986   3.296   4.024   3.329
 1363SOL     OW 4987   1.075   6.437   4.390
 1363SOL    HW1 4988   1.046   6.434   4.485
 1363SOL    HW2 4989   0.995   6.436   4.330
 1364SOL     OW 4990   4.590   4.240   0.714
 1364SOL    HW1 4991   4.602   4.337   0.733
 1364SOL    HW2 4992   4.656   4.188   0.768
 1365SOL     OW 4993   6.019   2.797   6.799
 1365SOL    HW1 4994   6.042   2.851   6.880
 1365SOL    HW2 4995   5.932   2.830   6.761
 1366SOL     OW 4996   2.262   0.399   5.776
 1366SOL    HW1 4997   2.206   0.423   5.856
 1366SOL    HW2 4998   2.244   0.463   5.702
 1367SOL     OW 4999   2.789   1.693   1.986
 1367SOL    HW1 5000   2.874   1.647   2.011
 1367SOL    HW2 5001   2.774   1.770   2.049
 1368SOL     OW 5002   6.274   6.638   3.107
 1368SOL    HW1 5003   6.347   6.684   3.159
 1368SOL    HW2 5004   6.242   6.559   3.159
 1369SOL     OW 5005   1.181   0.416   2.601
 1369SOL    HW1 5006   1.240   0.492   2.630
 1369SOL    HW2 5007   1.228   0.329   2.618
 1370SOL     OW 5008   2.677   1.258   2.025
 1370SOL    HW1 5009   2.650   1.170   2.066
 1370SOL    HW2 5010   2.645   1.333   2.083
 1371SOL     OW 5011   3.714   0.322   6.239
 1371SOL    HW1 5012   3.684   0.307   6.333
 1371SOL    HW2 5013   3.637   0.354   6.184
 1372SOL     OW 5014   2.704   2.337   1.796
 1372SOL    HW1 5015   2.724   2.378   1.707
 1372SOL    HW2 5016   2.783   2.349   1.856
 1373SOL     OW 5017   1.733   5.671   6.422
 1373SOL    HW1 5018   1.780   5.654   6.509
 1373SOL    HW2 5019   1.771   5.752   6.379
 1374SOL     OW 5020   4.999   4.264   0.181
 1374SOL    HW1 5021   4.900   4.272   0.195
 1374SOL    HW2 5022   5.040   4.216   0.258
 1375SOL     OW 5023   1.019   4.400   4.914
 1375SOL    HW1 5024   1.119   4.408   4.906
 1375SOL    HW2 5025   0.979   4.490   4.930
 1376SOL     OW 5026   4.936   0.648   2.507
 1376SOL    HW1 5027   4.889   0.622   2.591
 1376SOL    HW2 5028   4.992   0.729   2.524
 1377SOL     OW 5029   0.863   4.802   4.287
 1377SOL    HW1 5030   0.913   4.807   4.200
 1377SOL    HW2 5031   0.845   4.706   4.310
 1378SOL     OW 5032   1.931   2.673   6.928
 1378SOL    HW1 5033   2.003   2.727   6.971
 1378SOL    HW2 5034   1.870   2.734   6.877
 1379SOL     OW 5035   3.932   6.259   1.461
 1379SOL    HW1 5036   3.873   6.186   1.495
 1379SOL    HW2 5037   3.916   6.272   1.363
 1380SOL     OW 5038   5.739   5.192   2.626
 1380SOL    HW1 5039   5.804   5.241   2.568
 1380SOL    HW2 5040   5.783   5.168   2.712
 1381SOL     OW 5041   6.080   6.735   2.086
 1381SOL    HW1 5042   6.071   6.665   2.014
 1381SOL    HW2 5043   6.078   6.826   2.044
 1382SOL     OW 5044   0.148   3.812   6.209
 1382SOL    HW1 5045   0.168   3.758   6.292
 1382SOL    HW2 5046   0.133   3.907   6.234
 1383SOL     OW 5047   2.710   0.327   0.475
 1383SOL    HW1 5048   2.786   0.385   0.445
 1383SOL    HW2 5049   2.673   0.276   0.397
 1384SOL     OW 5050   1.522   2.154   2.299
 1384SOL    HW1 5051   1.568   2.091   2.361
 1384SOL    HW2 5052   1.468   2.102   2.233
 1385SOL     OW 5053   5.105   3.348   4.044
 1385SOL    HW1 5054   5.107   3.356   3.945
 1385SOL    HW2 5055   5.173   3.410   4.083
 1386SOL     OW 5056   2.369   2.802   3.674
 1386SOL    HW1 5057   2.395   2.751   3.592
 1386SOL    HW2 5058   2.384   2.745   3.755
 1387SOL     OW 5059   3.082   0.553   4.242
 1387SOL    HW1 5060   3.000   0.496   4.238
 1387SOL    HW2 5061   3.107   0.570   4.337
 1388SOL     OW 5062   5.393   1.483   3.873
 1388SOL    HW1 5063   5.294   1.469   3.880
 1388SOL    HW2 5064   5.439   1.434   3.946
 1389SOL     OW 5065   6.978   0.199   3.843
 1389SOL    HW1 5066   0.051   0.211   3.876
 1389SOL    HW2 5067   6.945   0.108   3.871
 1390SOL     OW 5068   4.362   2.440   3.011
 1390SOL    HW1 5069   4.359   2.519   2.949
 1390SOL    HW2 5070   4.424   2.459   3.086
 1391SOL     OW 5071   5.374   0.642   4.504
 1391SOL    HW1 5072   5.384   0.656   4.603
 1391SOL    HW2 5073   5.459   0.603   4.467
 1392SOL     OW 5074   4.216   6.591   5.510
 1392SOL    HW1 5075   4.282   6.526   5.471
 1392SOL    HW2 5076   4.206   6.669   5.448
 1393SOL     OW 5077   4.827   0.056   6.970
 1393SOL    HW1 5078   4.756   0.074   6.902
 1393SOL    HW2 5079   4.910   0.106   6.946
 1394SOL     OW 5080   4.066   0.109   3.928
 1394SOL    HW1 5081   4.029   0.201   3.921
 1394SOL    HW2 5082   4.159   0.107   3.891
 1395SOL     OW 5083   6.998   5.148   2.498
 1395SOL    HW1 5084   6.927   5.079   2.514
 1395SOL    HW2 5085   0.000   5.193   2.584
 1396SOL     OW 5086   0.783   2.096   3.414
 1396SOL    HW1 5087   0.723   2.016   3.410
 1396SOL    HW2 5088   0.878   2.066   3.405
 1397SOL     OW 5089   2.046   5.236   4.880
 1397SOL    HW1 5090   1.980   5.246   4.955
 1397SOL    HW2 5091   2.002   5.191   4.802
 1398SOL     OW 5092   2.423   0.088   6.779
 1398SOL    HW1 5093   2.469   0.029   6.714
 1398SOL    HW2 5094   2.415   0.042   6.867
 1399SOL     OW 5095   3.479   0.001   0.083
 1399SOL    HW1 5096   3.536   0.049   0.016
 1399SOL    HW2 5097   3.395   0.052   0.098
 1400SOL     OW 5098   0.707   0.613   5.533
 1400SOL    HW1 5099   0.629   0.644   5.588
 1400SOL    HW2 5100   0.690   0.635   5.437
 1401SOL     OW 5101   5.807   6.995   1.974
 1401SOL    HW1 5102   5.903   6.988   2.000
 1401SOL    HW2 5103   5.797   6.973   1.877
 1402SOL     OW 5104   6.036   4.816   2.259
 1402SOL    HW1 5105   6.080   4.817   2.169
 1402SOL    HW2 5106   6.016   4.910   2.287
 1403SOL     OW 5107   2.984   3.916   6.526
 1403SOL    HW1 5108   3.041   3.991   6.559
 1403SOL    HW2 5109   2.995   3.906   6.427
 1404SOL     OW 5110   3.970   6.487   0.702
 1404SOL    HW1 5111   3.964   6.397   0.659
 1404SOL    HW2 5112   3.966   6.557   0.631
 1405SOL     OW 5113   1.070   3.617   0.017
 1405SOL    HW1 5114   1.040   3.585   6.947
 1405SOL    HW2 5115   1.169   3.613   0.023
 1406SOL     OW 5116   2.275   2.326   6.802
 1406SOL    HW1 5117   2.211   2.367   6.867
 1406SOL    HW2 5118   2.336   2.397   6.766
 1407SOL     OW 5119   0.176   2.425   1.234
 1407SOL    HW1 5120   0.276   2.411   1.235
 1407SOL    HW2 5121   0.134   2.353   1.179
 1408SOL     OW 5122   5.220   6.273   0.634
 1408SOL    HW1 5123   5.210   6.289   0.732
 1408SOL    HW2 5124   5.134   6.240   0.596
 1409SOL     OW 5125   6.131   1.492   5.819
 1409SOL    HW1 5126   6.085   1.574   5.787
 1409SOL    HW2 5127   6.165   1.440   5.741
 1410SOL     OW 5128   2.868   0.904   0.565
 1410SOL    HW1 5129   2.962   0.936   0.556
 1410SOL    HW2 5130   2.865   0.826   0.627
 1411SOL     OW 5131   3.764   5.497   6.801
 1411SOL    HW1 5132   3.822   5.419   6.778
 1411SOL    HW2 5133   3.738   5.491   6.897
 1412SOL     OW 5134   2.486   2.095   0.182
 1412SOL    HW1 5135   2.395   2.084   0.141
 1412SOL    HW2 5136   2.507   2.017   0.240
 1413SOL     OW 5137   2.476   1.373   5.680
 1413SOL    HW1 5138   2.408   1.300   5.670
 1413SOL    HW2 5139   2.563   1.344   5.639
 1414SOL     OW 5140   0.113   4.927   2.199
 1414SOL    HW1 5141   0.115   4.992   2.275
 1414SOL    HW2 5142   0.018   4.913   2.170
 1415SOL     OW 5143   3.844   1.560   4.781
 1415SOL    HW1 5144   3.755   1.605   4.791
 1415SOL    HW2 5145   3.898   1.573   4.864
 1416SOL     OW 5146   4.726   0.353   4.929
 1416SOL    HW1 5147   4.759   0.372   5.021
 1416SOL    HW2 5148   4.626   0.355   4.929
 1417SOL     OW 5149   3.621   3.279   4.382
 1417SOL    HW1 5150   3.647   3.184   4.404
 1417SOL    HW2 5151   3.570   3.318   4.458
 1418SOL     OW 5152   3.081   3.736   4.681
 1418SOL    HW1 5153   3.047   3.803   4.746
 1418SOL    HW2 5154   3.170   3.766   4.645
 1419SOL     OW 5155   1.004   5.936   2.000
 1419SOL    HW1 5156   1.080   6.000   1.988
 1419SOL    HW2 5157   1.037   5.842   1.989
 1420SOL     OW 5158   2.968   6.133   3.211
 1420SOL    HW1 5159   3.011   6.216   3.176
 1420SOL    HW2 5160   3.019   6.053   3.179
 1421SOL     OW 5161   1.671   5.539   0.445
 1421SOL    HW1 5162   1.755   5.503   0.406
 1421SOL    HW2 5163   1.691   5.584   0.532
 1422SOL     OW 5164   1.807   3.723   6.880
 1422SOL    HW1 5165   1.904   3.702   6.871
 1422SOL    HW2 5166   1.793   3.822   6.871
 1423SOL     OW 5167   4.778   1.266   4.670
 1423SOL    HW1 5168   4.691   1.221   4.648
 1423SOL    HW2 5169   4.762   1.344   4.729
 1424SOL     OW 5170   6.272   2.441   1.398
 1424SOL    HW1 5171   6.289   2.500   1.477
 1424SOL    HW2 5172   6.233   2.355   1.429
 1425SOL     OW 5173   5.921   6.761   3.107
 1425SOL    HW1 5174   5.978   6.791   3.183
 1425SOL    HW2 5175   5.918   6.833   3.037
 1426SOL     OW 5176   3.875   1.209   0.828
 1426SOL    HW1 5177   3.889   1.165   0.916
 1426SOL    HW2 5178   3.959   1.255   0.799
 1427SOL     OW 5179   1.163   0.651   4.233
 1427SOL    HW1 5180   1.178   0.686   4.141
 1427SOL    HW2 5181   1.191   0.555   4.238
 1428SOL     OW 5182   2.257   4.102   3.750
 1428SOL    HW1 5183   2.259   4.183   3.691
 1428SOL    HW2 5184   2.225   4.023   3.697
 1429SOL     OW 5185   6.129   0.094   2.196
 1429SOL    HW1 5186   6.073   0.148   2.261
 1429SOL    HW2 5187   6.072   0.066   2.119
 1430SOL     OW 5188   1.967   4.099   4.476
 1430SOL    HW1 5189   1.918   4.062   4.555
 1430SOL    HW2 5190   1.908   4.162   4.426
 1431SOL     OW 5191   3.327   1.783   0.617
 1431SOL    HW1 5192   3.237   1.774   0.660
 1431SOL    HW2 5193   3.397   1.745   0.677
 1432SOL     OW 5194   4.564   0.118   3.103
 1432SOL    HW1 5195   4.469   0.143   3.121
 1432SOL    HW2 5196   4.567   0.032   3.053
 1433SOL     OW 5197   2.903   2.240   3.752
 1433SOL    HW1 5198   2.994   2.274   3.775
 1433SOL    HW2 5199   2.905   2.200   3.660
 1434SOL     OW 5200   5.434   3.421   0.912
 1434SOL    HW1 5201   5.394   3.468   0.991
 1434SOL    HW2 5202   5.489   3.486   0.859
 1435SOL     OW 5203   0.518   6.465   4.054
 1435SOL    HW1 5204   0.424   6.448   4.084
 1435SOL    HW2 5205   0.519   6.543   3.991
 1436SOL     OW 5206   5.164   0.712   0.206
 1436SOL    HW1 5207   5.254   0.712   0.162
 1436SOL    HW2 5208   5.144   0.803   0.241
 1437SOL     OW 5209   4.496   1.254   0.469
 1437SOL    HW1 5210   4.569   1.204   0.515
 1437SOL    HW2 5211   4.407   1.220   0.499
 1438SOL     OW 5212   2.236   0.354   2.847
 1438SOL    HW1 5213   2.266   0.440   2.804
 1438SOL    HW2 5214   2.136   0.349   2.844
 1439SOL     OW 5215   0.835   5.356   5.186
 1439SOL    HW1 5216   0.869   5.412   5.262
 1439SOL    HW2 5217   0.742   5.387   5.161
 1440SOL     OW 5218   3.760   3.106   2.131
 1440SOL    HW1 5219   3.775   3.182   2.194
 1440SOL    HW2 5220   3.667   3.112   2.095
 1441SOL     OW 5221   6.747   2.086   5.826
 1441SOL    HW1 5222   6.775   2.066   5.919
 1441SOL    HW2 5223   6.826   2.079   5.765
 1442SOL     OW 5224   5.215   6.273   0.226
 1442SOL    HW1 5225   5.137   6.248   0.283
 1442SOL    HW2 5226   5.205   6.231   0.135
 1443SOL     OW 5227   1.605   2.881   3.592
 1443SOL    HW1 5228   1.604   2.934   3.677
 1443SOL    HW2 5229   1.640   2.938   3.518
 1444SOL     OW 5230   5.355   6.325   4.894
 1444SOL    HW1 5231   5.295   6.267   4.949
 1444SOL    HW2 5232   5.311   6.415   4.882
 1445SOL     OW 5233   6.961   2.167   6.869
 1445SOL    HW1 5234   6.899   2.219   6.928
 1445SOL    HW2 5235   6.999   2.090   6.920
 1446SOL     OW 5236   3.933   6.103   2.039
 1446SOL    HW1 5237   3.839   6.086   2.070
 1446SOL    HW2 5238   3.932   6.168   1.964
 1447SOL     OW 5239   6.788   0.729   4.615
 1447SOL    HW1 5240   6.845   0.769   4.686
 1447SOL    HW2 5241   6.704   0.693   4.655
 1448SOL     OW 5242   5.395   0.756   0.093
 1448SOL    HW1 5243   5.473   0.782   0.150
 1448SOL    HW2 5244   5.410   0.788   7.019
 1449SOL     OW 5245   4.376   5.831   0.307
 1449SOL    HW1 5246   4.285   5.810   0.273
 1449SOL    HW2 5247   4.428   5.746   0.317
 1450SOL     OW 5248   5.615   1.638   3.666
 1450SOL    HW1 5249   5.546   1.707   3.643
 1450SOL    HW2 5250   5.573   1.548   3.667
 1451SOL     OW 5251   1.177   6.786   1.723
 1451SOL    HW1 5252   1.116   6.712   1.752
 1451SOL    HW2 5253   1.132   6.874   1.734
 1452SOL     OW 5254   3.192   0.112   5.886
 1452SOL    HW1 5255   3.106   0.083   5.844
 1452SOL    HW2 5256   3.179   0.201   5.930
 1453SOL     OW 5257   5.383   4.239   4.394
 1453SOL    HW1 5258   5.385   4.145   4.361
 1453SOL    HW2 5259   5.415   4.301   4.322
 1454SOL     OW 5260   5.375   3.582   1.145
 1454SOL    HW1 5261   5.470   3.609   1.133
 1454SOL    HW2 5262   5.320   3.663   1.165
 1455SOL     OW 5263   1.770   2.022   1.513
 1455SOL    HW1 5264   1.823   2.087   1.566
 1455SOL    HW2 5265   1.734   2.067   1.431
 1456SOL     OW 5266   6.059   5.501   5.423
 1456SOL    HW1 5267   5.969   5.468   5.395
 1456SOL    HW2 5268   6.060   5.518   5.521
 1457SOL     OW 5269   1.766   0.720   4.288
 1457SOL    HW1 5270   1.860   0.753   4.277
 1457SOL    HW2 5271   1.704   0.797   4.300
 1458SOL     OW 5272   0.483   5.486   6.731
 1458SOL    HW1 5273   0.503   5.554   6.802
 1458SOL    HW2 5274   0.384   5.474   6.723
 1459SOL     OW 5275   2.567   6.914   1.324
 1459SOL    HW1 5276   2.644   6.924   1.387
 1459SOL    HW2 5277   2.594   6.944   1.233
 1460SOL     OW 5278   0.221   7.007   6.948
 1460SOL    HW1 5279   0.148   0.055   6.943
 1460SOL    HW2 5280   0.285   0.003   6.872
 1461SOL     OW 5281   4.872   5.282   2.154
 1461SOL    HW1 5282   4.929   5.351   2.109
 1461SOL    HW2 5283   4.845   5.315   2.245
 1462SOL     OW 5284   5.365   0.091   5.097
 1462SOL    HW1 5285   5.372   0.159   5.171
 1462SOL    HW2 5286   5.321   0.133   5.018
 1463SOL     OW 5287   0.757   2.504   5.654
 1463SOL    HW1 5288   0.702   2.430   5.692
 1463SOL    HW2 5289   0.834   2.523   5.715
 1464SOL     OW 5290   0.806   0.832   1.342
 1464SOL    HW1 5291   0.707   0.829   1.324
 1464SOL    HW2 5292   0.825   0.787   1.429
 1465SOL     OW 5293   1.358   1.286   3.891
 1465SOL    HW1 5294   1.393   1.291   3.798
 1465SOL    HW2 5295   1.435   1.277   3.955
 1466SOL     OW 5296   5.714   5.393   4.557
 1466SOL    HW1 5297   5.751   5.380   4.466
 1466SOL    HW2 5298   5.748   5.479   4.595
 1467SOL     OW 5299   6.545   4.072   4.053
 1467SOL    HW1 5300   6.465   4.072   4.113
 1467SOL    HW2 5301   6.555   3.982   4.010
 1468SOL     OW 5302   4.474   0.201   2.443
 1468SOL    HW1 5303   4.560   0.151   2.432
 1468SOL    HW2 5304   4.405   0.161   2.382
 1469SOL     OW 5305   0.864   0.566   2.058
 1469SOL    HW1 5306   0.881   0.664   2.057
 1469SOL    HW2 5307   0.766   0.549   2.052
 1470SOL     OW 5308   6.949   6.790   2.657
 1470SOL    HW1 5309   0.027   6.805   2.645
 1470SOL    HW2 5310   6.934   6.725   2.732
 1471SOL     OW 5311   5.935   1.091   1.017
 1471SOL    HW1 5312   5.928   1.002   0.973
 1471SOL    HW2 5313   5.983   1.081   1.105
 1472SOL     OW 5314   4.723   5.136   4.686
 1472SOL    HW1 5315   4.748   5.080   4.607
 1472SOL    HW2 5316   4.792   5.125   4.758
 1473SOL     OW 5317   6.216   3.592   3.761
 1473SOL    HW1 5318   6.308   3.554   3.765
 1473SOL    HW2 5319   6.151   3.524   3.796
 1474SOL     OW 5320   4.445   5.373   3.074
 1474SOL    HW1 5321   4.523   5.402   3.130
 1474SOL    HW2 5322   4.477   5.312   3.001
 1475SOL     OW 5323   6.591   6.530   3.274
 1475SOL    HW1 5324   6.681   6.525   3.318
 1475SOL    HW2 5325   6.592   6.476   3.190
 1476SOL     OW 5326   0.566   2.602   1.325
 1476SOL    HW1 5327   0.579   2.561   1.416
 1476SOL    HW2 5328   0.580   2.701   1.331
 1477SOL     OW 5329   2.871   6.525   4.384
 1477SOL    HW1 5330   2.953   6.521   4.327
 1477SOL    HW2 5331   2.864   6.440   4.438
 1478SOL     OW 5332   6.858   3.431   1.198
 1478SOL    HW1 5333   6.914   3.462   1.275
 1478SOL    HW2 5334   6.762   3.453   1.216
 1479SOL     OW 5335   1.085   5.334   0.275
 1479SOL    HW1 5336   1.167   5.318   0.330
 1479SOL    HW2 5337   1.005   5.293   0.320
 1480SOL     OW 5338   2.463   0.998   0.047
 1480SOL    HW1 5339   2.528   0.962   7.000
 1480SOL    HW2 5340   2.430   1.087   0.017
 1481SOL     OW 5341   0.459   3.933   6.841
 1481SOL    HW1 5342   0.414   3.990   6.909
 1481SOL    HW2 5343   0.463   3.982   6.754
 1482SOL     OW 5344   5.672   0.217   6.231
 1482SOL    HW1 5345   5.728   0.245   6.309
 1482SOL    HW2 5346   5.626   0.131   6.252
 1483SOL     OW 5347   6.395   1.590   6.137
 1483SOL    HW1 5348   6.377   1.681   6.099
 1483SOL    HW2 5349   6.374   1.520   6.068
 1484SOL     OW 5350   6.483   6.266   2.489
 1484SOL    HW1 5351   6.400   6.227   2.448
 1484SOL    HW2 5352   6.513   6.345   2.436
 1485SOL     OW 5353   5.492   3.394   4.128
 1485SOL    HW1 5354   5.461   3.343   4.209
 1485SOL    HW2 5355   5.499   3.332   4.050
 1486SOL     OW 5356   5.433   2.249   2.267
 1486SOL    HW1 5357   5.357   2.251   2.333
 1486SOL    HW2 5358   5.397   2.232   2.175
 1487SOL     OW 5359   6.904   0.228   5.637
 1487SOL    HW1 5360   6.860   0.220   5.548
 1487SOL    HW2 5361   6.888   0.144   5.690
 1488SOL     OW 5362   5.504   2.242   4.600
 1488SOL    HW1 5363   5.522   2.188   4.683
 1488SOL    HW2 5364   5.588   2.250   4.547
 1489SOL     OW 5365   3.635   5.210   4.526
 1489SOL    HW1 5366   3.686   5.218   4.440
 1489SOL    HW2 5367   3.640   5.296   4.576
 1490SOL     OW 5368   2.621   2.013   1.454
 1490SOL    HW1 5369   2.705   2.067   1.461
 1490SOL    HW2 5370   2.643   1.919   1.428
 1491SOL     OW 5371   0.158   2.360   5.125
 1491SOL    HW1 5372   0.225   2.285   5.127
 1491SOL    HW2 5373   0.100   2.351   5.044
 1492SOL     OW 5374   6.939   2.496   1.475
 1492SOL    HW1 5375   6.970   2.427   1.541
 1492SOL    HW2 5376   6.920   2.451   1.387
 1493SOL     OW 5377   5.787   2.042   5.563
 1493SOL    HW1 5378   5.727   1.962   5.555
 1493SOL    HW2 5379   5.801   2.064   5.659
 1494SOL     OW 5380   5.548   1.476   4.263
 1494SOL    HW1 5381   5.555   1.423   4.178
 1494SOL    HW2 5382   5.485   1.431   4.325
 1495SOL     OW 5383   1.125   3.896   2.197
 1495SOL    HW1 5384   1.222   3.873   2.183
 1495SOL    HW2 5385   1.076   3.814   2.228
 1496SOL     OW 5386   1.109   0.570   2.164
 1496SOL    HW1 5387   1.066   0.607   2.246
 1496SOL    HW2 5388   1.039   0.528   2.106
 1497SOL     OW 5389   5.419   5.367   5.947
 1497SOL    HW1 5390   5.375   5.450   5.983
 1497SOL    HW2 5391   5.352   5.313   5.896
 1498SOL     OW 5392   2.327   5.565   0.649
 1498SOL    HW1 5393   2.391   5.538   0.578
 1498SOL    HW2 5394   2.353   5.654   0.685
 1499SOL     OW 5395   0.813   4.294   4.401
 1499SOL    HW1 5396   0.861   4.216   4.361
 1499SOL    HW2 5397   0.824   4.292   4.501
 1500SOL     OW 5398   3.725   6.720   5.577
 1500SOL    HW1 5399   3.701   6.668   5.495
 1500SOL    HW2 5400   3.820   6.752   5.570
 1501SOL     OW 5401   3.701   0.621   0.840
 1501SOL    HW1 5402   3.723   0.694   0.904
 1501SOL    HW2 5403   3.654   0.547   0.887
 1502SOL     OW 5404   0.836   6.358   5.714
 1502SOL    HW1 5405   0.914   6.369   5.775
 1502SOL    HW2 5406   0.851   6.409   5.630
 1503SOL     OW 5407   3.200   3.868   5.422
 1503SOL    HW1 5408   3.267   3.906   5.358
 1503SOL    HW2 5409   3.108   3.893   5.391
 1504SOL     OW 5410   2.938   6.811   3.998
 1504SOL    HW1 5411   2.865   6.743   4.000
 1504SOL    HW2 5412   2.995   6.801   4.079
 1505SOL     OW 5413   4.926   7.018   2.515
 1505SOL    HW1 5414   4.932   6.926   2.554
 1505SOL    HW2 5415   4.855   7.020   2.444
 1506SOL     OW 5416   1.154   6.611   3.518
 1506SOL    HW1 5417   1.160   6.578   3.612
 1506SOL    HW2 5418   1.172   6.709   3.516
 1507SOL     OW 5419   1.928   2.194   6.863
 1507SOL    HW1 5420   1.976   2.281   6.858
 1507SOL    HW2 5421   1.957   2.135   6.788
 1508SOL     OW 5422   4.692   6.921   1.315
 1508SOL    HW1 5423   4.666   6.827   1.298
 1508SOL    HW2 5424   4.611   6.980   1.309
 1509SOL     OW 5425   5.780   1.625   6.306
 1509SOL    HW1 5426   5.876   1.606   6.324
 1509SOL    HW2 5427   5.753   1.579   6.221
 1510SOL     OW 5428   6.701   1.336   2.805
 1510SOL    HW1 5429   6.732   1.394   2.881
 1510SOL    HW2 5430   6.603   1.320   2.813
 1511SOL     OW 5431   1.333   2.826   0.183
 1511SOL    HW1 5432   1.429   2.822   0.211
 1511SOL    HW2 5433   1.292   2.910   0.216
 1512SOL     OW 5434   0.054   1.541   1.860
 1512SOL    HW1 5435   0.004   1.491   1.930
 1512SOL    HW2 5436   0.127   1.483   1.823
 1513SOL     OW 5437   2.697   1.014   2.992
 1513SOL    HW1 5438   2.647   0.963   3.062
 1513SOL    HW2 5439   2.662   1.108   2.987
 1514SOL     OW 5440   4.655   0.388   5.958
 1514SOL    HW1 5441   4.725   0.319   5.979
 1514SOL    HW2 5442   4.566   0.344   5.953
 1515SOL     OW 5443   5.384   4.973   5.865
 1515SOL    HW1 5444   5.420   4.910   5.934
 1515SOL    HW2 5445   5.459   5.029   5.829
 1516SOL     OW 5446   0.135   1.521   1.036
 1516SOL    HW1 5447   0.078   1.541   0.956
 1516SOL    HW2 5448   0.225   1.491   1.006
 1517SOL     OW 5449   3.201   5.531   2.763
 1517SOL    HW1 5450   3.240   5.460   2.705
 1517SOL    HW2 5451   3.116   5.564   2.722
 1518SOL     OW 5452   0.322   4.724   0.705
 1518SOL    HW1 5453   0.407   4.726   0.653
 1518SOL    HW2 5454   0.270   4.808   0.689
 1519SOL     OW 5455   0.411   3.820   0.922
 1519SOL    HW1 5456   0.360   3.858   0.845
 1519SOL    HW2 5457   0.509   3.835   0.908
 1520SOL     OW 5458   1.614   3.067   2.944
 1520SOL    HW1 5459   1.640   3.002   2.873
 1520SOL    HW2 5460   1.686   3.135   2.955
 1521SOL     OW 5461   2.513   4.639   5.050
 1521SOL    HW1 5462   2.479   4.551   5.015
 1521SOL    HW2 5463   2.603   4.658   5.010
 1522SOL     OW 5464   1.645   1.614   6.202
 1522SOL    HW1 5465   1.653   1.609   6.302
 1522SOL    HW2 5466   1.549   1.624   6.177
 1523SOL     OW 5467   5.806   1.515   1.097
 1523SOL    HW1 5468   5.798   1.451   1.020
 1523SOL    HW2 5469   5.897   1.506   1.137
 1524SOL     OW 5470   0.020   1.254   1.346
 1524SOL    HW1 5471   0.108   1.280   1.387
 1524SOL    HW2 5472   0.026   1.262   1.247
 1525SOL     OW 5473   4.815   1.560   5.947
 1525SOL    HW1 5474   4.734   1.613   5.923
 1525SOL    HW2 5475   4.788   1.469   5.977
 1526SOL     OW 5476   6.030   1.330   0.517
 1526SOL    HW1 5477   5.931   1.343   0.515
 1526SOL    HW2 5478   6.075   1.399   0.460
 1527SOL     OW 5479   3.189   1.466   6.085
 1527SOL    HW1 5480   3.221   1.510   6.001
 1527SOL    HW2 5481   3.204   1.367   6.078
 1528SOL     OW 5482   5.400   5.483   3.762
 1528SOL    HW1 5483   5.459   5.540   3.820
 1528SOL    HW2 5484   5.306   5.489   3.794
 1529SOL     OW 5485   1.817   6.986   5.429
 1529SOL    HW1 5486   1.744   7.002   5.363
 1529SOL    HW2 5487   1.871   0.049   5.441
 1530SOL     OW 5488   2.359   6.449   1.253
 1530SOL    HW1 5489   2.411   6.517   1.304
 1530SOL    HW2 5490   2.269   6.436   1.296
 1531SOL     OW 5491   5.598   0.582   6.548
 1531SOL    HW1 5492   5.666   0.519   6.586
 1531SOL    HW2 5493   5.516   0.581   6.605
 1532SOL     OW 5494   2.873   2.055   5.370
 1532SOL    HW1 5495   2.955   2.042   5.426
 1532SOL    HW2 5496   2.891   2.125   5.301
 1533SOL     OW 5497   4.567   3.136   6.920
 1533SOL    HW1 5498   4.614   3.172   6.840
 1533SOL    HW2 5499   4.474   3.110   6.896
 1534SOL     OW 5500   6.853   0.613   1.393
 1534SOL    HW1 5501   6.824   0.545   1.460
 1534SOL    HW2 5502   6.885   0.695   1.440
 1535SOL     OW 5503   5.034   4.453   4.742
 1535SOL    HW1 5504   5.068   4.411   4.657
 1535SOL    HW2 5505   4.982   4.535   4.719
 1536SOL     OW 5506   3.447   6.474   3.235
 1536SOL    HW1 5507   3.402   6.550   3.284
 1536SOL    HW2 5508   3.545   6.489   3.234
 1537SOL     OW 5509   3.001   5.446   4.709
 1537SOL    HW1 5510   3.009   5.482   4.802
 1537SOL    HW2 5511   2.960   5.355   4.712
 1538SOL     OW 5512   3.087   5.554   6.616
 1538SOL    HW1 5513   2.996   5.513   6.624
 1538SOL    HW2 5514   3.095   5.628   6.684
 1539SOL     OW 5515   2.876   6.437   1.850
 1539SOL    HW1 5516   2.905   6.474   1.763
 1539SOL    HW2 5517   2.907   6.342   1.859
 1540SOL     OW 5518   5.871   6.815   5.032
 1540SOL    HW1 5519   5.828   6.874   4.964
 1540SOL    HW2 5520   5.802   6.780   5.095
 1541SOL     OW 5521   5.287   1.681   1.440
 1541SOL    HW1 5522   5.372   1.706   1.486
 1541SOL    HW2 5523   5.226   1.635   1.505
 1542SOL     OW 5524   6.986   6.484   1.147
 1542SOL    HW1 5525   6.979   6.393   1.189
 1542SOL    HW2 5526   0.062   6.508   1.135
 1543SOL     OW 5527   3.540   3.492   3.354
 1543SOL    HW1 5528   3.616   3.497   3.289
 1543SOL    HW2 5529   3.454   3.487   3.303
 1544SOL     OW 5530   3.696   3.824   2.328
 1544SOL    HW1 5531   3.639   3.791   2.404
 1544SOL    HW2 5532   3.704   3.923   2.334
 1545SOL     OW 5533   6.908   0.077   4.924
 1545SOL    HW1 5534   7.007   0.076   4.907
 1545SOL    HW2 5535   6.859   0.067   4.838
 1546SOL     OW 5536   6.307   6.579   6.481
 1546SOL    HW1 5537   6.230   6.625   6.525
 1546SOL    HW2 5538   6.389   6.588   6.538
 1547SOL     OW 5539   3.198   5.867   0.035
 1547SOL    HW1 5540   3.257   5.924   6.997
 1547SOL    HW2 5541   3.253   5.795   0.078
 1548SOL     OW 5542   6.534   3.829   3.359
 1548SOL    HW1 5543   6.625   3.806   3.323
 1548SOL    HW2 5544   6.545   3.885   3.442
 1549SOL     OW 5545   6.777   2.263   0.682
 1549SOL    HW1 5546   6.848   2.194   0.695
 1549SOL    HW2 5547   6.699   2.242   0.742
 1550SOL     OW 5548   2.672   5.119   2.530
 1550SOL    HW1 5549   2.601   5.062   2.570
 1550SOL    HW2 5550   2.715   5.174   2.601
 1551SOL     OW 5551   0.366   2.691   1.557
 1551SOL    HW1 5552   0.293   2.645   1.508
 1551SOL    HW2 5553   0.445   2.629   1.564
 1552SOL     OW 5554   1.211   6.794   2.362
 1552SOL    HW1 5555   1.294   6.741   2.345
 1552SOL    HW2 5556   1.230   6.892   2.350
 1553SOL     OW 5557   5.749   0.990   6.005
 1553SOL    HW1 5558   5.811   0.983   6.083
 1553SOL    HW2 5559   5.688   1.068   6.019
 1554SOL     OW 5560   3.049   2.652   0.608
 1554SOL    HW1 5561   3.034   2.611   0.698
 1554SOL    HW2 5562   3.011   2.592   0.538
 1555SOL     OW 5563   4.279   1.170   0.604
 1555SOL    HW1 5564   4.206   1.116   0.562
 1555SOL    HW2 5565   4.240   1.237   0.666
 1556SOL     OW 5566   3.279   2.263   0.326
 1556SOL    HW1 5567   3.358   2.324   0.332
 1556SOL    HW2 5568   3.293   2.185   0.387
 1557SOL     OW 5569   1.994   3.083   0.372
 1557SOL    HW1 5570   1.905   3.041   0.353
 1557SOL    HW2 5571   2.066   3.030   0.328
 1558SOL     OW 5572   4.849   2.498   6.711
 1558SOL    HW1 5573   4.887   2.414   6.672
 1558SOL    HW2 5574   4.897   2.577   6.673
 1559SOL     OW 5575   2.903   6.469   3.552
 1559SOL    HW1 5576   2.914   6.529   3.473
 1559SOL    HW2 5577   2.930   6.376   3.528
 1560SOL     OW 5578   4.388   3.085   1.195
 1560SOL    HW1 5579   4.349   3.019   1.259
 1560SOL    HW2 5580   4.359   3.063   1.102
 1561SOL     OW 5581   5.513   6.166   1.002
 1561SOL    HW1 5582   5.444   6.236   1.023
 1561SOL    HW2 5583   5.545   6.177   0.908
 1562SOL     OW 5584   2.456   0.473   2.376
 1562SOL    HW1 5585   2.381   0.461   2.311
 1562SOL    HW2 5586   2.444   0.409   2.452
 1563SOL     OW 5587   2.154   3.554   3.709
 1563SOL    HW1 5588   2.210   3.475   3.684
 1563SOL    HW2 5589   2.131   3.548   3.806
 1564SOL     OW 5590   0.939   2.042   2.702
 1564SOL    HW1 5591   0.966   1.946   2.712
 1564SOL    HW2 5592   0.840   2.050   2.698
 1565SOL     OW 5593   4.608   2.002   5.382
 1565SOL    HW1 5594   4.634   2.085   5.332
 1565SOL    HW2 5595   4.599   2.024   5.480
 1566SOL     OW 5596   0.755   3.793   3.360
 1566SOL    HW1 5597   0.666   3.814   3.400
 1566SOL    HW2 5598   0.758   3.823   3.265
 1567SOL     OW 5599   5.346   0.194   5.400
 1567SOL    HW1 5600   5.409   0.117   5.406
 1567SOL    HW2 5601   5.397   0.280   5.407
 1568SOL     OW 5602   2.414   4.523   0.868
 1568SOL    HW1 5603   2.350   4.460   0.911
 1568SOL    HW2 5604   2.472   4.565   0.937
 1569SOL     OW 5605   2.009   1.140   2.692
 1569SOL    HW1 5606   2.005   1.231   2.733
 1569SOL    HW2 5607   2.088   1.135   2.630
 1570SOL     OW 5608   2.775   5.925   6.477
 1570SOL    HW1 5609   2.774   5.913   6.378
 1570SOL    HW2 5610   2.709   5.861   6.518
 1571SOL     OW 5611   6.861   2.499   4.375
 1571SOL    HW1 5612   6.835   2.494   4.279
 1571SOL    HW2 5613   6.787   2.462   4.431
 1572SOL     OW 5614   2.382   6.267   2.894
 1572SOL    HW1 5615   2.363   6.341   2.959
 1572SOL    HW2 5616   2.329   6.186   2.919
 1573SOL     OW 5617   5.417   5.485   0.302
 1573SOL    HW1 5618   5.413   5.578   0.338
 1573SOL    HW2 5619   5.513   5.458   0.292
 1574SOL     OW 5620   1.114   4.497   3.139
 1574SOL    HW1 5621   1.128   4.418   3.079
 1574SOL    HW2 5622   1.183   4.567   3.120
 1575SOL     OW 5623   6.819   2.505   0.309
 1575SOL    HW1 5624   6.871   2.427   0.343
 1575SOL    HW2 5625   6.779   2.554   0.386
 1576SOL     OW 5626   1.685   5.891   1.782
 1576SOL    HW1 5627   1.645   5.855   1.866
 1576SOL    HW2 5628   1.721   5.983   1.798
 1577SOL     OW 5629   4.819   5.670   3.868
 1577SOL    HW1 5630   4.794   5.683   3.964
 1577SOL    HW2 5631   4.851   5.576   3.854
 1578SOL     OW 5632   5.520   2.008   1.767
 1578SOL    HW1 5633   5.566   1.925   1.797
 1578SOL    HW2 5634   5.430   1.986   1.731
 1579SOL     OW 5635   1.798   2.970   2.050
 1579SOL    HW1 5636   1.803   3.042   1.981
 1579SOL    HW2 5637   1.868   2.985   2.119
 1580SOL     OW 5638   3.390   4.077   3.035
 1580SOL    HW1 5639   3.362   4.107   2.944
 1580SOL    HW2 5640   3.490   4.074   3.040
 1581SOL     OW 5641   5.696   4.254   4.880
 1581SOL    HW1 5642   5.635   4.239   4.959
 1581SOL    HW2 5643   5.651   4.316   4.815
 1582SOL     OW 5644   4.386   5.788   4.866
 1582SOL    HW1 5645   4.358   5.882   4.844
 1582SOL    HW2 5646   4.395   5.778   4.965
 1583SOL     OW 5647   1.574   4.921   5.355
 1583SOL    HW1 5648   1.657   4.877   5.390
 1583SOL    HW2 5649   1.494   4.879   5.399
 1584SOL     OW 5650   0.305   3.967   0.054
 1584SOL    HW1 5651   0.214   4.009   0.052
 1584SOL    HW2 5652   0.360   4.013   0.123
 1585SOL     OW 5653   5.009   6.182   4.684
 1585SOL    HW1 5654   4.934   6.116   4.692
 1585SOL    HW2 5655   4.973   6.275   4.689
 1586SOL     OW 5656   2.781   5.938   3.453
 1586SOL    HW1 5657   2.868   5.925   3.501
 1586SOL    HW2 5658   2.800   5.968   3.359
 1587SOL     OW 5659   3.406   6.358   0.179
 1587SOL    HW1 5660   3.401   6.307   0.266
 1587SOL    HW2 5661   3.394   6.294   0.103
 1588SOL     OW 5662   6.452   2.047   3.189
 1588SOL    HW1 5663   6.399   2.069   3.271
 1588SOL    HW2 5664   6.461   1.948   3.181
 1589SOL     OW 5665   0.092   2.621   4.829
 1589SOL    HW1 5666   0.051   2.550   4.887
 1589SOL    HW2 5667   0.100   2.587   4.736
 1590SOL     OW 5668   5.534   0.661   3.504
 1590SOL    HW1 5669   5.475   0.631   3.429
 1590SOL    HW2 5670   5.478   0.709   3.572
 1591SOL     OW 5671   0.641   5.666   0.330
 1591SOL    HW1 5672   0.638   5.755   0.284
 1591SOL    HW2 5673   0.681   5.599   0.268
 1592SOL     OW 5674   0.029   4.068   4.908
 1592SOL    HW1 5675   0.023   3.983   4.857
 1592SOL    HW2 5676   0.080   4.053   4.992
 1593SOL     OW 5677   3.877   6.242   1.204
 1593SOL    HW1 5678   3.902   6.232   1.107
 1593SOL    HW2 5679   3.803   6.179   1.226
 1594SOL     OW 5680   4.942   0.864   2.762
 1594SOL    HW1 5681   4.847   0.894   2.768
 1594SOL    HW2 5682   5.001   0.943   2.748
 1595SOL     OW 5683   0.851   3.577   6.782
 1595SOL    HW1 5684   0.771   3.615   6.829
 1595SOL    HW2 5685   0.824   3.500   6.725
 1596SOL     OW 5686   4.779   4.126   4.074
 1596SOL    HW1 5687   4.753   4.112   3.978
 1596SOL    HW2 5688   4.862   4.181   4.079
 1597SOL     OW 5689   3.417   5.746   0.137
 1597SOL    HW1 5690   3.462   5.792   0.061
 1597SOL    HW2 5691   3.484   5.694   0.189
 1598SOL     OW 5692   1.114   4.542   6.122
 1598SOL    HW1 5693   1.185   4.478   6.148
 1598SOL    HW2 5694   1.124   4.627   6.174
 1599SOL     OW 5695   4.983   5.246   3.624
 1599SOL    HW1 5696   4.976   5.310   3.701
 1599SOL    HW2 5697   5.062   5.271   3.568
 1600SOL     OW 5698   4.434   0.689   1.669
 1600SOL    HW1 5699   4.463   0.782   1.646
 1600SOL    HW2 5700   4.440   0.631   1.587
 1601SOL     OW 5701   6.445   0.937   4.715
 1601SOL    HW1 5702   6.411   0.860   4.661
 1601SOL    HW2 5703   6.489   1.004   4.654
 1602SOL     OW 5704   4.507   5.478   3.488
 1602SOL    HW1 5705   4.503   5.445   3.582
 1602SOL    HW2 5706   4.601   5.471   3.454
 1603SOL     OW 5707   3.284   4.917   2.186
 1603SOL    HW1 5708   3.201   4.951   2.230
 1603SOL    HW2 5709   3.260   4.857   2.110
 1604SOL     OW 5710   4.330   5.038   2.817
 1604SOL    HW1 5711   4.355   5.036   2.720
 1604SOL    HW2 5712   4.410   5.059   2.872
 1605SOL     OW 5713   4.683   5.410   0.197
 1605SOL    HW1 5714   4.713   5.331   0.251
 1605SOL    HW2 5715   4.677   5.385   0.100
 1606SOL     OW 5716   3.051   5.915   4.784
 1606SOL    HW1 5717   3.111   5.836   4.775
 1606SOL    HW2 5718   2.992   5.903   4.864
 1607SOL     OW 5719   4.764   4.079   3.787
 1607SOL    HW1 5720   4.838   4.013   3.786
 1607SOL    HW2 5721   4.727   4.089   3.695
 1608SOL     OW 5722   5.651   2.701   3.639
 1608SOL    HW1 5723   5.603   2.789   3.642
 1608SOL    HW2 5724   5.675   2.672   3.732
 1609SOL     OW 5725   1.739   0.211   0.848
 1609SOL    HW1 5726   1.652   0.258   0.832
 1609SOL    HW2 5727   1.802   0.272   0.896
 1610SOL     OW 5728   5.550   6.583   0.652
 1610SOL    HW1 5729   5.614   6.624   0.586
 1610SOL    HW2 5730   5.458   6.582   0.613
 1611SOL     OW 5731   0.866   4.158   0.005
 1611SOL    HW1 5732   0.865   4.147   0.104
 1611SOL    HW2 5733   0.910   4.079   6.982
 1612SOL     OW 5734   4.676   1.042   2.102
 1612SOL    HW1 5735   4.603   1.014   2.039
 1612SOL    HW2 5736   4.759   0.990   2.083
 1613SOL     OW 5737   0.282   5.877   2.786
 1613SOL    HW1 5738   0.209   5.826   2.740
 1613SOL    HW2 5739   0.352   5.813   2.816
 1614SOL     OW 5740   6.585   1.262   5.522
 1614SOL    HW1 5741   6.497   1.263   5.474
 1614SOL    HW2 5742   6.653   1.214   5.467
 1615SOL     OW 5743   0.098   3.257   5.253
 1615SOL    HW1 5744   0.012   3.306   5.236
 1615SOL    HW2 5745   0.167   3.322   5.284
 1616SOL     OW 5746   0.965   1.214   3.504
 1616SOL    HW1 5747   1.060   1.196   3.480
 1616SOL    HW2 5748   0.938   1.156   3.581
 1617SOL     OW 5749   6.572   5.563   3.846
 1617SOL    HW1 5750   6.635   5.514   3.906
 1617SOL    HW2 5751   6.616   5.581   3.759
 1618SOL     OW 5752   3.371   5.549   2.987
 1618SOL    HW1 5753   3.304   5.494   3.037
 1618SOL    HW2 5754   3.338   5.566   2.894
 1619SOL     OW 5755   1.194   3.901   6.619
 1619SOL    HW1 5756   1.123   3.832   6.633
 1619SOL    HW2 5757   1.209   3.913   6.521
 1620SOL     OW 5758   3.166   6.764   4.177
 1620SOL    HW1 5759   3.226   6.811   4.112
 1620SOL    HW2 5760   3.182   6.801   4.269
 1621SOL     OW 5761   4.627   5.534   0.919
 1621SOL    HW1 5762   4.682   5.560   0.998
 1621SOL    HW2 5763   4.683   5.542   0.836
 1622SOL     OW 5764   6.170   4.269   4.116
 1622SOL    HW1 5765   6.146   4.360   4.082
 1622SOL    HW2 5766   6.185   4.207   4.039
 1623SOL     OW 5767   0.315   2.456   3.836
 1623SOL    HW1 5768   0.230   2.472   3.786
 1623SOL    HW2 5769   0.390   2.503   3.791
 1624SOL     OW 5770   3.507   3.155   0.559
 1624SOL    HW1 5771   3.466   3.239   0.526
 1624SOL    HW2 5772   3.601   3.147   0.524
 1625SOL     OW 5773   0.676   6.451   0.426
 1625SOL    HW1 5774   0.649   6.368   0.377
 1625SOL    HW2 5775   0.729   6.510   0.366
 1626SOL     OW 5776   2.483   1.897   1.756
 1626SOL    HW1 5777   2.432   1.956   1.693
 1626SOL    HW2 5778   2.576   1.934   1.767
 1627SOL     OW 5779   4.148   1.868   5.825
 1627SOL    HW1 5780   4.166   1.782   5.873
 1627SOL    HW2 5781   4.179   1.944   5.883
 1628SOL     OW 5782   5.357   6.403   1.093
 1628SOL    HW1 5783   5.430   6.425   1.159
 1628SOL    HW2 5784   5.368   6.460   1.012
 1629SOL     OW 5785   1.970   6.968   3.302
 1629SOL    HW1 5786   1.984   0.047   3.302
 1629SOL    HW2 5787   1.956   6.936   3.395
 1630SOL     OW 5788   0.753   3.701   5.731
 1630SOL    HW1 5789   0.746   3.729   5.635
 1630SOL    HW2 5790   0.802   3.772   5.782
 1631SOL     OW 5791   5.785   3.173   0.430
 1631SOL    HW1 5792   5.697   3.126   0.429
 1631SOL    HW2 5793   5.829   3.159   0.519
 1632SOL     OW 5794   6.252   6.190   2.330
 1632SOL    HW1 5795   6.214   6.101   2.308
 1632SOL    HW2 5796   6.192   6.262   2.297
 1633SOL     OW 5797   5.425   3.571   4.884
 1633SOL    HW1 5798   5.440   3.498   4.951
 1633SOL    HW2 5799   5.444   3.660   4.926
 1634SOL     OW 5800   1.124   3.270   5.662
 1634SOL    HW1 5801   1.215   3.293   5.626
 1634SOL    HW2 5802   1.058   3.267   5.586
 1635SOL     OW 5803   2.804   0.337   3.542
 1635SOL    HW1 5804   2.813   0.403   3.617
 1635SOL    HW2 5805   2.726   0.277   3.561
 1636SOL     OW 5806   0.009   5.679   1.402
 1636SOL    HW1 5807   6.980   5.766   1.401
 1636SOL    HW2 5808   0.106   5.695   1.422
 1637SOL     OW 5809   1.307   1.359   2.684
 1637SOL    HW1 5810   1.354   1.448   2.682
 1637SOL    HW2 5811   1.209   1.373   2.696
 1638SOL     OW 5812   5.333   2.469   3.277
 1638SOL    HW1 5813   5.397   2.393   3.285
 1638SOL    HW2 5814   5.254   2.454   3.337
 1639SOL     OW 5815   4.700   2.212   2.031
 1639SOL    HW1 5816   4.640   2.290   2.051
 1639SOL    HW2 5817   4.700   2.194   1.933
 1640SOL     OW 5818   5.733   0.711   6.317
 1640SOL    HW1 5819   5.750   0.808   6.333
 1640SOL    HW2 5820   5.682   0.672   6.394
 1641SOL     OW 5821   6.113   1.346   3.054
 1641SOL    HW1 5822   6.176   1.269   3.039
 1641SOL    HW2 5823   6.126   1.382   3.147
 1642SOL     OW 5824   0.257   3.460   6.264
 1642SOL    HW1 5825   0.237   3.465   6.166
 1642SOL    HW2 5826   0.189   3.401   6.308
 1643SOL     OW 5827   2.076   5.193   3.588
 1643SOL    HW1 5828   2.061   5.288   3.561
 1643SOL    HW2 5829   2.125   5.190   3.675
 1644SOL     OW 5830   6.381   1.613   1.629
 1644SOL    HW1 5831   6.303   1.675   1.640
 1644SOL    HW2 5832   6.378   1.571   1.539
 1645SOL     OW 5833   2.585   0.666   4.763
 1645SOL    HW1 5834   2.683   0.675   4.744
 1645SOL    HW2 5835   2.571   0.649   4.860
 1646SOL     OW 5836   0.583   5.310   1.145
 1646SOL    HW1 5837   0.674   5.301   1.104
 1646SOL    HW2 5838   0.518   5.340   1.075
 1647SOL     OW 5839   6.064   3.167   4.902
 1647SOL    HW1 5840   6.137   3.170   4.834
 1647SOL    HW2 5841   6.105   3.160   4.993
 1648SOL     OW 5842   5.633   5.946   1.578
 1648SOL    HW1 5843   5.623   5.848   1.559
 1648SOL    HW2 5844   5.585   5.998   1.507
 1649SOL     OW 5845   3.768   1.337   2.991
 1649SOL    HW1 5846   3.833   1.413   2.984
 1649SOL    HW2 5847   3.766   1.304   3.085
 1650SOL     OW 5848   2.678   2.477   5.275
 1650SOL    HW1 5849   2.691   2.575   5.259
 1650SOL    HW2 5850   2.635   2.463   5.364
 1651SOL     OW 5851   1.191   2.026   4.067
 1651SOL    HW1 5852   1.130   2.071   4.001
 1651SOL    HW2 5853   1.179   2.068   4.157
 1652SOL     OW 5854   0.186   3.682   1.581
 1652SOL    HW1 5855   0.143   3.769   1.554
 1652SOL    HW2 5856   0.285   3.689   1.568
 1653SOL     OW 5857   0.173   4.242   1.748
 1653SOL    HW1 5858   0.258   4.206   1.710
 1653SOL    HW2 5859   0.104   4.170   1.750
 1654SOL     OW 5860   0.661   3.851   1.513
 1654SOL    HW1 5861   0.639   3.941   1.551
 1654SOL    HW2 5862   0.579   3.794   1.513
 1655SOL     OW 5863   0.121   0.761   5.651
 1655SOL    HW1 5864   0.200   0.730   5.705
 1655SOL    HW2 5865   0.139   0.853   5.616
 1656SOL     OW 5866   2.270   4.323   3.267
 1656SOL    HW1 5867   2.215   4.406   3.258
 1656SOL    HW2 5868   2.308   4.298   3.177
 1657SOL     OW 5869   0.663   0.117   5.900
 1657SOL    HW1 5870   0.706   0.148   5.815
 1657SOL    HW2 5871   0.676   0.018   5.909
 1658SOL     OW 5872   5.452   6.512   6.283
 1658SOL    HW1 5873   5.514   6.527   6.206
 1658SOL    HW2 5874   5.428   6.415   6.287
 1659SOL     OW 5875   3.955   6.861   5.731
 1659SOL    HW1 5876   3.936   6.794   5.802
 1659SOL    HW2 5877   3.893   6.939   5.740
 1660SOL     OW 5878   2.379   0.674   1.904
 1660SOL    HW1 5879   2.329   0.717   1.829
 1660SOL    HW2 5880   2.476   0.700   1.898
 1661SOL     OW 5881   4.740   4.183   2.877
 1661SOL    HW1 5882   4.795   4.107   2.841
 1661SOL    HW2 5883   4.718   4.247   2.803
 1662SOL     OW 5884   6.940   1.859   3.749
 1662SOL    HW1 5885   6.997   1.842   3.669
 1662SOL    HW2 5886   6.847   1.827   3.731
 1663SOL     OW 5887   5.503   4.073   1.198
 1663SOL    HW1 5888   5.474   4.046   1.290
 1663SOL    HW2 5889   5.585   4.021   1.173
 1664SOL     OW 5890   1.272   0.950   6.257
 1664SOL    HW1 5891   1.355   0.918   6.302
 1664SOL    HW2 5892   1.285   0.949   6.158
 1665SOL     OW 5893   2.437   3.847   6.583
 1665SOL    HW1 5894   2.531   3.861   6.553
 1665SOL    HW2 5895   2.375   3.896   6.522
 1666SOL     OW 5896   5.301   6.252   6.303
 1666SOL    HW1 5897   5.245   6.170   6.307
 1666SOL    HW2 5898   5.299   6.298   6.392
 1667SOL     OW 5899   0.054   5.330   0.667
 1667SOL    HW1 5900   0.023   5.241   0.701
 1667SOL    HW2 5901   0.089   5.319   0.574
 1668SOL     OW 5902   5.777   3.125   2.158
 1668SOL    HW1 5903   5.866   3.081   2.147
 1668SOL    HW2 5904   5.755   3.134   2.255
 1669SOL     OW 5905   6.237   2.471   5.772
 1669SOL    HW1 5906   6.295   2.424   5.705
 1669SOL    HW2 5907   6.175   2.533   5.724
 1670SOL     OW 5908   3.282   4.569   6.246
 1670SOL    HW1 5909   3.220   4.634   6.202
 1670SOL    HW2 5910   3.289   4.486   6.189
 1671SOL     OW 5911   5.648   2.108   0.566
 1671SOL    HW1 5912   5.617   2.199   0.539
 1671SOL    HW2 5913   5.716   2.117   0.640
 1672SOL     OW 5914   0.346   2.128   1.299
 1672SOL    HW1 5915   0.368   2.117   1.396
 1672SOL    HW2 5916   0.385   2.213   1.265
 1673SOL     OW 5917   1.384   0.718   4.383
 1673SOL    HW1 5918   1.306   0.683   4.331
 1673SOL    HW2 5919   1.383   0.818   4.382
 1674SOL     OW 5920   4.746   2.253   3.681
 1674SOL    HW1 5921   4.706   2.163   3.666
 1674SOL    HW2 5922   4.846   2.245   3.684
 1675SOL     OW 5923   5.682   0.363   1.818
 1675SOL    HW1 5924   5.725   0.351   1.907
 1675SOL    HW2 5925   5.654   0.458   1.806
 1676SOL     OW 5926   0.754   2.307   3.656
 1676SOL    HW1 5927   0.802   2.254   3.586
 1676SOL    HW2 5928   0.749   2.403   3.629
 1677SOL     OW 5929   2.898   3.591   2.863
 1677SOL    HW1 5930   2.954   3.674   2.855
 1677SOL    HW2 5931   2.881   3.554   2.772
 1678SOL     OW 5932   0.347   6.147   0.301
 1678SOL    HW1 5933   0.310   6.100   0.221
 1678SOL    HW2 5934   0.305   6.238   0.309
 1679SOL     OW 5935   6.184   1.435   6.973
 1679SOL    HW1 5936   6.094   1.470   6.997
 1679SOL    HW2 5937   6.240   1.428   0.035
 1680SOL     OW 5938   5.961   2.759   3.006
 1680SOL    HW1 5939   5.998   2.695   3.074
 1680SOL    HW2 5940   5.868   2.731   2.982
 1681SOL     OW 5941   3.529   6.406   4.748
 1681SOL    HW1 5942   3.602   6.371   4.806
 1681SOL    HW2 5943   3.507   6.339   4.677
 1682SOL     OW 5944   4.469   0.888   4.652
 1682SOL    HW1 5945   4.389   0.905   4.710
 1682SOL    HW2 5946   4.550   0.878   4.710
 1683SOL     OW 5947   0.184   2.602   2.977
 1683SOL    HW1 5948   0.281   2.612   2.999
 1683SOL    HW2 5949   0.144   2.692   2.960
 1684SOL     OW 5950   2.532   5.560   1.281
 1684SOL    HW1 5951   2.496   5.524   1.195
 1684SOL    HW2 5952   2.510   5.496   1.355
 1685SOL     OW 5953   0.065   1.292   5.405
 1685SOL    HW1 5954   0.053   1.201   5.444
 1685SOL    HW2 5955   0.112   1.284   5.317
 1686SOL     OW 5956   3.562   5.295   2.134
 1686SOL    HW1 5957   3.510   5.227   2.083
 1686SOL    HW2 5958   3.637   5.330   2.077
 1687SOL     OW 5959   4.998   3.628   1.138
 1687SOL    HW1 5960   5.056   3.575   1.200
 1687SOL    HW2 5961   5.048   3.711   1.109
 1688SOL     OW 5962   2.659   0.012   3.071
 1688SOL    HW1 5963   2.706   6.952   3.034
 1688SOL    HW2 5964   2.688   0.026   3.166
 1689SOL     OW 5965   3.599   0.872   2.104
 1689SOL    HW1 5966   3.558   0.948   2.055
 1689SOL    HW2 5967   3.528   0.808   2.134
 1690SOL     OW 5968   6.285   4.760   4.080
 1690SOL    HW1 5969   6.373   4.775   4.033
 1690SOL    HW2 5970   6.230   4.843   4.075
 1691SOL     OW 5971   3.951   2.788   5.270
 1691SOL    HW1 5972   3.991   2.879   5.274
 1691SOL    HW2 5973   4.015   2.725   5.225
 1692SOL     OW 5974   5.827   5.076   1.210
 1692SOL    HW1 5975   5.838   5.010   1.285
 1692SOL    HW2 5976   5.758   5.143   1.235
 1693SOL     OW 5977   5.261   6.732   5.863
 1693SOL    HW1 5978   5.356   6.761   5.869
 1693SOL    HW2 5979   5.205   6.810   5.832
 1694SOL     OW 5980   4.695   1.361   6.370
 1694SOL    HW1 5981   4.757   1.403   6.436
 1694SOL    HW2 5982   4.683   1.264   6.392
 1695SOL     OW 5983   4.066   0.414   5.763
 1695SOL    HW1 5984   3.992   0.422   5.696
 1695SOL    HW2 5985   4.095   0.318   5.769
 1696SOL     OW 5986   4.344   0.356   1.193
 1696SOL    HW1 5987   4.416   0.424   1.206
 1696SOL    HW2 5988   4.256   0.395   1.218
 1697SOL     OW 5989   4.546   2.879   1.659
 1697SOL    HW1 5990   4.554   2.942   1.736
 1697SOL    HW2 5991   4.451   2.877   1.628
 1698SOL     OW 5992   4.020   1.689   1.804
 1698SOL    HW1 5993   3.987   1.696   1.899
 1698SOL    HW2 5994   3.957   1.737   1.743
 1699SOL     OW 5995   2.044   0.779   0.585
 1699SOL    HW1 5996   1.961   0.825   0.617
 1699SOL    HW2 5997   2.100   0.844   0.534
 1700SOL     OW 5998   5.139   3.178   2.705
 1700SOL    HW1 5999   5.238   3.173   2.716
 1700SOL    HW2 6000   5.117   3.210   2.613
 1701SOL     OW 6001   1.303   5.863   5.094
 1701SOL    HW1 6002   1.365   5.936   5.065
 1701SOL    HW2 6003   1.353   5.777   5.100
 1702SOL     OW 6004   2.076   2.856   6.529
 1702SOL    HW1 6005   2.042   2.822   6.441
 1702SOL    HW2 6006   2.090   2.779   6.591
 1703SOL     OW 6007   1.215   2.366   1.884
 1703SOL    HW1 6008   1.151   2.427   1.835
 1703SOL    HW2 6009   1.215   2.276   1.840
 1704SOL     OW 6010   2.733   2.728   6.562
 1704SOL    HW1 6011   2.777   2.647   6.524
 1704SOL    HW2 6012   2.749   2.732   6.661
 1705SOL     OW 6013   5.207   3.217   0.917
 1705SOL    HW1 6014   5.266   3.189   0.993
 1705SOL    HW2 6015   5.232   3.167   0.834
 1706SOL     OW 6016   5.697   1.272   6.129
 1706SOL    HW1 6017   5.781   1.228   6.161
 1706SOL    HW2 6018   5.628   1.269   6.202
 1707SOL     OW 6019   3.881   1.187   2.436
 1707SOL    HW1 6020   3.957   1.157   2.493
 1707SOL    HW2 6021   3.842   1.109   2.388
 1708SOL     OW 6022   2.552   4.587   1.886
 1708SOL    HW1 6023   2.632   4.567   1.941
 1708SOL    HW2 6024   2.523   4.682   1.900
 1709SOL     OW 6025   5.237   4.883   0.977
 1709SOL    HW1 6026   5.276   4.799   1.016
 1709SOL    HW2 6027   5.137   4.880   0.984
 1710SOL     OW 6028   4.827   2.937   2.197
 1710SOL    HW1 6029   4.759   2.936   2.124
 1710SOL    HW2 6030   4.856   3.031   2.214
 1711SOL     OW 6031   3.884   5.676   0.443
 1711SOL    HW1 6032   3.875   5.722   0.532
 1711SOL    HW2 6033   3.896   5.578   0.457
 1712SOL     OW 6034   0.140   1.794   1.951
 1712SOL    HW1 6035   0.171   1.845   1.871
 1712SOL    HW2 6036   0.112   1.702   1.923
 1713SOL     OW 6037   2.492   1.870   2.402
 1713SOL    HW1 6038   2.486   1.834   2.309
 1713SOL    HW2 6039   2.468   1.967   2.401
 1714SOL     OW 6040   2.660   4.252   0.904
 1714SOL    HW1 6041   2.601   4.180   0.868
 1714SOL    HW2 6042   2.616   4.295   0.982
 1715SOL     OW 6043   0.856   5.701   0.866
 1715SOL    HW1 6044   0.930   5.767   0.859
 1715SOL    HW2 6045   0.866   5.631   0.796
 1716SOL     OW 6046   5.174   1.714   2.987
 1716SOL    HW1 6047   5.192   1.678   3.078
 1716SOL    HW2 6048   5.258   1.751   2.948
 1717SOL     OW 6049   3.918   6.250   3.729
 1717SOL    HW1 6050   4.001   6.210   3.766
 1717SOL    HW2 6051   3.887   6.198   3.649
 1718SOL     OW 6052   1.789   3.717   1.774
 1718SOL    HW1 6053   1.887   3.738   1.770
 1718SOL    HW2 6054   1.777   3.628   1.817
 1719SOL     OW 6055   1.657   5.686   2.872
 1719SOL    HW1 6056   1.682   5.589   2.871
 1719SOL    HW2 6057   1.577   5.699   2.931
 1720SOL     OW 6058   0.951   2.977   5.325
 1720SOL    HW1 6059   1.048   2.976   5.301
 1720SOL    HW2 6060   0.942   2.983   5.424
 1721SOL     OW 6061   2.044   2.357   0.187
 1721SOL    HW1 6062   2.027   2.302   0.269
 1721SOL    HW2 6063   2.133   2.402   0.195
 1722SOL     OW 6064   2.503   2.580   3.502
 1722SOL    HW1 6065   2.510   2.567   3.601
 1722SOL    HW2 6066   2.572   2.523   3.457
 1723SOL     OW 6067   5.551   4.557   1.313
 1723SOL    HW1 6068   5.540   4.500   1.394
 1723SOL    HW2 6069   5.591   4.502   1.239
 1724SOL     OW 6070   5.631   2.826   0.971
 1724SOL    HW1 6071   5.625   2.764   1.049
 1724SOL    HW2 6072   5.693   2.788   0.903
 1725SOL     OW 6073   2.118   6.803   5.773
 1725SOL    HW1 6074   2.020   6.786   5.784
 1725SOL    HW2 6075   2.133   6.865   5.697
 1726SOL     OW 6076   4.632   4.302   3.418
 1726SOL    HW1 6077   4.606   4.351   3.502
 1726SOL    HW2 6078   4.713   4.246   3.436
 1727SOL     OW 6079   3.190   3.327   2.837
 1727SOL    HW1 6080   3.136   3.290   2.912
 1727SOL    HW2 6081   3.225   3.417   2.862
 1728SOL     OW 6082   5.751   2.133   4.134
 1728SOL    HW1 6083   5.730   2.220   4.091
 1728SOL    HW2 6084   5.684   2.114   4.206
 1729SOL     OW 6085   1.086   2.666   2.862
 1729SOL    HW1 6086   1.049   2.626   2.945
 1729SOL    HW2 6087   1.159   2.607   2.826
 1730SOL     OW 6088   2.676   6.643   5.066
 1730SOL    HW1 6089   2.690   6.727   5.015
 1730SOL    HW2 6090   2.755   6.625   5.125
 1731SOL     OW 6091   5.041   4.255   4.129
 1731SOL    HW1 6092   5.010   4.309   4.208
 1731SOL    HW2 6093   5.124   4.296   4.092
 1732SOL     OW 6094   3.449   3.799   5.135
 1732SOL    HW1 6095   3.434   3.808   5.037
 1732SOL    HW2 6096   3.387   3.730   5.172
 1733SOL     OW 6097   1.679   2.263   6.598
 1733SOL    HW1 6098   1.759   2.291   6.545
 1733SOL    HW2 6099   1.607   2.333   6.591
 1734SOL     OW 6100   0.243   3.839   1.121
 1734SOL    HW1 6101   0.193   3.752   1.115
 1734SOL    HW2 6102   0.309   3.845   1.047
 1735SOL     OW 6103   3.066   5.325   6.100
 1735SOL    HW1 6104   3.146   5.371   6.060
 1735SOL    HW2 6105   3.067   5.228   6.074
 1736SOL     OW 6106   5.140   2.492   6.501
 1736SOL    HW1 6107   5.082   2.567   6.532
 1736SOL    HW2 6108   5.174   2.512   6.409
 1737SOL     OW 6109   2.940   0.860   6.026
 1737SOL    HW1 6110   2.960   0.912   6.108
 1737SOL    HW2 6111   2.841   0.849   6.016
 1738SOL     OW 6112   1.721   4.127   2.143
 1738SOL    HW1 6113   1.797   4.071   2.111
 1738SOL    HW2 6114   1.643   4.115   2.081
 1739SOL     OW 6115   5.002   5.274   2.885
 1739SOL    HW1 6116   5.090   5.321   2.889
 1739SOL    HW2 6117   4.942   5.309   2.957
 1740SOL     OW 6118   6.777   2.947   4.975
 1740SOL    HW1 6119   6.844   2.992   5.035
 1740SOL    HW2 6120   6.825   2.894   4.905
 1741SOL     OW 6121   0.785   2.846   4.534
 1741SOL    HW1 6122   0.758   2.869   4.441
 1741SOL    HW2 6123   0.854   2.911   4.566
 1742SOL     OW 6124   6.275   6.968   0.075
 1742SOL    HW1 6125   6.349   0.007   0.107
 1742SOL    HW2 6126   6.189   7.019   0.075
 1743SOL     OW 6127   1.464   2.670   1.683
 1743SOL    HW1 6128   1.525   2.604   1.640
 1743SOL    HW2 6129   1.479   2.761   1.644
 1744SOL     OW 6130   3.218   2.280   5.505
 1744SOL    HW1 6131   3.126   2.315   5.487
 1744SOL    HW2 6132   3.263   2.260   5.418
 1745SOL     OW 6133   6.600   6.761   0.482
 1745SOL    HW1 6134   6.565   6.851   0.455
 1745SOL    HW2 6135   6.525   6.703   0.511
 1746SOL     OW 6136   2.339   5.169   2.765
 1746SOL    HW1 6137   2.397   5.251   2.763
 1746SOL    HW2 6138   2.293   5.162   2.854
 1747SOL     OW 6139   3.710   0.171   2.270
 1747SOL    HW1 6140   3.700   0.253   2.326
 1747SOL    HW2 6141   3.637   0.106   2.293
 1748SOL     OW 6142   6.732   1.875   4.126
 1748SOL    HW1 6143   6.670   1.947   4.157
 1748SOL    HW2 6144   6.679   1.794   4.102
 1749SOL     OW 6145   6.439   5.178   1.985
 1749SOL    HW1 6146   6.447   5.266   2.032
 1749SOL    HW2 6147   6.374   5.187   1.909
 1750SOL     OW 6148   3.199   0.889   0.505
 1750SOL    HW1 6149   3.131   0.881   0.433
 1750SOL    HW2 6150   3.241   0.980   0.502
 1751SOL     OW 6151   5.525   4.194   5.079
 1751SOL    HW1 6152   5.426   4.206   5.081
 1751SOL    HW2 6153   5.548   4.098   5.097
 1752SOL     OW 6154   6.545   0.550   2.333
 1752SOL    HW1 6155   6.462   0.499   2.357
 1752SOL    HW2 6156   6.611   0.489   2.290
 1753SOL     OW 6157   6.780   2.232   1.733
 1753SOL    HW1 6158   6.746   2.205   1.644
 1753SOL    HW2 6159   6.879   2.242   1.730
 1754SOL     OW 6160   3.144   5.809   3.791
 1754SOL    HW1 6161   3.072   5.740   3.786
 1754SOL    HW2 6162   3.177   5.816   3.885
 1755SOL     OW 6163   6.510   0.436   5.092
 1755SOL    HW1 6164   6.556   0.467   5.175
 1755SOL    HW2 6165   6.558   0.356   5.055
 1756SOL     OW 6166   4.257   6.042   1.468
 1756SOL    HW1 6167   4.199   6.027   1.548
 1756SOL    HW2 6168   4.340   6.090   1.496
 1757SOL     OW 6169   2.995   4.821   4.936
 1757SOL    HW1 6170   3.008   4.800   4.839
 1757SOL    HW2 6171   2.949   4.744   4.981
 1758SOL     OW 6172   0.921   6.232   3.651
 1758SOL    HW1 6173   0.926   6.320   3.603
 1758SOL    HW2 6174   0.896   6.160   3.587
 1759SOL     OW 6175   1.232   4.960   6.700
 1759SOL    HW1 6176   1.270   4.953   6.608
 1759SOL    HW2 6177   1.136   4.986   6.695
 1760SOL     OW 6178   6.252   1.640   4.528
 1760SOL    HW1 6179   6.208   1.571   4.586
 1760SOL    HW2 6180   6.271   1.600   4.438
 1761SOL     OW 6181   5.146   1.502   3.549
 1761SOL    HW1 6182   5.130   1.439   3.472
 1761SOL    HW2 6183   5.213   1.571   3.522
 1762SOL     OW 6184   1.106   1.698   5.694
 1762SOL    HW1 6185   1.133   1.782   5.741
 1762SOL    HW2 6186   1.042   1.721   5.620
 1763SOL     OW 6187   1.832   5.389   3.284
 1763SOL    HW1 6188   1.878   5.303   3.306
 1763SOL    HW2 6189   1.861   5.459   3.349
 1764SOL     OW 6190   0.989   6.069   3.313
 1764SOL    HW1 6191   1.020   6.158   3.281
 1764SOL    HW2 6192   1.067   6.017   3.350
 1765SOL     OW 6193   5.333   4.289   2.190
 1765SOL    HW1 6194   5.252   4.254   2.237
 1765SOL    HW2 6195   5.355   4.380   2.224
 1766SOL     OW 6196   4.775   4.488   4.345
 1766SOL    HW1 6197   4.801   4.512   4.439
 1766SOL    HW2 6198   4.852   4.507   4.284
 1767SOL     OW 6199   0.575   4.593   1.930
 1767SOL    HW1 6200   0.639   4.665   1.904
 1767SOL    HW2 6201   0.512   4.575   1.854
 1768SOL     OW 6202   4.034   4.755   2.639
 1768SOL    HW1 6203   4.036   4.838   2.695
 1768SOL    HW2 6204   4.096   4.688   2.678
 1769SOL     OW 6205   5.113   0.437   1.098
 1769SOL    HW1 6206   5.125   0.503   1.172
 1769SOL    HW2 6207   5.171   0.462   1.021
 1770SOL     OW 6208   1.831   5.157   0.418
 1770SOL    HW1 6209   1.924   5.133   0.391
 1770SOL    HW2 6210   1.806   5.244   0.375
 1771SOL     OW 6211   1.516   2.894   6.603
 1771SOL    HW1 6212   1.492   2.925   6.696
 1771SOL    HW2 6213   1.596   2.945   6.571
 1772SOL     OW 6214   2.205   4.595   2.971
 1772SOL    HW1 6215   2.198   4.652   2.888
 1772SOL    HW2 6216   2.287   4.538   2.965
 1773SOL     OW 6217   2.497   6.447   5.045
 1773SOL    HW1 6218   2.570   6.510   5.018
 1773SOL    HW2 6219   2.524   6.399   5.128
 1774SOL     OW 6220   5.640   5.629   1.635
 1774SOL    HW1 6221   5.727   5.581   1.636
 1774SOL    HW2 6222   5.572   5.576   1.687
 1775SOL     OW 6223   1.109   6.286   0.594
 1775SOL    HW1 6224   1.014   6.262   0.612
 1775SOL    HW2 6225   1.150   6.216   0.534
 1776SOL     OW 6226   4.462   3.721   6.054
 1776SOL    HW1 6227   4.451   3.708   5.956
 1776SOL    HW2 6228   4.489   3.816   6.072
 1777SOL     OW 6229   4.427   6.346   0.092
 1777SOL    HW1 6230   4.418   6.445   0.080
 1777SOL    HW2 6231   4.341   6.310   0.129
 1778SOL     OW 6232   6.567   0.152   3.433
 1778SOL    HW1 6233   6.627   0.227   3.406
 1778SOL    HW2 6234   6.607   0.065   3.405
 1779SOL     OW 6235   6.013   0.479   4.537
 1779SOL    HW1 6236   6.090   0.458   4.476
 1779SOL    HW2 6237   5.931   0.434   4.503
 1780SOL     OW 6238   3.197   6.118   4.697
 1780SOL    HW1 6239   3.160   6.033   4.733
 1780SOL    HW2 6240   3.281   6.141   4.746
 1781SOL     OW 6241   4.252   1.097   5.956
 1781SOL    HW1 6242   4.194   1.059   6.027
 1781SOL    HW2 6243   4.254   1.034   5.878
 1782SOL     OW 6244   5.024   0.473   2.331
 1782SOL    HW1 6245   5.092   0.416   2.378
 1782SOL    HW2 6246   4.988   0.541   2.395
 1783SOL     OW 6247   1.740   3.908   6.529
 1783SOL    HW1 6248   1.687   3.856   6.462
 1783SOL    HW2 6249   1.689   3.915   6.615
 1784SOL     OW 6250   2.495   6.196   1.193
 1784SOL    HW1 6251   2.475   6.294   1.206
 1784SOL    HW2 6252   2.491   6.174   1.096
 1785SOL     OW 6253   1.541   5.861   4.272
 1785SOL    HW1 6254   1.521   5.957   4.252
 1785SOL    HW2 6255   1.623   5.854   4.328
 1786SOL     OW 6256   0.660   5.986   1.737
 1786SOL    HW1 6257   0.690   5.946   1.650
 1786SOL    HW2 6258   0.588   6.053   1.719
 1787SOL     OW 6259   2.084   2.212   5.597
 1787SOL    HW1 6260   2.182   2.193   5.583
 1787SOL    HW2 6261   2.072   2.309   5.621
 1788SOL     OW 6262   3.951   3.902   0.458
 1788SOL    HW1 6263   3.877   3.880   0.521
 1788SOL    HW2 6264   3.950   3.838   0.381
 1789SOL     OW 6265   5.736   2.880   1.820
 1789SOL    HW1 6266   5.777   2.803   1.770
 1789SOL    HW2 6267   5.803   2.916   1.884
 1790SOL     OW 6268   2.297   1.765   4.634
 1790SOL    HW1 6269   2.325   1.821   4.712
 1790SOL    HW2 6270   2.318   1.812   4.549
 1791SOL     OW 6271   5.582   0.258   3.812
 1791SOL    HW1 6272   5.488   0.226   3.808
 1791SOL    HW2 6273   5.644   0.180   3.822
 1792SOL     OW 6274   6.711   2.383   6.610
 1792SOL    HW1 6275   6.666   2.397   6.699
 1792SOL    HW2 6276   6.689   2.459   6.550
 1793SOL     OW 6277   0.105   1.150   4.532
 1793SOL    HW1 6278   0.142   1.184   4.618
 1793SOL    HW2 6279   0.040   1.217   4.495
 1794SOL     OW 6280   0.443   1.592   6.465
 1794SOL    HW1 6281   0.387   1.675   6.462
 1794SOL    HW2 6282   0.503   1.589   6.385
 1795SOL     OW 6283   5.424   4.809   0.714
 1795SOL    HW1 6284   5.484   4.881   0.681
 1795SOL    HW2 6285   5.348   4.849   0.766
 1796SOL     OW 6286   5.777   6.949   0.638
 1796SOL    HW1 6287   5.821   6.998   0.563
 1796SOL    HW2 6288   5.804   6.990   0.725
 1797SOL     OW 6289   3.035   5.997   5.469
 1797SOL    HW1 6290   2.963   5.983   5.402
 1797SOL    HW2 6291   3.006   5.961   5.558
 1798SOL     OW 6292   2.198   3.448   6.026
 1798SOL    HW1 6293   2.255   3.450   5.944
 1798SOL    HW2 6294   2.171   3.541   6.051
 1799SOL     OW 6295   3.392   1.470   2.228
 1799SOL    HW1 6296   3.390   1.553   2.171
 1799SOL    HW2 6297   3.469   1.412   2.199
 1800SOL     OW 6298   6.182   2.764   5.943
 1800SOL    HW1 6299   6.148   2.723   5.858
 1800SOL    HW2 6300   6.282   2.766   5.942
 1801SOL     OW 6301   0.052   1.395   2.482
 1801SOL    HW1 6302   7.014   1.365   2.558
 1801SOL    HW2 6303   0.135   1.339   2.479
 1802SOL     OW 6304   6.037   4.892   4.251
 1802SOL    HW1 6305   5.947   4.849   4.239
 1802SOL    HW2 6306   6.074   4.867   4.340
 1803SOL     OW 6307   0.342   6.774   4.259
 1803SOL    HW1 6308   0.413   6.841   4.239
 1803SOL    HW2 6309   0.252   6.816   4.248
 1804SOL     OW 6310   1.093   2.730   6.442
 1804SOL    HW1 6311   1.085   2.826   6.415
 1804SOL    HW2 6312   1.157   2.683   6.381
 1805SOL     OW 6313   5.938   4.576   6.719
 1805SOL    HW1 6314   5.905   4.493   6.763
 1805SOL    HW2 6315   6.036   4.568   6.701
 1806SOL     OW 6316   0.747   1.991   1.377
 1806SOL    HW1 6317   0.703   2.000   1.288
 1806SOL    HW2 6318   0.766   2.081   1.414
 1807SOL     OW 6319   5.868   2.950   2.438
 1807SOL    HW1 6320   5.828   2.907   2.518
 1807SOL    HW2 6321   5.893   3.045   2.460
 1808SOL     OW 6322   5.720   0.989   6.352
 1808SOL    HW1 6323   5.748   1.084   6.370
 1808SOL    HW2 6324   5.620   0.983   6.356
 1809SOL     OW 6325   5.184   0.480   5.428
 1809SOL    HW1 6326   5.091   0.470   5.462
 1809SOL    HW2 6327   5.244   0.509   5.503
 1810SOL     OW 6328   1.234   1.201   4.564
 1810SOL    HW1 6329   1.245   1.298   4.587
 1810SOL    HW2 6330   1.266   1.145   4.640
 1811SOL     OW 6331   3.055   5.693   2.246
 1811SOL    HW1 6332   3.110   5.631   2.191
 1811SOL    HW2 6333   3.002   5.753   2.186
 1812SOL     OW 6334   4.223   0.464   6.108
 1812SOL    HW1 6335   4.127   0.471   6.081
 1812SOL    HW2 6336   4.270   0.550   6.086
 1813SOL     OW 6337   5.251   3.624   1.693
 1813SOL    HW1 6338   5.277   3.555   1.760
 1813SOL    HW2 6339   5.169   3.671   1.725
 1814SOL     OW 6340   6.784   5.829   0.713
 1814SOL    HW1 6341   6.853   5.898   0.694
 1814SOL    HW2 6342   6.812   5.775   0.793
 1815SOL     OW 6343   6.163   5.261   0.986
 1815SOL    HW1 6344   6.185   5.192   0.918
 1815SOL    HW2 6345   6.124   5.342   0.942
 1816SOL     OW 6346   3.725   5.274   4.264
 1816SOL    HW1 6347   3.735   5.360   4.214
 1816SOL    HW2 6348   3.705   5.200   4.200
 1817SOL     OW 6349   6.694   2.754   3.360
 1817SOL    HW1 6350   6.647   2.699   3.429
 1817SOL    HW2 6351   6.791   2.732   3.359
 1818SOL     OW 6352   2.187   1.522   0.616
 1818SOL    HW1 6353   2.206   1.424   0.607
 1818SOL    HW2 6354   2.152   1.557   0.530
 1819SOL     OW 6355   0.706   3.962   1.269
 1819SOL    HW1 6356   0.688   3.947   1.366
 1819SOL    HW2 6357   0.789   3.912   1.242
 1820SOL     OW 6358   4.049   0.038   5.243
 1820SOL    HW1 6359   4.076   7.013   5.327
 1820SOL    HW2 6360   4.099   7.018   5.166
 1821SOL     OW 6361   3.901   1.557   2.912
 1821SOL    HW1 6362   3.838   1.633   2.930
 1821SOL    HW2 6363   3.908   1.542   2.813
 1822SOL     OW 6364   1.825   4.024   4.027
 1822SOL    HW1 6365   1.760   4.101   4.021
 1822SOL    HW2 6366   1.917   4.057   4.006
 1823SOL     OW 6367   3.336   6.746   3.555
 1823SOL    HW1 6368   3.281   6.672   3.592
 1823SOL    HW2 6369   3.433   6.725   3.568
 1824SOL     OW 6370   4.741   3.148   1.635
 1824SOL    HW1 6371   4.681   3.216   1.592
 1824SOL    HW2 6372   4.694   3.109   1.714
 1825SOL     OW 6373   1.374   3.639   0.004
 1825SOL    HW1 6374   1.378   3.712   6.956
 1825SOL    HW2 6375   1.460   3.587   0.002
 1826SOL     OW 6376   3.653   2.851   0.660
 1826SOL    HW1 6377   3.567   2.884   0.621
 1826SOL    HW2 6378   3.717   2.833   0.586
 1827SOL     OW 6379   4.933   4.530   0.388
 1827SOL    HW1 6380   5.002   4.541   0.316
 1827SOL    HW2 6381   4.977   4.536   0.478
 1828SOL     OW 6382   2.667   4.661   4.743
 1828SOL    HW1 6383   2.725   4.638   4.821
 1828SOL    HW2 6384   2.642   4.758   4.747
 1829SOL     OW 6385   2.604   6.468   1.897
 1829SOL    HW1 6386   2.702   6.469   1.876
 1829SOL    HW2 6387   2.585   6.394   1.962
 1830SOL     OW 6388   4.198   1.168   6.633
 1830SOL    HW1 6389   4.202   1.077   6.594
 1830SOL    HW2 6390   4.290   1.198   6.657
 1831SOL     OW 6391   3.791   4.702   0.299
 1831SOL    HW1 6392   3.734   4.620   0.310
 1831SOL    HW2 6393   3.815   4.713   0.202
 1832SOL     OW 6394   2.050   3.507   5.321
 1832SOL    HW1 6395   2.097   3.557   5.393
 1832SOL    HW2 6396   2.088   3.415   5.313
 1833SOL     OW 6397   5.640   1.025   0.099
 1833SOL    HW1 6398   5.690   1.025   0.012
 1833SOL    HW2 6399   5.672   0.948   0.155
 1834SOL     OW 6400   1.629   3.743   6.332
 1834SOL    HW1 6401   1.597   3.650   6.349
 1834SOL    HW2 6402   1.616   3.765   6.235
 1835SOL     OW 6403   6.563   6.389   0.964
 1835SOL    HW1 6404   6.644   6.447   0.953
 1835SOL    HW2 6405   6.579   6.301   0.920
 1836SOL     OW 6406   5.976   2.084   3.077
 1836SOL    HW1 6407   5.943   2.021   3.147
 1836SOL    HW2 6408   6.053   2.042   3.027
 1837SOL     OW 6409   1.727   1.836   0.167
 1837SOL    HW1 6410   1.711   1.744   0.204
 1837SOL    HW2 6411   1.639   1.881   0.151
 1838SOL     OW 6412   4.847   0.470   0.521
 1838SOL    HW1 6413   4.910   0.547   0.530
 1838SOL    HW2 6414   4.822   0.457   0.425
 1839SOL     OW 6415   6.633   0.722   6.620
 1839SOL    HW1 6416   6.607   0.639   6.668
 1839SOL    HW2 6417   6.730   0.741   6.635
 1840SOL     OW 6418   3.854   0.075   5.059
 1840SOL    HW1 6419   3.943   0.056   5.100
 1840SOL    HW2 6420   3.857   0.162   5.010
 1841SOL     OW 6421   1.940   0.748   1.678
 1841SOL    HW1 6422   1.882   0.799   1.741
 1841SOL    HW2 6423   1.934   0.789   1.587
 1842SOL     OW 6424   6.893   5.103   1.091
 1842SOL    HW1 6425   6.949   5.179   1.056
 1842SOL    HW2 6426   6.814   5.139   1.139
 1843SOL     OW 6427   2.887   1.328   6.820
 1843SOL    HW1 6428   2.843   1.402   6.871
 1843SOL    HW2 6429   2.848   1.323   6.728
 1844SOL     OW 6430   5.234   3.252   0.376
 1844SOL    HW1 6431   5.248   3.341   0.333
 1844SOL    HW2 6432   5.137   3.229   0.377
 1845SOL     OW 6433   1.305   2.743   4.201
 1845SOL    HW1 6434   1.358   2.704   4.126
 1845SOL    HW2 6435   1.338   2.836   4.220
 1846SOL     OW 6436   3.410   1.695   2.069
 1846SOL    HW1 6437   3.418   1.743   2.157
 1846SOL    HW2 6438   3.344   1.744   2.011
 1847SOL     OW 6439   2.265   5.939   6.914
 1847SOL    HW1 6440   2.180   5.892   6.890
 1847SOL    HW2 6441   2.338   5.909   6.853
 1848SOL     OW 6442   3.887   6.510   3.765
 1848SOL    HW1 6443   3.873   6.546   3.858
 1848SOL    HW2 6444   3.881   6.411   3.767
 1849SOL     OW 6445   4.753   2.790   2.813
 1849SOL    HW1 6446   4.806   2.713   2.779
 1849SOL    HW2 6447   4.791   2.822   2.900
 1850SOL     OW 6448   4.557   1.566   0.870
 1850SOL    HW1 6449   4.532   1.564   0.967
 1850SOL    HW2 6450   4.648   1.606   0.860
 1851SOL     OW 6451   0.572   5.089   4.285
 1851SOL    HW1 6452   0.669   5.093   4.311
 1851SOL    HW2 6453   0.538   5.181   4.267
 1852SOL     OW 6454   0.791   6.691   3.481
 1852SOL    HW1 6455   0.741   6.641   3.410
 1852SOL    HW2 6456   0.752   6.783   3.490
 1853SOL     OW 6457   0.997   1.938   5.795
 1853SOL    HW1 6458   1.082   1.980   5.827
 1853SOL    HW2 6459   0.962   1.989   5.716
 1854SOL     OW 6460   0.576   0.260   4.265
 1854SOL    HW1 6461   0.535   0.178   4.304
 1854SOL    HW2 6462   0.584   0.249   4.166
 1855SOL     OW 6463   6.594   1.809   4.824
 1855SOL    HW1 6464   6.593   1.754   4.907
 1855SOL    HW2 6465   6.502   1.813   4.785
 1856SOL     OW 6466   5.081   4.267   6.768
 1856SOL    HW1 6467   5.129   4.309   6.845
 1856SOL    HW2 6468   5.096   4.322   6.686
 1857SOL     OW 6469   3.937   1.227   6.443
 1857SOL    HW1 6470   3.965   1.188   6.355
 1857SOL    HW2 6471   4.012   1.283   6.480
 1858SOL     OW 6472   5.535   1.570   5.245
 1858SOL    HW1 6473   5.455   1.608   5.199
 1858SOL    HW2 6474   5.521   1.472   5.259
 1859SOL     OW 6475   6.764   6.608   2.496
 1859SOL    HW1 6476   6.797   6.702   2.500
 1859SOL    HW2 6477   6.676   6.606   2.448
 1860SOL     OW 6478   2.592   0.763   6.248
 1860SOL    HW1 6479   2.523   0.701   6.285
 1860SOL    HW2 6480   2.683   0.730   6.274
 1861SOL     OW 6481   6.647   6.607   5.330
 1861SOL    HW1 6482   6.640   6.507   5.337
 1861SOL    HW2 6483   6.575   6.641   5.269
 1862SOL     OW 6484   3.339   6.170   6.339
 1862SOL    HW1 6485   3.425   6.153   6.388
 1862SOL    HW2 6486   3.352   6.152   6.242
 1863SOL     OW 6487   0.027   1.660   1.611
 1863SOL    HW1 6488   0.005   1.645   1.707
 1863SOL    HW2 6489   6.974   1.623   1.553
 1864SOL     OW 6490   2.123   6.736   2.045
 1864SOL    HW1 6491   2.194   6.782   2.099
 1864SOL    HW2 6492   2.048   6.709   2.105
 1865SOL     OW 6493   6.306   2.065   6.076
 1865SOL    HW1 6494   6.215   2.093   6.045
 1865SOL    HW2 6495   6.375   2.114   6.024
 1866SOL     OW 6496   6.840   4.531   3.726
 1866SOL    HW1 6497   6.896   4.462   3.680
 1866SOL    HW2 6498   6.797   4.591   3.659
 1867SOL     OW 6499   1.301   0.993   1.786
 1867SOL    HW1 6500   1.332   0.898   1.783
 1867SOL    HW2 6501   1.331   1.041   1.704
 1868SOL     OW 6502   4.861   4.058   6.109
 1868SOL    HW1 6503   4.956   4.089   6.109
 1868SOL    HW2 6504   4.857   3.962   6.082
 1869SOL     OW 6505   5.422   0.660   5.129
 1869SOL    HW1 6506   5.445   0.616   5.216
 1869SOL    HW2 6507   5.384   0.751   5.146
 1870SOL     OW 6508   6.129   0.429   6.084
 1870SOL    HW1 6509   6.042   0.450   6.128
 1870SOL    HW2 6510   6.129   0.334   6.054
 1871SOL     OW 6511   1.365   5.452   6.833
 1871SOL    HW1 6512   1.285   5.418   6.783
 1871SOL    HW2 6513   1.346   5.448   6.932
 1872SOL     OW 6514   2.328   3.196   0.986
 1872SOL    HW1 6515   2.235   3.179   1.019
 1872SOL    HW2 6516   2.359   3.286   1.017
 1873SOL     OW 6517   5.915   1.679   2.501
 1873SOL    HW1 6518   5.998   1.714   2.544
 1873SOL    HW2 6519   5.892   1.735   2.421
 1874SOL     OW 6520   1.510   5.968   6.384
 1874SOL    HW1 6521   1.442   5.918   6.330
 1874SOL    HW2 6522   1.577   6.010   6.323
 1875SOL     OW 6523   0.885   6.485   2.480
 1875SOL    HW1 6524   0.945   6.411   2.449
 1875SOL    HW2 6525   0.910   6.570   2.432
 1876SOL     OW 6526   0.692   4.887   0.439
 1876SOL    HW1 6527   0.766   4.891   0.372
 1876SOL    HW2 6528   0.731   4.894   0.531
 1877SOL     OW 6529   1.232   0.961   2.967
 1877SOL    HW1 6530   1.312   1.005   2.926
 1877SOL    HW2 6531   1.207   1.010   3.050
 1878SOL     OW 6532   5.546   3.757   4.405
 1878SOL    HW1 6533   5.643   3.776   4.421
 1878SOL    HW2 6534   5.515   3.686   4.469
 1879SOL     OW 6535   4.226   6.448   5.215
 1879SOL    HW1 6536   4.129   6.446   5.238
 1879SOL    HW2 6537   4.262   6.540   5.229
 1880SOL     OW 6538   1.481   2.952   4.132
 1880SOL    HW1 6539   1.397   3.002   4.112
 1880SOL    HW2 6540   1.518   2.980   4.220
 1881SOL     OW 6541   2.059   1.223   3.893
 1881SOL    HW1 6542   1.985   1.277   3.932
 1881SOL    HW2 6543   2.026   1.173   3.813
 1882SOL     OW 6544   3.288   5.615   0.709
 1882SOL    HW1 6545   3.195   5.634   0.740
 1882SOL    HW2 6546   3.353   5.653   0.775
 1883SOL     OW 6547   2.014   3.612   2.442
 1883SOL    HW1 6548   1.959   3.656   2.513
 1883SOL    HW2 6549   2.035   3.518   2.470
 1884SOL     OW 6550   4.850   0.354   0.263
 1884SOL    HW1 6551   4.760   0.318   0.238
 1884SOL    HW2 6552   4.877   0.424   0.197
 1885SOL     OW 6553   0.122   1.287   0.492
 1885SOL    HW1 6554   0.136   1.385   0.478
 1885SOL    HW2 6555   0.113   1.269   0.590
 1886SOL     OW 6556   3.590   2.924   5.526
 1886SOL    HW1 6557   3.592   2.832   5.565
 1886SOL    HW2 6558   3.648   2.985   5.581
 1887SOL     OW 6559   0.794   5.815   4.949
 1887SOL    HW1 6560   0.789   5.746   4.878
 1887SOL    HW2 6561   0.889   5.827   4.977
 1888SOL     OW 6562   1.762   1.421   6.029
 1888SOL    HW1 6563   1.748   1.486   6.104
 1888SOL    HW2 6564   1.674   1.400   5.986
 1889SOL     OW 6565   3.655   2.934   6.943
 1889SOL    HW1 6566   3.659   2.898   0.016
 1889SOL    HW2 6567   3.737   2.904   6.893
 1890SOL     OW 6568   6.358   5.873   6.192
 1890SOL    HW1 6569   6.397   5.883   6.100
 1890SOL    HW2 6570   6.424   5.827   6.251
 1891SOL     OW 6571   5.219   3.334   6.891
 1891SOL    HW1 6572   5.233   3.255   6.951
 1891SOL    HW2 6573   5.305   3.383   6.880
 1892SOL     OW 6574   4.028   0.371   3.328
 1892SOL    HW1 6575   4.034   0.300   3.258
 1892SOL    HW2 6576   3.932   0.388   3.351
 1893SOL     OW 6577   2.563   0.773   6.608
 1893SOL    HW1 6578   2.506   0.816   6.538
 1893SOL    HW2 6579   2.510   0.763   6.692
 1894SOL     OW 6580   5.006   3.080   0.506
 1894SOL    HW1 6581   5.038   3.026   0.429
 1894SOL    HW2 6582   4.944   3.152   0.473
 1895SOL     OW 6583   4.929   5.311   3.149
 1895SOL    HW1 6584   4.974   5.240   3.203
 1895SOL    HW2 6585   4.867   5.363   3.207
 1896SOL     OW 6586   6.897   1.817   5.157
 1896SOL    HW1 6587   6.921   1.898   5.103
 1896SOL    HW2 6588   6.912   1.735   5.101
 1897SOL     OW 6589   4.889   4.905   3.417
 1897SOL    HW1 6590   4.924   4.811   3.406
 1897SOL    HW2 6591   4.879   4.925   3.514
 1898SOL     OW 6592   5.550   6.381   6.912
 1898SOL    HW1 6593   5.648   6.364   6.898
 1898SOL    HW2 6594   5.535   6.406   7.008
 1899SOL     OW 6595   2.243   3.050   3.329
 1899SOL    HW1 6596   2.259   3.115   3.404
 1899SOL    HW2 6597   2.233   3.100   3.243
 1900SOL     OW 6598   2.140   5.460   1.642
 1900SOL    HW1 6599   2.091   5.411   1.715
 1900SOL    HW2 6600   2.116   5.419   1.554
 1901SOL     OW 6601   1.700   0.656   5.262
 1901SOL    HW1 6602   1.795   0.664   5.292
 1901SOL    HW2 6603   1.695   0.596   5.182
 1902SOL     OW 6604   1.072   3.200   3.911
 1902SOL    HW1 6605   1.068   3.299   3.902
 1902SOL    HW2 6606   1.141   3.176   3.980
 1903SOL     OW 6607   6.493   4.824   3.913
 1903SOL    HW1 6608   6.439   4.762   3.855
 1903SOL    HW2 6609   6.476   4.918   3.885
 1904SOL     OW 6610   0.943   0.373   3.829
 1904SOL    HW1 6611   1.035   0.360   3.793
 1904SOL    HW2 6612   0.898   0.448   3.779
 1905SOL     OW 6613   6.149   2.791   5.001
 1905SOL    HW1 6614   6.072   2.735   5.031
 1905SOL    HW2 6615   6.145   2.881   5.046
 1906SOL     OW 6616   2.112   6.925   5.510
 1906SOL    HW1 6617   2.133   7.010   5.557
 1906SOL    HW2 6618   2.021   6.931   5.468
 1907SOL     OW 6619   4.322   6.781   3.201
 1907SOL    HW1 6620   4.254   6.740   3.140
 1907SOL    HW2 6621   4.277   6.845   3.263
 1908SOL     OW 6622   4.399   5.747   0.956
 1908SOL    HW1 6623   4.440   5.824   1.004
 1908SOL    HW2 6624   4.467   5.676   0.941
 1909SOL     OW 6625   5.312   5.069   3.742
 1909SOL    HW1 6626   5.278   4.988   3.791
 1909SOL    HW2 6627   5.405   5.089   3.773
 1910SOL     OW 6628   4.906   3.374   4.268
 1910SOL    HW1 6629   4.866   3.311   4.201
 1910SOL    HW2 6630   5.005   3.379   4.255
 1911SOL     OW 6631   0.950   2.575   5.863
 1911SOL    HW1 6632   0.877   2.547   5.926
 1911SOL    HW2 6633   0.993   2.659   5.897
 1912SOL     OW 6634   3.407   6.333   2.998
 1912SOL    HW1 6635   3.478   6.347   2.929
 1912SOL    HW2 6636   3.416   6.402   3.069
 1913SOL     OW 6637   2.453   4.138   5.582
 1913SOL    HW1 6638   2.503   4.103   5.502
 1913SOL    HW2 6639   2.476   4.235   5.595
 1914SOL     OW 6640   4.308   1.671   4.825
 1914SOL    HW1 6641   4.231   1.727   4.857
 1914SOL    HW2 6642   4.321   1.594   4.887
 1915SOL     OW 6643   2.943   0.072   5.433
 1915SOL    HW1 6644   2.995   0.001   5.479
 1915SOL    HW2 6645   2.918   0.143   5.499
 1916SOL     OW 6646   3.429   6.031   2.463
 1916SOL    HW1 6647   3.340   5.997   2.434
 1916SOL    HW2 6648   3.450   5.996   2.555
 1917SOL     OW 6649   3.472   3.819   4.195
 1917SOL    HW1 6650   3.442   3.913   4.212
 1917SOL    HW2 6651   3.475   3.802   4.096
 1918SOL     OW 6652   0.118   6.645   5.115
 1918SOL    HW1 6653   0.059   6.617   5.039
 1918SOL    HW2 6654   0.086   6.602   5.199
 1919SOL     OW 6655   6.538   0.961   2.613
 1919SOL    HW1 6656   6.498   0.903   2.685
 1919SOL    HW2 6657   6.539   0.911   2.527
 1920SOL     OW 6658   6.474   6.454   4.989
 1920SOL    HW1 6659   6.476   6.536   5.046
 1920SOL    HW2 6660   6.388   6.450   4.938
 1921SOL     OW 6661   2.202   6.669   7.007
 1921SOL    HW1 6662   2.163   6.580   0.013
 1921SOL    HW2 6663   2.191   6.683   6.909
 1922SOL     OW 6664   3.409   4.157   0.602
 1922SOL    HW1 6665   3.410   4.237   0.662
 1922SOL    HW2 6666   3.330   4.162   0.541
 1923SOL     OW 6667   1.749   2.902   0.797
 1923SOL    HW1 6668   1.673   2.850   0.759
 1923SOL    HW2 6669   1.810   2.931   0.723
 1924SOL     OW 6670   0.792   3.653   1.019
 1924SOL    HW1 6671   0.892   3.650   1.015
 1924SOL    HW2 6672   0.759   3.736   0.973
 1925SOL     OW 6673   3.291   4.460   0.288
 1925SOL    HW1 6674   3.199   4.494   0.305
 1925SOL    HW2 6675   3.299   4.435   0.191
 1926SOL     OW 6676   0.461   0.723   3.501
 1926SOL    HW1 6677   0.513   0.733   3.417
 1926SOL    HW2 6678   0.481   0.799   3.563
 1927SOL     OW 6679   5.225   3.268   1.469
 1927SOL    HW1 6680   5.280   3.184   1.463
 1927SOL    HW2 6681   5.137   3.247   1.510
 1928SOL     OW 6682   0.216   5.486   4.564
 1928SOL    HW1 6683   0.124   5.457   4.589
 1928SOL    HW2 6684   0.281   5.413   4.587
 1929SOL     OW 6685   1.223   5.660   2.969
 1929SOL    HW1 6686   1.253   5.756   2.972
 1929SOL    HW2 6687   1.144   5.652   2.908
 1930SOL     OW 6688   7.010   5.463   6.135
 1930SOL    HW1 6689   6.965   5.527   6.196
 1930SOL    HW2 6690   0.080   5.439   6.172
 1931SOL     OW 6691   0.860   2.350   4.133
 1931SOL    HW1 6692   0.862   2.260   4.089
 1931SOL    HW2 6693   0.886   2.340   4.229
 1932SOL     OW 6694   6.011   3.514   2.692
 1932SOL    HW1 6695   6.021   3.477   2.599
 1932SOL    HW2 6696   5.985   3.440   2.754
 1933SOL     OW 6697   2.801   5.097   0.248
 1933SOL    HW1 6698   2.871   5.130   0.312
 1933SOL    HW2 6699   2.846   5.053   0.170
 1934SOL     OW 6700   6.961   6.080   3.020
 1934SOL    HW1 6701   6.909   5.997   3.041
 1934SOL    HW2 6702   0.038   6.058   3.009
 1935SOL     OW 6703   1.842   1.294   3.256
 1935SOL    HW1 6704   1.807   1.386   3.275
 1935SOL    HW2 6705   1.784   1.226   3.301
 1936SOL     OW 6706   6.892   6.019   5.215
 1936SOL    HW1 6707   6.940   5.934   5.235
 1936SOL    HW2 6708   6.880   6.072   5.299
 1937SOL     OW 6709   4.051   1.099   3.159
 1937SOL    HW1 6710   4.138   1.062   3.126
 1937SOL    HW2 6711   4.039   1.192   3.125
 1938SOL     OW 6712   5.782   0.271   4.358
 1938SOL    HW1 6713   5.810   0.306   4.269
 1938SOL    HW2 6714   5.686   0.295   4.374
 1939SOL     OW 6715   3.111   0.304   4.479
 1939SOL    HW1 6716   3.162   0.301   4.566
 1939SOL    HW2 6717   3.050   0.225   4.474
 1940SOL     OW 6718   6.330   6.259   6.401
 1940SOL    HW1 6719   6.264   6.210   6.345
 1940SOL    HW2 6720   6.293   6.348   6.426
 1941SOL     OW 6721   4.671   5.072   2.489
 1941SOL    HW1 6722   4.742   5.046   2.424
 1941SOL    HW2 6723   4.668   5.006   2.564
 1942SOL     OW 6724   0.211   3.782   3.063
 1942SOL    HW1 6725   0.155   3.701   3.077
 1942SOL    HW2 6726   0.204   3.842   3.143
 1943SOL     OW 6727   3.057   5.849   3.454
 1943SOL    HW1 6728   3.071   5.784   3.380
 1943SOL    HW2 6729   3.141   5.858   3.508
 1944SOL     OW 6730   0.044   6.448   1.890
 1944SOL    HW1 6731   6.984   6.415   1.942
 1944SOL    HW2 6732   0.112   6.484   1.954
 1945SOL     OW 6733   3.174   5.011   3.234
 1945SOL    HW1 6734   3.101   4.952   3.198
 1945SOL    HW2 6735   3.255   5.002   3.175
 1946SOL     OW 6736   1.279   6.828   6.903
 1946SOL    HW1 6737   1.322   6.739   6.888
 1946SOL    HW2 6738   1.278   6.879   6.817
 1947SOL     OW 6739   4.610   0.011   3.352
 1947SOL    HW1 6740   4.591   0.056   3.264
 1947SOL    HW2 6741   4.647   0.078   3.416
 1948SOL     OW 6742   6.189   3.582   4.875
 1948SOL    HW1 6743   6.196   3.643   4.796
 1948SOL    HW2 6744   6.275   3.531   4.885
 1949SOL     OW 6745   4.369   4.486   6.691
 1949SOL    HW1 6746   4.309   4.502   6.769
 1949SOL    HW2 6747   4.452   4.439   6.722
 1950SOL     OW 6748   3.587   5.274   1.015
 1950SOL    HW1 6749   3.628   5.204   1.073
 1950SOL    HW2 6750   3.651   5.351   1.006
 1951SOL     OW 6751   6.470   2.472   0.653
 1951SOL    HW1 6752   6.432   2.539   0.589
 1951SOL    HW2 6753   6.568   2.463   0.636
 1952SOL     OW 6754   3.109   3.068   4.478
 1952SOL    HW1 6755   3.093   3.140   4.411
 1952SOL    HW2 6756   3.022   3.024   4.501
 1953SOL     OW 6757   0.437   2.818   4.693
 1953SOL    HW1 6758   0.447   2.810   4.594
 1953SOL    HW2 6759   0.414   2.912   4.716
 1954SOL     OW 6760   2.528   1.741   3.879
 1954SOL    HW1 6761   2.540   1.840   3.868
 1954SOL    HW2 6762   2.438   1.714   3.845
 1955SOL     OW 6763   5.990   5.697   1.850
 1955SOL    HW1 6764   5.919   5.661   1.910
 1955SOL    HW2 6765   5.993   5.643   1.766
 1956SOL     OW 6766   4.978   5.691   2.770
 1956SOL    HW1 6767   5.078   5.699   2.763
 1956SOL    HW2 6768   4.948   5.722   2.860
 1957SOL     OW 6769   1.627   6.581   4.489
 1957SOL    HW1 6770   1.676   6.552   4.571
 1957SOL    HW2 6771   1.528   6.569   4.503
 1958SOL     OW 6772   3.775   3.694   5.794
 1958SOL    HW1 6773   3.750   3.598   5.808
 1958SOL    HW2 6774   3.799   3.735   5.882
 1959SOL     OW 6775   2.132   1.000   0.448
 1959SOL    HW1 6776   2.041   1.038   0.430
 1959SOL    HW2 6777   2.189   1.012   0.367
 1960SOL     OW 6778   5.657   5.743   2.795
 1960SOL    HW1 6779   5.718   5.812   2.835
 1960SOL    HW2 6780   5.562   5.767   2.816
 1961SOL     OW 6781   6.040   5.149   5.220
 1961SOL    HW1 6782   6.007   5.055   5.208
 1961SOL    HW2 6783   6.138   5.147   5.238
 1962SOL     OW 6784   0.012   6.686   3.898
 1962SOL    HW1 6785   6.972   6.673   3.977
 1962SOL    HW2 6786   0.072   6.765   3.914
 1963SOL     OW 6787   2.321   0.834   3.795
 1963SOL    HW1 6788   2.283   0.809   3.706
 1963SOL    HW2 6789   2.313   0.756   3.857
 1964SOL     OW 6790   6.030   3.196   2.504
 1964SOL    HW1 6791   6.042   3.154   2.594
 1964SOL    HW2 6792   6.117   3.235   2.473
 1965SOL     OW 6793   2.043   6.470   3.090
 1965SOL    HW1 6794   2.132   6.488   3.050
 1965SOL    HW2 6795   2.028   6.531   3.168
 1966SOL     OW 6796   6.210   0.308   6.937
 1966SOL    HW1 6797   6.146   0.262   6.999
 1966SOL    HW2 6798   6.161   0.378   6.885
 1967SOL     OW 6799   5.315   3.607   5.197
 1967SOL    HW1 6800   5.360   3.522   5.170
 1967SOL    HW2 6801   5.216   3.597   5.184
 1968SOL     OW 6802   3.845   4.956   4.771
 1968SOL    HW1 6803   3.880   4.883   4.713
 1968SOL    HW2 6804   3.746   4.944   4.783
 1969SOL     OW 6805   6.718   1.545   1.829
 1969SOL    HW1 6806   6.641   1.592   1.873
 1969SOL    HW2 6807   6.794   1.539   1.893
 1970SOL     OW 6808   1.884   0.759   3.554
 1970SOL    HW1 6809   1.890   0.810   3.468
 1970SOL    HW2 6810   1.798   0.708   3.558
 1971SOL     OW 6811   0.427   1.185   6.150
 1971SOL    HW1 6812   0.515   1.229   6.164
 1971SOL    HW2 6813   0.376   1.234   6.079
 1972SOL     OW 6814   1.600   0.413   3.141
 1972SOL    HW1 6815   1.652   0.488   3.099
 1972SOL    HW2 6816   1.617   0.329   3.091
 1973SOL     OW 6817   2.708   3.382   0.068
 1973SOL    HW1 6818   2.722   3.314   0.141
 1973SOL    HW2 6819   2.716   3.474   0.106
 1974SOL     OW 6820   5.784   6.891   4.371
 1974SOL    HW1 6821   5.823   6.967   4.423
 1974SOL    HW2 6822   5.849   6.862   4.300
 1975SOL     OW 6823   2.727   0.383   3.290
 1975SOL    HW1 6824   2.744   0.382   3.388
 1975SOL    HW2 6825   2.780   0.456   3.247
 1976SOL     OW 6826   6.411   3.644   6.444
 1976SOL    HW1 6827   6.497   3.634   6.394
 1976SOL    HW2 6828   6.429   3.643   6.542
 1977SOL     OW 6829   3.088   1.888   5.506
 1977SOL    HW1 6830   3.010   1.852   5.557
 1977SOL    HW2 6831   3.119   1.820   5.439
 1978SOL     OW 6832   6.948   2.584   5.329
 1978SOL    HW1 6833   6.867   2.635   5.357
 1978SOL    HW2 6834   6.973   2.519   5.400
 1979SOL     OW 6835   6.231   4.151   2.313
 1979SOL    HW1 6836   6.178   4.090   2.371
 1979SOL    HW2 6837   6.318   4.107   2.290
 1980SOL     OW 6838   2.952   1.275   2.081
 1980SOL    HW1 6839   2.970   1.180   2.058
 1980SOL    HW2 6840   2.855   1.295   2.066
 1981SOL     OW 6841   5.101   3.191   2.000
 1981SOL    HW1 6842   5.103   3.093   1.982
 1981SOL    HW2 6843   5.045   3.208   2.081
 1982SOL     OW 6844   6.886   7.011   5.208
 1982SOL    HW1 6845   6.898   6.917   5.240
 1982SOL    HW2 6846   6.910   7.017   5.111
 1983SOL     OW 6847   0.533   4.392   2.652
 1983SOL    HW1 6848   0.476   4.396   2.570
 1983SOL    HW2 6849   0.499   4.458   2.719
 1984SOL     OW 6850   4.765   0.853   4.745
 1984SOL    HW1 6851   4.768   0.800   4.660
 1984SOL    HW2 6852   4.852   0.900   4.758
 1985SOL     OW 6853   1.639   6.105   1.089
 1985SOL    HW1 6854   1.738   6.111   1.106
 1985SOL    HW2 6855   1.593   6.182   1.132
 1986SOL     OW 6856   0.343   2.610   6.901
 1986SOL    HW1 6857   0.401   2.614   6.819
 1986SOL    HW2 6858   0.349   2.696   6.950
 1987SOL     OW 6859   2.652   4.395   6.816
 1987SOL    HW1 6860   2.558   4.421   6.839
 1987SOL    HW2 6861   2.651   4.338   6.734
 1988SOL     OW 6862   4.536   3.460   0.362
 1988SOL    HW1 6863   4.506   3.555   0.373
 1988SOL    HW2 6864   4.611   3.442   0.426
 1989SOL     OW 6865   2.167   2.149   4.286
 1989SOL    HW1 6866   2.083   2.098   4.306
 1989SOL    HW2 6867   2.144   2.229   4.231
 1990SOL     OW 6868   1.513   0.612   2.911
 1990SOL    HW1 6869   1.551   0.700   2.883
 1990SOL    HW2 6870   1.430   0.628   2.965
 1991SOL     OW 6871   4.330   5.719   2.752
 1991SOL    HW1 6872   4.303   5.632   2.794
 1991SOL    HW2 6873   4.420   5.745   2.787
 1992SOL     OW 6874   2.576   6.303   5.262
 1992SOL    HW1 6875   2.668   6.279   5.233
 1992SOL    HW2 6876   2.521   6.220   5.270
 1993SOL     OW 6877   2.877   3.458   4.097
 1993SOL    HW1 6878   2.849   3.418   4.185
 1993SOL    HW2 6879   2.977   3.460   4.093
 1994SOL     OW 6880   6.361   2.386   1.890
 1994SOL    HW1 6881   6.408   2.311   1.843
 1994SOL    HW2 6882   6.416   2.414   1.969
 1995SOL     OW 6883   3.887   2.015   1.275
 1995SOL    HW1 6884   3.790   1.996   1.261
 1995SOL    HW2 6885   3.930   1.937   1.322
 1996SOL     OW 6886   2.868   4.331   5.396
 1996SOL    HW1 6887   2.778   4.294   5.377
 1996SOL    HW2 6888   2.872   4.427   5.370
 1997SOL     OW 6889   5.814   6.458   3.412
 1997SOL    HW1 6890   5.806   6.358   3.410
 1997SOL    HW2 6891   5.906   6.483   3.441
 1998SOL     OW 6892   3.277   4.877   5.029
 1998SOL    HW1 6893   3.196   4.832   4.990
 1998SOL    HW2 6894   3.248   4.950   5.090
 1999SOL     OW 6895   2.328   1.376   1.890
 1999SOL    HW1 6896   2.366   1.463   1.920
 1999SOL    HW2 6897   2.399   1.306   1.895
 2000SOL     OW 6898   3.498   1.089   5.015
 2000SOL    HW1 6899   3.558   1.058   4.941
 2000SOL    HW2 6900   3.408   1.048   5.004
 2001SOL     OW 6901   2.147   3.355   0.007
 2001SOL    HW1 6902   2.052   3.356   6.997
 2001SOL    HW2 6903   2.191   3.271   6.993
 2002SOL     OW 6904   1.380   5.522   4.893
 2002SOL    HW1 6905   1.281   5.528   4.908
 2002SOL    HW2 6906   1.401   5.557   4.802
 2003SOL     OW 6907   6.644   4.496   3.201
 2003SOL    HW1 6908   6.610   4.413   3.156
 2003SOL    HW2 6909   6.620   4.494   3.298
 2004SOL     OW 6910   3.084   0.034   6.790
 2004SOL    HW1 6911   3.071   6.962   6.828
 2004SOL    HW2 6912   3.007   0.092   6.816
 2005SOL     OW 6913   2.997   6.777   5.324
 2005SOL    HW1 6914   3.095   6.786   5.304
 2005SOL    HW2 6915   2.983   6.783   5.422
 2006SOL     OW 6916   5.252   6.430   3.277
 2006SOL    HW1 6917   5.232   6.405   3.371
 2006SOL    HW2 6918   5.226   6.354   3.216
 2007SOL     OW 6919   6.395   5.725   0.070
 2007SOL    HW1 6920   6.325   5.775   0.019
 2007SOL    HW2 6921   6.416   5.640   0.021
 2008SOL     OW 6922   0.197   6.128   5.226
 2008SOL    HW1 6923   0.223   6.119   5.130
 2008SOL    HW2 6924   0.126   6.060   5.248
 2009SOL     OW 6925   1.064   0.381   6.761
 2009SOL    HW1 6926   0.984   0.334   6.722
 2009SOL    HW2 6927   1.050   0.396   6.858
 2010SOL     OW 6928   1.746   0.878   1.317
 2010SOL    HW1 6929   1.648   0.896   1.303
 2010SOL    HW2 6930   1.771   0.793   1.270
 2011SOL     OW 6931   0.276   2.049   5.090
 2011SOL    HW1 6932   0.356   2.025   5.145
 2011SOL    HW2 6933   0.261   1.979   5.020
 2012SOL     OW 6934   6.848   3.068   0.758
 2012SOL    HW1 6935   6.862   2.982   0.708
 2012SOL    HW2 6936   6.937   3.111   0.775
 2013SOL     OW 6937   4.196   2.230   1.986
 2013SOL    HW1 6938   4.230   2.321   1.963
 2013SOL    HW2 6939   4.101   2.222   1.958
 2014SOL     OW 6940   3.289   6.110   3.659
 2014SOL    HW1 6941   3.339   6.029   3.629
 2014SOL    HW2 6942   3.311   6.129   3.755
 2015SOL     OW 6943   2.982   6.611   0.100
 2015SOL    HW1 6944   3.061   6.656   0.141
 2015SOL    HW2 6945   3.000   6.513   0.091
 2016SOL     OW 6946   6.345   5.853   4.136
 2016SOL    HW1 6947   6.280   5.815   4.202
 2016SOL    HW2 6948   6.344   5.953   4.141
 2017SOL     OW 6949   2.226   4.882   1.906
 2017SOL    HW1 6950   2.325   4.893   1.910
 2017SOL    HW2 6951   2.182   4.969   1.928
 2018SOL     OW 6952   0.459   3.826   6.066
 2018SOL    HW1 6953   0.426   3.911   6.106
 2018SOL    HW2 6954   0.407   3.806   5.983
 2019SOL     OW 6955   5.914   1.748   2.948
 2019SOL    HW1 6956   5.885   1.761   3.043
 2019SOL    HW2 6957   5.911   1.651   2.925
 2020SOL     OW 6958   2.044   5.541   3.050
 2020SOL    HW1 6959   1.981   5.467   3.073
 2020SOL    HW2 6960   1.993   5.617   3.009
 2021SOL     OW 6961   2.376   0.214   1.737
 2021SOL    HW1 6962   2.287   0.211   1.693
 2021SOL    HW2 6963   2.445   0.173   1.678
 2022SOL     OW 6964   2.630   5.013   1.018
 2022SOL    HW1 6965   2.714   4.979   1.059
 2022SOL    HW2 6966   2.601   4.952   0.944
 2023SOL     OW 6967   6.450   1.223   6.248
 2023SOL    HW1 6968   6.433   1.260   6.157
 2023SOL    HW2 6969   6.366   1.184   6.285
 2024SOL     OW 6970   6.122   0.530   2.894
 2024SOL    HW1 6971   6.160   0.438   2.905
 2024SOL    HW2 6972   6.107   0.549   2.797
 2025SOL     OW 6973   6.361   0.771   0.865
 2025SOL    HW1 6974   6.319   0.854   0.901
 2025SOL    HW2 6975   6.391   0.713   0.940
 2026SOL     OW 6976   1.605   1.946   5.032
 2026SOL    HW1 6977   1.574   1.853   5.053
 2026SOL    HW2 6978   1.581   1.968   4.937
 2027SOL     OW 6979   0.525   1.197   2.401
 2027SOL    HW1 6980   0.483   1.163   2.317
 2027SOL    HW2 6981   0.582   1.276   2.381
 2028SOL     OW 6982   3.479   4.452   5.859
 2028SOL    HW1 6983   3.567   4.498   5.870
 2028SOL    HW2 6984   3.426   4.461   5.943
 2029SOL     OW 6985   1.719   0.511   0.384
 2029SOL    HW1 6986   1.737   0.610   0.384
 2029SOL    HW2 6987   1.793   0.464   0.431
 2030SOL     OW 6988   1.852   2.758   3.437
 2030SOL    HW1 6989   1.941   2.803   3.443
 2030SOL    HW2 6990   1.795   2.787   3.515
 2031SOL     OW 6991   5.926   0.198   2.803
 2031SOL    HW1 6992   5.855   0.259   2.769
 2031SOL    HW2 6993   6.013   0.220   2.758
 2032SOL     OW 6994   4.707   6.193   1.867
 2032SOL    HW1 6995   4.735   6.161   1.777
 2032SOL    HW2 6996   4.612   6.166   1.884
 2033SOL     OW 6997   0.163   5.035   0.078
 2033SOL    HW1 6998   0.128   5.016   0.170
 2033SOL    HW2 6999   0.146   4.956   0.020
 2034SOL     OW 7000   2.113   6.261   3.472
 2034SOL    HW1 7001   2.210   6.256   3.449
 2034SOL    HW2 7002   2.103   6.262   3.571
 2035SOL     OW 7003   0.276   2.374   1.935
 2035SOL    HW1 7004   0.231   2.454   1.896
 2035SOL    HW2 7005   0.259   2.294   1.878
 2036SOL     OW 7006   0.412   4.186   0.871
 2036SOL    HW1 7007   0.360   4.262   0.908
 2036SOL    HW2 7008   0.431   4.203   0.774
 2037SOL     OW 7009   0.288   1.823   6.542
 2037SOL    HW1 7010   0.308   1.905   6.489
 2037SOL    HW2 7011   0.222   1.846   6.614
 2038SOL     OW 7012   0.981   0.075   4.794
 2038SOL    HW1 7013   0.909   0.059   4.726
 2038SOL    HW2 7014   1.061   0.114   4.749
 2039SOL     OW 7015   1.204   5.475   1.795
 2039SOL    HW1 7016   1.186   5.438   1.704
 2039SOL    HW2 7017   1.126   5.532   1.824
 2040SOL     OW 7018   3.837   4.040   4.383
 2040SOL    HW1 7019   3.799   4.128   4.354
 2040SOL    HW2 7020   3.773   3.995   4.446
 2041SOL     OW 7021   5.475   3.084   0.169
 2041SOL    HW1 7022   5.559   3.083   0.115
 2041SOL    HW2 7023   5.471   3.166   0.226
 2042SOL     OW 7024   3.196   5.871   0.438
 2042SOL    HW1 7025   3.282   5.913   0.470
 2042SOL    HW2 7026   3.210   5.773   0.424
 2043SOL     OW 7027   4.375   5.005   2.518
 2043SOL    HW1 7028   4.444   5.029   2.450
 2043SOL    HW2 7029   4.387   4.909   2.545
 2044SOL     OW 7030   6.604   0.900   1.820
 2044SOL    HW1 7031   6.657   0.815   1.830
 2044SOL    HW2 7032   6.542   0.910   1.897
 2045SOL     OW 7033   2.718   6.292   6.259
 2045SOL    HW1 7034   2.644   6.235   6.293
 2045SOL    HW2 7035   2.681   6.365   6.201
 2046SOL     OW 7036   6.221   0.248   5.209
 2046SOL    HW1 7037   6.188   0.322   5.150
 2046SOL    HW2 7038   6.285   0.285   5.276
 2047SOL     OW 7039   4.716   2.511   0.376
 2047SOL    HW1 7040   4.671   2.587   0.329
 2047SOL    HW2 7041   4.808   2.539   0.406
 2048SOL     OW 7042   4.676   6.134   5.541
 2048SOL    HW1 7043   4.684   6.140   5.441
 2048SOL    HW2 7044   4.670   6.225   5.580
 2049SOL     OW 7045   4.882   6.282   0.279
 2049SOL    HW1 7046   4.799   6.331   0.305
 2049SOL    HW2 7047   4.866   6.232   0.194
 2050SOL     OW 7048   5.561   0.410   4.100
 2050SOL    HW1 7049   5.538   0.355   4.020
 2050SOL    HW2 7050   5.544   0.506   4.080
 2051SOL     OW 7051   2.605   5.265   0.931
 2051SOL    HW1 7052   2.612   5.197   1.004
 2051SOL    HW2 7053   2.572   5.351   0.969
 2052SOL     OW 7054   1.392   3.002   0.681
 2052SOL    HW1 7055   1.440   3.043   0.758
 2052SOL    HW2 7056   1.321   3.064   0.648
 2053SOL     OW 7057   5.479   1.423   0.572
 2053SOL    HW1 7058   5.389   1.428   0.529
 2053SOL    HW2 7059   5.501   1.511   0.613
 2054SOL     OW 7060   0.054   3.480   1.371
 2054SOL    HW1 7061   0.104   3.395   1.359
 2054SOL    HW2 7062   0.034   3.494   1.469
 2055SOL     OW 7063   6.342   1.840   3.988
 2055SOL    HW1 7064   6.272   1.894   4.036
 2055SOL    HW2 7065   6.338   1.860   3.890
 2056SOL     OW 7066   1.069   0.038   1.749
 2056SOL    HW1 7067   0.999   0.086   1.800
 2056SOL    HW2 7068   1.157   0.047   1.796
 2057SOL     OW 7069   5.991   2.412   4.436
 2057SOL    HW1 7070   6.000   2.354   4.517
 2057SOL    HW2 7071   6.034   2.500   4.454
 2058SOL     OW 7072   0.841   1.868   1.970
 2058SOL    HW1 7073   0.786   1.950   1.952
 2058SOL    HW2 7074   0.913   1.890   2.035
 2059SOL     OW 7075   1.383   0.416   6.414
 2059SOL    HW1 7076   1.459   0.379   6.360
 2059SOL    HW2 7077   1.419   0.466   6.492
 2060SOL     OW 7078   0.040   5.389   1.919
 2060SOL    HW1 7079   6.997   5.373   1.843
 2060SOL    HW2 7080   0.073   5.483   1.915
 2061SOL     OW 7081   0.830   1.110   1.405
 2061SOL    HW1 7082   0.850   1.013   1.395
 2061SOL    HW2 7083   0.899   1.164   1.358
 2062SOL     OW 7084   4.225   0.332   4.040
 2062SOL    HW1 7085   4.270   0.255   4.085
 2062SOL    HW2 7086   4.127   0.329   4.059
 2063SOL     OW 7087   2.146   1.863   0.731
 2063SOL    HW1 7088   2.228   1.847   0.675
 2063SOL    HW2 7089   2.157   1.817   0.819
 2064SOL     OW 7090   1.107   1.966   0.349
 2064SOL    HW1 7091   1.154   1.912   0.279
 2064SOL    HW2 7092   1.171   1.987   0.423
 2065SOL     OW 7093   6.656   3.728   2.640
 2065SOL    HW1 7094   6.686   3.695   2.550
 2065SOL    HW2 7095   6.560   3.705   2.653
 2066SOL     OW 7096   1.405   6.533   3.112
 2066SOL    HW1 7097   1.368   6.579   3.032
 2066SOL    HW2 7098   1.503   6.553   3.120
 2067SOL     OW 7099   6.889   0.127   0.600
 2067SOL    HW1 7100   6.913   0.034   0.630
 2067SOL    HW2 7101   6.822   0.166   0.664
 2068SOL     OW 7102   2.465   1.299   4.918
 2068SOL    HW1 7103   2.384   1.320   4.862
 2068SOL    HW2 7104   2.450   1.215   4.968
 2069SOL     OW 7105   1.490   1.982   1.734
 2069SOL    HW1 7106   1.550   2.058   1.757
 2069SOL    HW2 7107   1.497   1.911   1.804
 2070SOL     OW 7108   0.797   0.910   2.739
 2070SOL    HW1 7109   0.867   0.844   2.767
 2070SOL    HW2 7110   0.821   1.001   2.771
 2071SOL     OW 7111   2.046   5.831   4.815
 2071SOL    HW1 7112   1.967   5.774   4.839
 2071SOL    HW2 7113   2.016   5.907   4.757
 2072SOL     OW 7114   4.671   4.675   2.049
 2072SOL    HW1 7115   4.656   4.772   2.027
 2072SOL    HW2 7116   4.674   4.663   2.148
 2073SOL     OW 7117   3.331   6.389   5.186
 2073SOL    HW1 7118   3.324   6.473   5.134
 2073SOL    HW2 7119   3.266   6.322   5.150
 2074SOL     OW 7120   5.947   2.445   2.405
 2074SOL    HW1 7121   5.980   2.370   2.463
 2074SOL    HW2 7122   5.998   2.445   2.319
 2075SOL     OW 7123   3.623   3.747   6.069
 2075SOL    HW1 7124   3.633   3.650   6.045
 2075SOL    HW2 7125   3.583   3.797   5.992
 2076SOL     OW 7126   4.660   0.239   1.049
 2076SOL    HW1 7127   4.609   0.219   1.133
 2076SOL    HW2 7128   4.614   0.313   1.000
 2077SOL     OW 7129   4.876   1.236   3.393
 2077SOL    HW1 7130   4.963   1.206   3.354
 2077SOL    HW2 7131   4.850   1.323   3.352
 2078SOL     OW 7132   4.029   5.396   4.871
 2078SOL    HW1 7133   3.980   5.345   4.941
 2078SOL    HW2 7134   3.993   5.490   4.867
 2079SOL     OW 7135   5.672   0.426   3.474
 2079SOL    HW1 7136   5.633   0.513   3.501
 2079SOL    HW2 7137   5.742   0.398   3.540
 2080SOL     OW 7138   2.842   1.893   4.113
 2080SOL    HW1 7139   2.806   1.973   4.066
 2080SOL    HW2 7140   2.773   1.821   4.116
 2081SOL     OW 7141   1.151   6.179   4.371
 2081SOL    HW1 7142   1.072   6.149   4.317
 2081SOL    HW2 7143   1.153   6.278   4.376
 2082SOL     OW 7144   4.799   0.722   2.045
 2082SOL    HW1 7145   4.758   0.700   2.134
 2082SOL    HW2 7146   4.752   0.669   1.974
 2083SOL     OW 7147   3.457   4.933   5.766
 2083SOL    HW1 7148   3.484   4.858   5.705
 2083SOL    HW2 7149   3.499   4.919   5.856
 2084SOL     OW 7150   6.859   2.484   2.421
 2084SOL    HW1 7151   6.871   2.409   2.485
 2084SOL    HW2 7152   6.946   2.506   2.377
 2085SOL     OW 7153   5.511   5.920   6.845
 2085SOL    HW1 7154   5.519   5.948   6.749
 2085SOL    HW2 7155   5.595   5.943   6.893
 2086SOL     OW 7156   3.669   5.309   0.158
 2086SOL    HW1 7157   3.578   5.330   0.192
 2086SOL    HW2 7158   3.667   5.224   0.106
 2087SOL     OW 7159   6.062   5.904   3.599
 2087SOL    HW1 7160   6.060   6.003   3.588
 2087SOL    HW2 7161   5.969   5.868   3.598
 2088SOL     OW 7162   2.262   0.353   0.994
 2088SOL    HW1 7163   2.334   0.418   1.019
 2088SOL    HW2 7164   2.194   0.399   0.937
 2089SOL     OW 7165   2.694   0.852   6.905
 2089SOL    HW1 7166   2.615   0.809   6.863
 2089SOL    HW2 7167   2.775   0.795   6.890
 2090SOL     OW 7168   3.052   3.175   3.691
 2090SOL    HW1 7169   3.013   3.242   3.754
 2090SOL    HW2 7170   3.111   3.113   3.742
 2091SOL     OW 7171   2.221   5.332   0.942
 2091SOL    HW1 7172   2.163   5.413   0.951
 2091SOL    HW2 7173   2.243   5.317   0.846
 2092SOL     OW 7174   6.998   6.244   1.363
 2092SOL    HW1 7175   0.024   6.199   1.285
 2092SOL    HW2 7176   0.035   6.232   1.445
 2093SOL     OW 7177   1.014   2.636   1.397
 2093SOL    HW1 7178   1.064   2.550   1.413
 2093SOL    HW2 7179   0.994   2.645   1.299
 2094SOL     OW 7180   6.268   0.613   1.773
 2094SOL    HW1 7181   6.181   0.598   1.726
 2094SOL    HW2 7182   6.251   0.655   1.862
 2095SOL     OW 7183   6.889   4.576   4.843
 2095SOL    HW1 7184   6.897   4.622   4.754
 2095SOL    HW2 7185   6.924   4.637   4.914
 2096SOL     OW 7186   4.938   3.892   3.423
 2096SOL    HW1 7187   4.942   3.793   3.429
 2096SOL    HW2 7188   4.947   3.921   3.328
 2097SOL     OW 7189   6.380   3.647   6.728
 2097SOL    HW1 7190   6.348   3.556   6.705
 2097SOL    HW2 7191   6.303   3.711   6.728
 2098SOL     OW 7192   4.295   0.022   3.807
 2098SOL    HW1 7193   4.365   0.079   3.763
 2098SOL    HW2 7194   4.321   6.946   3.801
 2099SOL     OW 7195   3.014   2.052   3.188
 2099SOL    HW1 7196   3.077   1.996   3.241
 2099SOL    HW2 7197   3.056   2.074   3.100
 2100SOL     OW 7198   3.309   4.710   6.841
 2100SOL    HW1 7199   3.253   4.696   6.923
 2100SOL    HW2 7200   3.406   4.713   6.867
 2101SOL     OW 7201   0.257   0.581   2.355
 2101SOL    HW1 7202   0.305   0.508   2.404
 2101SOL    HW2 7203   0.288   0.670   2.389
 2102SOL     OW 7204   6.942   4.956   1.836
 2102SOL    HW1 7205   6.913   4.963   1.932
 2102SOL    HW2 7206   6.906   5.034   1.785
 2103SOL     OW 7207   2.689   3.378   6.156
 2103SOL    HW1 7208   2.640   3.389   6.242
 2103SOL    HW2 7209   2.787   3.364   6.174
 2104SOL     OW 7210   1.202   3.940   5.487
 2104SOL    HW1 7211   1.270   3.973   5.553
 2104SOL    HW2 7212   1.241   3.864   5.435
 2105SOL     OW 7213   6.003   5.884   1.412
 2105SOL    HW1 7214   6.098   5.897   1.383
 2105SOL    HW2 7215   5.971   5.967   1.458
 2106SOL     OW 7216   6.012   5.328   6.573
 2106SOL    HW1 7217   5.927   5.352   6.525
 2106SOL    HW2 7218   5.989   5.285   6.661
 2107SOL     OW 7219   2.817   4.659   6.975
 2107SOL    HW1 7220   2.791   4.743   6.929
 2107SOL    HW2 7221   2.897   4.676   0.014
 2108SOL     OW 7222   5.646   4.058   5.952
 2108SOL    HW1 7223   5.703   4.137   5.929
 2108SOL    HW2 7224   5.665   3.983   5.889
 2109SOL     OW 7225   5.677   6.067   2.779
 2109SOL    HW1 7226   5.594   6.068   2.723
 2109SOL    HW2 7227   5.756   6.044   2.723
 2110SOL     OW 7228   1.953   5.103   4.658
 2110SOL    HW1 7229   2.013   5.044   4.605
 2110SOL    HW2 7230   1.865   5.112   4.612
 2111SOL     OW 7231   2.026   2.715   0.199
 2111SOL    HW1 7232   2.042   2.668   0.285
 2111SOL    HW2 7233   2.102   2.776   0.179
 2112SOL     OW 7234   5.838   3.286   0.887
 2112SOL    HW1 7235   5.916   3.245   0.841
 2112SOL    HW2 7236   5.764   3.300   0.821
 2113SOL     OW 7237   6.468   1.415   3.032
 2113SOL    HW1 7238   6.402   1.489   3.039
 2113SOL    HW2 7239   6.560   1.449   3.053
 2114SOL     OW 7240   1.972   3.526   0.379
 2114SOL    HW1 7241   2.033   3.448   0.394
 2114SOL    HW2 7242   1.878   3.499   0.398
 2115SOL     OW 7243   3.007   5.643   1.863
 2115SOL    HW1 7244   3.014   5.675   1.769
 2115SOL    HW2 7245   3.026   5.545   1.867
 2116SOL     OW 7246   0.260   4.195   3.417
 2116SOL    HW1 7247   0.166   4.224   3.395
 2116SOL    HW2 7248   0.324   4.248   3.362
 2117SOL     OW 7249   0.351   5.663   6.261
 2117SOL    HW1 7250   0.422   5.599   6.290
 2117SOL    HW2 7251   0.372   5.754   6.298
 2118SOL     OW 7252   6.867   3.413   2.068
 2118SOL    HW1 7253   6.842   3.404   2.165
 2118SOL    HW2 7254   6.821   3.343   2.015
 2119SOL     OW 7255   3.628   6.414   1.057
 2119SOL    HW1 7256   3.676   6.429   1.143
 2119SOL    HW2 7257   3.693   6.421   0.981
 2120SOL     OW 7258   6.637   4.686   2.487
 2120SOL    HW1 7259   6.648   4.775   2.532
 2120SOL    HW2 7260   6.659   4.613   2.551
 2121SOL     OW 7261   0.921   4.011   4.416
 2121SOL    HW1 7262   0.867   3.949   4.358
 2121SOL    HW2 7263   0.913   3.982   4.511
 2122SOL     OW 7264   4.539   4.677   5.517
 2122SOL    HW1 7265   4.458   4.707   5.566
 2122SOL    HW2 7266   4.512   4.613   5.445
 2123SOL     OW 7267   4.435   4.632   3.700
 2123SOL    HW1 7268   4.430   4.670   3.792
 2123SOL    HW2 7269   4.488   4.547   3.702
 2124SOL     OW 7270   3.133   1.862   1.608
 2124SOL    HW1 7271   3.116   1.765   1.625
 2124SOL    HW2 7272   3.085   1.890   1.525
 2125SOL     OW 7273   4.201   6.783   0.764
 2125SOL    HW1 7274   4.268   6.730   0.714
 2125SOL    HW2 7275   4.137   6.825   0.700
 2126SOL     OW 7276   2.899   1.006   2.018
 2126SOL    HW1 7277   2.992   0.971   2.017
 2126SOL    HW2 7278   2.878   1.046   1.929
 2127SOL     OW 7279   5.590   2.862   5.018
 2127SOL    HW1 7280   5.610   2.934   5.085
 2127SOL    HW2 7281   5.655   2.869   4.942
 2128SOL     OW 7282   0.671   4.269   3.985
 2128SOL    HW1 7283   0.620   4.227   3.910
 2128SOL    HW2 7284   0.727   4.343   3.948
 2129SOL     OW 7285   4.137   2.189   5.504
 2129SOL    HW1 7286   4.199   2.127   5.551
 2129SOL    HW2 7287   4.103   2.146   5.421
 2130SOL     OW 7288   4.941   0.913   3.106
 2130SOL    HW1 7289   4.850   0.877   3.084
 2130SOL    HW2 7290   5.011   0.852   3.071
 2131SOL     OW 7291   5.323   1.546   6.607
 2131SOL    HW1 7292   5.369   1.605   6.674
 2131SOL    HW2 7293   5.325   1.589   6.517
 2132SOL     OW 7294   1.794   3.481   0.866
 2132SOL    HW1 7295   1.806   3.501   0.769
 2132SOL    HW2 7296   1.740   3.554   0.908
 2133SOL     OW 7297   2.420   3.566   5.877
 2133SOL    HW1 7298   2.447   3.495   5.811
 2133SOL    HW2 7299   2.492   3.575   5.946
 2134SOL     OW 7300   0.077   6.639   1.426
 2134SOL    HW1 7301   0.017   6.692   1.366
 2134SOL    HW2 7302   0.125   6.569   1.373
 2135SOL     OW 7303   6.871   4.290   5.294
 2135SOL    HW1 7304   6.956   4.321   5.252
 2135SOL    HW2 7305   6.869   4.190   5.297
 2136SOL     OW 7306   0.710   4.913   0.715
 2136SOL    HW1 7307   0.778   4.896   0.786
 2136SOL    HW2 7308   0.637   4.972   0.752
 2137SOL     OW 7309   1.555   6.221   4.098
 2137SOL    HW1 7310   1.525   6.178   4.183
 2137SOL    HW2 7311   1.556   6.320   4.108
 2138SOL     OW 7312   4.954   1.991   2.201
 2138SOL    HW1 7313   4.915   1.963   2.289
 2138SOL    HW2 7314   4.952   1.914   2.138
 2139SOL     OW 7315   2.847   0.132   5.184
 2139SOL    HW1 7316   2.888   0.108   5.272
 2139SOL    HW2 7317   2.748   0.141   5.195
 2140SOL     OW 7318   2.559   1.497   4.358
 2140SOL    HW1 7319   2.553   1.397   4.352
 2140SOL    HW2 7320   2.475   1.537   4.321
 2141SOL     OW 7321   6.501   3.271   3.222
 2141SOL    HW1 7322   6.536   3.243   3.133
 2141SOL    HW2 7323   6.578   3.289   3.284
 2142SOL     OW 7324   1.784   2.414   2.788
 2142SOL    HW1 7325   1.751   2.446   2.876
 2142SOL    HW2 7326   1.731   2.457   2.715
 2143SOL     OW 7327   0.443   4.822   5.872
 2143SOL    HW1 7328   0.381   4.900   5.859
 2143SOL    HW2 7329   0.523   4.834   5.813
 2144SOL     OW 7330   6.333   4.281   3.313
 2144SOL    HW1 7331   6.366   4.217   3.244
 2144SOL    HW2 7332   6.331   4.373   3.275
 2145SOL     OW 7333   4.134   1.497   3.562
 2145SOL    HW1 7334   4.220   1.469   3.518
 2145SOL    HW2 7335   4.123   1.447   3.647
 2146SOL     OW 7336   2.468   2.458   6.655
 2146SOL    HW1 7337   2.529   2.380   6.640
 2146SOL    HW2 7338   2.485   2.527   6.586
 2147SOL     OW 7339   5.971   6.576   3.909
 2147SOL    HW1 7340   5.872   6.560   3.912
 2147SOL    HW2 7341   6.019   6.490   3.925
 2148SOL     OW 7342   0.276   2.893   5.803
 2148SOL    HW1 7343   0.241   2.812   5.756
 2148SOL    HW2 7344   0.298   2.965   5.736
 2149SOL     OW 7345   0.769   6.724   0.077
 2149SOL    HW1 7346   0.756   6.642   0.020
 2149SOL    HW2 7347   0.791   6.695   0.170
 2150SOL     OW 7348   1.586   3.414   1.081
 2150SOL    HW1 7349   1.584   3.513   1.066
 2150SOL    HW2 7350   1.661   3.374   1.028
 2151SOL     OW 7351   0.931   4.971   0.263
 2151SOL    HW1 7352   1.031   4.974   0.256
 2151SOL    HW2 7353   0.893   4.949   0.173
 2152SOL     OW 7354   5.399   6.050   3.855
 2152SOL    HW1 7355   5.485   5.999   3.860
 2152SOL    HW2 7356   5.417   6.140   3.815
 2153SOL     OW 7357   5.248   6.963   4.304
 2153SOL    HW1 7358   5.276   0.033   4.272
 2153SOL    HW2 7359   5.181   6.924   4.240
 2154SOL     OW 7360   2.506   0.338   2.658
 2154SOL    HW1 7361   2.552   0.249   2.656
 2154SOL    HW2 7362   2.431   0.335   2.724
 2155SOL     OW 7363   4.192   0.645   1.104
 2155SOL    HW1 7364   4.231   0.584   1.035
 2155SOL    HW2 7365   4.136   0.592   1.167
 2156SOL     OW 7366   5.543   2.111   4.828
 2156SOL    HW1 7367   5.548   2.012   4.841
 2156SOL    HW2 7368   5.617   2.155   4.878
 2157SOL     OW 7369   3.862   6.439   4.435
 2157SOL    HW1 7370   3.830   6.478   4.349
 2157SOL    HW2 7371   3.913   6.508   4.486
 2158SOL     OW 7372   2.939   0.032   0.324
 2158SOL    HW1 7373   2.851   7.009   0.343
 2158SOL    HW2 7374   2.965   0.015   0.229
 2159SOL     OW 7375   0.591   1.184   5.429
 2159SOL    HW1 7376   0.620   1.139   5.344
 2159SOL    HW2 7377   0.518   1.249   5.408
 2160SOL     OW 7378   5.367   0.028   0.113
 2160SOL    HW1 7379   5.269   0.048   0.111
 2160SOL    HW2 7380   5.418   0.110   0.088
 2161SOL     OW 7381   1.726   3.209   0.706
 2161SOL    HW1 7382   1.753   3.280   0.771
 2161SOL    HW2 7383   1.799   3.141   0.698
 2162SOL     OW 7384   1.799   0.377   1.527
 2162SOL    HW1 7385   1.706   0.392   1.559
 2162SOL    HW2 7386   1.832   0.288   1.561
 2163SOL     OW 7387   1.565   3.378   2.957
 2163SOL    HW1 7388   1.541   3.307   2.891
 2163SOL    HW2 7389   1.498   3.452   2.952
 2164SOL     OW 7390   2.113   3.660   2.148
 2164SOL    HW1 7391   2.145   3.613   2.066
 2164SOL    HW2 7392   2.126   3.601   2.228
 2165SOL     OW 7393   6.214   1.326   4.462
 2165SOL    HW1 7394   6.227   1.402   4.399
 2165SOL    HW2 7395   6.291   1.321   4.526
 2166SOL     OW 7396   6.939   3.208   2.280
 2166SOL    HW1 7397   6.951   3.238   2.375
 2166SOL    HW2 7398   6.990   3.123   2.265
 2167SOL     OW 7399   1.857   1.756   2.998
 2167SOL    HW1 7400   1.885   1.842   2.957
 2167SOL    HW2 7401   1.831   1.691   2.926
 2168SOL     OW 7402   2.047   1.793   3.572
 2168SOL    HW1 7403   2.089   1.845   3.646
 2168SOL    HW2 7404   2.116   1.769   3.504
 2169SOL     OW 7405   6.718   0.080   1.213
 2169SOL    HW1 7406   6.641   0.112   1.269
 2169SOL    HW2 7407   6.760   0.158   1.166
 2170SOL     OW 7408   1.501   3.409   6.064
 2170SOL    HW1 7409   1.525   3.436   5.971
 2170SOL    HW2 7410   1.473   3.313   6.065
 2171SOL     OW 7411   6.768   6.153   0.980
 2171SOL    HW1 7412   6.774   6.153   1.080
 2171SOL    HW2 7413   6.758   6.059   0.947
 2172SOL     OW 7414   2.524   1.763   5.255
 2172SOL    HW1 7415   2.500   1.685   5.197
 2172SOL    HW2 7416   2.491   1.847   5.213
 2173SOL     OW 7417   5.120   0.680   4.782
 2173SOL    HW1 7418   5.124   0.779   4.767
 2173SOL    HW2 7419   5.204   0.651   4.827
 2174SOL     OW 7420   5.619   0.211   5.958
 2174SOL    HW1 7421   5.590   0.303   5.933
 2174SOL    HW2 7422   5.644   0.208   6.055
 2175SOL     OW 7423   2.942   3.938   5.268
 2175SOL    HW1 7424   2.888   3.999   5.210
 2175SOL    HW2 7425   2.895   3.923   5.354
 2176SOL     OW 7426   5.412   1.931   3.021
 2176SOL    HW1 7427   5.346   1.981   3.076
 2176SOL    HW2 7428   5.457   1.994   2.957
 2177SOL     OW 7429   0.978   1.102   4.829
 2177SOL    HW1 7430   0.984   1.158   4.746
 2177SOL    HW2 7431   1.060   1.115   4.884
 2178SOL     OW 7432   1.455   2.425   3.042
 2178SOL    HW1 7433   1.460   2.330   3.072
 2178SOL    HW2 7434   1.546   2.456   3.015
 2179SOL     OW 7435   1.708   3.978   6.808
 2179SOL    HW1 7436   1.748   4.070   6.811
 2179SOL    HW2 7437   1.653   3.963   6.890
 2180SOL     OW 7438   0.568   5.969   2.875
 2180SOL    HW1 7439   0.521   5.890   2.913
 2180SOL    HW2 7440   0.614   5.943   2.790
 2181SOL     OW 7441   4.043   4.851   4.543
 2181SOL    HW1 7442   4.123   4.887   4.495
 2181SOL    HW2 7443   4.065   4.837   4.640
 2182SOL     OW 7444   0.266   6.345   1.446
 2182SOL    HW1 7445   0.274   6.341   1.346
 2182SOL    HW2 7446   0.344   6.396   1.483
 2183SOL     OW 7447   3.193   3.143   6.710
 2183SOL    HW1 7448   3.191   3.186   6.620
 2183SOL    HW2 7449   3.146   3.055   6.706
 2184SOL     OW 7450   6.576   1.192   0.873
 2184SOL    HW1 7451   6.669   1.226   0.885
 2184SOL    HW2 7452   6.513   1.270   0.867
 2185SOL     OW 7453   0.772   0.936   5.826
 2185SOL    HW1 7454   0.820   0.858   5.787
 2185SOL    HW2 7455   0.760   1.007   5.757
 2186SOL     OW 7456   6.570   6.347   5.229
 2186SOL    HW1 7457   6.480   6.308   5.248
 2186SOL    HW2 7458   6.576   6.371   5.132
 2187SOL     OW 7459   6.169   5.432   1.892
 2187SOL    HW1 7460   6.172   5.387   1.803
 2187SOL    HW2 7461   6.083   5.411   1.937
 2188SOL     OW 7462   2.767   0.889   0.908
 2188SOL    HW1 7463   2.842   0.874   0.973
 2188SOL    HW2 7464   2.766   0.814   0.841
 2189SOL     OW 7465   1.919   1.032   1.860
 2189SOL    HW1 7466   2.012   1.067   1.845
 2189SOL    HW2 7467   1.857   1.069   1.791
 2190SOL     OW 7468   6.793   4.302   1.697
 2190SOL    HW1 7469   6.830   4.252   1.619
 2190SOL    HW2 7470   6.862   4.309   1.769
 2191SOL     OW 7471   3.084   0.648   6.678
 2191SOL    HW1 7472   3.117   0.616   6.767
 2191SOL    HW2 7473   3.094   0.747   6.672
 2192SOL     OW 7474   4.956   1.821   1.994
 2192SOL    HW1 7475   4.997   1.745   1.943
 2192SOL    HW2 7476   4.859   1.828   1.973
 2193SOL     OW 7477   2.668   6.971   5.012
 2193SOL    HW1 7478   2.581   6.943   5.053
 2193SOL    HW2 7479   2.661   6.967   4.912
 2194SOL     OW 7480   0.514   3.758   6.534
 2194SOL    HW1 7481   0.483   3.727   6.444
 2194SOL    HW2 7482   0.448   3.729   6.603
 2195SOL     OW 7483   0.170   4.040   4.628
 2195SOL    HW1 7484   0.231   3.981   4.575
 2195SOL    HW2 7485   0.128   4.108   4.568
 2196SOL     OW 7486   3.618   0.863   0.087
 2196SOL    HW1 7487   3.636   0.826   0.178
 2196SOL    HW2 7488   3.561   0.945   0.095
 2197SOL     OW 7489   3.420   6.060   6.099
 2197SOL    HW1 7490   3.385   5.969   6.080
 2197SOL    HW2 7491   3.440   6.107   6.013
 2198SOL     OW 7492   1.239   0.992   6.758
 2198SOL    HW1 7493   1.148   0.960   6.731
 2198SOL    HW2 7494   1.289   1.023   6.677
 2199SOL     OW 7495   4.092   6.840   3.626
 2199SOL    HW1 7496   4.000   6.879   3.636
 2199SOL    HW2 7497   4.133   6.829   3.716
 2200SOL     OW 7498   2.737   2.107   3.952
 2200SOL    HW1 7499   2.646   2.094   3.913
 2200SOL    HW2 7500   2.803   2.127   3.879
 2201SOL     OW 7501   5.658   3.711   5.288
 2201SOL    HW1 7502   5.674   3.624   5.242
 2201SOL    HW2 7503   5.706   3.784   5.240
 2202SOL     OW 7504   3.473   0.162   3.201
 2202SOL    HW1 7505   3.438   0.254   3.183
 2202SOL    HW2 7506   3.560   0.150   3.153
 2203SOL     OW 7507   1.431   4.808   1.058
 2203SOL    HW1 7508   1.500   4.869   1.018
 2203SOL    HW2 7509   1.476   4.737   1.112
 2204SOL     OW 7510   6.050   2.498   0.916
 2204SOL    HW1 7511   6.025   2.415   0.966
 2204SOL    HW2 7512   6.101   2.473   0.834
 2205SOL     OW 7513   6.669   5.436   1.100
 2205SOL    HW1 7514   6.731   5.447   1.022
 2205SOL    HW2 7515   6.594   5.375   1.075
 2206SOL     OW 7516   3.623   2.666   5.665
 2206SOL    HW1 7517   3.721   2.676   5.681
 2206SOL    HW2 7518   3.597   2.570   5.675
 2207SOL     OW 7519   4.618   5.864   1.611
 2207SOL    HW1 7520   4.664   5.801   1.674
 2207SOL    HW2 7521   4.657   5.955   1.621
 2208SOL     OW 7522   6.942   6.858   3.037
 2208SOL    HW1 7523   0.015   6.845   3.074
 2208SOL    HW2 7524   6.902   6.769   3.018
 2209SOL     OW 7525   3.242   5.821   4.057
 2209SOL    HW1 7526   3.206   5.899   4.107
 2209SOL    HW2 7527   3.217   5.736   4.104
 2210SOL     OW 7528   4.868   0.480   1.509
 2210SOL    HW1 7529   4.961   0.512   1.525
 2210SOL    HW2 7530   4.861   0.384   1.538
 2211SOL     OW 7531   1.641   1.937   1.126
 2211SOL    HW1 7532   1.655   1.970   1.032
 2211SOL    HW2 7533   1.602   2.009   1.182
 2212SOL     OW 7534   2.628   5.589   6.294
 2212SOL    HW1 7535   2.566   5.525   6.339
 2212SOL    HW2 7536   2.582   5.676   6.278
 2213SOL     OW 7537   3.648   1.915   5.073
 2213SOL    HW1 7538   3.599   1.904   5.160
 2213SOL    HW2 7539   3.698   2.001   5.074
 2214SOL     OW 7540   3.950   4.209   6.435
 2214SOL    HW1 7541   3.953   4.300   6.394
 2214SOL    HW2 7542   3.981   4.141   6.369
 2215SOL     OW 7543   4.487   6.436   0.629
 2215SOL    HW1 7544   4.418   6.492   0.582
 2215SOL    HW2 7545   4.537   6.494   0.693
 2216SOL     OW 7546   0.434   6.420   6.523
 2216SOL    HW1 7547   0.521   6.384   6.556
 2216SOL    HW2 7548   0.439   6.519   6.518
 2217SOL     OW 7549   4.535   1.312   3.880
 2217SOL    HW1 7550   4.502   1.367   3.957
 2217SOL    HW2 7551   4.530   1.215   3.905
 2218SOL     OW 7552   6.856   5.305   5.252
 2218SOL    HW1 7553   6.759   5.289   5.267
 2218SOL    HW2 7554   6.909   5.251   5.317
 2219SOL     OW 7555   5.248   1.275   0.743
 2219SOL    HW1 7556   5.348   1.285   0.744
 2219SOL    HW2 7557   5.207   1.350   0.795
 2220SOL     OW 7558   0.192   6.208   4.256
 2220SOL    HW1 7559   0.282   6.238   4.285
 2220SOL    HW2 7560   0.122   6.253   4.312
 2221SOL     OW 7561   5.904   1.204   4.273
 2221SOL    HW1 7562   5.824   1.145   4.261
 2221SOL    HW2 7563   5.987   1.151   4.253
 2222SOL     OW 7564   4.523   0.134   2.752
 2222SOL    HW1 7565   4.534   0.162   2.656
 2222SOL    HW2 7566   4.610   0.146   2.800
 2223SOL     OW 7567   0.828   6.754   5.410
 2223SOL    HW1 7568   0.827   6.803   5.497
 2223SOL    HW2 7569   0.735   6.727   5.385
 2224SOL     OW 7570   5.101   4.036   0.313
 2224SOL    HW1 7571   5.141   3.957   0.266
 2224SOL    HW2 7572   5.166   4.112   0.311
 2225SOL     OW 7573   6.802   6.993   1.450
 2225SOL    HW1 7574   6.751   0.008   1.371
 2225SOL    HW2 7575   6.848   6.908   1.425
 2226SOL     OW 7576   2.379   4.430   6.959
 2226SOL    HW1 7577   2.432   4.456   0.019
 2226SOL    HW2 7578   2.348   4.512   6.910
 2227SOL     OW 7579   4.117   2.155   2.233
 2227SOL    HW1 7580   4.148   2.189   2.145
 2227SOL    HW2 7581   4.058   2.076   2.220
 2228SOL     OW 7582   5.649   5.413   6.654
 2228SOL    HW1 7583   5.641   5.428   6.555
 2228SOL    HW2 7584   5.629   5.498   6.702
 2229SOL     OW 7585   2.960   3.380   3.849
 2229SOL    HW1 7586   2.950   3.427   3.761
 2229SOL    HW2 7587   2.887   3.409   3.911
 2230SOL     OW 7588   6.502   0.716   6.398
 2230SOL    HW1 7589   6.413   0.731   6.441
 2230SOL    HW2 7590   6.572   0.708   6.469
 2231SOL     OW 7591   1.586   7.001   6.027
 2231SOL    HW1 7592   1.496   0.002   6.064
 2231SOL    HW2 7593   1.628   0.066   5.994
 2232SOL     OW 7594   1.561   0.499   5.894
 2232SOL    HW1 7595   1.496   0.454   5.955
 2232SOL    HW2 7596   1.651   0.457   5.905
 2233SOL     OW 7597   3.118   4.953   0.717
 2233SOL    HW1 7598   3.019   4.950   0.727
 2233SOL    HW2 7599   3.160   4.967   0.807
 2234SOL     OW 7600   4.679   1.951   1.662
 2234SOL    HW1 7601   4.654   1.944   1.566
 2234SOL    HW2 7602   4.689   2.047   1.687
 2235SOL     OW 7603   0.497   1.840   2.844
 2235SOL    HW1 7604   0.551   1.890   2.777
 2235SOL    HW2 7605   0.463   1.756   2.804
 2236SOL     OW 7606   2.759   5.036   5.563
 2236SOL    HW1 7607   2.845   4.992   5.539
 2236SOL    HW2 7608   2.776   5.105   5.633
 2237SOL     OW 7609   6.333   6.156   5.923
 2237SOL    HW1 7610   6.233   6.150   5.921
 2237SOL    HW2 7611   6.364   6.210   5.845
 2238SOL     OW 7612   5.974   3.526   2.039
 2238SOL    HW1 7613   5.918   3.565   2.113
 2238SOL    HW2 7614   5.945   3.432   2.021
 2239SOL     OW 7615   4.655   6.225   3.255
 2239SOL    HW1 7616   4.567   6.269   3.275
 2239SOL    HW2 7617   4.730   6.286   3.279
 2240SOL     OW 7618   5.012   5.005   1.909
 2240SOL    HW1 7619   4.933   4.967   1.861
 2240SOL    HW2 7620   5.019   5.103   1.888
 2241SOL     OW 7621   0.141   1.664   2.866
 2241SOL    HW1 7622   0.232   1.653   2.824
 2241SOL    HW2 7623   0.073   1.679   2.794
 2242SOL     OW 7624   5.389   2.106   4.378
 2242SOL    HW1 7625   5.364   2.176   4.311
 2242SOL    HW2 7626   5.437   2.150   4.455
 2243SOL     OW 7627   2.433   0.013   0.549
 2243SOL    HW1 7628   2.358   6.984   0.593
 2243SOL    HW2 7629   2.403   0.047   0.460
 2244SOL     OW 7630   2.035   1.581   0.845
 2244SOL    HW1 7631   2.107   1.571   0.776
 2244SOL    HW2 7632   1.970   1.651   0.816
 2245SOL     OW 7633   0.190   0.619   0.324
 2245SOL    HW1 7634   0.133   0.656   0.251
 2245SOL    HW2 7635   0.138   0.551   0.376
 2246SOL     OW 7636   3.864   2.116   5.130
 2246SOL    HW1 7637   3.955   2.148   5.155
 2246SOL    HW2 7638   3.815   2.089   5.213
 2247SOL     OW 7639   2.937   3.303   1.832
 2247SOL    HW1 7640   2.860   3.254   1.790
 2247SOL    HW2 7641   2.910   3.338   1.921
 2248SOL     OW 7642   4.843   4.016   5.039
 2248SOL    HW1 7643   4.847   4.031   5.138
 2248SOL    HW2 7644   4.842   3.918   5.020
 2249SOL     OW 7645   2.290   6.819   2.838
 2249SOL    HW1 7646   2.258   6.858   2.752
 2249SOL    HW2 7647   2.292   6.890   2.909
 2250SOL     OW 7648   4.380   6.324   6.568
 2250SOL    HW1 7649   4.373   6.377   6.483
 2250SOL    HW2 7650   4.305   6.259   6.573
 2251SOL     OW 7651   4.672   6.679   4.742
 2251SOL    HW1 7652   4.756   6.673   4.797
 2251SOL    HW2 7653   4.686   6.635   4.654
 2252SOL     OW 7654   3.776   0.852   2.548
 2252SOL    HW1 7655   3.727   0.871   2.633
 2252SOL    HW2 7656   3.732   0.902   2.473
 2253SOL     OW 7657   0.198   3.252   1.282
 2253SOL    HW1 7658   0.257   3.256   1.363
 2253SOL    HW2 7659   0.253   3.229   1.202
 2254SOL     OW 7660   4.106   3.264   2.728
 2254SOL    HW1 7661   4.140   3.318   2.805
 2254SOL    HW2 7662   4.041   3.195   2.761
 2255SOL     OW 7663   1.778   2.917   6.498
 2255SOL    HW1 7664   1.836   2.851   6.450
 2255SOL    HW2 7665   1.755   2.992   6.436
 2256SOL     OW 7666   5.559   0.350   1.331
 2256SOL    HW1 7667   5.601   0.283   1.269
 2256SOL    HW2 7668   5.589   0.333   1.425
 2257SOL     OW 7669   6.593   0.539   5.326
 2257SOL    HW1 7670   6.592   0.470   5.398
 2257SOL    HW2 7671   6.680   0.588   5.329
 2258SOL     OW 7672   2.383   6.656   4.046
 2258SOL    HW1 7673   2.385   6.568   4.000
 2258SOL    HW2 7674   2.289   6.690   4.049
 2259SOL     OW 7675   6.178   1.932   5.122
 2259SOL    HW1 7676   6.163   2.025   5.157
 2259SOL    HW2 7677   6.152   1.930   5.025
 2260SOL     OW 7678   1.043   3.692   1.464
 2260SOL    HW1 7679   0.967   3.718   1.524
 2260SOL    HW2 7680   1.054   3.593   1.465
 2261SOL     OW 7681   5.372   4.108   0.059
 2261SOL    HW1 7682   5.336   4.085   6.988
 2261SOL    HW2 7683   5.394   4.023   0.108
 2262SOL     OW 7684   6.536   0.057   4.813
 2262SOL    HW1 7685   6.488   0.144   4.828
 2262SOL    HW2 7686   6.624   0.075   4.769
 2263SOL     OW 7687   2.466   4.318   6.315
 2263SOL    HW1 7688   2.513   4.350   6.234
 2263SOL    HW2 7689   2.417   4.233   6.294
 2264SOL     OW 7690   2.731   0.192   5.717
 2264SOL    HW1 7691   2.657   0.253   5.745
 2264SOL    HW2 7692   2.704   0.142   5.635
 2265SOL     OW 7693   0.004   6.471   4.193
 2265SOL    HW1 7694   7.007   6.429   4.282
 2265SOL    HW2 7695   0.012   6.400   4.124
 2266SOL     OW 7696   4.041   2.755   6.637
 2266SOL    HW1 7697   4.088   2.803   6.563
 2266SOL    HW2 7698   4.084   2.779   6.724
 2267SOL     OW 7699   5.519   2.604   4.620
 2267SOL    HW1 7700   5.508   2.665   4.698
 2267SOL    HW2 7701   5.437   2.549   4.609
 2268SOL     OW 7702   1.651   6.198   4.577
 2268SOL    HW1 7703   1.656   6.100   4.597
 2268SOL    HW2 7704   1.729   6.224   4.519
 2269SOL     OW 7705   1.757   2.390   5.481
 2269SOL    HW1 7706   1.678   2.360   5.534
 2269SOL    HW2 7707   1.800   2.311   5.438
 2270SOL     OW 7708   4.718   1.333   6.074
 2270SOL    HW1 7709   4.759   1.352   6.163
 2270SOL    HW2 7710   4.618   1.342   6.081
 2271SOL     OW 7711   4.707   5.446   5.542
 2271SOL    HW1 7712   4.784   5.496   5.503
 2271SOL    HW2 7713   4.667   5.387   5.472
 2272SOL     OW 7714   5.391   1.252   5.867
 2272SOL    HW1 7715   5.468   1.316   5.858
 2272SOL    HW2 7716   5.376   1.231   5.963
 2273SOL     OW 7717   0.901   2.709   3.332
 2273SOL    HW1 7718   0.977   2.765   3.363
 2273SOL    HW2 7719   0.815   2.760   3.344
 2274SOL     OW 7720   1.111   1.554   0.009
 2274SOL    HW1 7721   1.079   1.534   0.102
 2274SOL    HW2 7722   1.140   1.469   6.985
 2275SOL     OW 7723   5.652   3.886   2.903
 2275SOL    HW1 7724   5.713   3.966   2.900
 2275SOL    HW2 7725   5.601   3.880   2.818
 2276SOL     OW 7726   1.992   1.832   1.159
 2276SOL    HW1 7727   1.902   1.799   1.129
 2276SOL    HW2 7728   1.979   1.911   1.220
 2277SOL     OW 7729   3.740   2.992   3.618
 2277SOL    HW1 7730   3.649   3.027   3.599
 2277SOL    HW2 7731   3.766   2.926   3.547
 2278SOL     OW 7732   0.432   3.029   3.905
 2278SOL    HW1 7733   0.470   3.037   3.813
 2278SOL    HW2 7734   0.505   3.032   3.973
 2279SOL     OW 7735   0.915   5.859   5.630
 2279SOL    HW1 7736   0.911   5.765   5.663
 2279SOL    HW2 7737   0.936   5.859   5.532
 2280SOL     OW 7738   4.669   1.892   6.004
 2280SOL    HW1 7739   4.625   1.821   5.950
 2280SOL    HW2 7740   4.608   1.971   6.012
 2281SOL     OW 7741   5.766   6.628   2.482
 2281SOL    HW1 7742   5.829   6.559   2.518
 2281SOL    HW2 7743   5.812   6.680   2.410
 2282SOL     OW 7744   3.470   6.539   6.106
 2282SOL    HW1 7745   3.432   6.569   6.018
 2282SOL    HW2 7746   3.400   6.490   6.158
 2283SOL     OW 7747   0.073   0.915   4.008
 2283SOL    HW1 7748   0.085   0.855   3.929
 2283SOL    HW2 7749   0.064   1.010   3.976
 2284SOL     OW 7750   1.299   2.654   6.920
 2284SOL    HW1 7751   1.363   2.669   6.995
 2284SOL    HW2 7752   1.224   2.721   6.926
 2285SOL     OW 7753   1.667   4.477   6.507
 2285SOL    HW1 7754   1.578   4.511   6.477
 2285SOL    HW2 7755   1.662   4.379   6.523
 2286SOL     OW 7756   4.847   4.773   3.125
 2286SOL    HW1 7757   4.808   4.733   3.208
 2286SOL    HW2 7758   4.849   4.872   3.134
 2287SOL     OW 7759   0.972   1.459   3.679
 2287SOL    HW1 7760   0.962   1.360   3.671
 2287SOL    HW2 7761   1.067   1.481   3.702
 2288SOL     OW 7762   0.293   5.467   2.729
 2288SOL    HW1 7763   0.304   5.408   2.810
 2288SOL    HW2 7764   0.199   5.460   2.696
 2289SOL     OW 7765   0.409   5.811   0.777
 2289SOL    HW1 7766   0.336   5.754   0.815
 2289SOL    HW2 7767   0.465   5.757   0.715
 2290SOL     OW 7768   1.109   5.427   7.017
 2290SOL    HW1 7769   1.126   5.349   6.957
 2290SOL    HW2 7770   1.072   5.395   0.084
 2291SOL     OW 7771   1.961   1.398   6.904
 2291SOL    HW1 7772   1.930   1.489   6.875
 2291SOL    HW2 7773   1.934   1.382   6.999
 2292SOL     OW 7774   2.333   1.442   4.579
 2292SOL    HW1 7775   2.337   1.533   4.621
 2292SOL    HW2 7776   2.398   1.382   4.626
 2293SOL     OW 7777   5.399   3.933   2.393
 2293SOL    HW1 7778   5.303   3.950   2.371
 2293SOL    HW2 7779   5.456   3.976   2.323
 2294SOL     OW 7780   3.563   5.852   6.953
 2294SOL    HW1 7781   3.478   5.884   6.910
 2294SOL    HW2 7782   3.629   5.829   6.881
 2295SOL     OW 7783   0.519   2.149   1.594
 2295SOL    HW1 7784   0.543   2.136   1.690
 2295SOL    HW2 7785   0.563   2.231   1.559
 2296SOL     OW 7786   3.531   6.970   0.968
 2296SOL    HW1 7787   3.489   6.879   0.969
 2296SOL    HW2 7788   3.485   0.009   1.035
 2297SOL     OW 7789   4.656   6.354   6.602
 2297SOL    HW1 7790   4.679   6.362   6.699
 2297SOL    HW2 7791   4.559   6.331   6.593
 2298SOL     OW 7792   4.299   3.291   6.124
 2298SOL    HW1 7793   4.265   3.302   6.217
 2298SOL    HW2 7794   4.362   3.366   6.102
 2299SOL     OW 7795   4.546   7.005   0.023
 2299SOL    HW1 7796   4.640   6.973   0.021
 2299SOL    HW2 7797   4.493   6.959   6.972
 2300SOL     OW 7798   0.964   4.445   1.432
 2300SOL    HW1 7799   0.900   4.480   1.499
 2300SOL    HW2 7800   0.919   4.439   1.343
 2301SOL     OW 7801   4.096   3.439   1.862
 2301SOL    HW1 7802   4.024   3.377   1.832
 2301SOL    HW2 7803   4.055   3.523   1.897
 2302SOL     OW 7804   2.476   6.021   3.173
 2302SOL    HW1 7805   2.545   6.094   3.170
 2302SOL    HW2 7806   2.521   5.935   3.196
 2303SOL     OW 7807   0.432   3.377   4.842
 2303SOL    HW1 7808   0.353   3.358   4.900
 2303SOL    HW2 7809   0.503   3.423   4.897
 2304SOL     OW 7810   2.099   0.481   4.153
 2304SOL    HW1 7811   2.107   0.414   4.080
 2304SOL    HW2 7812   2.058   0.439   4.233
 2305SOL     OW 7813   4.043   5.219   1.734
 2305SOL    HW1 7814   4.034   5.134   1.681
 2305SOL    HW2 7815   4.004   5.206   1.825
 2306SOL     OW 7816   0.477   4.183   0.613
 2306SOL    HW1 7817   0.407   4.157   0.547
 2306SOL    HW2 7818   0.568   4.167   0.574
 2307SOL     OW 7819   6.992   1.468   3.045
 2307SOL    HW1 7820   0.020   1.540   2.995
 2307SOL    HW2 7821   0.023   1.447   3.129
 2308SOL     OW 7822   0.240   6.790   0.494
 2308SOL    HW1 7823   0.308   6.720   0.476
 2308SOL    HW2 7824   0.217   6.790   0.592
 2309SOL     OW 7825   3.286   5.281   5.890
 2309SOL    HW1 7826   3.372   5.256   5.935
 2309SOL    HW2 7827   3.285   5.242   5.798
 2310SOL     OW 7828   5.850   1.905   2.756
 2310SOL    HW1 7829   5.819   1.989   2.802
 2310SOL    HW2 7830   5.879   1.838   2.825
 2311SOL     OW 7831   2.578   0.521   2.987
 2311SOL    HW1 7832   2.526   0.438   2.971
 2311SOL    HW2 7833   2.522   0.601   2.966
 2312SOL     OW 7834   2.701   1.030   2.631
 2312SOL    HW1 7835   2.762   1.090   2.684
 2312SOL    HW2 7836   2.614   1.077   2.616
 2313SOL     OW 7837   5.238   4.057   1.400
 2313SOL    HW1 7838   5.280   4.140   1.436
 2313SOL    HW2 7839   5.200   4.004   1.476
 2314SOL     OW 7840   6.450   6.774   3.305
 2314SOL    HW1 7841   6.471   6.822   3.391
 2314SOL    HW2 7842   6.487   6.681   3.309
 2315SOL     OW 7843   4.386   5.759   5.153
 2315SOL    HW1 7844   4.286   5.769   5.146
 2315SOL    HW2 7845   4.413   5.755   5.249
 2316SOL     OW 7846   2.842   1.855   6.087
 2316SOL    HW1 7847   2.864   1.923   6.157
 2316SOL    HW2 7848   2.880   1.766   6.113
 2317SOL     OW 7849   6.684   5.669   3.404
 2317SOL    HW1 7850   6.779   5.659   3.435
 2317SOL    HW2 7851   6.678   5.648   3.307
 2318SOL     OW 7852   1.641   4.580   5.405
 2318SOL    HW1 7853   1.572   4.584   5.477
 2318SOL    HW2 7854   1.732   4.575   5.445
 2319SOL     OW 7855   2.311   4.912   3.633
 2319SOL    HW1 7856   2.291   4.949   3.542
 2319SOL    HW2 7857   2.251   4.955   3.701
 2320SOL     OW 7858   0.999   2.325   5.349
 2320SOL    HW1 7859   0.976   2.307   5.445
 2320SOL    HW2 7860   1.016   2.238   5.302
 2321SOL     OW 7861   2.614   4.853   5.870
 2321SOL    HW1 7862   2.612   4.949   5.896
 2321SOL    HW2 7863   2.567   4.798   5.939
 2322SOL     OW 7864   1.680   4.171   1.638
 2322SOL    HW1 7865   1.763   4.164   1.695
 2322SOL    HW2 7866   1.698   4.232   1.561
 2323SOL     OW 7867   2.432   5.078   1.666
 2323SOL    HW1 7868   2.507   5.097   1.602
 2323SOL    HW2 7869   2.395   4.987   1.647
 2324SOL     OW 7870   0.000   5.245   2.753
 2324SOL    HW1 7871   0.067   5.253   2.826
 2324SOL    HW2 7872   6.950   5.178   2.779
 2325SOL     OW 7873   6.712   5.125   1.789
 2325SOL    HW1 7874   6.651   5.113   1.867
 2325SOL    HW2 7875   6.671   5.081   1.708
 2326SOL     OW 7876   1.780   0.711   6.968
 2326SOL    HW1 7877   1.681   0.718   6.981
 2326SOL    HW2 7878   1.827   0.765   0.018
 2327SOL     OW 7879   0.379   0.349   2.432
 2327SOL    HW1 7880   0.463   0.370   2.382
 2327SOL    HW2 7881   0.336   0.268   2.391
 2328SOL     OW 7882   1.894   3.001   3.188
 2328SOL    HW1 7883   1.983   3.004   3.234
 2328SOL    HW2 7884   1.891   3.071   3.117
 2329SOL     OW 7885   0.454   5.157   3.092
 2329SOL    HW1 7886   0.463   5.129   2.996
 2329SOL    HW2 7887   0.532   5.215   3.117
 2330SOL     OW 7888   6.585   2.871   0.453
 2330SOL    HW1 7889   6.506   2.843   0.398
 2330SOL    HW2 7890   6.611   2.965   0.428
 2331SOL     OW 7891   4.514   5.947   1.104
 2331SOL    HW1 7892   4.601   5.928   1.151
 2331SOL    HW2 7893   4.476   6.033   1.138
 2332SOL     OW 7894   5.710   6.848   5.588
 2332SOL    HW1 7895   5.714   6.909   5.667
 2332SOL    HW2 7896   5.614   6.831   5.565
 2333SOL     OW 7897   0.146   4.428   2.578
 2333SOL    HW1 7898   0.097   4.345   2.606
 2333SOL    HW2 7899   0.186   4.470   2.659
 2334SOL     OW 7900   3.055   1.626   6.579
 2334SOL    HW1 7901   3.056   1.588   6.486
 2334SOL    HW2 7902   2.979   1.690   6.588
 2335SOL     OW 7903   6.365   1.364   3.454
 2335SOL    HW1 7904   6.452   1.332   3.417
 2335SOL    HW2 7905   6.333   1.300   3.524
 2336SOL     OW 7906   1.928   1.988   2.860
 2336SOL    HW1 7907   1.974   1.963   2.775
 2336SOL    HW2 7908   1.845   2.040   2.839
 2337SOL     OW 7909   4.644   1.641   1.489
 2337SOL    HW1 7910   4.566   1.650   1.551
 2337SOL    HW2 7911   4.617   1.586   1.410
 2338SOL     OW 7912   6.823   3.854   3.541
 2338SOL    HW1 7913   6.774   3.925   3.591
 2338SOL    HW2 7914   6.842   3.777   3.603
 2339SOL     OW 7915   3.682   2.973   2.930
 2339SOL    HW1 7916   3.667   2.942   2.837
 2339SOL    HW2 7917   3.606   2.943   2.988
 2340SOL     OW 7918   1.991   5.412   6.559
 2340SOL    HW1 7919   1.942   5.358   6.492
 2340SOL    HW2 7920   2.089   5.390   6.556
 2341SOL     OW 7921   2.391   4.544   3.429
 2341SOL    HW1 7922   2.359   4.451   3.447
 2341SOL    HW2 7923   2.359   4.574   3.339
 2342SOL     OW 7924   3.209   0.227   4.040
 2342SOL    HW1 7925   3.140   0.156   4.027
 2342SOL    HW2 7926   3.251   0.216   4.130
 2343SOL     OW 7927   1.284   0.048   1.918
 2343SOL    HW1 7928   1.350   7.009   1.872
 2343SOL    HW2 7929   1.332   0.115   1.974
 2344SOL     OW 7930   5.558   3.922   0.842
 2344SOL    HW1 7931   5.539   3.827   0.816
 2344SOL    HW2 7932   5.474   3.965   0.874
 2345SOL     OW 7933   2.904   5.195   4.740
 2345SOL    HW1 7934   2.975   5.140   4.786
 2345SOL    HW2 7935   2.824   5.202   4.800
 2346SOL     OW 7936   3.941   3.979   6.626
 2346SOL    HW1 7937   3.855   3.973   6.575
 2346SOL    HW2 7938   4.003   4.043   6.580
 2347SOL     OW 7939   1.151   2.254   2.138
 2347SOL    HW1 7940   1.074   2.315   2.152
 2347SOL    HW2 7941   1.211   2.290   2.067
 2348SOL     OW 7942   0.052   4.982   3.073
 2348SOL    HW1 7943   7.013   4.930   3.012
 2348SOL    HW2 7944   0.016   5.076   3.081
 2349SOL     OW 7945   0.529   4.191   5.998
 2349SOL    HW1 7946   0.485   4.170   5.911
 2349SOL    HW2 7947   0.609   4.132   6.010
 2350SOL     OW 7948   5.700   3.500   6.767
 2350SOL    HW1 7949   5.796   3.488   6.790
 2350SOL    HW2 7950   5.677   3.597   6.770
 2351SOL     OW 7951   2.812   5.211   2.768
 2351SOL    HW1 7952   2.774   5.193   2.858
 2351SOL    HW2 7953   2.904   5.171   2.762
 2352SOL     OW 7954   0.021   2.854   3.550
 2352SOL    HW1 7955   0.050   2.816   3.463
 2352SOL    HW2 7956   0.083   2.928   3.577
 2353SOL     OW 7957   3.488   5.765   4.728
 2353SOL    HW1 7958   3.507   5.777   4.631
 2353SOL    HW2 7959   3.558   5.708   4.770
 2354SOL     OW 7960   2.193   2.420   3.883
 2354SOL    HW1 7961   2.272   2.467   3.843
 2354SOL    HW2 7962   2.202   2.417   3.982
 2355SOL     OW 7963   2.588   5.730   5.149
 2355SOL    HW1 7964   2.547   5.817   5.175
 2355SOL    HW2 7965   2.517   5.659   5.145
 2356SOL     OW 7966   6.941   3.442   0.190
 2356SOL    HW1 7967   6.843   3.459   0.183
 2356SOL    HW2 7968   6.978   3.493   0.267
 2357SOL     OW 7969   2.329   6.720   2.251
 2357SOL    HW1 7970   2.306   6.653   2.322
 2357SOL    HW2 7971   2.423   6.751   2.266
 2358SOL     OW 7972   3.446   5.008   6.643
 2358SOL    HW1 7973   3.469   4.922   6.599
 2358SOL    HW2 7974   3.347   5.024   6.635
 2359SOL     OW 7975   1.322   0.108   4.450
 2359SOL    HW1 7976   1.374   0.129   4.533
 2359SOL    HW2 7977   1.386   0.085   4.376
 2360SOL     OW 7978   6.473   3.408   0.310
 2360SOL    HW1 7979   6.451   3.334   0.373
 2360SOL    HW2 7980   6.442   3.495   0.348
 2361SOL     OW 7981   3.464   1.192   6.398
 2361SOL    HW1 7982   3.546   1.202   6.343
 2361SOL    HW2 7983   3.446   1.277   6.448
 2362SOL     OW 7984   3.776   5.427   3.190
 2362SOL    HW1 7985   3.786   5.422   3.090
 2362SOL    HW2 7986   3.748   5.338   3.225
 2363SOL     OW 7987   3.931   1.157   4.480
 2363SOL    HW1 7988   3.943   1.209   4.395
 2363SOL    HW2 7989   3.943   1.218   4.558
 2364SOL     OW 7990   1.485   2.818   0.971
 2364SOL    HW1 7991   1.449   2.884   1.037
 2364SOL    HW2 7992   1.566   2.774   1.009
 2365SOL     OW 7993   5.624   2.096   6.664
 2365SOL    HW1 7994   5.541   2.060   6.621
 2365SOL    HW2 7995   5.704   2.064   6.614
 2366SOL     OW 7996   3.846   5.146   0.605
 2366SOL    HW1 7997   3.844   5.058   0.653
 2366SOL    HW2 7998   3.934   5.192   0.624
 2367SOL     OW 7999   2.809   3.150   6.433
 2367SOL    HW1 8000   2.817   3.094   6.351
 2367SOL    HW2 8001   2.860   3.235   6.421
 2368SOL     OW 8002   6.687   5.919   2.807
 2368SOL    HW1 8003   6.670   5.821   2.823
 2368SOL    HW2 8004   6.764   5.930   2.744
 2369SOL     OW 8005   2.183   0.787   3.564
 2369SOL    HW1 8006   2.191   0.885   3.551
 2369SOL    HW2 8007   2.087   0.762   3.578
 2370SOL     OW 8008   6.095   2.149   6.940
 2370SOL    HW1 8009   6.155   2.115   7.013
 2370SOL    HW2 8010   6.066   2.072   6.882
 2371SOL     OW 8011   2.657   6.456   1.458
 2371SOL    HW1 8012   2.670   6.447   1.359
 2371SOL    HW2 8013   2.737   6.499   1.499
 2372SOL     OW 8014   6.667   3.502   2.788
 2372SOL    HW1 8015   6.756   3.478   2.750
 2372SOL    HW2 8016   6.636   3.589   2.750
 2373SOL     OW 8017   2.188   3.001   6.183
 2373SOL    HW1 8018   2.257   2.990   6.255
 2373SOL    HW2 8019   2.097   2.982   6.221
 2374SOL     OW 8020   5.851   2.937   4.936
 2374SOL    HW1 8021   5.921   3.005   4.916
 2374SOL    HW2 8022   5.863   2.904   5.029
 2375SOL     OW 8023   3.323   6.018   5.185
 2375SOL    HW1 8024   3.256   6.091   5.171
 2375SOL    HW2 8025   3.357   5.986   5.097
 2376SOL     OW 8026   6.744   3.139   4.554
 2376SOL    HW1 8027   6.699   3.138   4.644
 2376SOL    HW2 8028   6.837   3.174   4.564
 2377SOL     OW 8029   3.521   3.609   3.912
 2377SOL    HW1 8030   3.494   3.559   3.830
 2377SOL    HW2 8031   3.548   3.545   3.983
 2378SOL     OW 8032   5.237   2.536   6.800
 2378SOL    HW1 8033   5.295   2.455   6.799
 2378SOL    HW2 8034   5.173   2.533   6.723
 2379SOL     OW 8035   6.425   6.940   0.378
 2379SOL    HW1 8036   6.348   6.890   0.419
 2379SOL    HW2 8037   6.440   6.907   0.285
 2380SOL     OW 8038   6.399   1.684   2.272
 2380SOL    HW1 8039   6.462   1.689   2.350
 2380SOL    HW2 8040   6.317   1.634   2.299
 2381SOL     OW 8041   1.714   6.627   3.318
 2381SOL    HW1 8042   1.792   6.575   3.353
 2381SOL    HW2 8043   1.635   6.611   3.377
 2382SOL     OW 8044   1.751   3.578   4.890
 2382SOL    HW1 8045   1.760   3.619   4.799
 2382SOL    HW2 8046   1.742   3.479   4.881
 2383SOL     OW 8047   6.259   5.911   1.274
 2383SOL    HW1 8048   6.275   6.006   1.300
 2383SOL    HW2 8049   6.213   5.909   1.185
 2384SOL     OW 8050   4.387   1.775   1.899
 2384SOL    HW1 8051   4.380   1.700   1.965
 2384SOL    HW2 8052   4.361   1.861   1.943
 2385SOL     OW 8053   0.680   2.242   6.207
 2385SOL    HW1 8054   0.646   2.150   6.225
 2385SOL    HW2 8055   0.698   2.289   6.293
 2386SOL     OW 8056   4.773   5.726   4.124
 2386SOL    HW1 8057   4.822   5.800   4.172
 2386SOL    HW2 8058   4.730   5.666   4.190
 2387SOL     OW 8059   1.936   1.557   3.454
 2387SOL    HW1 8060   1.956   1.648   3.492
 2387SOL    HW2 8061   1.891   1.568   3.366
 2388SOL     OW 8062   6.331   1.896   4.419
 2388SOL    HW1 8063   6.427   1.884   4.444
 2388SOL    HW2 8064   6.275   1.830   4.470
 2389SOL     OW 8065   3.994   5.680   2.947
 2389SOL    HW1 8066   4.068   5.612   2.951
 2389SOL    HW2 8067   4.005   5.745   3.023
 2390SOL     OW 8068   3.364   4.251   1.616
 2390SOL    HW1 8069   3.331   4.243   1.522
 2390SOL    HW2 8070   3.348   4.165   1.664
 2391SOL     OW 8071   4.050   5.307   5.280
 2391SOL    HW1 8072   4.037   5.402   5.310
 2391SOL    HW2 8073   4.131   5.269   5.324
 2392SOL     OW 8074   3.598   1.306   6.736
 2392SOL    HW1 8075   3.530   1.341   6.672
 2392SOL    HW2 8076   3.583   1.207   6.748
 2393SOL     OW 8077   4.208   5.041   5.777
 2393SOL    HW1 8078   4.300   5.062   5.744
 2393SOL    HW2 8079   4.140   5.082   5.716
 2394SOL     OW 8080   0.591   4.074   4.979
 2394SOL    HW1 8081   0.500   4.044   4.950
 2394SOL    HW2 8082   0.584   4.162   5.025
 2395SOL     OW 8083   4.133   0.120   6.006
 2395SOL    HW1 8084   4.210   0.062   6.034
 2395SOL    HW2 8085   4.107   0.180   6.082
 2396SOL     OW 8086   4.151   4.302   0.644
 2396SOL    HW1 8087   4.138   4.307   0.545
 2396SOL    HW2 8088   4.068   4.264   0.686
 2397SOL     OW 8089   6.931   3.791   4.469
 2397SOL    HW1 8090   6.949   3.701   4.506
 2397SOL    HW2 8091   6.881   3.782   4.383
 2398SOL     OW 8092   3.934   4.903   5.610
 2398SOL    HW1 8093   3.899   4.966   5.541
 2398SOL    HW2 8094   4.034   4.900   5.604
 2399SOL     OW 8095   4.135   1.962   1.823
 2399SOL    HW1 8096   4.136   1.862   1.832
 2399SOL    HW2 8097   4.147   2.004   1.913
 2400SOL     OW 8098   2.421   5.191   1.915
 2400SOL    HW1 8099   2.326   5.163   1.927
 2400SOL    HW2 8100   2.456   5.153   1.829
 2401SOL     OW 8101   6.688   6.336   6.018
 2401SOL    HW1 8102   6.605   6.340   6.073
 2401SOL    HW2 8103   6.718   6.428   5.995
 2402SOL     OW 8104   0.013   6.636   4.519
 2402SOL    HW1 8105   6.965   6.633   4.592
 2402SOL    HW2 8106   0.035   6.543   4.489
 2403SOL     OW 8107   0.695   1.656   5.159
 2403SOL    HW1 8108   0.795   1.664   5.162
 2403SOL    HW2 8109   0.658   1.726   5.098
 2404SOL     OW 8110   1.032   6.999   0.207
 2404SOL    HW1 8111   1.060   6.908   0.177
 2404SOL    HW2 8112   0.933   7.003   0.212
 2405SOL     OW 8113   2.631   4.023   1.690
 2405SOL    HW1 8114   2.642   4.122   1.684
 2405SOL    HW2 8115   2.721   3.980   1.688
 2406SOL     OW 8116   5.014   1.081   1.491
 2406SOL    HW1 8117   4.989   1.004   1.433
 2406SOL    HW2 8118   5.035   1.161   1.434
 2407SOL     OW 8119   5.375   0.870   3.634
 2407SOL    HW1 8120   5.329   0.868   3.545
 2407SOL    HW2 8121   5.368   0.962   3.672
 2408SOL     OW 8122   4.586   4.440   2.252
 2408SOL    HW1 8123   4.515   4.489   2.202
 2408SOL    HW2 8124   4.615   4.360   2.200
 2409SOL     OW 8125   1.470   4.051   0.524
 2409SOL    HW1 8126   1.426   4.080   0.439
 2409SOL    HW2 8127   1.528   3.972   0.506
 2410SOL     OW 8128   3.629   2.960   2.639
 2410SOL    HW1 8129   3.601   3.054   2.656
 2410SOL    HW2 8130   3.606   2.935   2.545
 2411SOL     OW 8131   4.866   6.780   4.414
 2411SOL    HW1 8132   4.820   6.864   4.445
 2411SOL    HW2 8133   4.943   6.804   4.354
 2412SOL     OW 8134   4.355   3.138   0.937
 2412SOL    HW1 8135   4.361   3.218   0.996
 2412SOL    HW2 8136   4.368   3.164   0.842
 2413SOL     OW 8137   4.658   0.019   2.334
 2413SOL    HW1 8138   4.696   0.065   2.253
 2413SOL    HW2 8139   4.613   6.954   2.307
 2414SOL     OW 8140   5.531   3.663   4.138
 2414SOL    HW1 8141   5.557   3.567   4.137
 2414SOL    HW2 8142   5.529   3.696   4.232
 2415SOL     OW 8143   4.410   1.018   3.448
 2415SOL    HW1 8144   4.316   1.048   3.433
 2415SOL    HW2 8145   4.411   0.947   3.519
 2416SOL     OW 8146   5.143   1.890   6.010
 2416SOL    HW1 8147   5.084   1.957   5.967
 2416SOL    HW2 8148   5.100   1.800   6.007
 2417SOL     OW 8149   3.240   4.128   4.081
 2417SOL    HW1 8150   3.283   4.177   4.157
 2417SOL    HW2 8151   3.152   4.091   4.110
 2418SOL     OW 8152   3.444   2.945   3.081
 2418SOL    HW1 8153   3.360   2.915   3.036
 2418SOL    HW2 8154   3.428   2.954   3.180
 2419SOL     OW 8155   6.861   0.126   2.957
 2419SOL    HW1 8156   6.850   0.147   3.054
 2419SOL    HW2 8157   6.886   0.030   2.946
 2420SOL     OW 8158   2.300   0.159   2.003
 2420SOL    HW1 8159   2.348   0.191   1.922
 2420SOL    HW2 8160   2.305   0.059   2.008
 2421SOL     OW 8161   3.303   2.146   3.693
 2421SOL    HW1 8162   3.263   2.141   3.601
 2421SOL    HW2 8163   3.402   2.155   3.686
 2422SOL     OW 8164   4.952   1.344   0.814
 2422SOL    HW1 8165   4.927   1.266   0.871
 2422SOL    HW2 8166   4.911   1.335   0.723
 2423SOL     OW 8167   2.027   5.081   2.226
 2423SOL    HW1 8168   2.082   5.017   2.280
 2423SOL    HW2 8169   2.036   5.173   2.263
 2424SOL     OW 8170   6.324   0.455   1.323
 2424SOL    HW1 8171   6.335   0.532   1.385
 2424SOL    HW2 8172   6.413   0.410   1.310
 2425SOL     OW 8173   6.863   6.855   4.358
 2425SOL    HW1 8174   6.934   6.790   4.386
 2425SOL    HW2 8175   6.796   6.809   4.301
 2426SOL     OW 8176   2.690   4.833   3.886
 2426SOL    HW1 8177   2.786   4.833   3.916
 2426SOL    HW2 8178   2.651   4.742   3.898
 2427SOL     OW 8179   6.221   0.056   5.450
 2427SOL    HW1 8180   6.193   0.117   5.524
 2427SOL    HW2 8181   6.220   0.106   5.364
 2428SOL     OW 8182   6.463   0.549   0.517
 2428SOL    HW1 8183   6.528   0.610   0.564
 2428SOL    HW2 8184   6.424   0.485   0.584
 2429SOL     OW 8185   5.113   5.407   2.022
 2429SOL    HW1 8186   5.109   5.383   1.925
 2429SOL    HW2 8187   5.179   5.480   2.036
 2430SOL     OW 8188   5.259   0.445   2.723
 2430SOL    HW1 8189   5.160   0.440   2.735
 2430SOL    HW2 8190   5.303   0.442   2.813
 2431SOL     OW 8191   4.350   0.326   2.074
 2431SOL    HW1 8192   4.330   0.275   2.157
 2431SOL    HW2 8193   4.322   0.272   1.994
 2432SOL     OW 8194   2.529   6.403   2.440
 2432SOL    HW1 8195   2.613   6.389   2.388
 2432SOL    HW2 8196   2.505   6.319   2.489
 2433SOL     OW 8197   4.048   0.237   0.748
 2433SOL    HW1 8198   4.012   0.146   0.728
 2433SOL    HW2 8199   4.121   0.259   0.683
 2434SOL     OW 8200   4.019   3.493   5.465
 2434SOL    HW1 8201   4.010   3.494   5.365
 2434SOL    HW2 8202   4.113   3.468   5.489
 2435SOL     OW 8203   6.224   5.898   5.491
 2435SOL    HW1 8204   6.316   5.903   5.453
 2435SOL    HW2 8205   6.221   5.828   5.563
 2436SOL     OW 8206   2.894   5.338   0.704
 2436SOL    HW1 8207   2.841   5.258   0.730
 2436SOL    HW2 8208   2.985   5.310   0.675
 2437SOL     OW 8209   6.913   0.373   5.992
 2437SOL    HW1 8210   6.858   0.384   5.908
 2437SOL    HW2 8211   6.944   0.279   5.999
 2438SOL     OW 8212   2.885   3.131   1.084
 2438SOL    HW1 8213   2.904   3.161   0.990
 2438SOL    HW2 8214   2.799   3.081   1.085
 2439SOL     OW 8215   5.665   3.842   5.806
 2439SOL    HW1 8216   5.743   3.804   5.756
 2439SOL    HW2 8217   5.581   3.826   5.754
 2440SOL     OW 8218   6.089   5.069   5.870
 2440SOL    HW1 8219   6.077   5.086   5.968
 2440SOL    HW2 8220   6.129   5.150   5.827
 2441SOL     OW 8221   6.239   1.743   0.879
 2441SOL    HW1 8222   6.148   1.706   0.862
 2441SOL    HW2 8223   6.247   1.832   0.832
 2442SOL     OW 8224   7.005   2.616   5.719
 2442SOL    HW1 8225   6.964   2.701   5.688
 2442SOL    HW2 8226   6.940   2.541   5.705
 2443SOL     OW 8227   2.809   4.617   5.380
 2443SOL    HW1 8228   2.852   4.619   5.290
 2443SOL    HW2 8229   2.834   4.699   5.431
 2444SOL     OW 8230   3.563   3.031   5.264
 2444SOL    HW1 8231   3.498   2.975   5.212
 2444SOL    HW2 8232   3.588   2.983   5.349
 2445SOL     OW 8233   0.599   0.230   0.789
 2445SOL    HW1 8234   0.595   0.330   0.788
 2445SOL    HW2 8235   0.522   0.194   0.841
 2446SOL     OW 8236   5.269   3.260   6.223
 2446SOL    HW1 8237   5.231   3.350   6.199
 2446SOL    HW2 8238   5.292   3.210   6.140
 2447SOL     OW 8239   0.751   2.986   6.625
 2447SOL    HW1 8240   0.833   3.002   6.570
 2447SOL    HW2 8241   0.722   2.891   6.613
 2448SOL     OW 8242   0.466   0.039   4.377
 2448SOL    HW1 8243   0.379   0.044   4.427
 2448SOL    HW2 8244   0.511   6.973   4.397
 2449SOL     OW 8245   0.608   3.153   4.773
 2449SOL    HW1 8246   0.548   3.221   4.814
 2449SOL    HW2 8247   0.690   3.198   4.737
 2450SOL     OW 8248   2.112   2.987   1.726
 2450SOL    HW1 8249   2.120   3.007   1.824
 2450SOL    HW2 8250   2.157   2.899   1.707
 2451SOL     OW 8251   2.436   6.453   4.463
 2451SOL    HW1 8252   2.403   6.363   4.436
 2451SOL    HW2 8253   2.448   6.510   4.381
 2452SOL     OW 8254   2.332   2.426   4.147
 2452SOL    HW1 8255   2.370   2.335   4.133
 2452SOL    HW2 8256   2.402   2.487   4.184
 2453SOL     OW 8257   0.356   3.283   1.511
 2453SOL    HW1 8258   0.389   3.315   1.600
 2453SOL    HW2 8259   0.432   3.245   1.459
 2454SOL     OW 8260   2.392   0.069   1.471
 2454SOL    HW1 8261   2.456   0.015   1.416
 2454SOL    HW2 8262   2.309   0.086   1.417
 2455SOL     OW 8263   5.518   3.344   1.426
 2455SOL    HW1 8264   5.609   3.362   1.389
 2455SOL    HW2 8265   5.525   3.316   1.521
 2456SOL     OW 8266   2.484   0.031   1.054
 2456SOL    HW1 8267   2.469   0.070   0.964
 2456SOL    HW2 8268   2.434   6.964   1.061
 2457SOL     OW 8269   5.877   6.088   1.029
 2457SOL    HW1 8270   5.938   6.149   1.080
 2457SOL    HW2 8271   5.829   6.028   1.094
 2458SOL     OW 8272   0.357   5.937   2.258
 2458SOL    HW1 8273   0.359   5.865   2.327
 2458SOL    HW2 8274   0.444   5.987   2.260
 2459SOL     OW 8275   0.856   1.645   0.536
 2459SOL    HW1 8276   0.842   1.690   0.625
 2459SOL    HW2 8277   0.849   1.712   0.463
 2460SOL     OW 8278   3.094   4.793   1.182
 2460SOL    HW1 8279   3.115   4.765   1.089
 2460SOL    HW2 8280   3.073   4.712   1.238
 2461SOL     OW 8281   4.882   1.342   2.988
 2461SOL    HW1 8282   4.936   1.417   2.950
 2461SOL    HW2 8283   4.818   1.308   2.918
 2462SOL     OW 8284   2.720   3.697   6.288
 2462SOL    HW1 8285   2.715   3.753   6.371
 2462SOL    HW2 8286   2.715   3.600   6.314
 2463SOL     OW 8287   1.013   2.562   4.980
 2463SOL    HW1 8288   1.000   2.650   4.935
 2463SOL    HW2 8289   0.987   2.569   5.076
 2464SOL     OW 8290   1.492   3.671   0.597
 2464SOL    HW1 8291   1.394   3.690   0.603
 2464SOL    HW2 8292   1.509   3.578   0.629
 2465SOL     OW 8293   5.873   5.400   2.131
 2465SOL    HW1 8294   5.775   5.381   2.127
 2465SOL    HW2 8295   5.888   5.498   2.120
 2466SOL     OW 8296   3.731   1.513   1.725
 2466SOL    HW1 8297   3.780   1.599   1.739
 2466SOL    HW2 8298   3.684   1.516   1.637
 2467SOL     OW 8299   0.220   1.425   4.687
 2467SOL    HW1 8300   0.298   1.385   4.735
 2467SOL    HW2 8301   0.252   1.482   4.612
 2468SOL     OW 8302   6.263   4.490   6.915
 2468SOL    HW1 8303   6.314   4.574   6.935
 2468SOL    HW2 8304   6.243   4.442   7.001
 2469SOL     OW 8305   3.435   2.773   5.893
 2469SOL    HW1 8306   3.510   2.752   5.830
 2469SOL    HW2 8307   3.369   2.833   5.849
 2470SOL     OW 8308   5.512   2.535   0.934
 2470SOL    HW1 8309   5.433   2.474   0.941
 2470SOL    HW2 8310   5.495   2.618   0.987
 2471SOL     OW 8311   0.371   1.343   3.156
 2471SOL    HW1 8312   0.332   1.329   3.247
 2471SOL    HW2 8313   0.343   1.268   3.096
 2472SOL     OW 8314   5.528   1.369   3.650
 2472SOL    HW1 8315   5.478   1.411   3.726
 2472SOL    HW2 8316   5.471   1.368   3.568
 2473SOL     OW 8317   0.450   6.145   5.386
 2473SOL    HW1 8318   0.528   6.106   5.337
 2473SOL    HW2 8319   0.366   6.100   5.355
 2474SOL     OW 8320   6.227   6.701   4.236
 2474SOL    HW1 8321   6.219   6.672   4.331
 2474SOL    HW2 8322   6.139   6.735   4.204
 2475SOL     OW 8323   4.166   2.191   6.365
 2475SOL    HW1 8324   4.088   2.172   6.424
 2475SOL    HW2 8325   4.133   2.210   6.272
 2476SOL     OW 8326   0.565   1.419   3.569
 2476SOL    HW1 8327   0.480   1.395   3.616
 2476SOL    HW2 8328   0.587   1.350   3.501
 2477SOL     OW 8329   4.546   4.974   2.219
 2477SOL    HW1 8330   4.602   4.924   2.286
 2477SOL    HW2 8331   4.578   5.069   2.214
 2478SOL     OW 8332   0.182   6.815   2.607
 2478SOL    HW1 8333   0.209   6.724   2.639
 2478SOL    HW2 8334   0.218   6.830   2.515
 2479SOL     OW 8335   0.500   2.153   6.983
 2479SOL    HW1 8336   0.528   2.247   6.998
 2479SOL    HW2 8337   0.556   2.092   0.020
 2480SOL     OW 8338   6.762   4.976   1.512
 2480SOL    HW1 8339   6.716   5.058   1.477
 2480SOL    HW2 8340   6.859   4.980   1.491
 2481SOL     OW 8341   3.961   5.144   2.228
 2481SOL    HW1 8342   3.945   5.243   2.233
 2481SOL    HW2 8343   3.954   5.105   2.320
 2482SOL     OW 8344   5.095   2.513   4.815
 2482SOL    HW1 8345   5.031   2.590   4.818
 2482SOL    HW2 8346   5.112   2.488   4.720
 2483SOL     OW 8347   0.718   2.703   0.110
 2483SOL    HW1 8348   0.701   2.771   0.039
 2483SOL    HW2 8349   0.748   2.748   0.194
 2484SOL     OW 8350   4.025   4.374   5.838
 2484SOL    HW1 8351   4.026   4.304   5.767
 2484SOL    HW2 8352   3.939   4.425   5.834
 2485SOL     OW 8353   0.354   6.138   6.899
 2485SOL    HW1 8354   0.320   6.140   6.805
 2485SOL    HW2 8355   0.296   6.078   6.954
 2486SOL     OW 8356   0.550   5.408   3.541
 2486SOL    HW1 8357   0.524   5.321   3.582
 2486SOL    HW2 8358   0.540   5.481   3.608
 2487SOL     OW 8359   3.803   1.760   1.627
 2487SOL    HW1 8360   3.808   1.859   1.645
 2487SOL    HW2 8361   3.794   1.745   1.529
 2488SOL     OW 8362   3.076   6.204   6.326
 2488SOL    HW1 8363   3.034   6.268   6.390
 2488SOL    HW2 8364   3.164   6.174   6.362
 2489SOL     OW 8365   0.146   5.968   4.135
 2489SOL    HW1 8366   0.051   5.971   4.103
 2489SOL    HW2 8367   0.172   6.057   4.170
 2490SOL     OW 8368   5.640   2.657   1.650
 2490SOL    HW1 8369   5.708   2.634   1.720
 2490SOL    HW2 8370   5.573   2.584   1.643
 2491SOL     OW 8371   0.190   4.245   3.063
 2491SOL    HW1 8372   0.209   4.343   3.066
 2491SOL    HW2 8373   0.243   4.203   2.989
 2492SOL     OW 8374   4.055   1.150   6.223
 2492SOL    HW1 8375   4.031   1.063   6.181
 2492SOL    HW2 8376   4.154   1.163   6.218
 2493SOL     OW 8377   6.967   1.012   4.725
 2493SOL    HW1 8378   6.984   1.044   4.632
 2493SOL    HW2 8379   0.024   0.956   4.755
 2494SOL     OW 8380   4.199   5.299   1.048
 2494SOL    HW1 8381   4.150   5.215   1.073
 2494SOL    HW2 8382   4.285   5.275   1.003
 2495SOL     OW 8383   0.069   1.032   2.897
 2495SOL    HW1 8384   0.052   1.117   2.846
 2495SOL    HW2 8385   0.049   0.953   2.839
 2496SOL     OW 8386   1.449   5.525   0.213
 2496SOL    HW1 8387   1.401   5.592   0.156
 2496SOL    HW2 8388   1.534   5.497   0.168
 2497SOL     OW 8389   5.736   0.384   6.683
 2497SOL    HW1 8390   5.741   0.285   6.692
 2497SOL    HW2 8391   5.703   0.423   6.769
 2498SOL     OW 8392   0.908   3.263   4.795
 2498SOL    HW1 8393   0.897   3.282   4.893
 2498SOL    HW2 8394   0.851   3.326   4.742
 2499SOL     OW 8395   5.402   1.055   0.435
 2499SOL    HW1 8396   5.349   1.011   0.362
 2499SOL    HW2 8397   5.481   0.999   0.457
 2500SOL     OW 8398   4.341   3.922   6.568
 2500SOL    HW1 8399   4.421   3.893   6.516
 2500SOL    HW2 8400   4.328   4.021   6.555
 2501SOL     OW 8401   6.725   5.071   0.871
 2501SOL    HW1 8402   6.696   5.158   0.829
 2501SOL    HW2 8403   6.768   5.090   0.959
 2502SOL     OW 8404   0.455   0.440   3.498
 2502SOL    HW1 8405   0.371   0.385   3.494
 2502SOL    HW2 8406   0.432   0.536   3.510
 2503SOL     OW 8407   5.410   6.389   4.079
 2503SOL    HW1 8408   5.456   6.417   4.163
 2503SOL    HW2 8409   5.370   6.470   4.034
 2504SOL     OW 8410   2.446   4.414   2.967
 2504SOL    HW1 8411   2.448   4.440   2.870
 2504SOL    HW2 8412   2.509   4.473   3.017
 2505SOL     OW 8413   4.913   4.384   4.959
 2505SOL    HW1 8414   4.832   4.337   4.922
 2505SOL    HW2 8415   4.978   4.399   4.885
 2506SOL     OW 8416   0.576   0.914   0.527
 2506SOL    HW1 8417   0.659   0.859   0.523
 2506SOL    HW2 8418   0.588   0.987   0.595
 2507SOL     OW 8419   6.094   6.622   6.965
 2507SOL    HW1 8420   6.095   6.652   0.040
 2507SOL    HW2 8421   6.067   6.698   6.906
 2508SOL     OW 8422   1.586   2.426   1.620
 2508SOL    HW1 8423   1.681   2.453   1.632
 2508SOL    HW2 8424   1.549   2.392   1.707
 2509SOL     OW 8425   6.014   1.163   3.389
 2509SOL    HW1 8426   6.037   1.240   3.330
 2509SOL    HW2 8427   5.977   1.088   3.334
 2510SOL     OW 8428   3.747   5.897   2.606
 2510SOL    HW1 8429   3.761   5.952   2.524
 2510SOL    HW2 8430   3.831   5.897   2.661
 2511SOL     OW 8431   1.214   6.915   3.478
 2511SOL    HW1 8432   1.180   6.990   3.421
 2511SOL    HW2 8433   1.182   6.927   3.572
 2512SOL     OW 8434   5.795   3.828   4.476
 2512SOL    HW1 8435   5.862   3.800   4.544
 2512SOL    HW2 8436   5.824   3.915   4.435
 2513SOL     OW 8437   6.989   4.544   1.091
 2513SOL    HW1 8438   6.909   4.511   1.041
 2513SOL    HW2 8439   6.990   4.644   1.090
 2514SOL     OW 8440   6.823   2.439   3.476
 2514SOL    HW1 8441   6.875   2.375   3.533
 2514SOL    HW2 8442   6.886   2.493   3.420
 2515SOL     OW 8443   0.969   4.437   6.955
 2515SOL    HW1 8444   1.040   4.428   6.886
 2515SOL    HW2 8445   0.932   4.347   6.979
 2516SOL     OW 8446   5.298   6.530   3.676
 2516SOL    HW1 8447   5.263   6.622   3.658
 2516SOL    HW2 8448   5.251   6.464   3.618
 2517SOL     OW 8449   1.581   5.316   0.695
 2517SOL    HW1 8450   1.652   5.247   0.684
 2517SOL    HW2 8451   1.622   5.401   0.729
 2518SOL     OW 8452   2.127   2.581   6.622
 2518SOL    HW1 8453   2.139   2.531   6.536
 2518SOL    HW2 8454   2.080   2.523   6.688
 2519SOL     OW 8455   5.868   3.869   5.203
 2519SOL    HW1 8456   5.907   3.778   5.190
 2519SOL    HW2 8457   5.849   3.910   5.113
 2520SOL     OW 8458   3.311   5.801   1.620
 2520SOL    HW1 8459   3.371   5.876   1.590
 2520SOL    HW2 8460   3.297   5.738   1.544
 2521SOL     OW 8461   5.753   6.362   5.837
 2521SOL    HW1 8462   5.693   6.294   5.795
 2521SOL    HW2 8463   5.745   6.449   5.789
 2522SOL     OW 8464   2.050   5.312   4.499
 2522SOL    HW1 8465   2.009   5.246   4.562
 2522SOL    HW2 8466   2.055   5.271   4.408
 2523SOL     OW 8467   1.055   2.013   5.213
 2523SOL    HW1 8468   1.119   2.056   5.150
 2523SOL    HW2 8469   1.083   2.031   5.307
 2524SOL     OW 8470   1.711   6.798   4.172
 2524SOL    HW1 8471   1.766   6.780   4.253
 2524SOL    HW2 8472   1.740   6.885   4.131
 2525SOL     OW 8473   2.651   4.608   2.567
 2525SOL    HW1 8474   2.681   4.662   2.488
 2525SOL    HW2 8475   2.582   4.541   2.536
 2526SOL     OW 8476   1.491   2.291   4.518
 2526SOL    HW1 8477   1.545   2.367   4.552
 2526SOL    HW2 8478   1.473   2.304   4.421
 2527SOL     OW 8479   6.767   0.140   4.229
 2527SOL    HW1 8480   6.690   0.078   4.246
 2527SOL    HW2 8481   6.748   0.229   4.272
 2528SOL     OW 8482   5.349   5.753   0.369
 2528SOL    HW1 8483   5.369   5.850   0.358
 2528SOL    HW2 8484   5.280   5.725   0.302
 2529SOL     OW 8485   4.807   4.015   5.340
 2529SOL    HW1 8486   4.710   4.031   5.356
 2529SOL    HW2 8487   4.821   3.919   5.317
 2530SOL     OW 8488   1.097   6.292   3.200
 2530SOL    HW1 8489   1.024   6.319   3.137
 2530SOL    HW2 8490   1.178   6.265   3.147
 2531SOL     OW 8491   5.102   1.446   6.726
 2531SOL    HW1 8492   5.121   1.454   6.824
 2531SOL    HW2 8493   5.183   1.476   6.675
 2532SOL     OW 8494   1.035   4.879   5.480
 2532SOL    HW1 8495   1.012   4.799   5.424
 2532SOL    HW2 8496   1.081   4.947   5.423
 2533SOL     OW 8497   5.794   0.211   5.398
 2533SOL    HW1 8498   5.857   0.237   5.471
 2533SOL    HW2 8499   5.837   0.145   5.338
 2534SOL     OW 8500   6.368   1.612   3.553
 2534SOL    HW1 8501   6.358   1.591   3.651
 2534SOL    HW2 8502   6.347   1.530   3.500
 2535SOL     OW 8503   2.785   1.614   2.332
 2535SOL    HW1 8504   2.823   1.701   2.298
 2535SOL    HW2 8505   2.857   1.563   2.379
 2536SOL     OW 8506   0.067   0.685   4.485
 2536SOL    HW1 8507   0.144   0.708   4.545
 2536SOL    HW2 8508   0.039   0.766   4.434
 2537SOL     OW 8509   3.516   6.264   2.592
 2537SOL    HW1 8510   3.487   6.176   2.556
 2537SOL    HW2 8511   3.530   6.328   2.517
 2538SOL     OW 8512   0.683   5.015   5.525
 2538SOL    HW1 8513   0.686   5.008   5.624
 2538SOL    HW2 8514   0.748   5.085   5.494
 2539SOL     OW 8515   1.957   0.629   5.320
 2539SOL    HW1 8516   2.017   0.582   5.256
 2539SOL    HW2 8517   1.949   0.576   5.404
 2540SOL     OW 8518   4.717   2.136   2.402
 2540SOL    HW1 8519   4.780   2.058   2.407
 2540SOL    HW2 8520   4.763   2.212   2.356
 2541SOL     OW 8521   0.956   1.384   6.284
 2541SOL    HW1 8522   1.038   1.384   6.227
 2541SOL    HW2 8523   0.947   1.295   6.329
 2542SOL     OW 8524   3.902   2.006   3.825
 2542SOL    HW1 8525   3.964   2.084   3.820
 2542SOL    HW2 8526   3.901   1.958   3.736
 2543SOL     OW 8527   6.036   0.659   5.035
 2543SOL    HW1 8528   5.951   0.630   5.080
 2543SOL    HW2 8529   6.028   0.646   4.936
 2544SOL     OW 8530   0.358   6.857   1.755
 2544SOL    HW1 8531   0.367   6.946   1.800
 2544SOL    HW2 8532   0.287   6.804   1.801
 2545SOL     OW 8533   6.944   1.535   0.354
 2545SOL    HW1 8534   6.851   1.509   0.380
 2545SOL    HW2 8535   6.942   1.585   0.267
 2546SOL     OW 8536   6.344   3.565   2.433
 2546SOL    HW1 8537   6.378   3.545   2.525
 2546SOL    HW2 8538   6.379   3.497   2.369
 2547SOL     OW 8539   5.837   3.489   1.080
 2547SOL    HW1 8540   5.845   3.411   1.018
 2547SOL    HW2 8541   5.916   3.550   1.068
 2548SOL     OW 8542   6.380   0.775   5.281
 2548SOL    HW1 8543   6.445   0.703   5.253
 2548SOL    HW2 8544   6.412   0.817   5.365
 2549SOL     OW 8545   2.512   5.145   0.538
 2549SOL    HW1 8546   2.585   5.150   0.606
 2549SOL    HW2 8547   2.536   5.077   0.468
 2550SOL     OW 8548   3.534   6.822   1.268
 2550SOL    HW1 8549   3.617   6.795   1.219
 2550SOL    HW2 8550   3.462   6.756   1.249
 2551SOL     OW 8551   3.369   4.714   1.446
 2551SOL    HW1 8552   3.458   4.715   1.400
 2551SOL    HW2 8553   3.331   4.806   1.447
 2552SOL     OW 8554   2.348   4.472   1.322
 2552SOL    HW1 8555   2.280   4.482   1.395
 2552SOL    HW2 8556   2.354   4.558   1.271
 2553SOL     OW 8557   5.038   1.016   6.896
 2553SOL    HW1 8558   5.012   1.088   6.832
 2553SOL    HW2 8559   5.045   1.054   6.988
 2554SOL     OW 8560   0.635   5.401   1.388
 2554SOL    HW1 8561   0.699   5.342   1.436
 2554SOL    HW2 8562   0.610   5.359   1.301
 2555SOL     OW 8563   0.882   6.724   4.704
 2555SOL    HW1 8564   0.903   6.762   4.613
 2555SOL    HW2 8565   0.786   6.696   4.707
 2556SOL     OW 8566   4.514   0.110   1.262
 2556SOL    HW1 8567   4.448   0.048   1.219
 2556SOL    HW2 8568   4.475   0.149   1.345
 2557SOL     OW 8569   2.415   1.236   6.966
 2557SOL    HW1 8570   2.320   1.266   6.975
 2557SOL    HW2 8571   2.474   1.295   0.002
 2558SOL     OW 8572   5.414   1.963   1.419
 2558SOL    HW1 8573   5.375   1.943   1.329
 2558SOL    HW2 8574   5.505   1.923   1.426
 2559SOL     OW 8575   6.256   5.031   3.537
 2559SOL    HW1 8576   6.208   5.009   3.452
 2559SOL    HW2 8577   6.239   5.127   3.561
 2560SOL     OW 8578   4.703   2.633   2.201
 2560SOL    HW1 8579   4.702   2.711   2.138
 2560SOL    HW2 8580   4.781   2.642   2.263
 2561SOL     OW 8581   3.530   0.004   4.961
 2561SOL    HW1 8582   3.504   0.100   4.949
 2561SOL    HW2 8583   3.477   6.968   4.897
 2562SOL     OW 8584   2.019   6.745   4.874
 2562SOL    HW1 8585   1.983   6.677   4.937
 2562SOL    HW2 8586   1.978   6.733   4.783
 2563SOL     OW 8587   4.157   2.624   6.353
 2563SOL    HW1 8588   4.133   2.721   6.345
 2563SOL    HW2 8589   4.081   2.568   6.319
 2564SOL     OW 8590   1.320   1.362   0.286
 2564SOL    HW1 8591   1.232   1.399   0.255
 2564SOL    HW2 8592   1.367   1.430   0.342
 2565SOL     OW 8593   0.825   0.754   0.839
 2565SOL    HW1 8594   0.727   0.764   0.825
 2565SOL    HW2 8595   0.875   0.815   0.778
 2566SOL     OW 8596   3.207   1.099   0.887
 2566SOL    HW1 8597   3.173   1.180   0.936
 2566SOL    HW2 8598   3.187   1.017   0.941
 2567SOL     OW 8599   1.863   0.742   6.276
 2567SOL    HW1 8600   1.849   0.717   6.180
 2567SOL    HW2 8601   1.805   0.686   6.334
 2568SOL     OW 8602   1.844   5.195   1.062
 2568SOL    HW1 8603   1.843   5.283   1.014
 2568SOL    HW2 8604   1.751   5.171   1.090
 2569SOL     OW 8605   1.945   6.425   6.668
 2569SOL    HW1 8606   1.916   6.412   6.573
 2569SOL    HW2 8607   1.974   6.520   6.681
 2570SOL     OW 8608   0.889   6.802   3.935
 2570SOL    HW1 8609   0.903   6.758   4.023
 2570SOL    HW2 8610   0.920   6.897   3.939
 2571SOL     OW 8611   3.865   3.597   2.951
 2571SOL    HW1 8612   3.920   3.513   2.950
 2571SOL    HW2 8613   3.786   3.585   2.892
 2572SOL     OW 8614   2.252   6.231   2.404
 2572SOL    HW1 8615   2.231   6.162   2.336
 2572SOL    HW2 8616   2.303   6.306   2.361
 2573SOL     OW 8617   0.230   1.040   3.344
 2573SOL    HW1 8618   0.244   1.139   3.347
 2573SOL    HW2 8619   0.305   0.999   3.291
 2574SOL     OW 8620   0.272   3.077   1.936
 2574SOL    HW1 8621   0.357   3.063   1.886
 2574SOL    HW2 8622   0.261   3.004   2.004
 2575SOL     OW 8623   4.584   3.904   5.485
 2575SOL    HW1 8624   4.571   3.988   5.433
 2575SOL    HW2 8625   4.562   3.922   5.582
 2576SOL     OW 8626   1.017   0.171   3.091
 2576SOL    HW1 8627   1.032   0.097   3.025
 2576SOL    HW2 8628   0.923   0.203   3.084
 2577SOL     OW 8629   1.333   4.572   1.586
 2577SOL    HW1 8630   1.365   4.488   1.631
 2577SOL    HW2 8631   1.339   4.648   1.650
 2578SOL     OW 8632   4.522   2.693   5.122
 2578SOL    HW1 8633   4.577   2.622   5.166
 2578SOL    HW2 8634   4.489   2.660   5.034
 2579SOL     OW 8635   0.249   1.156   6.687
 2579SOL    HW1 8636   0.215   1.249   6.669
 2579SOL    HW2 8637   0.347   1.159   6.707
 2580SOL     OW 8638   1.872   1.642   5.426
 2580SOL    HW1 8639   1.803   1.614   5.493
 2580SOL    HW2 8640   1.931   1.564   5.404
 2581SOL     OW 8641   5.917   6.101   4.689
 2581SOL    HW1 8642   5.897   6.196   4.711
 2581SOL    HW2 8643   5.969   6.059   4.764
 2582SOL     OW 8644   6.642   4.629   2.947
 2582SOL    HW1 8645   6.642   4.577   3.033
 2582SOL    HW2 8646   6.713   4.593   2.887
 2583SOL     OW 8647   2.822   1.014   0.076
 2583SOL    HW1 8648   2.787   1.105   0.098
 2583SOL    HW2 8649   2.768   0.976   0.001
 2584SOL     OW 8650   4.119   1.072   3.458
 2584SOL    HW1 8651   4.047   1.065   3.527
 2584SOL    HW2 8652   4.078   1.087   3.368
 2585SOL     OW 8653   3.824   0.753   2.014
 2585SOL    HW1 8654   3.743   0.807   2.037
 2585SOL    HW2 8655   3.837   0.682   2.083
 2586SOL     OW 8656   0.441   1.654   4.083
 2586SOL    HW1 8657   0.362   1.608   4.125
 2586SOL    HW2 8658   0.522   1.642   4.141
 2587SOL     OW 8659   6.959   5.224   3.091
 2587SOL    HW1 8660   6.863   5.254   3.088
 2587SOL    HW2 8661   7.015   5.297   3.130
 2588SOL     OW 8662   3.718   6.880   2.624
 2588SOL    HW1 8663   3.758   6.854   2.536
 2588SOL    HW2 8664   3.740   6.975   2.643
 2589SOL     OW 8665   4.487   6.177   1.550
 2589SOL    HW1 8666   4.561   6.158   1.485
 2589SOL    HW2 8667   4.478   6.275   1.563
 2590SOL     OW 8668   3.661   5.983   3.904
 2590SOL    HW1 8669   3.656   5.963   3.806
 2590SOL    HW2 8670   3.653   6.082   3.918
 2591SOL     OW 8671   6.120   0.420   0.403
 2591SOL    HW1 8672   6.191   0.472   0.356
 2591SOL    HW2 8673   6.102   0.335   0.353
 2592SOL     OW 8674   2.828   4.665   1.623
 2592SOL    HW1 8675   2.731   4.683   1.610
 2592SOL    HW2 8676   2.842   4.614   1.708
 2593SOL     OW 8677   3.267   0.040   3.506
 2593SOL    HW1 8678   3.266   0.140   3.509
 2593SOL    HW2 8679   3.295   0.010   3.415
 2594SOL     OW 8680   1.626   5.623   6.822
 2594SOL    HW1 8681   1.635   5.721   6.806
 2594SOL    HW2 8682   1.529   5.599   6.830
 2595SOL     OW 8683   0.104   3.148   4.436
 2595SOL    HW1 8684   0.103   3.062   4.385
 2595SOL    HW2 8685   0.197   3.169   4.465
 2596SOL     OW 8686   3.791   1.717   1.024
 2596SOL    HW1 8687   3.818   1.762   0.939
 2596SOL    HW2 8688   3.850   1.637   1.039
 2597SOL     OW 8689   2.181   2.376   5.906
 2597SOL    HW1 8690   2.116   2.309   5.944
 2597SOL    HW2 8691   2.149   2.407   5.817
 2598SOL     OW 8692   0.013   0.730   2.812
 2598SOL    HW1 8693   0.087   0.667   2.786
 2598SOL    HW2 8694   6.988   0.696   2.895
 2599SOL     OW 8695   4.998   5.835   6.342
 2599SOL    HW1 8696   4.913   5.783   6.350
 2599SOL    HW2 8697   5.073   5.773   6.320
 2600SOL     OW 8698   0.684   2.463   4.480
 2600SOL    HW1 8699   0.755   2.456   4.550
 2600SOL    HW2 8700   0.597   2.488   4.522
 2601SOL     OW 8701   4.248   3.709   5.289
 2601SOL    HW1 8702   4.344   3.691   5.310
 2601SOL    HW2 8703   4.209   3.630   5.241
 2602SOL     OW 8704   6.073   6.559   6.275
 2602SOL    HW1 8705   6.160   6.588   6.316
 2602SOL    HW2 8706   6.063   6.600   6.185
 2603SOL     OW 8707   1.372   1.980   6.487
 2603SOL    HW1 8708   1.436   2.012   6.417
 2603SOL    HW2 8709   1.290   1.944   6.443
 2604SOL     OW 8710   5.841   1.777   1.023
 2604SOL    HW1 8711   5.809   1.691   1.062
 2604SOL    HW2 8712   5.770   1.847   1.033
 2605SOL     OW 8713   6.137   3.206   4.459
 2605SOL    HW1 8714   6.169   3.206   4.553
 2605SOL    HW2 8715   6.206   3.164   4.400
 2606SOL     OW 8716   6.436   4.388   1.300
 2606SOL    HW1 8717   6.529   4.380   1.265
 2606SOL    HW2 8718   6.425   4.476   1.347
 2607SOL     OW 8719   0.951   1.502   4.213
 2607SOL    HW1 8720   0.868   1.522   4.160
 2607SOL    HW2 8721   1.007   1.436   4.163
 2608SOL     OW 8722   5.155   6.920   0.576
 2608SOL    HW1 8723   5.113   6.846   0.629
 2608SOL    HW2 8724   5.148   7.005   0.628
 2609SOL     OW 8725   0.700   2.916   3.158
 2609SOL    HW1 8726   0.621   2.958   3.113
 2609SOL    HW2 8727   0.778   2.978   3.152
 2610SOL     OW 8728   5.196   5.918   4.340
 2610SOL    HW1 8729   5.099   5.945   4.335
 2610SOL    HW2 8730   5.248   5.968   4.271
 2611SOL     OW 8731   2.520   5.663   2.097
 2611SOL    HW1 8732   2.596   5.695   2.040
 2611SOL    HW2 8733   2.479   5.581   2.056
 2612SOL     OW 8734   0.429   6.960   5.489
 2612SOL    HW1 8735   0.448   0.031   5.527
 2612SOL    HW2 8736   0.330   6.949   5.479
 2613SOL     OW 8737   3.631   1.168   0.699
 2613SOL    HW1 8738   3.642   1.196   0.604
 2613SOL    HW2 8739   3.704   1.207   0.755
 2614SOL     OW 8740   6.707   6.039   6.632
 2614SOL    HW1 8741   6.795   6.084   6.641
 2614SOL    HW2 8742   6.634   6.101   6.662
 2615SOL     OW 8743   5.827   4.103   1.409
 2615SOL    HW1 8744   5.874   4.113   1.497
 2615SOL    HW2 8745   5.731   4.079   1.424
 2616SOL     OW 8746   4.157   3.166   1.963
 2616SOL    HW1 8747   4.157   3.162   2.063
 2616SOL    HW2 8748   4.185   3.257   1.934
 2617SOL     OW 8749   2.261   6.502   0.989
 2617SOL    HW1 8750   2.289   6.485   1.083
 2617SOL    HW2 8751   2.233   6.416   0.946
 2618SOL     OW 8752   1.062   6.690   0.223
 2618SOL    HW1 8753   1.111   6.743   0.292
 2618SOL    HW2 8754   1.120   6.617   0.188
 2619SOL     OW 8755   6.252   1.447   1.357
 2619SOL    HW1 8756   6.336   1.492   1.325
 2619SOL    HW2 8757   6.275   1.371   1.417
 2620SOL     OW 8758   1.277   5.869   3.950
 2620SOL    HW1 8759   1.263   5.968   3.952
 2620SOL    HW2 8760   1.366   5.849   3.909
 2621SOL     OW 8761   0.540   5.393   4.252
 2621SOL    HW1 8762   0.563   5.430   4.162
 2621SOL    HW2 8763   0.622   5.353   4.293
 2622SOL     OW 8764   2.490   2.269   5.231
 2622SOL    HW1 8765   2.545   2.339   5.186
 2622SOL    HW2 8766   2.532   2.246   5.319
 2623SOL     OW 8767   3.356   0.120   6.300
 2623SOL    HW1 8768   3.413   0.073   6.367
 2623SOL    HW2 8769   3.311   0.053   6.242
 2624SOL     OW 8770   6.175   2.245   4.154
 2624SOL    HW1 8771   6.099   2.185   4.180
 2624SOL    HW2 8772   6.235   2.259   4.232
 2625SOL     OW 8773   3.421   7.017   5.785
 2625SOL    HW1 8774   3.478   0.078   5.798
 2625SOL    HW2 8775   3.329   0.015   5.820
 2626SOL     OW 8776   1.814   0.154   2.777
 2626SOL    HW1 8777   1.887   0.093   2.807
 2626SOL    HW2 8778   1.813   0.236   2.835
 2627SOL     OW 8779   0.925   0.185   5.066
 2627SOL    HW1 8780   0.939   0.134   4.981
 2627SOL    HW2 8781   0.909   0.122   5.141
 2628SOL     OW 8782   3.731   6.041   0.079
 2628SOL    HW1 8783   3.664   5.983   0.033
 2628SOL    HW2 8784   3.747   6.007   0.171
 2629SOL     OW 8785   2.943   3.697   1.829
 2629SOL    HW1 8786   2.963   3.775   1.888
 2629SOL    HW2 8787   2.930   3.615   1.886
 2630SOL     OW 8788   2.716   2.335   2.700
 2630SOL    HW1 8789   2.620   2.338   2.729
 2630SOL    HW2 8790   2.769   2.284   2.768
 2631SOL     OW 8791   4.090   6.100   4.517
 2631SOL    HW1 8792   4.126   6.187   4.549
 2631SOL    HW2 8793   4.108   6.091   4.419
 2632SOL     OW 8794   4.872   1.460   1.117
 2632SOL    HW1 8795   4.856   1.403   1.036
 2632SOL    HW2 8796   4.938   1.415   1.177
 2633SOL     OW 8797   6.852   2.744   6.608
 2633SOL    HW1 8798   6.907   2.678   6.659
 2633SOL    HW2 8799   6.856   2.833   6.652
 2634SOL     OW 8800   3.306   4.981   0.903
 2634SOL    HW1 8801   3.300   4.997   1.002
 2634SOL    HW2 8802   3.354   5.058   0.860
 2635SOL     OW 8803   6.151   4.723   3.384
 2635SOL    HW1 8804   6.249   4.728   3.362
 2635SOL    HW2 8805   6.105   4.806   3.352
 2636SOL     OW 8806   5.971   5.961   5.446
 2636SOL    HW1 8807   6.067   5.943   5.467
 2636SOL    HW2 8808   5.963   6.001   5.355
 2637SOL     OW 8809   5.201   6.576   2.649
 2637SOL    HW1 8810   5.301   6.567   2.654
 2637SOL    HW2 8811   5.158   6.490   2.676
 2638SOL     OW 8812   4.818   5.920   0.958
 2638SOL    HW1 8813   4.740   5.927   0.896
 2638SOL    HW2 8814   4.902   5.947   0.910
 2639SOL     OW 8815   7.011   6.182   6.197
 2639SOL    HW1 8816   6.914   6.194   6.219
 2639SOL    HW2 8817   0.041   6.158   6.280
 2640SOL     OW 8818   6.356   0.024   6.340
 2640SOL    HW1 8819   6.317   0.116   6.347
 2640SOL    HW2 8820   6.454   0.028   6.360
 2641SOL     OW 8821   6.530   5.826   0.285
 2641SOL    HW1 8822   6.491   5.776   0.208
 2641SOL    HW2 8823   6.504   5.781   0.371
 2642SOL     OW 8824   6.484   0.633   4.005
 2642SOL    HW1 8825   6.489   0.574   4.086
 2642SOL    HW2 8826   6.408   0.698   4.016
 2643SOL     OW 8827   2.262   0.374   2.201
 2643SOL    HW1 8828   2.265   0.302   2.133
 2643SOL    HW2 8829   2.222   0.457   2.161
 2644SOL     OW 8830   6.696   5.686   5.052
 2644SOL    HW1 8831   6.685   5.758   4.984
 2644SOL    HW2 8832   6.727   5.602   5.006
 2645SOL     OW 8833   5.874   5.946   6.277
 2645SOL    HW1 8834   5.901   5.923   6.370
 2645SOL    HW2 8835   5.875   5.863   6.221
 2646SOL     OW 8836   5.726   5.967   7.017
 2646SOL    HW1 8837   5.753   5.885   0.048
 2646SOL    HW2 8838   5.805   6.001   6.966
 2647SOL     OW 8839   3.111   3.326   0.169
 2647SOL    HW1 8840   3.116   3.423   0.146
 2647SOL    HW2 8841   3.121   3.271   0.086
 2648SOL     OW 8842   3.922   1.594   3.803
 2648SOL    HW1 8843   4.010   1.550   3.785
 2648SOL    HW2 8844   3.938   1.683   3.847
 2649SOL     OW 8845   2.800   3.522   5.264
 2649SOL    HW1 8846   2.820   3.620   5.269
 2649SOL    HW2 8847   2.825   3.487   5.173
 2650SOL     OW 8848   0.205   6.590   2.925
 2650SOL    HW1 8849   0.263   6.587   2.844
 2650SOL    HW2 8850   0.254   6.637   2.999
 2651SOL     OW 8851   0.805   0.424   3.369
 2651SOL    HW1 8852   0.897   0.460   3.383
 2651SOL    HW2 8853   0.783   0.361   3.444
 2652SOL     OW 8854   2.894   3.539   2.590
 2652SOL    HW1 8855   2.822   3.549   2.522
 2652SOL    HW2 8856   2.961   3.471   2.558
 2653SOL     OW 8857   6.827   6.440   0.064
 2653SOL    HW1 8858   6.821   6.457   6.986
 2653SOL    HW2 8859   6.752   6.488   0.111
 2654SOL     OW 8860   6.675   1.818   5.909
 2654SOL    HW1 8861   6.735   1.793   5.833
 2654SOL    HW2 8862   6.598   1.870   5.874
 2655SOL     OW 8863   5.369   5.255   4.865
 2655SOL    HW1 8864   5.334   5.331   4.920
 2655SOL    HW2 8865   5.464   5.273   4.840
 2656SOL     OW 8866   5.772   3.423   5.282
 2656SOL    HW1 8867   5.736   3.336   5.250
 2656SOL    HW2 8868   5.745   3.437   5.377
 2657SOL     OW 8869   3.483   1.815   5.978
 2657SOL    HW1 8870   3.390   1.783   5.996
 2657SOL    HW2 8871   3.545   1.778   6.047
 2658SOL     OW 8872   6.208   4.106   5.387
 2658SOL    HW1 8873   6.178   4.176   5.453
 2658SOL    HW2 8874   6.262   4.149   5.315
 2659SOL     OW 8875   6.514   1.450   3.933
 2659SOL    HW1 8876   6.551   1.380   3.993
 2659SOL    HW2 8877   6.579   1.468   3.859
 2660SOL     OW 8878   0.140   2.356   3.240
 2660SOL    HW1 8879   0.076   2.414   3.290
 2660SOL    HW2 8880   0.108   2.343   3.147
 2661SOL     OW 8881   3.590   0.034   2.883
 2661SOL    HW1 8882   3.551   6.978   2.934
 2661SOL    HW2 8883   3.524   0.109   2.878
 2662SOL     OW 8884   3.457   1.091   4.038
 2662SOL    HW1 8885   3.520   1.024   4.078
 2662SOL    HW2 8886   3.509   1.157   3.983
 2663SOL     OW 8887   0.411   4.444   2.977
 2663SOL    HW1 8888   0.463   4.521   3.013
 2663SOL    HW2 8889   0.471   4.364   2.968
 2664SOL     OW 8890   4.236   3.995   1.639
 2664SOL    HW1 8891   4.220   3.952   1.551
 2664SOL    HW2 8892   4.284   4.082   1.626
 2665SOL     OW 8893   4.414   0.128   4.833
 2665SOL    HW1 8894   4.433   0.058   4.901
 2665SOL    HW2 8895   4.454   0.215   4.863
 2666SOL     OW 8896   5.142   6.355   1.783
 2666SOL    HW1 8897   5.194   6.317   1.860
 2666SOL    HW2 8898   5.044   6.348   1.803
 2667SOL     OW 8899   2.057   5.213   2.959
 2667SOL    HW1 8900   2.068   5.294   2.900
 2667SOL    HW2 8901   2.000   5.146   2.912
 2668SOL     OW 8902   6.368   2.338   5.572
 2668SOL    HW1 8903   6.362   2.251   5.524
 2668SOL    HW2 8904   6.350   2.413   5.508
 2669SOL     OW 8905   4.293   5.502   5.318
 2669SOL    HW1 8906   4.343   5.575   5.363
 2669SOL    HW2 8907   4.196   5.508   5.343
 2670SOL     OW 8908   2.750   6.789   4.504
 2670SOL    HW1 8909   2.798   6.710   4.466
 2670SOL    HW2 8910   2.701   6.836   4.431
 2671SOL     OW 8911   3.080   4.428   6.430
 2671SOL    HW1 8912   3.122   4.491   6.364
 2671SOL    HW2 8913   3.150   4.395   6.493
 2672SOL     OW 8914   1.113   4.168   0.183
 2672SOL    HW1 8915   1.124   4.097   0.114
 2672SOL    HW2 8916   1.159   4.140   0.268
 2673SOL     OW 8917   3.804   2.113   3.573
 2673SOL    HW1 8918   3.897   2.077   3.561
 2673SOL    HW2 8919   3.800   2.165   3.658
 2674SOL     OW 8920   6.451   5.596   5.348
 2674SOL    HW1 8921   6.498   5.548   5.274
 2674SOL    HW2 8922   6.361   5.625   5.317
 2675SOL     OW 8923   0.580   4.302   5.400
 2675SOL    HW1 8924   0.586   4.203   5.395
 2675SOL    HW2 8925   0.668   4.339   5.432
 2676SOL     OW 8926   4.560   0.093   1.892
 2676SOL    HW1 8927   4.527   0.004   1.922
 2676SOL    HW2 8928   4.488   0.162   1.904
 2677SOL     OW 8929   2.391   4.600   2.239
 2677SOL    HW1 8930   2.301   4.623   2.201
 2677SOL    HW2 8931   2.462   4.641   2.183
 2678SOL     OW 8932   6.742   6.223   6.280
 2678SOL    HW1 8933   6.684   6.207   6.199
 2678SOL    HW2 8934   6.691   6.278   6.346
 2679SOL     OW 8935   2.619   5.034   1.427
 2679SOL    HW1 8936   2.542   4.977   1.401
 2679SOL    HW2 8937   2.620   5.117   1.371
 2680SOL     OW 8938   1.369   2.517   1.250
 2680SOL    HW1 8939   1.399   2.500   1.156
 2680SOL    HW2 8940   1.287   2.463   1.269
 2681SOL     OW 8941   1.807   1.771   2.039
 2681SOL    HW1 8942   1.894   1.737   2.004
 2681SOL    HW2 8943   1.769   1.837   1.974
 2682SOL     OW 8944   6.282   2.708   4.097
 2682SOL    HW1 8945   6.310   2.679   4.006
 2682SOL    HW2 8946   6.338   2.662   4.166
 2683SOL     OW 8947   1.435   0.139   0.248
 2683SOL    HW1 8948   1.346   0.175   0.275
 2683SOL    HW2 8949   1.424   0.050   0.204
 2684SOL     OW 8950   2.719   5.499   2.869
 2684SOL    HW1 8951   2.804   5.447   2.863
 2684SOL    HW2 8952   2.729   5.586   2.821
 2685SOL     OW 8953   5.429   5.915   5.518
 2685SOL    HW1 8954   5.367   5.969   5.575
 2685SOL    HW2 8955   5.523   5.948   5.530
 2686SOL     OW 8956   1.335   2.953   4.374
 2686SOL    HW1 8957   1.346   3.033   4.432
 2686SOL    HW2 8958   1.239   2.924   4.375
 2687SOL     OW 8959   4.744   4.606   3.339
 2687SOL    HW1 8960   4.663   4.590   3.283
 2687SOL    HW2 8961   4.722   4.670   3.413
 2688SOL     OW 8962   3.806   4.847   5.845
 2688SOL    HW1 8963   3.855   4.859   5.759
 2688SOL    HW2 8964   3.867   4.805   5.912
 2689SOL     OW 8965   6.622   3.282   4.375
 2689SOL    HW1 8966   6.664   3.239   4.455
 2689SOL    HW2 8967   6.670   3.367   4.353
 2690SOL     OW 8968   2.916   3.281   3.266
 2690SOL    HW1 8969   2.906   3.217   3.190
 2690SOL    HW2 8970   2.913   3.375   3.231
 2691SOL     OW 8971   1.191   6.148   1.945
 2691SOL    HW1 8972   1.277   6.113   1.982
 2691SOL    HW2 8973   1.199   6.157   1.845
 2692SOL     OW 8974   0.117   5.441   3.167
 2692SOL    HW1 8975   0.058   5.485   3.235
 2692SOL    HW2 8976   0.208   5.429   3.206
 2693SOL     OW 8977   1.770   3.485   3.085
 2693SOL    HW1 8978   1.700   3.441   3.030
 2693SOL    HW2 8979   1.857   3.484   3.036
 2694SOL     OW 8980   2.051   1.394   2.741
 2694SOL    HW1 8981   2.063   1.431   2.833
 2694SOL    HW2 8982   2.110   1.444   2.677
 2695SOL     OW 8983   4.121   2.117   2.808
 2695SOL    HW1 8984   4.040   2.114   2.866
 2695SOL    HW2 8985   4.093   2.109   2.712
 2696SOL     OW 8986   4.179   3.968   5.314
 2696SOL    HW1 8987   4.223   3.882   5.285
 2696SOL    HW2 8988   4.124   3.951   5.396
 2697SOL     OW 8989   2.745   1.262   4.981
 2697SOL    HW1 8990   2.743   1.353   5.023
 2697SOL    HW2 8991   2.662   1.248   4.927
 2698SOL     OW 8992   1.928   2.716   6.336
 2698SOL    HW1 8993   1.932   2.764   6.249
 2698SOL    HW2 8994   1.839   2.671   6.345
 2699SOL     OW 8995   2.009   6.119   2.541
 2699SOL    HW1 8996   2.108   6.137   2.539
 2699SOL    HW2 8997   1.974   6.145   2.631
 2700SOL     OW 8998   1.789   4.472   3.070
 2700SOL    HW1 8999   1.858   4.400   3.079
 2700SOL    HW2 9000   1.713   4.438   3.015
 2701SOL     OW 9001   3.462   0.295   5.801
 2701SOL    HW1 9002   3.363   0.289   5.796
 2701SOL    HW2 9003   3.492   0.385   5.772
 2702SOL     OW 9004   6.954   6.199   2.738
 2702SOL    HW1 9005   6.983   6.181   2.832
 2702SOL    HW2 9006   6.882   6.269   2.739
 2703SOL     OW 9007   1.699   1.882   3.203
 2703SOL    HW1 9008   1.718   1.820   3.127
 2703SOL    HW2 9009   1.771   1.952   3.208
 2704SOL     OW 9010   1.482   6.253   0.541
 2704SOL    HW1 9011   1.486   6.305   0.626
 2704SOL    HW2 9012   1.392   6.211   0.532
 2705SOL     OW 9013   0.525   4.185   2.855
 2705SOL    HW1 9014   0.541   4.225   2.765
 2705SOL    HW2 9015   0.522   4.085   2.847
 2706SOL     OW 9016   6.334   2.212   3.009
 2706SOL    HW1 9017   6.381   2.219   2.921
 2706SOL    HW2 9018   6.383   2.149   3.068
 2707SOL     OW 9019   2.826   1.196   6.145
 2707SOL    HW1 9020   2.917   1.239   6.147
 2707SOL    HW2 9021   2.756   1.267   6.145
 2708SOL     OW 9022   1.435   4.316   0.587
 2708SOL    HW1 9023   1.436   4.217   0.569
 2708SOL    HW2 9024   1.359   4.358   0.538
 2709SOL     OW 9025   4.226   6.743   1.815
 2709SOL    HW1 9026   4.198   6.759   1.910
 2709SOL    HW2 9027   4.146   6.751   1.755
 2710SOL     OW 9028   6.468   3.962   2.699
 2710SOL    HW1 9029   6.554   3.967   2.751
 2710SOL    HW2 9030   6.479   3.897   2.624
 2711SOL     OW 9031   1.282   0.012   2.234
 2711SOL    HW1 9032   1.358   7.008   2.174
 2711SOL    HW2 9033   1.307   0.091   2.290
 2712SOL     OW 9034   3.530   5.387   2.584
 2712SOL    HW1 9035   3.557   5.324   2.512
 2712SOL    HW2 9036   3.549   5.481   2.556
 2713SOL     OW 9037   2.056   2.483   5.263
 2713SOL    HW1 9038   2.030   2.576   5.239
 2713SOL    HW2 9039   2.139   2.485   5.319
 2714SOL     OW 9040   5.523   6.749   5.950
 2714SOL    HW1 9041   5.562   6.824   6.003
 2714SOL    HW2 9042   5.509   6.670   6.010
 2715SOL     OW 9043   6.049   0.112   0.078
 2715SOL    HW1 9044   6.047   0.132   0.176
 2715SOL    HW2 9045   5.960   0.134   0.038
 2716SOL     OW 9046   6.792   6.441   2.717
 2716SOL    HW1 9047   6.791   6.468   2.620
 2716SOL    HW2 9048   6.847   6.506   2.769
 2717SOL     OW 9049   0.484   0.280   2.919
 2717SOL    HW1 9050   0.545   0.202   2.907
 2717SOL    HW2 9051   0.534   0.365   2.902
 2718SOL     OW 9052   0.654   4.134   3.346
 2718SOL    HW1 9053   0.723   4.160   3.413
 2718SOL    HW2 9054   0.665   4.189   3.263
 2719SOL     OW 9055   4.245   4.767   2.859
 2719SOL    HW1 9056   4.186   4.746   2.936
 2719SOL    HW2 9057   4.270   4.864   2.861
 2720SOL     OW 9058   0.889   6.295   3.927
 2720SOL    HW1 9059   0.802   6.344   3.926
 2720SOL    HW2 9060   0.914   6.267   3.834
 2721SOL     OW 9061   4.968   6.556   3.944
 2721SOL    HW1 9062   5.065   6.570   3.962
 2721SOL    HW2 9063   4.943   6.462   3.967
 2722SOL     OW 9064   1.415   6.102   1.372
 2722SOL    HW1 9065   1.372   6.042   1.439
 2722SOL    HW2 9066   1.498   6.143   1.410
 2723SOL     OW 9067   2.044   1.701   4.552
 2723SOL    HW1 9068   2.140   1.727   4.563
 2723SOL    HW2 9069   2.029   1.668   4.459
 2724SOL     OW 9070   3.751   6.214   6.094
 2724SOL    HW1 9071   3.844   6.241   6.120
 2724SOL    HW2 9072   3.720   6.140   6.153
 2725SOL     OW 9073   2.988   4.840   3.948
 2725SOL    HW1 9074   2.972   4.856   4.045
 2725SOL    HW2 9075   3.073   4.885   3.920
 2726SOL     OW 9076   4.528   6.795   2.220
 2726SOL    HW1 9077   4.581   6.770   2.139
 2726SOL    HW2 9078   4.539   6.725   2.291
 2727SOL     OW 9079   2.227   5.810   3.422
 2727SOL    HW1 9080   2.176   5.724   3.416
 2727SOL    HW2 9081   2.325   5.790   3.431
 2728SOL     OW 9082   3.507   6.821   5.320
 2728SOL    HW1 9083   3.575   6.749   5.315
 2728SOL    HW2 9084   3.542   6.904   5.276
 2729SOL     OW 9085   6.891   4.815   2.904
 2729SOL    HW1 9086   6.903   4.716   2.907
 2729SOL    HW2 9087   6.818   4.842   2.967
 2730SOL     OW 9088   1.276   4.744   1.766
 2730SOL    HW1 9089   1.301   4.799   1.846
 2730SOL    HW2 9090   1.181   4.714   1.774
 2731SOL     OW 9091   2.988   3.801   1.087
 2731SOL    HW1 9092   2.929   3.853   1.025
 2731SOL    HW2 9093   3.018   3.717   1.042
 2732SOL     OW 9094   5.193   3.258   4.621
 2732SOL    HW1 9095   5.134   3.194   4.573
 2732SOL    HW2 9096   5.218   3.334   4.560
 2733SOL     OW 9097   2.364   0.565   6.065
 2733SOL    HW1 9098   2.449   0.517   6.043
 2733SOL    HW2 9099   2.360   0.583   6.163
 2734SOL     OW 9100   2.742   0.232   4.001
 2734SOL    HW1 9101   2.679   0.154   3.995
 2734SOL    HW2 9102   2.835   0.202   3.979
 2735SOL     OW 9103   1.607   5.068   1.184
 2735SOL    HW1 9104   1.519   5.082   1.228
 2735SOL    HW2 9105   1.593   5.040   1.089
 2736SOL     OW 9106   3.378   6.976   6.752
 2736SOL    HW1 9107   3.351   6.880   6.758
 2736SOL    HW2 9108   3.297   0.014   6.759
 2737SOL     OW 9109   4.381   3.167   5.558
 2737SOL    HW1 9110   4.470   3.211   5.544
 2737SOL    HW2 9111   4.353   3.121   5.473
 2738SOL     OW 9112   5.652   4.140   4.241
 2738SOL    HW1 9113   5.655   4.111   4.336
 2738SOL    HW2 9114   5.739   4.116   4.196
 2739SOL     OW 9115   4.770   4.311   0.354
 2739SOL    HW1 9116   4.678   4.342   0.331
 2739SOL    HW2 9117   4.822   4.386   0.394
 2740SOL     OW 9118   6.119   2.427   3.639
 2740SOL    HW1 9119   6.176   2.502   3.606
 2740SOL    HW2 9120   6.069   2.456   3.721
 2741SOL     OW 9121   2.080   3.323   4.677
 2741SOL    HW1 9122   2.108   3.366   4.763
 2741SOL    HW2 9123   1.991   3.359   4.649
 2742SOL     OW 9124   2.674   6.208   5.562
 2742SOL    HW1 9125   2.653   6.241   5.470
 2742SOL    HW2 9126   2.771   6.225   5.582
 2743SOL     OW 9127   6.249   4.370   0.139
 2743SOL    HW1 9128   6.247   4.271   0.151
 2743SOL    HW2 9129   6.300   4.412   0.214
 2744SOL     OW 9130   4.359   0.431   0.896
 2744SOL    HW1 9131   4.423   0.441   0.973
 2744SOL    HW2 9132   4.322   0.339   0.895
 2745SOL     OW 9133   2.243   5.790   1.409
 2745SOL    HW1 9134   2.245   5.706   1.355
 2745SOL    HW2 9135   2.333   5.835   1.405
 2746SOL     OW 9136   1.126   2.341   6.201
 2746SOL    HW1 9137   1.135   2.304   6.108
 2746SOL    HW2 9138   1.057   2.414   6.201
 2747SOL     OW 9139   5.457   5.735   3.572
 2747SOL    HW1 9140   5.479   5.672   3.647
 2747SOL    HW2 9141   5.537   5.790   3.550
 2748SOL     OW 9142   4.828   0.676   4.507
 2748SOL    HW1 9143   4.843   0.669   4.409
 2748SOL    HW2 9144   4.832   0.586   4.549
 2749SOL     OW 9145   4.889   4.349   3.743
 2749SOL    HW1 9146   4.878   4.261   3.788
 2749SOL    HW2 9147   4.925   4.337   3.651
 2750SOL     OW 9148   0.434   6.573   0.373
 2750SOL    HW1 9149   0.442   6.628   0.291
 2750SOL    HW2 9150   0.525   6.548   0.406
 2751SOL     OW 9151   1.711   0.345   6.790
 2751SOL    HW1 9152   1.673   0.252   6.796
 2751SOL    HW2 9153   1.746   0.373   6.879
 2752SOL     OW 9154   0.163   6.587   5.880
 2752SOL    HW1 9155   0.097   6.563   5.951
 2752SOL    HW2 9156   0.250   6.540   5.897
 2753SOL     OW 9157   3.631   5.110   5.423
 2753SOL    HW1 9158   3.724   5.075   5.409
 2753SOL    HW2 9159   3.622   5.144   5.516
 2754SOL     OW 9160   1.003   5.915   4.245
 2754SOL    HW1 9161   0.991   6.001   4.196
 2754SOL    HW2 9162   1.100   5.888   4.242
 2755SOL     OW 9163   4.666   5.677   2.452
 2755SOL    HW1 9164   4.669   5.761   2.507
 2755SOL    HW2 9165   4.598   5.688   2.379
 2756SOL     OW 9166   0.622   2.880   5.417
 2756SOL    HW1 9167   0.647   2.920   5.329
 2756SOL    HW2 9168   0.526   2.853   5.415
 2757SOL     OW 9169   5.040   3.923   6.630
 2757SOL    HW1 9170   4.949   3.946   6.664
 2757SOL    HW2 9171   5.096   3.888   6.705
 2758SOL     OW 9172   6.783   6.704   1.822
 2758SOL    HW1 9173   6.815   6.649   1.745
 2758SOL    HW2 9174   6.826   6.672   1.906
 2759SOL     OW 9175   3.278   3.597   5.311
 2759SOL    HW1 9176   3.230   3.663   5.368
 2759SOL    HW2 9177   3.216   3.561   5.242
 2760SOL     OW 9178   5.665   5.488   2.798
 2760SOL    HW1 9179   5.582   5.452   2.755
 2760SOL    HW2 9180   5.654   5.585   2.816
 2761SOL     OW 9181   1.535   3.344   3.906
 2761SOL    HW1 9182   1.566   3.259   3.863
 2761SOL    HW2 9183   1.611   3.385   3.957
 2762SOL     OW 9184   4.119   1.501   1.384
 2762SOL    HW1 9185   4.176   1.458   1.313
 2762SOL    HW2 9186   4.121   1.445   1.466
 2763SOL     OW 9187   5.816   1.372   3.694
 2763SOL    HW1 9188   5.791   1.414   3.782
 2763SOL    HW2 9189   5.733   1.357   3.640
 2764SOL     OW 9190   0.146   2.760   3.295
 2764SOL    HW1 9191   0.241   2.732   3.282
 2764SOL    HW2 9192   0.122   2.830   3.228
 2765SOL     OW 9193   6.410   6.279   5.699
 2765SOL    HW1 9194   6.405   6.377   5.716
 2765SOL    HW2 9195   6.484   6.260   5.635
 2766SOL     OW 9196   4.528   0.206   0.375
 2766SOL    HW1 9197   4.467   0.134   0.406
 2766SOL    HW2 9198   4.599   0.168   0.316
 2767SOL     OW 9199   0.598   5.430   6.047
 2767SOL    HW1 9200   0.575   5.337   6.018
 2767SOL    HW2 9201   0.567   5.495   5.978
 2768SOL     OW 9202   3.380   6.107   1.796
 2768SOL    HW1 9203   3.437   6.031   1.827
 2768SOL    HW2 9204   3.341   6.154   1.875
 2769SOL     OW 9205   0.560   4.598   5.509
 2769SOL    HW1 9206   0.647   4.622   5.551
 2769SOL    HW2 9207   0.570   4.513   5.457
 2770SOL     OW 9208   2.070   0.133   0.560
 2770SOL    HW1 9209   1.971   0.138   0.558
 2770SOL    HW2 9210   2.099   0.067   0.630
 2771SOL     OW 9211   4.337   6.704   5.295
 2771SOL    HW1 9212   4.375   6.735   5.208
 2771SOL    HW2 9213   4.357   6.772   5.366
 2772SOL     OW 9214   5.126   1.377   3.289
 2772SOL    HW1 9215   5.033   1.406   3.268
 2772SOL    HW2 9216   5.145   1.289   3.245
 2773SOL     OW 9217   5.386   2.301   6.094
 2773SOL    HW1 9218   5.436   2.271   6.175
 2773SOL    HW2 9219   5.378   2.225   6.029
 2774SOL     OW 9220   6.518   0.365   4.132
 2774SOL    HW1 9221   6.450   0.359   4.060
 2774SOL    HW2 9222   6.610   0.366   4.092
 2775SOL     OW 9223   0.374   2.547   4.848
 2775SOL    HW1 9224   0.310   2.621   4.866
 2775SOL    HW2 9225   0.443   2.544   4.919
 2776SOL     OW 9226   4.929   4.475   6.132
 2776SOL    HW1 9227   4.889   4.483   6.224
 2776SOL    HW2 9228   5.028   4.461   6.140
 2777SOL     OW 9229   2.040   2.430   6.927
 2777SOL    HW1 9230   2.050   2.398   0.001
 2777SOL    HW2 9231   1.994   2.519   6.927
 2778SOL     OW 9232   3.490   0.433   6.080
 2778SOL    HW1 9233   3.498   0.368   6.004
 2778SOL    HW2 9234   3.418   0.403   6.143
 2779SOL     OW 9235   5.392   1.113   2.322
 2779SOL    HW1 9236   5.349   1.056   2.251
 2779SOL    HW2 9237   5.418   1.056   2.399
 2780SOL     OW 9238   0.018   1.248   4.953
 2780SOL    HW1 9239   6.990   1.297   4.881
 2780SOL    HW2 9240   0.091   1.192   4.912
 2781SOL     OW 9241   0.114   0.447   3.251
 2781SOL    HW1 9242   0.207   0.437   3.214
 2781SOL    HW2 9243   0.068   0.522   3.205
 2782SOL     OW 9244   5.568   0.036   5.422
 2782SOL    HW1 9245   5.586   6.964   5.457
 2782SOL    HW2 9246   5.655   0.083   5.406
 2783SOL     OW 9247   5.588   2.798   1.415
 2783SOL    HW1 9248   5.591   2.745   1.500
 2783SOL    HW2 9249   5.646   2.880   1.425
 2784SOL     OW 9250   6.918   3.011   1.804
 2784SOL    HW1 9251   6.876   2.974   1.721
 2784SOL    HW2 9252   6.869   3.093   1.832
 2785SOL     OW 9253   4.924   3.744   2.858
 2785SOL    HW1 9254   5.011   3.759   2.812
 2785SOL    HW2 9255   4.918   3.650   2.890
 2786SOL     OW 9256   0.680   5.986   0.557
 2786SOL    HW1 9257   0.662   5.893   0.588
 2786SOL    HW2 9258   0.596   6.027   0.523
 2787SOL     OW 9259   0.539   5.825   5.561
 2787SOL    HW1 9260   0.442   5.839   5.578
 2787SOL    HW2 9261   0.592   5.891   5.615
 2788SOL     OW 9262   2.973   6.696   0.498
 2788SOL    HW1 9263   3.037   6.771   0.483
 2788SOL    HW2 9264   2.998   6.619   0.441
 2789SOL     OW 9265   1.868   2.222   4.098
 2789SOL    HW1 9266   1.784   2.200   4.146
 2789SOL    HW2 9267   1.923   2.284   4.154
 2790SOL     OW 9268   0.202   5.299   1.599
 2790SOL    HW1 9269   0.105   5.293   1.622
 2790SOL    HW2 9270   0.234   5.392   1.613
 2791SOL     OW 9271   0.706   3.451   4.726
 2791SOL    HW1 9272   0.641   3.506   4.779
 2791SOL    HW2 9273   0.702   3.478   4.630
 2792SOL     OW 9274   2.856   1.570   6.156
 2792SOL    HW1 9275   2.948   1.545   6.185
 2792SOL    HW2 9276   2.837   1.528   6.067
 2793SOL     OW 9277   3.643   3.617   6.616
 2793SOL    HW1 9278   3.589   3.577   6.542
 2793SOL    HW2 9279   3.652   3.715   6.601
 2794SOL     OW 9280   2.193   2.083   0.120
 2794SOL    HW1 9281   2.098   2.054   0.126
 2794SOL    HW2 9282   2.197   2.183   0.111
 2795SOL     OW 9283   1.322   6.714   0.824
 2795SOL    HW1 9284   1.286   6.622   0.806
 2795SOL    HW2 9285   1.269   6.756   0.897
 2796SOL     OW 9286   2.489   5.957   6.755
 2796SOL    HW1 9287   2.519   5.878   6.701
 2796SOL    HW2 9288   2.567   5.998   6.801
 2797SOL     OW 9289   5.107   3.876   3.940
 2797SOL    HW1 9290   5.203   3.889   3.966
 2797SOL    HW2 9291   5.051   3.868   4.022
 2798SOL     OW 9292   5.072   2.230   2.135
 2798SOL    HW1 9293   5.163   2.200   2.107
 2798SOL    HW2 9294   5.015   2.150   2.154
 2799SOL     OW 9295   3.454   6.367   5.536
 2799SOL    HW1 9296   3.501   6.302   5.476
 2799SOL    HW2 9297   3.372   6.402   5.490
 2800SOL     OW 9298   4.766   0.836   6.644
 2800SOL    HW1 9299   4.827   0.895   6.591
 2800SOL    HW2 9300   4.799   0.828   6.738
 2801SOL     OW 9301   0.541   4.531   3.864
 2801SOL    HW1 9302   0.471   4.460   3.876
 2801SOL    HW2 9303   0.517   4.588   3.786
 2802SOL     OW 9304   1.234   5.073   4.790
 2802SOL    HW1 9305   1.157   5.031   4.741
 2802SOL    HW2 9306   1.317   5.065   4.734
 2803SOL     OW 9307   3.934   2.491   6.571
 2803SOL    HW1 9308   3.945   2.588   6.593
 2803SOL    HW2 9309   3.949   2.437   6.654
 2804SOL     OW 9310   6.306   2.613   3.582
 2804SOL    HW1 9311   6.382   2.575   3.530
 2804SOL    HW2 9312   6.270   2.693   3.533
 2805SOL     OW 9313   4.307   4.558   0.366
 2805SOL    HW1 9314   4.367   4.620   0.317
 2805SOL    HW2 9315   4.252   4.610   0.432
 2806SOL     OW 9316   0.369   3.391   5.239
 2806SOL    HW1 9317   0.400   3.299   5.262
 2806SOL    HW2 9318   0.440   3.437   5.185
 2807SOL     OW 9319   4.602   1.414   3.618
 2807SOL    HW1 9320   4.701   1.426   3.625
 2807SOL    HW2 9321   4.575   1.334   3.672
 2808SOL     OW 9322   1.261   6.182   5.576
 2808SOL    HW1 9323   1.186   6.139   5.627
 2808SOL    HW2 9324   1.335   6.115   5.564
 2809SOL     OW 9325   0.810   5.852   1.251
 2809SOL    HW1 9326   0.899   5.881   1.216
 2809SOL    HW2 9327   0.738   5.908   1.209
 2810SOL     OW 9328   0.515   6.218   3.036
 2810SOL    HW1 9329   0.572   6.212   3.118
 2810SOL    HW2 9330   0.540   6.144   2.973
 2811SOL     OW 9331   0.558   1.133   0.718
 2811SOL    HW1 9332   0.551   1.188   0.636
 2811SOL    HW2 9333   0.467   1.117   0.756
 2812SOL     OW 9334   1.622   1.338   1.042
 2812SOL    HW1 9335   1.709   1.292   1.060
 2812SOL    HW2 9336   1.634   1.402   0.966
 2813SOL     OW 9337   7.000   2.438   0.637
 2813SOL    HW1 9338   6.926   2.377   0.666
 2813SOL    HW2 9339   0.066   2.387   0.635
 2814SOL     OW 9340   2.646   4.237   6.581
 2814SOL    HW1 9341   2.732   4.205   6.540
 2814SOL    HW2 9342   2.583   4.264   6.509
 2815SOL     OW 9343   6.999   5.383   4.684
 2815SOL    HW1 9344   6.944   5.321   4.628
 2815SOL    HW2 9345   0.034   5.329   4.749
 2816SOL     OW 9346   1.278   5.150   5.045
 2816SOL    HW1 9347   1.253   5.131   4.950
 2816SOL    HW2 9348   1.377   5.146   5.055
 2817SOL     OW 9349   2.721   0.874   2.422
 2817SOL    HW1 9350   2.731   0.946   2.491
 2817SOL    HW2 9351   2.630   0.834   2.429
 2818SOL     OW 9352   1.117   1.044   0.240
 2818SOL    HW1 9353   1.027   1.054   0.199
 2818SOL    HW2 9354   1.187   1.045   0.169
 2819SOL     OW 9355   0.387   6.974   6.457
 2819SOL    HW1 9356   0.425   0.042   6.426
 2819SOL    HW2 9357   0.295   6.963   6.419
 2820SOL     OW 9358   2.378   1.643   6.985
 2820SOL    HW1 9359   2.424   1.605   6.904
 2820SOL    HW2 9360   2.323   1.722   6.957
 2821SOL     OW 9361   3.485   2.354   5.983
 2821SOL    HW1 9362   3.415   2.426   5.981
 2821SOL    HW2 9363   3.522   2.343   5.891
 2822SOL     OW 9364   4.111   2.783   0.621
 2822SOL    HW1 9365   4.181   2.724   0.582
 2822SOL    HW2 9366   4.102   2.765   0.719
 2823SOL     OW 9367   5.766   3.756   1.905
 2823SOL    HW1 9368   5.715   3.746   1.991
 2823SOL    HW2 9369   5.784   3.666   1.866
 2824SOL     OW 9370   0.856   4.375   5.397
 2824SOL    HW1 9371   0.882   4.329   5.312
 2824SOL    HW2 9372   0.898   4.466   5.399
 2825SOL     OW 9373   5.159   2.256   5.853
 2825SOL    HW1 9374   5.087   2.227   5.916
 2825SOL    HW2 9375   5.244   2.210   5.876
 2826SOL     OW 9376   2.556   3.535   6.888
 2826SOL    HW1 9377   2.602   3.458   6.934
 2826SOL    HW2 9378   2.491   3.577   6.952
 2827SOL     OW 9379   6.281   1.467   6.360
 2827SOL    HW1 9380   6.329   1.487   6.274
 2827SOL    HW2 9381   6.348   1.450   6.432
 2828SOL     OW 9382   1.551   3.997   0.938
 2828SOL    HW1 9383   1.540   4.031   1.031
 2828SOL    HW2 9384   1.469   4.020   0.885
 2829SOL     OW 9385   3.476   3.944   1.872
 2829SOL    HW1 9386   3.465   3.846   1.886
 2829SOL    HW2 9387   3.408   3.976   1.805
 2830SOL     OW 9388   3.516   6.166   4.608
 2830SOL    HW1 9389   3.465   6.126   4.532
 2830SOL    HW2 9390   3.613   6.142   4.599
 2831SOL     OW 9391   6.635   1.654   2.116
 2831SOL    HW1 9392   6.636   1.714   2.035
 2831SOL    HW2 9393   6.543   1.654   2.156
 2832SOL     OW 9394   1.398   3.583   1.868
 2832SOL    HW1 9395   1.475   3.623   1.918
 2832SOL    HW2 9396   1.318   3.643   1.876
 2833SOL     OW 9397   6.545   2.945   3.217
 2833SOL    HW1 9398   6.565   3.026   3.272
 2833SOL    HW2 9399   6.575   2.863   3.266
 2834SOL     OW 9400   3.804   0.760   4.575
 2834SOL    HW1 9401   3.733   0.818   4.617
 2834SOL    HW2 9402   3.883   0.817   4.553
 2835SOL     OW 9403   6.712   1.122   6.910
 2835SOL    HW1 9404   6.684   1.107   7.005
 2835SOL    HW2 9405   6.807   1.094   6.898
 2836SOL     OW 9406   2.798   5.743   1.972
 2836SOL    HW1 9407   2.832   5.823   2.022
 2836SOL    HW2 9408   2.874   5.698   1.925
 2837SOL     OW 9409   5.443   3.861   1.798
 2837SOL    HW1 9410   5.419   3.901   1.886
 2837SOL    HW2 9411   5.467   3.765   1.810
 2838SOL     OW 9412   6.676   3.621   6.030
 2838SOL    HW1 9413   6.695   3.573   5.944
 2838SOL    HW2 9414   6.762   3.653   6.070
 2839SOL     OW 9415   5.895   2.684   6.361
 2839SOL    HW1 9416   5.890   2.622   6.282
 2839SOL    HW2 9417   5.840   2.648   6.436
 2840SOL     OW 9418   5.603   6.252   4.954
 2840SOL    HW1 9419   5.612   6.322   5.025
 2840SOL    HW2 9420   5.511   6.257   4.914
 2841SOL     OW 9421   5.523   3.870   2.656
 2841SOL    HW1 9422   5.488   3.942   2.597
 2841SOL    HW2 9423   5.497   3.781   2.619
 2842SOL     OW 9424   0.637   6.956   3.466
 2842SOL    HW1 9425   0.612   0.020   3.514
 2842SOL    HW2 9426   0.605   6.962   3.371
 2843SOL     OW 9427   2.034   2.632   4.686
 2843SOL    HW1 9428   2.040   2.615   4.784
 2843SOL    HW2 9429   2.019   2.730   4.670
 2844SOL     OW 9430   4.988   3.489   0.490
 2844SOL    HW1 9431   5.057   3.466   0.558
 2844SOL    HW2 9432   4.995   3.585   0.465
 2845SOL     OW 9433   3.374   1.601   1.450
 2845SOL    HW1 9434   3.378   1.503   1.466
 2845SOL    HW2 9435   3.419   1.649   1.525
 2846SOL     OW 9436   5.121   6.501   6.847
 2846SOL    HW1 9437   5.083   6.409   6.858
 2846SOL    HW2 9438   5.161   6.532   6.933
 2847SOL     OW 9439   5.140   5.003   1.408
 2847SOL    HW1 9440   5.141   5.005   1.308
 2847SOL    HW2 9441   5.212   5.063   1.444
 2848SOL     OW 9442   0.420   4.077   6.625
 2848SOL    HW1 9443   0.479   4.072   6.544
 2848SOL    HW2 9444   0.415   4.171   6.656
 2849SOL     OW 9445   5.298   0.313   1.699
 2849SOL    HW1 9446   5.199   0.302   1.700
 2849SOL    HW2 9447   5.329   0.351   1.786
 2850SOL     OW 9448   0.563   1.178   1.525
 2850SOL    HW1 9449   0.576   1.273   1.552
 2850SOL    HW2 9450   0.643   1.146   1.474
 2851SOL     OW 9451   3.520   3.503   1.735
 2851SOL    HW1 9452   3.525   3.412   1.694
 2851SOL    HW2 9453   3.469   3.564   1.675
 2852SOL     OW 9454   0.337   5.574   5.147
 2852SOL    HW1 9455   0.400   5.651   5.152
 2852SOL    HW2 9456   0.306   5.563   5.052
 2853SOL     OW 9457   0.322   4.348   4.988
 2853SOL    HW1 9458   0.416   4.372   5.014
 2853SOL    HW2 9459   0.314   4.351   4.888
 2854SOL     OW 9460   3.046   0.325   6.449
 2854SOL    HW1 9461   3.127   0.320   6.506
 2854SOL    HW2 9462   2.974   0.375   6.497
 2855SOL     OW 9463   2.120   1.641   4.280
 2855SOL    HW1 9464   2.045   1.660   4.217
 2855SOL    HW2 9465   2.205   1.680   4.244
 2856SOL     OW 9466   1.304   5.896   4.738
 2856SOL    HW1 9467   1.379   5.945   4.692
 2856SOL    HW2 9468   1.299   5.803   4.703
 2857SOL     OW 9469   6.929   4.029   0.665
 2857SOL    HW1 9470   6.883   4.118   0.657
 2857SOL    HW2 9471   6.962   4.018   0.759
 2858SOL     OW 9472   5.767   4.646   3.689
 2858SOL    HW1 9473   5.803   4.580   3.623
 2858SOL    HW2 9474   5.786   4.738   3.657
 2859SOL     OW 9475   6.024   5.157   1.505
 2859SOL    HW1 9476   5.990   5.068   1.474
 2859SOL    HW2 9477   6.057   5.209   1.426
 2860SOL     OW 9478   1.364   6.769   3.280
 2860SOL    HW1 9479   1.358   6.674   3.250
 2860SOL    HW2 9480   1.277   6.798   3.320
 2861SOL     OW 9481   5.241   3.995   5.397
 2861SOL    HW1 9482   5.161   4.043   5.361
 2861SOL    HW2 9483   5.293   3.955   5.321
 2862SOL     OW 9484   4.346   0.904   0.364
 2862SOL    HW1 9485   4.341   0.847   0.446
 2862SOL    HW2 9486   4.440   0.905   0.330
 2863SOL     OW 9487   5.390   2.111   5.891
 2863SOL    HW1 9488   5.451   2.075   5.962
 2863SOL    HW2 9489   5.431   2.097   5.801
 2864SOL     OW 9490   4.210   4.145   1.263
 2864SOL    HW1 9491   4.199   4.121   1.167
 2864SOL    HW2 9492   4.219   4.061   1.317
 2865SOL     OW 9493   5.698   4.918   6.101
 2865SOL    HW1 9494   5.785   4.880   6.131
 2865SOL    HW2 9495   5.702   5.018   6.105
 2866SOL     OW 9496   3.964   4.916   0.779
 2866SOL    HW1 9497   3.971   4.828   0.826
 2866SOL    HW2 9498   3.927   4.985   0.842
 2867SOL     OW 9499   6.885   5.964   2.618
 2867SOL    HW1 9500   6.937   5.878   2.619
 2867SOL    HW2 9501   6.928   6.030   2.679
 2868SOL     OW 9502   0.149   6.872   5.469
 2868SOL    HW1 9503   0.136   6.790   5.414
 2868SOL    HW2 9504   0.173   6.845   5.563
 2869SOL     OW 9505   5.902   4.676   5.034
 2869SOL    HW1 9506   5.813   4.643   5.066
 2869SOL    HW2 9507   5.942   4.608   4.972
 2870SOL     OW 9508   0.912   1.499   1.506
 2870SOL    HW1 9509   0.952   1.431   1.443
 2870SOL    HW2 9510   0.981   1.527   1.572
 2871SOL     OW 9511   4.883   1.469   3.240
 2871SOL    HW1 9512   4.867   1.453   3.142
 2871SOL    HW2 9513   4.814   1.534   3.274
 2872SOL     OW 9514   3.086   1.805   2.499
 2872SOL    HW1 9515   3.002   1.854   2.478
 2872SOL    HW2 9516   3.089   1.719   2.448
 2873SOL     OW 9517   0.999   6.804   2.597
 2873SOL    HW1 9518   1.071   6.813   2.528
 2873SOL    HW2 9519   0.910   6.818   2.554
 2874SOL     OW 9520   2.118   1.292   3.361
 2874SOL    HW1 9521   2.163   1.357   3.299
 2874SOL    HW2 9522   2.020   1.291   3.342
 2875SOL     OW 9523   2.391   0.222   3.512
 2875SOL    HW1 9524   2.407   0.124   3.496
 2875SOL    HW2 9525   2.419   0.274   3.431
 2876SOL     OW 9526   0.757   6.768   1.149
 2876SOL    HW1 9527   0.764   6.868   1.151
 2876SOL    HW2 9528   0.670   6.741   1.108
 2877SOL     OW 9529   1.572   3.009   5.300
 2877SOL    HW1 9530   1.560   2.936   5.367
 2877SOL    HW2 9531   1.664   3.004   5.261
 2878SOL     OW 9532   3.211   2.947   4.997
 2878SOL    HW1 9533   3.134   2.883   5.005
 2878SOL    HW2 9534   3.227   2.968   4.900
 2879SOL     OW 9535   4.955   5.392   0.328
 2879SOL    HW1 9536   4.956   5.485   0.293
 2879SOL    HW2 9537   4.957   5.328   0.252
 2880SOL     OW 9538   1.046   2.114   3.329
 2880SOL    HW1 9539   1.086   2.022   3.327
 2880SOL    HW2 9540   1.057   2.157   3.240
 2881SOL     OW 9541   5.148   5.048   0.501
 2881SOL    HW1 9542   5.135   4.977   0.570
 2881SOL    HW2 9543   5.206   5.121   0.538
 2882SOL     OW 9544   4.412   6.862   6.845
 2882SOL    HW1 9545   4.469   6.799   6.793
 2882SOL    HW2 9546   4.345   6.905   6.784
 2883SOL     OW 9547   5.468   6.057   3.498
 2883SOL    HW1 9548   5.487   6.103   3.584
 2883SOL    HW2 9549   5.369   6.047   3.485
 2884SOL     OW 9550   6.291   5.333   3.607
 2884SOL    HW1 9551   6.217   5.401   3.604
 2884SOL    HW2 9552   6.360   5.356   3.539
 2885SOL     OW 9553   0.062   3.239   3.394
 2885SOL    HW1 9554   0.070   3.197   3.484
 2885SOL    HW2 9555   0.140   3.213   3.338
 2886SOL     OW 9556   2.379   4.397   4.963
 2886SOL    HW1 9557   2.346   4.327   4.899
 2886SOL    HW2 9558   2.373   4.362   5.057
 2887SOL     OW 9559   0.026   5.485   2.646
 2887SOL    HW1 9560   0.011   5.388   2.669
 2887SOL    HW2 9561   6.966   5.521   2.599
 2888SOL     OW 9562   4.759   6.407   6.894
 2888SOL    HW1 9563   4.688   6.370   6.955
 2888SOL    HW2 9564   4.757   6.507   6.898
 2889SOL     OW 9565   4.452   6.213   4.460
 2889SOL    HW1 9566   4.389   6.286   4.435
 2889SOL    HW2 9567   4.427   6.176   4.550
 2890SOL     OW 9568   1.501   2.314   0.065
 2890SOL    HW1 9569   1.424   2.256   0.038
 2890SOL    HW2 9570   1.506   2.319   0.165
 2891SOL     OW 9571   1.019   1.302   5.235
 2891SOL    HW1 9572   0.980   1.356   5.160
 2891SOL    HW2 9573   1.048   1.363   5.309
 2892SOL     OW 9574   5.412   4.573   2.228
 2892SOL    HW1 9575   5.393   4.635   2.304
 2892SOL    HW2 9576   5.508   4.579   2.203
 2893SOL     OW 9577   6.798   5.190   4.831
 2893SOL    HW1 9578   6.736   5.112   4.843
 2893SOL    HW2 9579   6.852   5.178   4.747
 2894SOL     OW 9580   1.390   5.357   1.083
 2894SOL    HW1 9581   1.315   5.310   1.129
 2894SOL    HW2 9582   1.454   5.393   1.151
 2895SOL     OW 9583   4.649   6.469   6.075
 2895SOL    HW1 9584   4.683   6.529   6.147
 2895SOL    HW2 9585   4.596   6.523   6.009
 2896SOL     OW 9586   6.217   0.450   4.992
 2896SOL    HW1 9587   6.151   0.503   5.046
 2896SOL    HW2 9588   6.310   0.469   5.025
 2897SOL     OW 9589   3.514   5.591   3.225
 2897SOL    HW1 9590   3.600   5.540   3.216
 2897SOL    HW2 9591   3.461   5.581   3.141
 2898SOL     OW 9592   5.474   2.914   3.536
 2898SOL    HW1 9593   5.526   2.957   3.461
 2898SOL    HW2 9594   5.414   2.843   3.498
 2899SOL     OW 9595   6.572   3.065   0.688
 2899SOL    HW1 9596   6.552   3.003   0.612
 2899SOL    HW2 9597   6.667   3.052   0.717
 2900SOL     OW 9598   2.505   2.751   5.505
 2900SOL    HW1 9599   2.524   2.833   5.558
 2900SOL    HW2 9600   2.584   2.729   5.448
 2901SOL     OW 9601   1.478   4.127   2.010
 2901SOL    HW1 9602   1.393   4.179   2.012
 2901SOL    HW2 9603   1.474   4.060   1.936
 2902SOL     OW 9604   5.668   5.862   3.365
 2902SOL    HW1 9605   5.591   5.922   3.383
 2902SOL    HW2 9606   5.728   5.904   3.297
 2903SOL     OW 9607   0.033   4.823   0.626
 2903SOL    HW1 9608   6.991   4.768   0.682
 2903SOL    HW2 9609   0.015   4.920   0.643
 2904SOL     OW 9610   2.743   4.941   5.024
 2904SOL    HW1 9611   2.673   4.954   4.953
 2904SOL    HW2 9612   2.778   4.848   5.020
 2905SOL     OW 9613   0.578   5.194   1.690
 2905SOL    HW1 9614   0.509   5.158   1.628
 2905SOL    HW2 9615   0.639   5.121   1.719
 2906SOL     OW 9616   0.122   6.240   5.802
 2906SOL    HW1 9617   0.118   6.159   5.859
 2906SOL    HW2 9618   0.053   6.306   5.832
 2907SOL     OW 9619   0.071   0.838   5.255
 2907SOL    HW1 9620   0.132   0.830   5.333
 2907SOL    HW2 9621   0.078   0.755   5.199
 2908SOL     OW 9622   4.344   6.755   3.770
 2908SOL    HW1 9623   4.405   6.676   3.778
 2908SOL    HW2 9624   4.307   6.777   3.861
 2909SOL     OW 9625   0.149   0.326   1.671
 2909SOL    HW1 9626   0.086   0.265   1.624
 2909SOL    HW2 9627   0.097   0.390   1.729
 2910SOL     OW 9628   1.155   1.035   4.354
 2910SOL    HW1 9629   1.172   1.106   4.422
 2910SOL    HW2 9630   1.096   0.964   4.394
 2911SOL     OW 9631   7.011   3.794   4.885
 2911SOL    HW1 9632   0.058   3.734   4.841
 2911SOL    HW2 9633   6.919   3.767   4.856
 2912SOL     OW 9634   0.423   1.728   2.028
 2912SOL    HW1 9635   0.340   1.681   2.058
 2912SOL    HW2 9636   0.491   1.726   2.101
 2913SOL     OW 9637   0.755   6.555   3.075
 2913SOL    HW1 9638   0.681   6.541   3.009
 2913SOL    HW2 9639   0.814   6.630   3.044
 2914SOL     OW 9640   3.890   4.602   1.357
 2914SOL    HW1 9641   3.986   4.575   1.350
 2914SOL    HW2 9642   3.835   4.524   1.388
 2915SOL     OW 9643   2.211   0.537   3.826
 2915SOL    HW1 9644   2.201   0.481   3.908
 2915SOL    HW2 9645   2.128   0.591   3.812
 2916SOL     OW 9646   0.821   5.094   6.244
 2916SOL    HW1 9647   0.828   5.193   6.260
 2916SOL    HW2 9648   0.897   5.048   6.289
 2917SOL     OW 9649   2.120   0.659   3.325
 2917SOL    HW1 9650   2.219   0.647   3.332
 2917SOL    HW2 9651   2.090   0.727   3.392
 2918SOL     OW 9652   5.094   2.047   1.413
 2918SOL    HW1 9653   5.019   2.024   1.474
 2918SOL    HW2 9654   5.174   2.075   1.466
 2919SOL     OW 9655   0.673   6.372   4.778
 2919SOL    HW1 9656   0.696   6.392   4.874
 2919SOL    HW2 9657   0.720   6.289   4.749
 2920SOL     OW 9658   2.816   2.577   1.627
 2920SOL    HW1 9659   2.841   2.674   1.640
 2920SOL    HW2 9660   2.875   2.520   1.684
 2921SOL     OW 9661   0.962   6.431   3.414
 2921SOL    HW1 9662   1.004   6.517   3.442
 2921SOL    HW2 9663   1.012   6.392   3.337
 2922SOL     OW 9664   3.714   5.174   3.431
 2922SOL    HW1 9665   3.741   5.256   3.481
 2922SOL    HW2 9666   3.689   5.102   3.496
 2923SOL     OW 9667   1.388   5.570   4.325
 2923SOL    HW1 9668   1.322   5.643   4.307
 2923SOL    HW2 9669   1.450   5.561   4.247
 2924SOL     OW 9670   5.269   1.209   6.473
 2924SOL    HW1 9671   5.187   1.186   6.420
 2924SOL    HW2 9672   5.243   1.264   6.552
 2925SOL     OW 9673   5.659   6.507   4.683
 2925SOL    HW1 9674   5.664   6.564   4.766
 2925SOL    HW2 9675   5.629   6.564   4.606
 2926SOL     OW 9676   6.553   2.824   4.520
 2926SOL    HW1 9677   6.613   2.860   4.448
 2926SOL    HW2 9678   6.598   2.746   4.564
 2927SOL     OW 9679   1.354   1.757   2.411
 2927SOL    HW1 9680   1.329   1.852   2.430
 2927SOL    HW2 9681   1.399   1.718   2.492
 2928SOL     OW 9682   5.074   3.740   0.427
 2928SOL    HW1 9683   5.039   3.756   0.520
 2928SOL    HW2 9684   5.089   3.828   0.382
 2929SOL     OW 9685   2.247   1.509   3.227
 2929SOL    HW1 9686   2.330   1.501   3.282
 2929SOL    HW2 9687   2.203   1.597   3.244
 2930SOL     OW 9688   0.404   3.638   4.104
 2930SOL    HW1 9689   0.492   3.648   4.056
 2930SOL    HW2 9690   0.353   3.562   4.065
 2931SOL     OW 9691   6.125   4.415   5.829
 2931SOL    HW1 9692   6.077   4.503   5.839
 2931SOL    HW2 9693   6.105   4.357   5.909
 2932SOL     OW 9694   6.384   5.664   0.892
 2932SOL    HW1 9695   6.342   5.752   0.869
 2932SOL    HW2 9696   6.427   5.670   0.982
 2933SOL     OW 9697   0.899   0.153   7.007
 2933SOL    HW1 9698   0.954   0.103   6.940
 2933SOL    HW2 9699   0.845   0.087   0.041
 2934SOL     OW 9700   5.628   5.253   1.336
 2934SOL    HW1 9701   5.675   5.214   1.415
 2934SOL    HW2 9702   5.531   5.227   1.340
 2935SOL     OW 9703   0.929   3.307   5.468
 2935SOL    HW1 9704   0.891   3.232   5.522
 2935SOL    HW2 9705   0.855   3.352   5.417
 2936SOL     OW 9706   4.065   6.579   2.212
 2936SOL    HW1 9707   4.061   6.551   2.116
 2936SOL    HW2 9708   3.973   6.592   2.247
 2937SOL     OW 9709   5.944   3.786   3.382
 2937SOL    HW1 9710   5.971   3.856   3.315
 2937SOL    HW2 9711   5.854   3.807   3.418
 2938SOL     OW 9712   0.495   4.931   0.129
 2938SOL    HW1 9713   0.446   5.007   0.172
 2938SOL    HW2 9714   0.430   4.859   0.105
 2939SOL     OW 9715   6.695   6.166   1.685
 2939SOL    HW1 9716   6.780   6.218   1.694
 2939SOL    HW2 9717   6.711   6.072   1.717
 2940SOL     OW 9718   4.288   6.760   4.038
 2940SOL    HW1 9719   4.198   6.795   4.066
 2940SOL    HW2 9720   4.358   6.792   4.101
 2941SOL     OW 9721   2.885   4.730   2.991
 2941SOL    HW1 9722   2.888   4.799   3.064
 2941SOL    HW2 9723   2.978   4.698   2.972
 2942SOL     OW 9724   3.409   2.208   1.808
 2942SOL    HW1 9725   3.373   2.297   1.781
 2942SOL    HW2 9726   3.496   2.220   1.856
 2943SOL     OW 9727   0.040   3.762   3.413
 2943SOL    HW1 9728   0.012   3.675   3.375
 2943SOL    HW2 9729   6.994   3.791   3.482
 2944SOL     OW 9730   1.461   6.100   3.035
 2944SOL    HW1 9731   1.436   6.164   2.963
 2944SOL    HW2 9732   1.443   6.142   3.124
 2945SOL     OW 9733   6.043   3.532   1.312
 2945SOL    HW1 9734   5.943   3.530   1.320
 2945SOL    HW2 9735   6.073   3.454   1.256
 2946SOL     OW 9736   3.396   3.148   4.213
 2946SOL    HW1 9737   3.466   3.190   4.270
 2946SOL    HW2 9738   3.320   3.117   4.270
 2947SOL     OW 9739   6.589   5.523   0.383
 2947SOL    HW1 9740   6.585   5.564   0.474
 2947SOL    HW2 9741   6.685   5.513   0.355
 2948SOL     OW 9742   6.773   4.227   1.180
 2948SOL    HW1 9743   6.704   4.161   1.208
 2948SOL    HW2 9744   6.852   4.221   1.240
 2949SOL     OW 9745   1.326   6.473   0.614
 2949SOL    HW1 9746   1.356   6.524   0.533
 2949SOL    HW2 9747   1.234   6.438   0.598
 2950SOL     OW 9748   5.898   5.527   2.654
 2950SOL    HW1 9749   5.938   5.442   2.622
 2950SOL    HW2 9750   5.815   5.507   2.707
 2951SOL     OW 9751   0.757   2.453   1.115
 2951SOL    HW1 9752   0.734   2.521   1.185
 2951SOL    HW2 9753   0.829   2.392   1.150
 2952SOL     OW 9754   6.810   1.498   4.016
 2952SOL    HW1 9755   6.823   1.553   4.099
 2952SOL    HW2 9756   6.795   1.403   4.042
 2953SOL     OW 9757   1.850   6.268   3.030
 2953SOL    HW1 9758   1.917   6.341   3.047
 2953SOL    HW2 9759   1.781   6.268   3.103
 2954SOL     OW 9760   0.691   3.950   6.025
 2954SOL    HW1 9761   0.622   3.889   6.065
 2954SOL    HW2 9762   0.733   3.905   5.946
 2955SOL     OW 9763   1.717   4.756   6.546
 2955SOL    HW1 9764   1.712   4.659   6.524
 2955SOL    HW2 9765   1.694   4.771   6.642
 2956SOL     OW 9766   5.282   3.835   4.638
 2956SOL    HW1 9767   5.248   3.744   4.660
 2956SOL    HW2 9768   5.301   3.841   4.540
 2957SOL     OW 9769   1.893   5.668   2.193
 2957SOL    HW1 9770   1.921   5.736   2.124
 2957SOL    HW2 9771   1.970   5.607   2.212
 2958SOL     OW 9772   1.570   4.816   2.228
 2958SOL    HW1 9773   1.598   4.874   2.305
 2958SOL    HW2 9774   1.649   4.764   2.195
 2959SOL     OW 9775   6.996   4.130   3.816
 2959SOL    HW1 9776   6.944   4.166   3.893
 2959SOL    HW2 9777   0.022   4.045   3.842
 2960SOL     OW 9778   4.634   6.676   1.279
 2960SOL    HW1 9779   4.569   6.643   1.210
 2960SOL    HW2 9780   4.634   6.613   1.357
 2961SOL     OW 9781   5.438   2.441   1.670
 2961SOL    HW1 9782   5.347   2.405   1.690
 2961SOL    HW2 9783   5.506   2.394   1.726
 2962SOL     OW 9784   0.225   0.173   3.934
 2962SOL    HW1 9785   0.319   0.200   3.913
 2962SOL    HW2 9786   0.215   0.074   3.919
 2963SOL     OW 9787   1.958   0.906   5.401
 2963SOL    HW1 9788   2.020   0.982   5.385
 2963SOL    HW2 9789   2.003   0.820   5.376
 2964SOL     OW 9790   1.608   0.004   6.583
 2964SOL    HW1 9791   1.662   0.073   6.535
 2964SOL    HW2 9792   1.604   0.027   6.681
 2965SOL     OW 9793   5.888   0.521   6.203
 2965SOL    HW1 9794   5.837   0.598   6.242
 2965SOL    HW2 9795   5.890   0.446   6.270
 2966SOL     OW 9796   3.914   5.259   2.811
 2966SOL    HW1 9797   3.863   5.333   2.855
 2966SOL    HW2 9798   3.856   5.215   2.741
 2967SOL     OW 9799   5.510   6.914   4.758
 2967SOL    HW1 9800   5.417   6.942   4.784
 2967SOL    HW2 9801   5.510   6.816   4.738
 2968SOL     OW 9802   1.393   4.140   1.404
 2968SOL    HW1 9803   1.384   4.229   1.359
 2968SOL    HW2 9804   1.469   4.089   1.362
 2969SOL     OW 9805   4.741   2.766   4.346
 2969SOL    HW1 9806   4.700   2.697   4.286
 2969SOL    HW2 9807   4.759   2.849   4.293
 2970SOL     OW 9808   2.518   3.007   5.624
 2970SOL    HW1 9809   2.492   3.056   5.541
 2970SOL    HW2 9810   2.582   3.063   5.678
 2971SOL     OW 9811   4.670   4.225   6.550
 2971SOL    HW1 9812   4.692   4.272   6.466
 2971SOL    HW2 9813   4.570   4.217   6.559
 2972SOL     OW 9814   0.083   5.440   6.489
 2972SOL    HW1 9815   0.167   5.423   6.438
 2972SOL    HW2 9816   0.057   5.536   6.478
 2973SOL     OW 9817   5.499   0.672   4.101
 2973SOL    HW1 9818   5.427   0.705   4.163
 2973SOL    HW2 9819   5.507   0.733   4.023
 2974SOL     OW 9820   5.777   6.264   1.960
 2974SOL    HW1 9821   5.761   6.361   1.976
 2974SOL    HW2 9822   5.874   6.244   1.971
 2975SOL     OW 9823   6.617   3.292   5.141
 2975SOL    HW1 9824   6.563   3.338   5.212
 2975SOL    HW2 9825   6.582   3.200   5.127
 2976SOL     OW 9826   3.656   0.972   1.605
 2976SOL    HW1 9827   3.641   0.886   1.654
 2976SOL    HW2 9828   3.611   0.968   1.516
 2977SOL     OW 9829   1.584   1.265   1.818
 2977SOL    HW1 9830   1.511   1.303   1.762
 2977SOL    HW2 9831   1.546   1.232   1.905
 2978SOL     OW 9832   3.430   5.980   0.558
 2978SOL    HW1 9833   3.412   6.024   0.646
 2978SOL    HW2 9834   3.518   5.933   0.562
 2979SOL     OW 9835   2.844   0.957   5.525
 2979SOL    HW1 9836   2.785   1.017   5.470
 2979SOL    HW2 9837   2.847   0.990   5.619
 2980SOL     OW 9838   3.373   2.924   4.007
 2980SOL    HW1 9839   3.359   2.980   4.088
 2980SOL    HW2 9840   3.471   2.913   3.991
 2981SOL     OW 9841   3.166   2.075   1.802
 2981SOL    HW1 9842   3.159   2.015   1.722
 2981SOL    HW2 9843   3.259   2.111   1.808
 2982SOL     OW 9844   1.568   0.760   0.646
 2982SOL    HW1 9845   1.487   0.813   0.620
 2982SOL    HW2 9846   1.549   0.663   0.636
 2983SOL     OW 9847   6.331   2.551   6.467
 2983SOL    HW1 9848   6.356   2.620   6.399
 2983SOL    HW2 9849   6.296   2.598   6.549
 2984SOL     OW 9850   0.578   6.093   1.428
 2984SOL    HW1 9851   0.632   6.177   1.426
 2984SOL    HW2 9852   0.640   6.014   1.436
 2985SOL     OW 9853   6.455   0.922   5.524
 2985SOL    HW1 9854   6.461   0.871   5.609
 2985SOL    HW2 9855   6.388   0.995   5.534
 2986SOL     OW 9856   3.310   3.242   2.259
 2986SOL    HW1 9857   3.359   3.282   2.182
 2986SOL    HW2 9858   3.212   3.247   2.243
 2987SOL     OW 9859   2.492   5.704   4.658
 2987SOL    HW1 9860   2.427   5.632   4.633
 2987SOL    HW2 9861   2.476   5.784   4.599
 2988SOL     OW 9862   6.807   2.245   6.073
 2988SOL    HW1 9863   6.836   2.268   6.166
 2988SOL    HW2 9864   6.719   2.288   6.054
 2989SOL     OW 9865   5.757   3.328   5.556
 2989SOL    HW1 9866   5.792   3.380   5.634
 2989SOL    HW2 9867   5.813   3.245   5.544
 2990SOL     OW 9868   5.764   0.984   5.734
 2990SOL    HW1 9869   5.763   0.992   5.833
 2990SOL    HW2 9870   5.760   0.888   5.708
 2991SOL     OW 9871   6.959   3.432   6.865
 2991SOL    HW1 9872   6.986   3.492   6.941
 2991SOL    HW2 9873   6.975   3.337   6.891
 2992SOL     OW 9874   0.758   3.743   5.467
 2992SOL    HW1 9875   0.745   3.666   5.404
 2992SOL    HW2 9876   0.831   3.801   5.432
 2993SOL     OW 9877   3.132   5.233   0.650
 2993SOL    HW1 9878   3.136   5.164   0.722
 2993SOL    HW2 9879   3.219   5.282   0.645
 2994SOL     OW 9880   2.494   4.972   5.170
 2994SOL    HW1 9881   2.463   5.051   5.117
 2994SOL    HW2 9882   2.587   4.948   5.143
 2995SOL     OW 9883   5.052   0.608   1.978
 2995SOL    HW1 9884   5.074   0.516   2.010
 2995SOL    HW2 9885   4.963   0.636   2.015
 2996SOL     OW 9886   6.717   0.949   4.017
 2996SOL    HW1 9887   6.701   0.937   3.919
 2996SOL    HW2 9888   6.791   0.889   4.046
 2997SOL     OW 9889   4.645   5.584   4.312
 2997SOL    HW1 9890   4.574   5.515   4.328
 2997SOL    HW2 9891   4.732   5.552   4.349
 2998SOL     OW 9892   2.632   0.789   1.906
 2998SOL    HW1 9893   2.656   0.784   2.003
 2998SOL    HW2 9894   2.697   0.850   1.859
 2999SOL     OW 9895   1.053   4.356   0.525
 2999SOL    HW1 9896   1.024   4.421   0.596
 2999SOL    HW2 9897   1.032   4.263   0.554
 3000SOL     OW 9898   2.299   3.731   5.243
 3000SOL    HW1 9899   2.210   3.720   5.199
 3000SOL    HW2 9900   2.340   3.817   5.214
 3001SOL     OW 9901   4.620   0.686   6.316
 3001SOL    HW1 9902   4.584   0.595   6.300
 3001SOL    HW2 9903   4.581   0.724   6.400
 3002SOL     OW 9904   1.275   2.014   2.502
 3002SOL    HW1 9905   1.314   2.009   2.594
 3002SOL    HW2 9906   1.247   2.108   2.483
 3003SOL     OW 9907   0.996   5.683   0.511
 3003SOL    HW1 9908   0.948   5.608   0.557
 3003SOL    HW2 9909   0.931   5.734   0.454
 3004SOL     OW 9910   3.357   6.846   3.991
 3004SOL    HW1 9911   3.389   6.850   3.896
 3004SOL    HW2 9912   3.378   6.932   4.037
 3005SOL     OW 9913   2.930   2.018   0.764
 3005SOL    HW1 9914   2.847   2.042   0.815
 3005SOL    HW2 9915   2.956   2.095   0.706
 3006SOL     OW 9916   5.735   1.171   5.517
 3006SOL    HW1 9917   5.730   1.098   5.585
 3006SOL    HW2 9918   5.718   1.259   5.561
 3007SOL     OW 9919   6.198   5.715   5.677
 3007SOL    HW1 9920   6.123   5.650   5.690
 3007SOL    HW2 9921   6.263   5.707   5.752
 3008SOL     OW 9922   4.958   4.061   5.583
 3008SOL    HW1 9923   4.913   4.082   5.497
 3008SOL    HW2 9924   4.921   4.118   5.656
 3009SOL     OW 9925   5.524   3.123   2.077
 3009SOL    HW1 9926   5.618   3.131   2.112
 3009SOL    HW2 9927   5.525   3.132   1.977
 3010SOL     OW 9928   5.012   5.248   1.771
 3010SOL    HW1 9929   4.999   5.345   1.755
 3010SOL    HW2 9930   4.995   5.197   1.687
 3011SOL     OW 9931   5.672   6.898   0.197
 3011SOL    HW1 9932   5.657   6.911   0.099
 3011SOL    HW2 9933   5.589   6.920   0.248
 3012SOL     OW 9934   2.328   0.832   4.828
 3012SOL    HW1 9935   2.418   0.820   4.787
 3012SOL    HW2 9936   2.265   0.762   4.793
 3013SOL     OW 9937   1.139   5.050   5.320
 3013SOL    HW1 9938   1.218   5.106   5.346
 3013SOL    HW2 9939   1.126   5.053   5.221
 3014SOL     OW 9940   3.874   0.250   0.058
 3014SOL    HW1 9941   3.944   0.259   0.129
 3014SOL    HW2 9942   3.914   0.206   6.997
 3015SOL     OW 9943   2.454   0.069   5.852
 3015SOL    HW1 9944   2.452   0.146   5.788
 3015SOL    HW2 9945   2.478   7.005   5.802
 3016SOL     OW 9946   3.074   0.945   3.966
 3016SOL    HW1 9947   3.118   1.027   3.929
 3016SOL    HW2 9948   2.996   0.921   3.908
 3017SOL     OW 9949   0.750   6.076   0.054
 3017SOL    HW1 9950   0.694   6.137   7.018
 3017SOL    HW2 9951   0.833   6.052   0.004
 3018SOL     OW 9952   3.200   2.405   1.442
 3018SOL    HW1 9953   3.150   2.395   1.527
 3018SOL    HW2 9954   3.284   2.456   1.458
 3019SOL     OW 9955   1.226   0.566   5.251
 3019SOL    HW1 9956   1.312   0.543   5.296
 3019SOL    HW2 9957   1.195   0.489   5.196
 3020SOL     OW 9958   4.765   4.992   0.159
 3020SOL    HW1 9959   4.816   4.907   0.144
 3020SOL    HW2 9960   4.813   5.068   0.114
 3021SOL     OW 9961   4.777   6.540   4.470
 3021SOL    HW1 9962   4.811   6.633   4.453
 3021SOL    HW2 9963   4.698   6.523   4.412
 3022SOL     OW 9964   4.635   6.945   4.233
 3022SOL    HW1 9965   4.655   0.010   4.184
 3022SOL    HW2 9966   4.678   6.949   4.324
 3023SOL     OW 9967   5.366   4.581   5.308
 3023SOL    HW1 9968   5.327   4.495   5.277
 3023SOL    HW2 9969   5.338   4.655   5.247
 3024SOL     OW 9970   6.614   1.202   0.547
 3024SOL    HW1 9971   6.655   1.164   0.630
 3024SOL    HW2 9972   6.540   1.141   0.516
 3025SOL     OW 9973   3.956   5.304   0.903
 3025SOL    HW1 9974   3.892   5.296   0.980
 3025SOL    HW2 9975   4.049   5.290   0.936
 3026SOL     OW 9976   0.240   0.331   2.153
 3026SOL    HW1 9977   0.249   0.255   2.216
 3026SOL    HW2 9978   0.153   0.377   2.168
 3027SOL     OW 9979   3.785   6.754   1.166
 3027SOL    HW1 9980   3.788   6.835   1.108
 3027SOL    HW2 9981   3.819   6.675   1.115
 3028SOL     OW 9982   3.650   3.002   4.358
 3028SOL    HW1 9983   3.576   2.942   4.328
 3028SOL    HW2 9984   3.681   2.974   4.449
 3029SOL     OW 9985   0.470   2.803   5.099
 3029SOL    HW1 9986   0.515   2.714   5.090
 3029SOL    HW2 9987   0.376   2.788   5.130
 3030SOL     OW 9988   1.118   2.882   6.161
 3030SOL    HW1 9989   1.194   2.817   6.158
 3030SOL    HW2 9990   1.073   2.887   6.072
 3031SOL     OW 9991   0.756   4.888   0.025
 3031SOL    HW1 9992   0.776   4.790   0.025
 3031SOL    HW2 9993   0.664   4.902   0.061
 3032SOL     OW 9994   3.450   6.931   3.740
 3032SOL    HW1 9995   3.503   7.005   3.699
 3032SOL    HW2 9996   3.400   6.882   3.669
 3033SOL     OW 9997   1.806   1.382   6.544
 3033SOL    HW1 9998   1.819   1.342   6.454
 3033SOL    HW2 9999   1.811   1.482   6.537
 3034SOL     OW10000   5.462   3.467   3.551
 3034SOL    HW110001   5.503   3.557   3.566
 3034SOL    HW210002   5.443   3.424   3.639
 3035SOL     OW10003   6.942   3.751   7.007
 3035SOL    HW110004   6.940   3.778   0.084
 3035SOL    HW210005   6.964   3.831   6.951
 3036SOL     OW10006   3.441   2.100   6.098
 3036SOL    HW110007   3.473   2.033   6.031
 3036SOL    HW210008   3.470   2.191   6.071
 3037SOL     OW10009   0.786   4.681   6.246
 3037SOL    HW110010   0.792   4.603   6.308
 3037SOL    HW210011   0.690   4.707   6.235
 3038SOL     OW10012   6.051   4.587   5.309
 3038SOL    HW110013   6.016   4.496   5.332
 3038SOL    HW210014   6.019   4.613   5.218
 3039SOL     OW10015   5.632   3.171   6.131
 3039SOL    HW110016   5.674   3.083   6.111
 3039SOL    HW210017   5.648   3.194   6.227
 3040SOL     OW10018   3.675   6.528   6.506
 3040SOL    HW110019   3.728   6.595   6.558
 3040SOL    HW210020   3.627   6.573   6.431
 3041SOL     OW10021   2.294   5.496   6.782
 3041SOL    HW110022   2.200   5.506   6.815
 3041SOL    HW210023   2.356   5.486   6.859
 3042SOL     OW10024   6.858   4.958   4.379
 3042SOL    HW110025   6.847   4.889   4.308
 3042SOL    HW210026   6.881   5.046   4.337
 3043SOL     OW10027   3.341   4.088   1.326
 3043SOL    HW110028   3.291   4.142   1.258
 3043SOL    HW210029   3.432   4.128   1.341
 3044SOL     OW10030   3.843   3.439   4.730
 3044SOL    HW110031   3.863   3.440   4.632
 3044SOL    HW210032   3.921   3.400   4.779
 3045SOL     OW10033   5.286   0.921   2.680
 3045SOL    HW110034   5.245   1.003   2.720
 3045SOL    HW210035   5.269   0.842   2.739
 3046SOL     OW10036   5.921   5.709   0.893
 3046SOL    HW110037   5.835   5.708   0.943
 3046SOL    HW210038   5.990   5.758   0.947
 3047SOL     OW10039   5.811   1.912   3.961
 3047SOL    HW110040   5.813   1.996   4.015
 3047SOL    HW210041   5.803   1.833   4.023
 3048SOL     OW10042   4.300   4.762   1.526
 3048SOL    HW110043   4.244   4.728   1.450
 3048SOL    HW210044   4.279   4.710   1.608
 3049SOL     OW10045   0.209   1.609   2.196
 3049SOL    HW110046   0.186   1.521   2.155
 3049SOL    HW210047   0.130   1.643   2.248
 3050SOL     OW10048   3.476   2.204   6.425
 3050SOL    HW110049   3.537   2.139   6.380
 3050SOL    HW210050   3.404   2.232   6.363
 3051SOL     OW10051   2.443   5.603   5.962
 3051SOL    HW110052   2.476   5.682   5.910
 3051SOL    HW210053   2.412   5.532   5.898
 3052SOL     OW10054   5.968   6.167   3.449
 3052SOL    HW110055   6.042   6.170   3.382
 3052SOL    HW210056   5.880   6.176   3.403
 3053SOL     OW10057   0.798   4.455   6.479
 3053SOL    HW110058   0.712   4.406   6.466
 3053SOL    HW210059   0.867   4.418   6.417
 3054SOL     OW10060   5.859   0.031   3.003
 3054SOL    HW110061   5.791   0.029   3.077
 3054SOL    HW210062   5.838   0.107   2.941
 3055SOL     OW10063   4.746   6.727   0.283
 3055SOL    HW110064   4.649   6.701   0.275
 3055SOL    HW210065   4.754   6.826   0.281
 3056SOL     OW10066   4.773   1.711   0.862
 3056SOL    HW110067   4.744   1.803   0.834
 3056SOL    HW210068   4.849   1.719   0.927
 3057SOL     OW10069   6.490   3.571   3.556
 3057SOL    HW110070   6.545   3.560   3.639
 3057SOL    HW210071   6.437   3.656   3.562
 3058SOL     OW10072   0.069   4.729   6.042
 3058SOL    HW110073   0.105   4.804   6.099
 3058SOL    HW210074   6.996   4.707   6.071
 3059SOL     OW10075   1.324   2.665   3.154
 3059SOL    HW110076   1.395   2.646   3.221
 3059SOL    HW210077   1.365   2.674   3.063
 3060SOL     OW10078   5.520   3.701   3.366
 3060SOL    HW110079   5.602   3.711   3.423
 3060SOL    HW210080   5.545   3.655   3.281
 3061SOL     OW10081   5.941   6.442   2.573
 3061SOL    HW110082   6.012   6.393   2.524
 3061SOL    HW210083   5.945   6.419   2.671
 3062SOL     OW10084   3.818   5.185   1.156
 3062SOL    HW110085   3.819   5.261   1.221
 3062SOL    HW210086   3.755   5.115   1.189
 3063SOL     OW10087   6.695   4.718   0.405
 3063SOL    HW110088   6.776   4.727   0.463
 3063SOL    HW210089   6.718   4.661   0.326
 3064SOL     OW10090   4.552   1.874   6.373
 3064SOL    HW110091   4.562   1.968   6.342
 3064SOL    HW210092   4.610   1.814   6.317
 3065SOL     OW10093   5.435   0.936   6.388
 3065SOL    HW110094   5.373   0.989   6.447
 3065SOL    HW210095   5.403   0.941   6.294
 3066SOL     OW10096   5.315   0.107   5.911
 3066SOL    HW110097   5.407   0.086   5.946
 3066SOL    HW210098   5.254   0.124   5.989
 3067SOL     OW10099   1.540   1.753   4.690
 3067SOL    HW110100   1.636   1.751   4.662
 3067SOL    HW210101   1.490   1.681   4.642
 3068SOL     OW10102   5.840   0.313   1.062
 3068SOL    HW110103   5.857   0.410   1.049
 3068SOL    HW210104   5.906   0.261   1.007
 3069SOL     OW10105   5.668   5.952   3.783
 3069SOL    HW110106   5.717   5.959   3.870
 3069SOL    HW210107   5.664   6.042   3.739
 3070SOL     OW10108   2.679   1.238   1.060
 3070SOL    HW110109   2.659   1.147   1.095
 3070SOL    HW210110   2.714   1.231   0.966
 3071SOL     OW10111   5.660   4.605   5.183
 3071SOL    HW110112   5.645   4.545   5.261
 3071SOL    HW210113   5.617   4.694   5.200
 3072SOL     OW10114   1.445   6.859   4.997
 3072SOL    HW110115   1.541   6.834   5.010
 3072SOL    HW210116   1.393   6.778   4.968
 3073SOL     OW10117   6.820   5.548   2.488
 3073SOL    HW110118   6.739   5.607   2.492
 3073SOL    HW210119   6.845   5.531   2.393
 3074SOL     OW10120   3.380   2.948   1.780
 3074SOL    HW110121   3.301   3.009   1.779
 3074SOL    HW210122   3.429   2.956   1.867
 3075SOL     OW10123   3.839   5.062   1.602
 3075SOL    HW110124   3.753   5.107   1.628
 3075SOL    HW210125   3.835   4.966   1.629
 3076SOL     OW10126   1.936   1.689   4.059
 3076SOL    HW110127   1.944   1.789   4.050
 3076SOL    HW210128   1.839   1.664   4.066
 3077SOL     OW10129   0.213   3.581   1.849
 3077SOL    HW110130   0.195   3.597   1.752
 3077SOL    HW210131   0.242   3.486   1.862
 3078SOL     OW10132   7.016   4.034   1.730
 3078SOL    HW110133   0.011   3.964   1.661
 3078SOL    HW210134   6.919   4.061   1.729
 3079SOL     OW10135   1.419   3.997   3.900
 3079SOL    HW110136   1.370   4.045   3.973
 3079SOL    HW210137   1.390   4.034   3.812
 3080SOL     OW10138   3.762   4.739   1.626
 3080SOL    HW110139   3.704   4.749   1.545
 3080SOL    HW210140   3.705   4.723   1.706
 3081SOL     OW10141   2.441   2.802   5.855
 3081SOL    HW110142   2.472   2.893   5.827
 3081SOL    HW210143   2.348   2.808   5.891
 3082SOL     OW10144   5.424   3.891   5.195
 3082SOL    HW110145   5.500   3.834   5.227
 3082SOL    HW210146   5.396   3.860   5.104
 3083SOL     OW10147   4.028   5.815   1.364
 3083SOL    HW110148   4.110   5.785   1.412
 3083SOL    HW210149   4.046   5.904   1.322
 3084SOL     OW10150   6.858   5.200   4.248
 3084SOL    HW110151   6.806   5.274   4.292
 3084SOL    HW210152   6.950   5.233   4.226
 3085SOL     OW10153   6.217   5.908   6.965
 3085SOL    HW110154   6.184   5.898   0.039
 3085SOL    HW210155   6.291   5.974   6.963
 3086SOL     OW10156   6.123   6.751   6.614
 3086SOL    HW110157   6.057   6.677   6.628
 3086SOL    HW210158   6.109   6.822   6.683
 3087SOL     OW10159   2.986   0.135   2.289
 3087SOL    HW110160   3.010   0.190   2.369
 3087SOL    HW210161   2.887   0.136   2.276
 3088SOL     OW10162   2.383   3.463   5.279
 3088SOL    HW110163   2.357   3.559   5.274
 3088SOL    HW210164   2.461   3.452   5.341
 3089SOL     OW10165   4.051   6.573   6.549
 3089SOL    HW110166   4.094   6.636   6.484
 3089SOL    HW210167   3.990   6.625   6.609
 3090SOL     OW10168   1.636   2.490   2.573
 3090SOL    HW110169   1.551   2.443   2.547
 3090SOL    HW210170   1.686   2.517   2.491
 3091SOL     OW10171   1.213   2.402   6.994
 3091SOL    HW110172   1.261   2.488   6.976
 3091SOL    HW210173   1.116   2.420   7.008
 3092SOL     OW10174   5.645   1.127   2.922
 3092SOL    HW110175   5.672   1.206   2.977
 3092SOL    HW210176   5.677   1.043   2.967
 3093SOL     OW10177   6.478   5.217   6.505
 3093SOL    HW110178   6.555   5.257   6.455
 3093SOL    HW210179   6.506   5.197   6.599
 3094SOL     OW10180   2.256   1.575   6.240
 3094SOL    HW110181   2.258   1.491   6.294
 3094SOL    HW210182   2.174   1.575   6.183
 3095SOL     OW10183   1.543   3.924   5.037
 3095SOL    HW110184   1.597   3.853   4.991
 3095SOL    HW210185   1.575   4.014   5.009
 3096SOL     OW10186   1.798   2.882   4.387
 3096SOL    HW110187   1.744   2.964   4.367
 3096SOL    HW210188   1.875   2.906   4.447
 3097SOL     OW10189   5.189   2.833   5.783
 3097SOL    HW110190   5.143   2.888   5.852
 3097SOL    HW210191   5.195   2.739   5.814
 3098SOL     OW10192   1.791   3.322   2.429
 3098SOL    HW110193   1.749   3.234   2.451
 3098SOL    HW210194   1.763   3.390   2.496
 3099SOL     OW10195   1.055   6.595   5.372
 3099SOL    HW110196   1.132   6.645   5.332
 3099SOL    HW210197   0.976   6.657   5.382
 3100SOL     OW10198   6.155   4.576   2.349
 3100SOL    HW110199   6.216   4.585   2.428
 3100SOL    HW210200   6.127   4.667   2.318
 3101SOL     OW10201   4.692   0.036   4.718
 3101SOL    HW110202   4.637   6.994   4.773
 3101SOL    HW210203   4.702   0.123   4.766
 3102SOL     OW10204   5.650   4.523   2.417
 3102SOL    HW110205   5.704   4.524   2.333
 3102SOL    HW210206   5.671   4.604   2.471
 3103SOL     OW10207   1.409   2.349   2.432
 3103SOL    HW110208   1.454   2.269   2.392
 3103SOL    HW210209   1.311   2.333   2.439
 3104SOL     OW10210   5.481   2.082   5.562
 3104SOL    HW110211   5.386   2.069   5.590
 3104SOL    HW210212   5.528   1.993   5.563
 3105SOL     OW10213   5.225   4.113   0.669
 3105SOL    HW110214   5.146   4.175   0.666
 3105SOL    HW210215   5.285   4.132   0.591
 3106SOL     OW10216   5.045   2.125   6.400
 3106SOL    HW110217   5.134   2.080   6.389
 3106SOL    HW210218   5.040   2.203   6.338
 3107SOL     OW10219   4.039   2.224   4.549
 3107SOL    HW110220   4.040   2.132   4.510
 3107SOL    HW210221   4.012   2.219   4.645
 3108SOL     OW10222   1.904   4.364   3.534
 3108SOL    HW110223   1.974   4.376   3.604
 3108SOL    HW210224   1.900   4.446   3.476
 3109SOL     OW10225   6.828   5.861   3.135
 3109SOL    HW110226   6.731   5.852   3.161
 3109SOL    HW210227   6.861   5.775   3.097
 3110SOL     OW10228   0.980   5.852   4.498
 3110SOL    HW110229   1.059   5.908   4.522
 3110SOL    HW210230   0.961   5.862   4.400
 3111SOL     OW10231   6.424   4.135   3.720
 3111SOL    HW110232   6.468   4.207   3.666
 3111SOL    HW210233   6.495   4.076   3.760
 3112SOL     OW10234   4.266   0.693   0.112
 3112SOL    HW110235   4.224   0.714   0.200
 3112SOL    HW210236   4.250   0.596   0.090
 3113SOL     OW10237   1.393   0.309   3.288
 3113SOL    HW110238   1.467   0.347   3.233
 3113SOL    HW210239   1.408   0.210   3.300
 3114SOL     OW10240   4.786   5.869   5.281
 3114SOL    HW110241   4.716   5.840   5.215
 3114SOL    HW210242   4.834   5.949   5.245
 3115SOL     OW10243   4.454   5.353   4.312
 3115SOL    HW110244   4.522   5.282   4.292
 3115SOL    HW210245   4.443   5.363   4.411
 3116SOL     OW10246   1.305   1.920   6.086
 3116SOL    HW110247   1.227   1.924   6.148
 3116SOL    HW210248   1.279   1.958   5.997
 3117SOL     OW10249   3.725   0.163   1.164
 3117SOL    HW110250   3.712   0.242   1.104
 3117SOL    HW210251   3.671   0.175   1.247
 3118SOL     OW10252   0.465   2.030   3.597
 3118SOL    HW110253   0.493   1.970   3.522
 3118SOL    HW210254   0.515   2.116   3.592
 3119SOL     OW10255   4.738   6.075   3.853
 3119SOL    HW110256   4.714   6.068   3.756
 3119SOL    HW210257   4.676   6.019   3.907
 3120SOL     OW10258   3.182   6.092   0.204
 3120SOL    HW110259   3.181   6.023   0.131
 3120SOL    HW210260   3.215   6.050   0.289
 3121SOL     OW10261   4.136   2.085   3.526
 3121SOL    HW110262   4.201   2.149   3.567
 3121SOL    HW210263   4.180   1.996   3.513
 3122SOL     OW10264   5.902   3.871   6.087
 3122SOL    HW110265   5.814   3.832   6.113
 3122SOL    HW210266   5.964   3.799   6.056
 3123SOL     OW10267   2.015   2.295   2.699
 3123SOL    HW110268   2.016   2.264   2.794
 3123SOL    HW210269   1.937   2.356   2.684
 3124SOL     OW10270   4.993   6.683   5.256
 3124SOL    HW110271   4.998   6.666   5.354
 3124SOL    HW210272   5.044   6.766   5.234
 3125SOL     OW10273   1.428   1.265   5.190
 3125SOL    HW110274   1.406   1.173   5.220
 3125SOL    HW210275   1.471   1.315   5.266
 3126SOL     OW10276   4.895   4.412   5.726
 3126SOL    HW110277   4.851   4.418   5.637
 3126SOL    HW210278   4.869   4.326   5.770
 3127SOL     OW10279   6.516   1.678   5.534
 3127SOL    HW110280   6.537   1.657   5.438
 3127SOL    HW210281   6.469   1.600   5.576
 3128SOL     OW10282   3.614   0.925   0.903
 3128SOL    HW110283   3.677   0.939   0.979
 3128SOL    HW210284   3.631   0.993   0.832
 3129SOL     OW10285   4.153   4.333   0.301
 3129SOL    HW110286   4.212   4.275   0.246
 3129SOL    HW210287   4.201   4.419   0.322
 3130SOL     OW10288   0.354   5.920   1.655
 3130SOL    HW110289   0.347   5.996   1.718
 3130SOL    HW210290   0.384   5.838   1.704
 3131SOL     OW10291   6.987   3.009   2.713
 3131SOL    HW110292   6.949   3.057   2.792
 3131SOL    HW210293   0.044   3.062   2.676
 3132SOL     OW10294   4.877   4.480   0.067
 3132SOL    HW110295   4.936   4.403   0.091
 3132SOL    HW210296   4.782   4.455   0.085
 3133SOL     OW10297   5.510   6.251   3.296
 3133SOL    HW110298   5.473   6.214   3.381
 3133SOL    HW210299   5.435   6.279   3.236
 3134SOL     OW10300   5.327   4.477   3.184
 3134SOL    HW110301   5.290   4.436   3.101
 3134SOL    HW210302   5.427   4.476   3.181
 3135SOL     OW10303   3.485   0.487   6.658
 3135SOL    HW110304   3.500   0.534   6.745
 3135SOL    HW210305   3.568   0.491   6.602
 3136SOL     OW10306   6.574   6.816   2.649
 3136SOL    HW110307   6.635   6.894   2.631
 3136SOL    HW210308   6.565   6.803   2.747
 3137SOL     OW10309   4.029   5.580   7.014
 3137SOL    HW110310   3.930   5.582   0.008
 3137SOL    HW210311   4.049   5.562   6.918
 3138SOL     OW10312   6.867   6.712   4.721
 3138SOL    HW110313   6.882   6.783   4.790
 3138SOL    HW210314   6.803   6.746   4.652
 3139SOL     OW10315   1.569   5.236   1.851
 3139SOL    HW110316   1.513   5.314   1.877
 3139SOL    HW210317   1.593   5.184   1.933
 3140SOL     OW10318   5.664   6.166   0.197
 3140SOL    HW110319   5.683   6.081   0.149
 3140SOL    HW210320   5.701   6.243   0.144
 3141SOL     OW10321   5.742   1.237   6.464
 3141SOL    HW110322   5.809   1.312   6.463
 3141SOL    HW210323   5.753   1.184   6.547
 3142SOL     OW10324   4.843   0.952   3.789
 3142SOL    HW110325   4.796   0.967   3.877
 3142SOL    HW210326   4.776   0.957   3.715
 3143SOL     OW10327   0.156   1.310   0.781
 3143SOL    HW110328   0.250   1.342   0.796
 3143SOL    HW210329   0.092   1.383   0.806
 3144SOL     OW10330   3.847   4.776   0.038
 3144SOL    HW110331   3.859   4.867   0.077
 3144SOL    HW210332   3.930   4.748   7.009
 3145SOL     OW10333   1.095   5.240   6.336
 3145SOL    HW110334   1.161   5.259   6.264
 3145SOL    HW210335   1.028   5.313   6.340
 3146SOL     OW10336   6.252   2.435   4.722
 3146SOL    HW110337   6.302   2.350   4.743
 3146SOL    HW210338   6.270   2.461   4.627
 3147SOL     OW10339   4.458   0.057   0.708
 3147SOL    HW110340   4.543   0.054   0.760
 3147SOL    HW210341   4.440   0.151   0.679
 3148SOL     OW10342   6.545   4.787   0.731
 3148SOL    HW110343   6.617   4.807   0.797
 3148SOL    HW210344   6.565   4.834   0.645
 3149SOL     OW10345   4.153   3.081   0.310
 3149SOL    HW110346   4.056   3.062   0.327
 3149SOL    HW210347   4.204   3.074   0.396
 3150SOL     OW10348   0.257   0.302   5.394
 3150SOL    HW110349   0.178   0.354   5.426
 3150SOL    HW210350   0.237   0.204   5.396
 3151SOL     OW10351   6.939   0.590   5.732
 3151SOL    HW110352   6.942   0.686   5.705
 3151SOL    HW210353   0.008   0.562   5.767
 3152SOL     OW10354   2.338   2.139   5.574
 3152SOL    HW110355   2.380   2.106   5.490
 3152SOL    HW210356   2.322   2.062   5.636
 3153SOL     OW10357   5.774   5.630   1.997
 3153SOL    HW110358   5.714   5.564   2.041
 3153SOL    HW210359   5.723   5.715   1.980
 3154SOL     OW10360   3.650   2.156   0.950
 3154SOL    HW110361   3.670   2.253   0.965
 3154SOL    HW210362   3.555   2.146   0.920
 3155SOL     OW10363   0.084   5.197   6.873
 3155SOL    HW110364   7.007   5.178   6.856
 3155SOL    HW210365   0.123   5.123   6.928
 3156SOL     OW10366   3.641   4.346   1.078
 3156SOL    HW110367   3.579   4.400   1.134
 3156SOL    HW210368   3.649   4.254   1.116
 3157SOL     OW10369   1.365   1.069   4.193
 3157SOL    HW110370   1.276   1.048   4.233
 3157SOL    HW210371   1.386   1.166   4.206
 3158SOL     OW10372   2.601   0.417   6.063
 3158SOL    HW110373   2.685   0.469   6.078
 3158SOL    HW210374   2.606   0.330   6.113
 3159SOL     OW10375   4.992   0.005   1.595
 3159SOL    HW110376   4.896   7.000   1.606
 3159SOL    HW210377   5.003   0.062   1.513
 3160SOL     OW10378   1.886   0.935   4.901
 3160SOL    HW110379   1.860   0.899   4.812
 3160SOL    HW210380   1.805   0.941   4.960
 3161SOL     OW10381   1.619   2.798   2.313
 3161SOL    HW110382   1.657   2.715   2.270
 3161SOL    HW210383   1.580   2.857   2.243
 3162SOL     OW10384   1.098   5.961   1.626
 3162SOL    HW110385   1.010   5.919   1.647
 3162SOL    HW210386   1.172   5.898   1.651
 3163SOL     OW10387   4.734   4.377   1.010
 3163SOL    HW110388   4.762   4.455   0.955
 3163SOL    HW210389   4.637   4.386   1.035
 3164SOL     OW10390   2.338   6.663   4.319
 3164SOL    HW110391   2.256   6.719   4.315
 3164SOL    HW210392   2.392   6.676   4.236
 3165SOL     OW10393   0.704   6.385   6.585
 3165SOL    HW110394   0.711   6.447   6.506
 3165SOL    HW210395   0.781   6.321   6.583
 3166SOL     OW10396   4.327   1.948   4.534
 3166SOL    HW110397   4.349   1.906   4.622
 3166SOL    HW210398   4.230   1.932   4.513
 3167SOL     OW10399   6.121   2.857   1.536
 3167SOL    HW110400   6.061   2.925   1.578
 3167SOL    HW210401   6.066   2.782   1.499
 3168SOL     OW10402   5.530   1.216   0.743
 3168SOL    HW110403   5.584   1.135   0.720
 3168SOL    HW210404   5.536   1.282   0.668
 3169SOL     OW10405   1.241   4.270   2.023
 3169SOL    HW110406   1.156   4.300   1.981
 3169SOL    HW210407   1.240   4.294   2.120
 3170SOL     OW10408   2.274   4.284   3.541
 3170SOL    HW110409   2.214   4.350   3.587
 3170SOL    HW210410   2.260   4.290   3.442
 3171SOL     OW10411   5.623   1.097   5.018
 3171SOL    HW110412   5.548   1.160   4.996
 3171SOL    HW210413   5.664   1.124   5.105
 3172SOL     OW10414   5.992   4.263   1.229
 3172SOL    HW110415   5.934   4.195   1.276
 3172SOL    HW210416   6.033   4.324   1.297
 3173SOL     OW10417   5.584   2.909   0.484
 3173SOL    HW110418   5.512   2.885   0.419
 3173SOL    HW210419   5.548   2.904   0.577
 3174SOL     OW10420   3.825   2.721   6.777
 3174SOL    HW110421   3.867   2.681   6.859
 3174SOL    HW210422   3.894   2.729   6.705
 3175SOL     OW10423   6.077   6.505   5.202
 3175SOL    HW110424   6.164   6.455   5.202
 3175SOL    HW210425   6.001   6.440   5.202
 3176SOL     OW10426   0.384   5.221   4.016
 3176SOL    HW110427   0.464   5.210   3.957
 3176SOL    HW210428   0.343   5.131   4.032
 3177SOL     OW10429   4.831   3.032   3.334
 3177SOL    HW110430   4.787   3.093   3.401
 3177SOL    HW210431   4.790   2.941   3.341
 3178SOL     OW10432   0.932   0.404   2.728
 3178SOL    HW110433   1.022   0.394   2.685
 3178SOL    HW210434   0.861   0.378   2.662
 3179SOL     OW10435   0.699   3.146   2.328
 3179SOL    HW110436   0.758   3.166   2.249
 3179SOL    HW210437   0.605   3.136   2.298
 3180SOL     OW10438   6.547   6.695   6.843
 3180SOL    HW110439   6.487   6.772   6.820
 3180SOL    HW210440   6.642   6.721   6.830
 3181SOL     OW10441   0.573   6.068   4.895
 3181SOL    HW110442   0.641   6.016   4.945
 3181SOL    HW210443   0.587   6.056   4.797
 3182SOL     OW10444   1.259   6.925   1.329
 3182SOL    HW110445   1.179   6.891   1.377
 3182SOL    HW210446   1.244   0.000   1.301
 3183SOL     OW10447   4.087   3.252   1.005
 3183SOL    HW110448   4.032   3.284   1.082
 3183SOL    HW210449   4.168   3.310   0.995
 3184SOL     OW10450   6.234   1.494   4.256
 3184SOL    HW110451   6.260   1.423   4.190
 3184SOL    HW210452   6.166   1.555   4.214
 3185SOL     OW10453   0.619   6.241   5.808
 3185SOL    HW110454   0.684   6.310   5.776
 3185SOL    HW210455   0.547   6.229   5.739
 3186SOL     OW10456   0.713   2.999   6.005
 3186SOL    HW110457   0.642   2.932   6.026
 3186SOL    HW210458   0.684   3.057   5.929
 3187SOL     OW10459   5.263   6.850   2.876
 3187SOL    HW110460   5.336   6.782   2.876
 3187SOL    HW210461   5.304   6.942   2.871
 3188SOL     OW10462   1.603   6.633   0.842
 3188SOL    HW110463   1.612   6.605   0.937
 3188SOL    HW210464   1.514   6.676   0.828
 3189SOL     OW10465   2.704   1.460   6.351
 3189SOL    HW110466   2.681   1.539   6.407
 3189SOL    HW210467   2.758   1.489   6.272
 3190SOL     OW10468   5.943   6.244   3.708
 3190SOL    HW110469   5.997   6.185   3.768
 3190SOL    HW210470   5.960   6.221   3.613
 3191SOL     OW10471   3.590   5.206   1.672
 3191SOL    HW110472   3.556   5.128   1.724
 3191SOL    HW210473   3.550   5.290   1.707
 3192SOL     OW10474   5.104   0.887   2.460
 3192SOL    HW110475   5.147   0.844   2.381
 3192SOL    HW210476   5.167   0.887   2.537
 3193SOL     OW10477   3.383   5.510   5.398
 3193SOL    HW110478   3.453   5.536   5.465
 3193SOL    HW210479   3.339   5.592   5.362
 3194SOL     OW10480   1.871   6.729   5.334
 3194SOL    HW110481   1.803   6.681   5.278
 3194SOL    HW210482   1.831   6.812   5.372
 3195SOL     OW10483   0.674   0.153   0.524
 3195SOL    HW110484   0.734   0.221   0.482
 3195SOL    HW210485   0.665   0.172   0.621
 3196SOL     OW10486   6.296   6.934   2.664
 3196SOL    HW110487   6.298   6.881   2.748
 3196SOL    HW210488   6.383   6.925   2.616
 3197SOL     OW10489   2.720   0.461   0.021
 3197SOL    HW110490   2.762   0.530   0.080
 3197SOL    HW210491   2.778   0.448   6.960
 3198SOL     OW10492   5.401   2.687   3.870
 3198SOL    HW110493   5.410   2.779   3.908
 3198SOL    HW210494   5.308   2.673   3.837
 3199SOL     OW10495   4.969   3.961   3.074
 3199SOL    HW110496   4.948   3.894   3.003
 3199SOL    HW210497   4.907   4.039   3.065
 3200SOL     OW10498   5.616   3.830   4.841
 3200SOL    HW110499   5.686   3.896   4.869
 3200SOL    HW210500   5.660   3.744   4.815
 3201SOL     OW10501   6.136   4.277   2.083
 3201SOL    HW110502   6.038   4.295   2.093
 3201SOL    HW210503   6.174   4.253   2.172
 3202SOL     OW10504   2.635   2.749   6.298
 3202SOL    HW110505   2.570   2.673   6.297
 3202SOL    HW210506   2.673   2.759   6.391
 3203SOL     OW10507   3.095   6.840   1.719
 3203SOL    HW110508   3.139   6.757   1.754
 3203SOL    HW210509   3.002   6.846   1.754
 3204SOL     OW10510   4.325   0.577   3.993
 3204SOL    HW110511   4.261   0.638   4.040
 3204SOL    HW210512   4.305   0.482   4.019
 3205SOL     OW10513   4.380   3.004   5.980
 3205SOL    HW110514   4.352   3.086   6.029
 3205SOL    HW210515   4.343   2.923   6.025
 3206SOL     OW10516   2.890   4.481   1.097
 3206SOL    HW110517   2.858   4.514   1.186
 3206SOL    HW210518   2.911   4.384   1.103
 3207SOL     OW10519   2.418   6.106   4.032
 3207SOL    HW110520   2.456   6.198   4.035
 3207SOL    HW210521   2.488   6.039   4.057
 3208SOL     OW10522   6.807   4.606   6.124
 3208SOL    HW110523   6.864   4.526   6.146
 3208SOL    HW210524   6.745   4.624   6.200
 3209SOL     OW10525   5.293   6.750   6.270
 3209SOL    HW110526   5.204   6.723   6.309
 3209SOL    HW210527   5.339   6.669   6.233
 3210SOL     OW10528   4.816   5.506   1.514
 3210SOL    HW110529   4.729   5.548   1.542
 3210SOL    HW210530   4.804   5.407   1.506
 3211SOL     OW10531   2.098   6.714   6.395
 3211SOL    HW110532   2.090   6.642   6.326
 3211SOL    HW210533   2.007   6.736   6.430
 3212SOL     OW10534   3.641   6.973   3.961
 3212SOL    HW110535   3.730   6.965   3.918
 3212SOL    HW210536   3.569   6.951   3.895
 3213SOL     OW10537   1.415   0.236   5.713
 3213SOL    HW110538   1.481   0.199   5.648
 3213SOL    HW210539   1.331   0.181   5.711
 3214SOL     OW10540   3.629   0.583   2.757
 3214SOL    HW110541   3.640   0.551   2.851
 3214SOL    HW210542   3.711   0.563   2.705
 3215SOL     OW10543   2.234   3.000   1.997
 3215SOL    HW110544   2.182   3.083   2.017
 3215SOL    HW210545   2.292   2.977   2.075
 3216SOL     OW10546   6.269   5.562   0.536
 3216SOL    HW110547   6.197   5.622   0.571
 3216SOL    HW210548   6.255   5.469   0.570
 3217SOL     OW10549   6.671   5.154   3.871
 3217SOL    HW110550   6.596   5.133   3.808
 3217SOL    HW210551   6.757   5.121   3.833
 3218SOL     OW10552   5.881   1.485   2.909
 3218SOL    HW110553   5.950   1.438   2.963
 3218SOL    HW210554   5.883   1.451   2.815
 3219SOL     OW10555   5.784   1.648   5.243
 3219SOL    HW110556   5.779   1.735   5.194
 3219SOL    HW210557   5.695   1.602   5.238
 3220SOL     OW10558   0.474   3.659   5.646
 3220SOL    HW110559   0.572   3.654   5.668
 3220SOL    HW210560   0.463   3.702   5.557
 3221SOL     OW10561   3.887   1.531   2.285
 3221SOL    HW110562   3.824   1.459   2.313
 3221SOL    HW210563   3.965   1.490   2.236
 3222SOL     OW10564   3.577   1.383   3.446
 3222SOL    HW110565   3.519   1.438   3.385
 3222SOL    HW210566   3.665   1.368   3.402
 3223SOL     OW10567   1.568   5.715   0.963
 3223SOL    HW110568   1.642   5.769   0.923
 3223SOL    HW210569   1.493   5.776   0.990
 3224SOL     OW10570   4.518   2.514   4.918
 3224SOL    HW110571   4.616   2.497   4.931
 3224SOL    HW210572   4.484   2.459   4.841
 3225SOL     OW10573   4.651   1.122   5.058
 3225SOL    HW110574   4.718   1.187   5.094
 3225SOL    HW210575   4.606   1.162   4.977
 3226SOL     OW10576   6.580   0.965   0.737
 3226SOL    HW110577   6.531   0.892   0.784
 3226SOL    HW210578   6.578   1.048   0.793
 3227SOL     OW10579   6.176   3.861   5.540
 3227SOL    HW110580   6.189   3.943   5.484
 3227SOL    HW210581   6.160   3.888   5.635
 3228SOL     OW10582   2.325   4.310   0.297
 3228SOL    HW110583   2.384   4.234   0.271
 3228SOL    HW210584   2.237   4.275   0.330
 3229SOL     OW10585   1.816   1.705   0.523
 3229SOL    HW110586   1.815   1.620   0.471
 3229SOL    HW210587   1.811   1.685   0.620
 3230SOL     OW10588   2.835   5.984   5.259
 3230SOL    HW110589   2.784   5.901   5.284
 3230SOL    HW210590   2.879   5.972   5.170
 3231SOL     OW10591   1.851   3.075   2.722
 3231SOL    HW110592   1.847   2.975   2.721
 3231SOL    HW210593   1.792   3.112   2.650
 3232SOL     OW10594   2.886   4.905   3.177
 3232SOL    HW110595   2.873   5.004   3.180
 3232SOL    HW210596   2.889   4.868   3.270
 3233SOL     OW10597   2.260   0.026   0.311
 3233SOL    HW110598   2.183   0.081   0.344
 3233SOL    HW210599   2.225   6.972   0.252
 3234SOL     OW10600   3.000   3.378   0.748
 3234SOL    HW110601   2.980   3.280   0.746
 3234SOL    HW210602   3.074   3.395   0.814
 3235SOL     OW10603   6.995   1.270   2.800
 3235SOL    HW110604   6.980   1.331   2.878
 3235SOL    HW210605   6.906   1.242   2.763
 3236SOL     OW10606   4.720   0.077   0.802
 3236SOL    HW110607   4.746   0.130   0.882
 3236SOL    HW210608   4.700   0.138   0.726
 3237SOL     OW10609   5.967   1.305   5.001
 3237SOL    HW110610   6.040   1.243   5.031
 3237SOL    HW210611   5.999   1.400   5.011
 3238SOL     OW10612   6.242   4.423   1.665
 3238SOL    HW110613   6.339   4.443   1.677
 3238SOL    HW210614   6.231   4.346   1.603
 3239SOL     OW10615   5.738   0.940   4.601
 3239SOL    HW110616   5.686   0.936   4.686
 3239SOL    HW210617   5.834   0.961   4.621
 3240SOL     OW10618   0.608   1.465   0.418
 3240SOL    HW110619   0.693   1.517   0.424
 3240SOL    HW210620   0.617   1.395   0.346
 3241SOL     OW10621   6.822   2.859   5.293
 3241SOL    HW110622   6.770   2.894   5.215
 3241SOL    HW210623   6.920   2.863   5.272
 3242SOL     OW10624   6.803   4.096   5.036
 3242SOL    HW110625   6.750   4.034   4.978
 3242SOL    HW210626   6.899   4.093   5.007
 3243SOL     OW10627   5.828   5.405   3.935
 3243SOL    HW110628   5.903   5.341   3.916
 3243SOL    HW210629   5.795   5.444   3.849
 3244SOL     OW10630   4.795   6.986   0.234
 3244SOL    HW110631   4.812   6.994   0.136
 3244SOL    HW210632   4.869   0.010   0.284
 3245SOL     OW10633   3.590   6.705   4.200
 3245SOL    HW110634   3.613   6.752   4.115
 3245SOL    HW210635   3.492   6.685   4.203
 3246SOL     OW10636   6.547   5.786   3.181
 3246SOL    HW110637   6.524   5.842   3.261
 3246SOL    HW210638   6.468   5.784   3.119
 3247SOL     OW10639   1.939   4.686   3.870
 3247SOL    HW110640   1.975   4.612   3.926
 3247SOL    HW210641   1.868   4.734   3.921
 3248SOL     OW10642   5.396   2.839   2.882
 3248SOL    HW110643   5.436   2.855   2.972
 3248SOL    HW210644   5.398   2.925   2.830
 3249SOL     OW10645   3.167   3.931   3.758
 3249SOL    HW110646   3.141   3.999   3.827
 3249SOL    HW210647   3.253   3.888   3.784
 3250SOL     OW10648   4.796   5.617   3.422
 3250SOL    HW110649   4.889   5.579   3.429
 3250SOL    HW210650   4.772   5.662   3.508
 3251SOL     OW10651   2.864   2.235   2.502
 3251SOL    HW110652   2.793   2.279   2.557
 3251SOL    HW210653   2.943   2.213   2.559
 3252SOL     OW10654   2.098   1.774   3.151
 3252SOL    HW110655   2.062   1.862   3.181
 3252SOL    HW210656   2.046   1.743   3.071
 3253SOL     OW10657   6.471   3.672   0.004
 3253SOL    HW110658   6.453   3.698   6.928
 3253SOL    HW210659   6.539   3.734   0.043
 3254SOL     OW10660   6.140   6.960   0.844
 3254SOL    HW110661   6.157   6.992   0.937
 3254SOL    HW210662   6.058   7.004   0.808
 3255SOL     OW10663   3.648   5.988   2.107
 3255SOL    HW110664   3.645   5.931   2.025
 3255SOL    HW210665   3.722   5.957   2.166
 3256SOL     OW10666   5.631   2.628   1.182
 3256SOL    HW110667   5.623   2.535   1.218
 3256SOL    HW210668   5.604   2.693   1.253
 3257SOL     OW10669   3.485   1.260   3.158
 3257SOL    HW110670   3.531   1.181   3.198
 3257SOL    HW210671   3.521   1.344   3.198
 3258SOL     OW10672   1.875   5.616   3.571
 3258SOL    HW110673   1.969   5.643   3.591
 3258SOL    HW210674   1.865   5.518   3.585
 3259SOL     OW10675   5.482   4.267   4.653
 3259SOL    HW110676   5.406   4.240   4.712
 3259SOL    HW210677   5.456   4.256   4.557
 3260SOL     OW10678   1.690   4.977   3.043
 3260SOL    HW110679   1.623   5.003   2.973
 3260SOL    HW210680   1.781   4.972   3.002
 3261SOL     OW10681   5.999   0.112   4.371
 3261SOL    HW110682   6.053   0.129   4.289
 3261SOL    HW210683   5.916   0.169   4.370
 3262SOL     OW10684   3.095   1.591   3.655
 3262SOL    HW110685   3.057   1.683   3.639
 3262SOL    HW210686   3.106   1.577   3.753
 3263SOL     OW10687   6.960   0.950   1.006
 3263SOL    HW110688   6.897   0.934   0.930
 3263SOL    HW210689   7.011   0.866   1.026
 3264SOL     OW10690   1.535   4.695   6.768
 3264SOL    HW110691   1.541   4.683   6.867
 3264SOL    HW210692   1.505   4.788   6.747
 3265SOL     OW10693   0.222   5.371   6.243
 3265SOL    HW110694   0.266   5.287   6.274
 3265SOL    HW210695   0.291   5.433   6.205
 3266SOL     OW10696   3.726   5.010   6.048
 3266SOL    HW110697   3.798   5.053   6.103
 3266SOL    HW210698   3.767   4.950   5.980
 3267SOL     OW10699   3.401   6.736   0.906
 3267SOL    HW110700   3.388   6.685   0.991
 3267SOL    HW210701   3.484   6.706   0.860
 3268SOL     OW10702   5.674   5.348   1.829
 3268SOL    HW110703   5.755   5.372   1.776
 3268SOL    HW210704   5.674   5.400   1.915
 3269SOL     OW10705   1.990   5.131   1.498
 3269SOL    HW110706   1.955   5.075   1.423
 3269SOL    HW210707   1.956   5.096   1.585
 3270SOL     OW10708   1.643   2.719   6.111
 3270SOL    HW110709   1.598   2.638   6.148
 3270SOL    HW210710   1.602   2.801   6.150
 3271SOL     OW10711   1.093   3.967   1.448
 3271SOL    HW110712   1.033   4.020   1.508
 3271SOL    HW210713   1.066   3.870   1.450
 3272SOL     OW10714   4.157   6.316   1.639
 3272SOL    HW110715   4.215   6.387   1.599
 3272SOL    HW210716   4.087   6.289   1.573
 3273SOL     OW10717   3.659   3.890   6.572
 3273SOL    HW110718   3.613   3.968   6.529
 3273SOL    HW210719   3.663   3.905   6.671
 3274SOL     OW10720   4.910   6.694   2.251
 3274SOL    HW110721   4.882   6.784   2.220
 3274SOL    HW210722   4.986   6.703   2.315
 3275SOL     OW10723   4.824   0.828   1.346
 3275SOL    HW110724   4.751   0.895   1.360
 3275SOL    HW210725   4.874   0.850   1.262
 3276SOL     OW10726   6.111   5.904   0.196
 3276SOL    HW110727   6.194   5.950   0.227
 3276SOL    HW210728   6.052   5.885   0.274
 3277SOL     OW10729   2.837   1.938   2.411
 3277SOL    HW110730   2.838   2.033   2.441
 3277SOL    HW210731   2.836   1.934   2.311
 3278SOL     OW10732   4.911   0.998   6.445
 3278SOL    HW110733   4.921   1.098   6.447
 3278SOL    HW210734   4.986   0.959   6.393
 3279SOL     OW10735   3.518   7.007   2.343
 3279SOL    HW110736   3.454   0.028   2.407
 3279SOL    HW210737   3.472   6.934   2.292
 3280SOL     OW10738   0.126   3.121   3.644
 3280SOL    HW110739   0.120   3.086   3.738
 3280SOL    HW210740   0.219   3.151   3.625
 3281SOL     OW10741   5.694   1.727   1.859
 3281SOL    HW110742   5.701   1.736   1.958
 3281SOL    HW210743   5.634   1.649   1.837
 3282SOL     OW10744   0.147   4.620   5.301
 3282SOL    HW110745   0.092   4.694   5.263
 3282SOL    HW210746   0.108   4.589   5.387
 3283SOL     OW10747   2.938   1.667   0.108
 3283SOL    HW110748   2.898   1.727   0.177
 3283SOL    HW210749   3.037   1.680   0.106
 3284SOL     OW10750   2.204   6.928   4.830
 3284SOL    HW110751   2.132   6.865   4.860
 3284SOL    HW210752   2.199   7.012   4.883
 3285SOL     OW10753   4.250   2.384   4.452
 3285SOL    HW110754   4.170   2.335   4.486
 3285SOL    HW210755   4.296   2.431   4.528
 3286SOL     OW10756   1.670   3.302   3.276
 3286SOL    HW110757   1.723   3.354   3.210
 3286SOL    HW210758   1.575   3.295   3.245
 3287SOL     OW10759   2.572   0.974   1.116
 3287SOL    HW110760   2.488   0.988   1.065
 3287SOL    HW210761   2.641   0.932   1.057
 3288SOL     OW10762   2.505   5.981   2.088
 3288SOL    HW110763   2.532   5.897   2.137
 3288SOL    HW210764   2.459   5.957   2.003
 3289SOL     OW10765   4.176   0.743   6.883
 3289SOL    HW110766   4.224   0.724   6.969
 3289SOL    HW210767   4.130   0.831   6.889
 3290SOL     OW10768   0.754   5.343   7.012
 3290SOL    HW110769   0.706   5.296   0.066
 3290SOL    HW210770   0.689   5.399   6.961
 3291SOL     OW10771   4.958   6.680   4.822
 3291SOL    HW110772   4.956   6.779   4.836
 3291SOL    HW210773   4.982   6.634   4.907
 3292SOL     OW10774   0.149   2.468   0.069
 3292SOL    HW110775   0.080   2.460   7.017
 3292SOL    HW210776   0.207   2.547   0.051
 3293SOL     OW10777   6.690   4.956   3.325
 3293SOL    HW110778   6.619   4.985   3.390
 3293SOL    HW210779   6.779   4.986   3.357
 3294SOL     OW10780   3.828   3.120   5.815
 3294SOL    HW110781   3.826   3.124   5.715
 3294SOL    HW210782   3.897   3.182   5.850
 3295SOL     OW10783   1.525   2.661   3.371
 3295SOL    HW110784   1.568   2.571   3.368
 3295SOL    HW210785   1.568   2.717   3.442
 3296SOL     OW10786   2.349   0.858   6.453
 3296SOL    HW110787   2.294   0.801   6.514
 3296SOL    HW210788   2.296   0.938   6.425
 3297SOL     OW10789   4.090   1.228   5.194
 3297SOL    HW110790   4.103   1.310   5.249
 3297SOL    HW210791   3.995   1.197   5.203
 3298SOL     OW10792   3.280   4.592   5.553
 3298SOL    HW110793   3.274   4.511   5.612
 3298SOL    HW210794   3.234   4.574   5.466
 3299SOL     OW10795   2.661   6.522   3.823
 3299SOL    HW110796   2.663   6.622   3.819
 3299SOL    HW210797   2.753   6.487   3.844
 3300SOL     OW10798   1.869   1.097   3.596
 3300SOL    HW110799   1.882   1.002   3.571
 3300SOL    HW210800   1.808   1.103   3.675
 3301SOL     OW10801   1.000   1.319   3.229
 3301SOL    HW110802   1.056   1.241   3.201
 3301SOL    HW210803   1.015   1.338   3.326
 3302SOL     OW10804   1.309   5.253   5.418
 3302SOL    HW110805   1.404   5.237   5.392
 3302SOL    HW210806   1.301   5.248   5.518
 3303SOL     OW10807   3.847   3.476   6.969
 3303SOL    HW110808   3.923   3.522   6.922
 3303SOL    HW210809   3.779   3.447   6.902
 3304SOL     OW10810   2.056   4.278   0.402
 3304SOL    HW110811   2.041   4.262   0.304
 3304SOL    HW210812   2.032   4.196   0.453
 3305SOL     OW10813   2.777   2.675   0.181
 3305SOL    HW110814   2.747   2.627   0.099
 3305SOL    HW210815   2.843   2.746   0.156
 3306SOL     OW10816   2.622   0.208   0.245
 3306SOL    HW110817   2.573   0.216   0.159
 3306SOL    HW210818   2.662   0.117   0.254
 3307SOL     OW10819   1.762   5.775   4.452
 3307SOL    HW110820   1.844   5.766   4.509
 3307SOL    HW210821   1.716   5.687   4.445
 3308SOL     OW10822   4.435   5.174   1.431
 3308SOL    HW110823   4.359   5.118   1.398
 3308SOL    HW210824   4.498   5.193   1.356
 3309SOL     OW10825   5.357   3.671   2.923
 3309SOL    HW110826   5.437   3.637   2.972
 3309SOL    HW210827   5.286   3.697   2.989
 3310SOL     OW10828   6.204   4.211   6.001
 3310SOL    HW110829   6.128   4.165   5.953
 3310SOL    HW210830   6.267   4.142   6.036
 3311SOL     OW10831   2.069   3.309   0.491
 3311SOL    HW110832   2.050   3.230   0.433
 3311SOL    HW210833   2.089   3.277   0.584
 3312SOL     OW10834   4.732   2.807   7.012
 3312SOL    HW110835   4.762   2.724   6.965
 3312SOL    HW210836   4.664   2.854   6.956
 3313SOL     OW10837   0.221   0.041   4.530
 3313SOL    HW110838   0.228   6.968   4.566
 3313SOL    HW210839   0.125   0.068   4.525
 3314SOL     OW10840   3.829   5.759   2.108
 3314SOL    HW110841   3.825   5.694   2.184
 3314SOL    HW210842   3.836   5.710   2.022
 3315SOL     OW10843   1.744   6.116   3.937
 3315SOL    HW110844   1.760   6.175   3.857
 3315SOL    HW210845   1.693   6.167   4.006
 3316SOL     OW10846   3.841   2.939   0.232
 3316SOL    HW110847   3.868   2.886   0.312
 3316SOL    HW210848   3.745   2.967   0.241
 3317SOL     OW10849   5.180   2.329   1.691
 3317SOL    HW110850   5.129   2.254   1.732
 3317SOL    HW210851   5.116   2.401   1.664
 3318SOL     OW10852   3.455   3.070   0.820
 3318SOL    HW110853   3.488   3.109   0.735
 3318SOL    HW210854   3.450   3.141   0.890
 3319SOL     OW10855   6.333   6.139   4.199
 3319SOL    HW110856   6.237   6.114   4.213
 3319SOL    HW210857   6.343   6.238   4.204
 3320SOL     OW10858   6.515   0.295   1.998
 3320SOL    HW110859   6.432   0.241   1.990
 3320SOL    HW210860   6.505   0.380   1.946
 3321SOL     OW10861   5.227   1.811   6.968
 3321SOL    HW110862   5.171   1.772   6.895
 3321SOL    HW210863   5.173   1.876   0.001
 3322SOL     OW10864   6.314   2.820   0.733
 3322SOL    HW110865   6.325   2.909   0.691
 3322SOL    HW210866   6.314   2.749   0.662
 3323SOL     OW10867   1.627   1.616   1.680
 3323SOL    HW110868   1.588   1.676   1.610
 3323SOL    HW210869   1.614   1.521   1.654
 3324SOL     OW10870   5.800   5.392   5.866
 3324SOL    HW110871   5.802   5.329   5.789
 3324SOL    HW210872   5.737   5.467   5.846
 3325SOL     OW10873   2.885   5.274   5.102
 3325SOL    HW110874   2.915   5.180   5.114
 3325SOL    HW210875   2.853   5.310   5.190
 3326SOL     OW10876   3.490   2.040   2.127
 3326SOL    HW110877   3.398   2.040   2.088
 3326SOL    HW210878   3.553   2.080   2.061
 3327SOL     OW10879   1.460   5.690   5.836
 3327SOL    HW110880   1.377   5.733   5.871
 3327SOL    HW210881   1.477   5.605   5.886
 3328SOL     OW10882   4.726   2.491   5.109
 3328SOL    HW110883   4.747   2.425   5.181
 3328SOL    HW210884   4.805   2.549   5.091
 3329SOL     OW10885   6.627   6.178   5.566
 3329SOL    HW110886   6.701   6.209   5.506
 3329SOL    HW210887   6.570   6.112   5.516
 3330SOL     OW10888   6.728   3.693   3.162
 3330SOL    HW110889   6.750   3.603   3.201
 3330SOL    HW210890   6.644   3.687   3.109
 3331SOL     OW10891   2.134   3.053   0.770
 3331SOL    HW110892   2.169   3.145   0.784
 3331SOL    HW210893   2.161   2.995   0.848
 3332SOL     OW10894   6.902   4.142   1.459
 3332SOL    HW110895   7.001   4.125   1.458
 3332SOL    HW210896   6.856   4.077   1.399
 3333SOL     OW10897   2.787   5.609   5.783
 3333SOL    HW110898   2.821   5.580   5.694
 3333SOL    HW210899   2.714   5.677   5.770
 3334SOL     OW10900   1.634   3.620   1.576
 3334SOL    HW110901   1.660   3.664   1.489
 3334SOL    HW210902   1.670   3.675   1.652
 3335SOL     OW10903   5.966   4.232   4.877
 3335SOL    HW110904   5.964   4.162   4.805
 3335SOL    HW210905   5.873   4.266   4.892
 3336SOL     OW10906   3.082   6.114   5.877
 3336SOL    HW110907   3.038   6.192   5.922
 3336SOL    HW210908   3.172   6.098   5.918
 3337SOL     OW10909   3.506   1.702   0.805
 3337SOL    HW110910   3.476   1.783   0.855
 3337SOL    HW210911   3.473   1.620   0.851
 3338SOL     OW10912   0.041   4.436   0.440
 3338SOL    HW110913   7.003   4.415   0.519
 3338SOL    HW210914   0.137   4.417   0.462
 3339SOL     OW10915   1.220   5.332   6.033
 3339SOL    HW110916   1.231   5.233   6.041
 3339SOL    HW210917   1.308   5.377   6.052
 3340SOL     OW10918   3.961   0.555   2.184
 3340SOL    HW110919   4.006   0.582   2.099
 3340SOL    HW210920   3.907   0.472   2.168
 3341SOL     OW10921   6.938   6.827   1.264
 3341SOL    HW110922   6.969   6.917   1.233
 3341SOL    HW210923   6.893   6.779   1.189
 3342SOL     OW10924   2.850   0.495   5.155
 3342SOL    HW110925   2.906   0.526   5.231
 3342SOL    HW210926   2.894   0.418   5.109
 3343SOL     OW10927   0.432   2.380   1.245
 3343SOL    HW110928   0.477   2.462   1.280
 3343SOL    HW210929   0.490   2.339   1.174
 3344SOL     OW10930   0.144   2.464   5.916
 3344SOL    HW110931   0.091   2.499   5.840
 3344SOL    HW210932   0.232   2.512   5.921
 3345SOL     OW10933   1.762   3.428   5.365
 3345SOL    HW110934   1.812   3.514   5.353
 3345SOL    HW210935   1.813   3.369   5.429
 3346SOL     OW10936   1.653   6.010   2.179
 3346SOL    HW110937   1.585   6.081   2.200
 3346SOL    HW210938   1.719   6.004   2.254
 3347SOL     OW10939   5.976   3.820   4.059
 3347SOL    HW110940   5.933   3.760   4.127
 3347SOL    HW210941   6.075   3.823   4.075
 3348SOL     OW10942   3.755   3.563   3.207
 3348SOL    HW110943   3.843   3.545   3.252
 3348SOL    HW210944   3.769   3.572   3.109
 3349SOL     OW10945   5.645   3.156   6.410
 3349SOL    HW110946   5.623   3.252   6.427
 3349SOL    HW210947   5.676   3.114   6.495
 3350SOL     OW10948   1.282   2.243   1.004
 3350SOL    HW110949   1.208   2.290   1.052
 3350SOL    HW210950   1.357   2.307   0.987
 3351SOL     OW10951   5.295   2.661   0.640
 3351SOL    HW110952   5.390   2.652   0.669
 3351SOL    HW210953   5.257   2.570   0.622
 3352SOL     OW10954   0.548   3.595   0.001
 3352SOL    HW110955   0.597   3.510   0.018
 3352SOL    HW210956   0.486   3.584   6.943
 3353SOL     OW10957   1.684   6.389   6.084
 3353SOL    HW110958   1.718   6.478   6.113
 3353SOL    HW210959   1.598   6.368   6.131
 3354SOL     OW10960   1.061   1.124   1.812
 3354SOL    HW110961   0.983   1.098   1.756
 3354SOL    HW210962   1.140   1.066   1.789
 3355SOL     OW10963   6.438   0.783   2.799
 3355SOL    HW110964   6.459   0.685   2.804
 3355SOL    HW210965   6.353   0.802   2.849
 3356SOL     OW10966   1.492   3.479   5.354
 3356SOL    HW110967   1.572   3.438   5.397
 3356SOL    HW210968   1.511   3.498   5.258
 3357SOL     OW10969   2.571   5.234   2.306
 3357SOL    HW110970   2.589   5.332   2.311
 3357SOL    HW210971   2.604   5.189   2.389
 3358SOL     OW10972   7.000   4.700   3.507
 3358SOL    HW110973   7.003   4.763   3.585
 3358SOL    HW210974   0.001   4.751   3.423
 3359SOL     OW10975   1.823   1.406   1.926
 3359SOL    HW110976   1.801   1.348   1.848
 3359SOL    HW210977   1.789   1.498   1.909
 3360SOL     OW10978   2.381   0.629   6.320
 3360SOL    HW110979   2.376   0.707   6.381
 3360SOL    HW210980   2.370   0.544   6.373
 3361SOL     OW10981   3.823   0.724   3.153
 3361SOL    HW110982   3.882   0.684   3.083
 3361SOL    HW210983   3.787   0.811   3.120
 3362SOL     OW10984   2.612   1.874   4.578
 3362SOL    HW110985   2.605   1.939   4.654
 3362SOL    HW210986   2.535   1.885   4.516
 3363SOL     OW10987   6.924   0.531   6.352
 3363SOL    HW110988   6.995   0.529   6.281
 3363SOL    HW210989   6.846   0.477   6.323
 3364SOL     OW10990   2.032   4.851   6.282
 3364SOL    HW110991   2.081   4.779   6.331
 3364SOL    HW210992   2.050   4.939   6.325
 3365SOL     OW10993   6.074   2.137   5.935
 3365SOL    HW110994   6.069   2.233   5.961
 3365SOL    HW210995   6.103   2.131   5.839
 3366SOL     OW10996   5.247   0.894   6.753
 3366SOL    HW110997   5.225   0.813   6.700
 3366SOL    HW210998   5.172   0.915   6.815
 3367SOL     OW10999   1.998   0.150   1.960
 3367SOL    HW111000   1.989   0.117   1.866
 3367SOL    HW211001   2.094   0.163   1.983
 3368SOL     OW11002   6.731   1.439   5.697
 3368SOL    HW111003   6.677   1.466   5.776
 3368SOL    HW211004   6.676   1.383   5.636
 3369SOL     OW11005   3.432   6.425   6.643
 3369SOL    HW111006   3.515   6.472   6.675
 3369SOL    HW211007   3.421   6.441   6.545
 3370SOL     OW11008   5.446   6.815   5.563
 3370SOL    HW111009   5.429   6.721   5.533
 3370SOL    HW211010   5.364   6.852   5.606
 3371SOL     OW11011   6.584   4.863   1.199
 3371SOL    HW111012   6.522   4.850   1.122
 3371SOL    HW211013   6.585   4.960   1.225
 3372SOL     OW11014   0.423   2.305   2.731
 3372SOL    HW111015   0.438   2.367   2.654
 3372SOL    HW211016   0.331   2.268   2.727
 3373SOL     OW11017   0.611   2.361   6.641
 3373SOL    HW111018   0.577   2.269   6.622
 3373SOL    HW211019   0.687   2.381   6.579
 3374SOL     OW11020   4.065   6.051   5.349
 3374SOL    HW111021   4.031   6.005   5.431
 3374SOL    HW211022   4.030   6.145   5.347
 3375SOL     OW11023   4.031   3.821   4.918
 3375SOL    HW111024   4.045   3.900   4.978
 3375SOL    HW211025   4.091   3.828   4.839
 3376SOL     OW11026   2.689   3.178   1.731
 3376SOL    HW111027   2.637   3.263   1.726
 3376SOL    HW211028   2.635   3.103   1.692
 3377SOL     OW11029   2.779   5.274   5.359
 3377SOL    HW111030   2.711   5.314   5.420
 3377SOL    HW211031   2.799   5.180   5.388
 3378SOL     OW11032   0.298   0.947   0.560
 3378SOL    HW111033   0.269   0.982   0.471
 3378SOL    HW211034   0.397   0.936   0.561
 3379SOL     OW11035   6.558   4.905   5.769
 3379SOL    HW111036   6.535   4.994   5.806
 3379SOL    HW211037   6.523   4.896   5.676
 3380SOL     OW11038   0.935   3.886   5.336
 3380SOL    HW111039   1.025   3.881   5.380
 3380SOL    HW211040   0.941   3.943   5.254
 3381SOL     OW11041   3.504   2.767   1.604
 3381SOL    HW111042   3.562   2.702   1.654
 3381SOL    HW211043   3.464   2.832   1.668
 3382SOL     OW11044   6.817   6.448   6.802
 3382SOL    HW111045   6.790   6.522   6.740
 3382SOL    HW211046   6.902   6.407   6.769
 3383SOL     OW11047   0.506   3.942   2.194
 3383SOL    HW111048   0.507   4.041   2.209
 3383SOL    HW211049   0.441   3.921   2.121
 3384SOL     OW11050   3.058   3.257   4.306
 3384SOL    HW111051   2.982   3.320   4.319
 3384SOL    HW211052   3.054   3.217   4.215
 3385SOL     OW11053   6.914   4.289   3.584
 3385SOL    HW111054   6.973   4.231   3.640
 3385SOL    HW211055   6.948   4.290   3.490
 3386SOL     OW11056   5.963   3.609   5.194
 3386SOL    HW111057   5.918   3.557   5.266
 3386SOL    HW211058   5.977   3.551   5.114
 3387SOL     OW11059   3.363   2.113   2.818
 3387SOL    HW111060   3.331   2.085   2.728
 3387SOL    HW211061   3.291   2.164   2.865
 3388SOL     OW11062   5.441   2.770   1.849
 3388SOL    HW111063   5.518   2.754   1.787
 3388SOL    HW211064   5.475   2.781   1.942
 3389SOL     OW11065   4.052   4.796   3.068
 3389SOL    HW111066   4.129   4.847   3.107
 3389SOL    HW211067   3.988   4.772   3.141
 3390SOL     OW11068   4.498   2.541   5.795
 3390SOL    HW111069   4.571   2.531   5.728
 3390SOL    HW211070   4.409   2.543   5.748
 3391SOL     OW11071   3.875   1.966   4.286
 3391SOL    HW111072   3.927   2.015   4.216
 3391SOL    HW211073   3.777   1.977   4.268
 3392SOL     OW11074   4.984   5.986   3.151
 3392SOL    HW111075   4.902   5.979   3.094
 3392SOL    HW211076   4.958   6.012   3.244
 3393SOL     OW11077   6.737   0.832   6.956
 3393SOL    HW111078   6.783   0.747   6.929
 3393SOL    HW211079   6.774   0.908   6.904
 3394SOL     OW11080   5.618   1.263   2.436
 3394SOL    HW111081   5.690   1.201   2.406
 3394SOL    HW211082   5.533   1.244   2.385
 3395SOL     OW11083   1.279   3.859   5.074
 3395SOL    HW111084   1.372   3.895   5.080
 3395SOL    HW211085   1.240   3.854   5.166
 3396SOL     OW11086   6.763   3.528   4.391
 3396SOL    HW111087   6.697   3.524   4.467
 3396SOL    HW211088   6.746   3.610   4.337
 3397SOL     OW11089   2.852   6.049   6.236
 3397SOL    HW111090   2.945   6.082   6.254
 3397SOL    HW211091   2.789   6.127   6.235
 3398SOL     OW11092   0.813   0.685   3.753
 3398SOL    HW111093   0.743   0.753   3.731
 3398SOL    HW211094   0.837   0.691   3.850
 3399SOL     OW11095   4.254   5.347   4.717
 3399SOL    HW111096   4.291   5.324   4.807
 3399SOL    HW211097   4.167   5.396   4.729
 3400SOL     OW11098   4.906   2.315   6.982
 3400SOL    HW111099   4.932   2.401   0.005
 3400SOL    HW211100   4.976   2.289   6.915
 3401SOL     OW11101   6.923   4.719   7.012
 3401SOL    HW111102   6.950   4.677   0.079
 3401SOL    HW211103   6.837   4.770   0.005
 3402SOL     OW11104   5.341   5.200   2.348
 3402SOL    HW111105   5.316   5.180   2.254
 3402SOL    HW211106   5.276   5.267   2.386
 3403SOL     OW11107   3.085   2.015   5.102
 3403SOL    HW111108   3.103   2.107   5.066
 3403SOL    HW211109   3.013   1.972   5.048
 3404SOL     OW11110   4.164   0.324   1.470
 3404SOL    HW111111   4.201   0.405   1.423
 3404SOL    HW211112   4.113   0.354   1.551
 3405SOL     OW11113   5.863   3.529   0.689
 3405SOL    HW111114   5.866   3.596   0.615
 3405SOL    HW211115   5.955   3.517   0.727
 3406SOL     OW11116   1.041   4.601   1.715
 3406SOL    HW111117   1.102   4.534   1.672
 3406SOL    HW211118   0.948   4.589   1.680
 3407SOL     OW11119   1.317   5.239   2.830
 3407SOL    HW111120   1.331   5.290   2.915
 3407SOL    HW211121   1.219   5.225   2.815
 3408SOL     OW11122   5.150   4.030   2.746
 3408SOL    HW111123   5.165   3.941   2.704
 3408SOL    HW211124   5.198   4.033   2.834
 3409SOL     OW11125   2.916   0.699   5.499
 3409SOL    HW111126   2.980   0.717   5.424
 3409SOL    HW211127   2.862   0.782   5.517
 3410SOL     OW11128   0.222   0.901   0.289
 3410SOL    HW111129   0.264   0.941   0.208
 3410SOL    HW211130   0.251   0.806   0.298
 3411SOL     OW11131   4.597   2.594   2.517
 3411SOL    HW111132   4.598   2.694   2.512
 3411SOL    HW211133   4.591   2.555   2.425
 3412SOL     OW11134   4.079   5.564   6.738
 3412SOL    HW111135   4.052   5.635   6.672
 3412SOL    HW211136   4.153   5.510   6.699
 3413SOL     OW11137   4.386   1.592   2.458
 3413SOL    HW111138   4.346   1.624   2.544
 3413SOL    HW211139   4.433   1.667   2.412
 3414SOL     OW11140   3.545   1.211   5.262
 3414SOL    HW111141   3.532   1.175   5.169
 3414SOL    HW211142   3.466   1.189   5.318
 3415SOL     OW11143   0.901   5.557   4.274
 3415SOL    HW111144   0.874   5.616   4.198
 3415SOL    HW211145   0.992   5.519   4.256
 3416SOL     OW11146   2.300   4.883   6.036
 3416SOL    HW111147   2.374   4.827   6.073
 3416SOL    HW211148   2.246   4.830   5.971
 3417SOL     OW11149   5.868   0.826   1.327
 3417SOL    HW111150   5.958   0.785   1.339
 3417SOL    HW211151   5.798   0.756   1.332
 3418SOL     OW11152   3.335   1.952   6.366
 3418SOL    HW111153   3.359   1.968   6.271
 3418SOL    HW211154   3.314   2.040   6.410
 3419SOL     OW11155   4.478   3.732   0.412
 3419SOL    HW111156   4.569   3.772   0.410
 3419SOL    HW211157   4.409   3.805   0.418
 3420SOL     OW11158   4.229   1.775   3.801
 3420SOL    HW111159   4.202   1.743   3.891
 3420SOL    HW211160   4.168   1.850   3.772
 3421SOL     OW11161   0.377   6.909   3.731
 3421SOL    HW111162   0.477   6.909   3.737
 3421SOL    HW211163   0.347   6.986   3.674
 3422SOL     OW11164   3.087   2.125   2.614
 3422SOL    HW111165   3.071   2.028   2.631
 3422SOL    HW211166   3.145   2.135   2.533
 3423SOL     OW11167   2.674   0.983   2.165
 3423SOL    HW111168   2.761   1.002   2.121
 3423SOL    HW211169   2.689   0.929   2.248
 3424SOL     OW11170   4.391   0.754   2.183
 3424SOL    HW111171   4.427   0.817   2.114
 3424SOL    HW211172   4.321   0.695   2.141
 3425SOL     OW11173   4.899   4.048   1.931
 3425SOL    HW111174   4.872   4.057   2.027
 3425SOL    HW211175   4.970   4.114   1.910
 3426SOL     OW11176   4.351   3.571   0.680
 3426SOL    HW111177   4.326   3.595   0.587
 3426SOL    HW211178   4.420   3.499   0.679
 3427SOL     OW11179   0.936   1.407   0.652
 3427SOL    HW111180   0.922   1.420   0.751
 3427SOL    HW211181   0.906   1.489   0.603
 3428SOL     OW11182   4.408   4.607   3.409
 3428SOL    HW111183   4.420   4.586   3.506
 3428SOL    HW211184   4.419   4.523   3.355
 3429SOL     OW11185   0.487   3.108   7.012
 3429SOL    HW111186   0.421   3.062   0.051
 3429SOL    HW211187   0.439   3.157   6.939
 3430SOL     OW11188   1.187   5.796   6.609
 3430SOL    HW111189   1.258   5.755   6.551
 3430SOL    HW211190   1.120   5.727   6.634
 3431SOL     OW11191   1.364   6.171   6.837
 3431SOL    HW111192   1.349   6.125   6.750
 3431SOL    HW211193   1.304   6.132   6.907
 3432SOL     OW11194   2.516   2.202   6.872
 3432SOL    HW111195   2.432   2.255   6.870
 3432SOL    HW211196   2.495   2.105   6.865
 3433SOL     OW11197   4.734   0.702   4.172
 3433SOL    HW111198   4.801   0.650   4.118
 3433SOL    HW211199   4.673   0.639   4.220
 3434SOL     OW11200   4.527   1.928   3.701
 3434SOL    HW111201   4.595   1.973   3.643
 3434SOL    HW211202   4.524   1.830   3.680
 3435SOL     OW11203   0.554   1.232   6.768
 3435SOL    HW111204   0.577   1.160   6.833
 3435SOL    HW211205   0.576   1.321   6.808
 3436SOL     OW11206   4.807   6.782   3.170
 3436SOL    HW111207   4.708   6.768   3.164
 3436SOL    HW211208   4.836   6.845   3.098
 3437SOL     OW11209   4.862   0.532   6.433
 3437SOL    HW111210   4.802   0.603   6.396
 3437SOL    HW211211   4.915   0.491   6.358
 3438SOL     OW11212   1.430   4.437   6.744
 3438SOL    HW111213   1.486   4.512   6.708
 3438SOL    HW211214   1.425   4.363   6.677
 3439SOL     OW11215   2.478   6.982   3.443
 3439SOL    HW111216   2.535   0.027   3.392
 3439SOL    HW211217   2.480   6.893   3.397
 3440SOL     OW11218   3.389   1.951   0.427
 3440SOL    HW111219   3.461   1.906   0.374
 3440SOL    HW211220   3.361   1.892   0.502
 3441SOL     OW11221   4.232   0.923   4.804
 3441SOL    HW111222   4.276   0.965   4.883
 3441SOL    HW211223   4.196   0.833   4.829
 3442SOL     OW11224   0.832   4.780   3.283
 3442SOL    HW111225   0.824   4.686   3.317
 3442SOL    HW211226   0.895   4.831   3.341
 3443SOL     OW11227   5.963   6.998   3.961
 3443SOL    HW111228   5.890   0.041   3.987
 3443SOL    HW211229   5.969   6.992   3.862
 3444SOL     OW11230   4.272   5.287   0.233
 3444SOL    HW111231   4.336   5.214   0.210
 3444SOL    HW211232   4.184   5.248   0.258
 3445SOL     OW11233   5.826   5.203   5.038
 3445SOL    HW111234   5.907   5.202   5.097
 3445SOL    HW211235   5.835   5.132   4.969
 3446SOL     OW11236   3.132   6.343   3.107
 3446SOL    HW111237   3.168   6.435   3.123
 3446SOL    HW211238   3.165   6.309   3.019
 3447SOL     OW11239   6.491   4.970   6.150
 3447SOL    HW111240   6.454   4.987   6.242
 3447SOL    HW211241   6.455   4.883   6.115
 3448SOL     OW11242   3.570   2.284   1.202
 3448SOL    HW111243   3.575   2.193   1.160
 3448SOL    HW211244   3.595   2.353   1.134
 3449SOL     OW11245   5.946   6.031   2.709
 3449SOL    HW111246   6.024   6.090   2.686
 3449SOL    HW211247   5.973   5.936   2.699
 3450SOL     OW11248   0.790   2.295   1.394
 3450SOL    HW111249   0.801   2.344   1.480
 3450SOL    HW211250   0.881   2.273   1.356
 3451SOL     OW11251   1.445   5.455   3.972
 3451SOL    HW111252   1.477   5.535   4.023
 3451SOL    HW211253   1.514   5.383   3.977
 3452SOL     OW11254   6.536   2.494   0.230
 3452SOL    HW111255   6.636   2.498   0.220
 3452SOL    HW211256   6.499   2.587   0.229
 3453SOL     OW11257   6.027   6.436   5.825
 3453SOL    HW111258   5.958   6.365   5.822
 3453SOL    HW211259   6.053   6.462   5.731
 3454SOL     OW11260   0.871   1.095   0.084
 3454SOL    HW111261   0.796   1.094   0.151
 3454SOL    HW211262   0.874   1.008   0.036
 3455SOL     OW11263   2.386   2.694   4.293
 3455SOL    HW111264   2.463   2.638   4.321
 3455SOL    HW211265   2.365   2.760   4.366
 3456SOL     OW11266   6.401   0.171   1.133
 3456SOL    HW111267   6.319   0.136   1.087
 3456SOL    HW211268   6.418   0.119   1.216
 3457SOL     OW11269   2.574   6.074   3.575
 3457SOL    HW111270   2.494   6.052   3.518
 3457SOL    HW211271   2.652   6.019   3.545
 3458SOL     OW11272   4.961   5.226   0.845
 3458SOL    HW111273   5.005   5.239   0.756
 3458SOL    HW211274   4.878   5.171   0.833
 3459SOL     OW11275   0.073   6.550   3.372
 3459SOL    HW111276   0.135   6.568   3.449
 3459SOL    HW211277   0.120   6.493   3.304
 3460SOL     OW11278   3.621   3.107   5.991
 3460SOL    HW111279   3.704   3.117   5.937
 3460SOL    HW211280   3.591   3.011   5.990
 3461SOL     OW11281   2.658   6.038   2.919
 3461SOL    HW111282   2.561   6.063   2.925
 3461SOL    HW211283   2.696   6.030   3.011
 3462SOL     OW11284   5.018   3.255   2.969
 3462SOL    HW111285   5.020   3.179   3.033
 3462SOL    HW211286   5.038   3.222   2.877
 3463SOL     OW11287   2.366   2.736   1.068
 3463SOL    HW111288   2.361   2.637   1.065
 3463SOL    HW211289   2.407   2.765   1.155
 3464SOL     OW11290   4.872   2.040   5.879
 3464SOL    HW111291   4.800   1.983   5.919
 3464SOL    HW211292   4.873   2.129   5.925
 3465SOL     OW11293   1.825   4.536   1.569
 3465SOL    HW111294   1.819   4.514   1.667
 3465SOL    HW211295   1.814   4.635   1.558
 3466SOL     OW11296   6.625   4.571   4.223
 3466SOL    HW111297   6.676   4.505   4.280
 3466SOL    HW211298   6.625   4.540   4.128
 3467SOL     OW11299   3.091   3.032   1.261
 3467SOL    HW111300   3.026   3.074   1.198
 3467SOL    HW211301   3.048   2.955   1.307
 3468SOL     OW11302   3.712   1.726   0.454
 3468SOL    HW111303   3.683   1.632   0.465
 3468SOL    HW211304   3.661   1.769   0.379
 3469SOL     OW11305   3.755   6.140   5.822
 3469SOL    HW111306   3.820   6.066   5.808
 3469SOL    HW211307   3.757   6.169   5.917
 3470SOL     OW11308   1.443   3.179   1.639
 3470SOL    HW111309   1.517   3.218   1.693
 3470SOL    HW211310   1.358   3.180   1.692
 3471SOL     OW11311   4.962   3.183   4.817
 3471SOL    HW111312   4.924   3.273   4.797
 3471SOL    HW211313   5.019   3.153   4.741
 3472SOL     OW11314   4.411   1.787   3.203
 3472SOL    HW111315   4.397   1.689   3.192
 3472SOL    HW211316   4.332   1.836   3.166
 3473SOL     OW11317   6.448   4.912   1.726
 3473SOL    HW111318   6.445   4.879   1.821
 3473SOL    HW211319   6.397   4.998   1.720
 3474SOL     OW11320   5.476   4.610   4.496
 3474SOL    HW111321   5.439   4.666   4.421
 3474SOL    HW211322   5.558   4.563   4.465
 3475SOL     OW11323   6.837   4.743   4.172
 3475SOL    HW111324   6.756   4.686   4.159
 3475SOL    HW211325   6.916   4.685   4.190
 3476SOL     OW11326   1.591   1.510   3.609
 3476SOL    HW111327   1.547   1.599   3.622
 3476SOL    HW211328   1.690   1.520   3.617
 3477SOL     OW11329   0.737   4.169   2.018
 3477SOL    HW111330   0.739   4.070   2.005
 3477SOL    HW211331   0.652   4.195   2.064
 3478SOL     OW11332   2.084   1.016   1.527
 3478SOL    HW111333   2.022   1.076   1.578
 3478SOL    HW211334   2.151   1.071   1.478
 3479SOL     OW11335   1.458   5.247   4.574
 3479SOL    HW111336   1.524   5.311   4.613
 3479SOL    HW211337   1.477   5.154   4.607
 3480SOL     OW11338   1.218   4.642   6.741
 3480SOL    HW111339   1.236   4.738   6.763
 3480SOL    HW211340   1.304   4.591   6.740
 3481SOL     OW11341   5.973   1.028   4.699
 3481SOL    HW111342   6.064   1.034   4.741
 3481SOL    HW211343   5.912   1.095   4.742
 3482SOL     OW11344   5.907   3.290   6.276
 3482SOL    HW111345   5.844   3.229   6.324
 3482SOL    HW211346   5.991   3.300   6.329
 3483SOL     OW11347   5.384   2.944   5.654
 3483SOL    HW111348   5.325   3.007   5.603
 3483SOL    HW211349   5.328   2.885   5.712
 3484SOL     OW11350   1.191   4.063   4.913
 3484SOL    HW111351   1.220   4.132   4.980
 3484SOL    HW211352   1.192   3.973   4.957
 3485SOL     OW11353   6.881   3.015   6.672
 3485SOL    HW111354   6.898   3.025   6.574
 3485SOL    HW211355   6.966   2.992   6.718
 3486SOL     OW11356   2.283   6.154   5.163
 3486SOL    HW111357   2.286   6.251   5.137
 3486SOL    HW211358   2.193   6.133   5.201
 3487SOL     OW11359   4.445   1.251   6.731
 3487SOL    HW111360   4.415   1.318   6.799
 3487SOL    HW211361   4.545   1.244   6.733
 3488SOL     OW11362   5.791   0.256   4.836
 3488SOL    HW111363   5.855   0.286   4.765
 3488SOL    HW211364   5.823   0.289   4.925
 3489SOL     OW11365   2.861   6.229   0.943
 3489SOL    HW111366   2.846   6.211   1.040
 3489SOL    HW211367   2.781   6.275   0.905
 3490SOL     OW11368   3.528   6.694   0.355
 3490SOL    HW111369   3.572   6.623   0.300
 3490SOL    HW211370   3.460   6.652   0.415
 3491SOL     OW11371   4.066   4.946   6.070
 3491SOL    HW111372   4.165   4.954   6.065
 3491SOL    HW211373   4.036   4.864   6.022
 3492SOL     OW11374   6.117   3.958   2.480
 3492SOL    HW111375   6.176   3.942   2.559
 3492SOL    HW211376   6.021   3.957   2.510
 3493SOL     OW11377   6.878   2.832   5.594
 3493SOL    HW111378   6.778   2.819   5.595
 3493SOL    HW211379   6.906   2.871   5.506
 3494SOL     OW11380   3.766   1.849   2.888
 3494SOL    HW111381   3.848   1.835   2.833
 3494SOL    HW211382   3.741   1.946   2.886
 3495SOL     OW11383   0.937   3.128   2.805
 3495SOL    HW111384   0.903   3.038   2.829
 3495SOL    HW211385   1.037   3.127   2.801
 3496SOL     OW11386   5.523   5.338   0.791
 3496SOL    HW111387   5.451   5.307   0.729
 3496SOL    HW211388   5.513   5.292   0.880
 3497SOL     OW11389   3.068   6.972   2.715
 3497SOL    HW111390   3.083   6.930   2.625
 3497SOL    HW211391   3.129   6.930   2.782
 3498SOL     OW11392   2.277   2.426   1.552
 3498SOL    HW111393   2.272   2.525   1.565
 3498SOL    HW211394   2.256   2.380   1.638
 3499SOL     OW11395   6.359   6.166   4.862
 3499SOL    HW111396   6.387   6.139   4.954
 3499SOL    HW211397   6.300   6.247   4.867
 3500SOL     OW11398   2.173   2.231   4.636
 3500SOL    HW111399   2.100   2.196   4.694
 3500SOL    HW211400   2.143   2.230   4.540
 3501SOL     OW11401   1.537   0.228   4.871
 3501SOL    HW111402   1.448   0.189   4.896
 3501SOL    HW211403   1.556   0.307   4.930
 3502SOL     OW11404   4.705   2.845   2.449
 3502SOL    HW111405   4.727   2.861   2.353
 3502SOL    HW211406   4.767   2.898   2.507
 3503SOL     OW11407   6.492   6.518   6.646
 3503SOL    HW111408   6.425   6.487   6.714
 3503SOL    HW211409   6.563   6.572   6.691
 3504SOL     OW11410   1.350   0.468   0.061
 3504SOL    HW111411   1.421   0.423   0.114
 3504SOL    HW211412   1.268   0.480   0.118
 3505SOL     OW11413   5.180   4.378   6.085
 3505SOL    HW111414   5.278   4.374   6.105
 3505SOL    HW211415   5.166   4.417   5.994
 3506SOL     OW11416   4.452   5.013   4.754
 3506SOL    HW111417   4.391   5.037   4.829
 3506SOL    HW211418   4.535   5.070   4.759
 3507SOL     OW11419   2.964   0.811   1.073
 3507SOL    HW111420   3.024   0.731   1.063
 3507SOL    HW211421   3.011   0.880   1.129
 3508SOL     OW11422   3.190   1.660   5.332
 3508SOL    HW111423   3.219   1.738   5.276
 3508SOL    HW211424   3.267   1.597   5.344
 3509SOL     OW11425   3.260   5.689   6.288
 3509SOL    HW111426   3.354   5.688   6.321
 3509SOL    HW211427   3.204   5.747   6.347
 3510SOL     OW11428   2.453   1.400   0.507
 3510SOL    HW111429   2.542   1.355   0.513
 3510SOL    HW211430   2.381   1.330   0.508
 3511SOL     OW11431   3.074   4.460   1.662
 3511SOL    HW111432   3.012   4.475   1.739
 3511SOL    HW211433   3.160   4.508   1.679
 3512SOL     OW11434   0.292   5.356   5.663
 3512SOL    HW111435   0.330   5.383   5.574
 3512SOL    HW211436   0.193   5.363   5.660
 3513SOL     OW11437   6.259   1.889   0.323
 3513SOL    HW111438   6.308   1.935   0.397
 3513SOL    HW211439   6.173   1.938   0.305
 3514SOL     OW11440   3.580   1.279   2.126
 3514SOL    HW111441   3.653   1.309   2.065
 3514SOL    HW211442   3.616   1.267   2.218
 3515SOL     OW11443   0.294   5.204   4.576
 3515SOL    HW111444   0.387   5.188   4.608
 3515SOL    HW211445   0.295   5.214   4.476
 3516SOL     OW11446   4.492   0.211   1.556
 3516SOL    HW111447   4.420   0.164   1.608
 3516SOL    HW211448   4.566   0.147   1.537
 3517SOL     OW11449   5.863   0.476   1.503
 3517SOL    HW111450   5.804   0.402   1.534
 3517SOL    HW211451   5.808   0.545   1.455
 3518SOL     OW11452   5.074   0.762   5.109
 3518SOL    HW111453   5.138   0.827   5.068
 3518SOL    HW211454   5.012   0.727   5.039
 3519SOL     OW11455   3.327   0.771   1.264
 3519SOL    HW111456   3.307   0.835   1.190
 3519SOL    HW211457   3.299   0.811   1.351
 3520SOL     OW11458   2.683   6.078   4.961
 3520SOL    HW111459   2.762   6.132   4.932
 3520SOL    HW211460   2.715   5.991   5.000
 3521SOL     OW11461   2.499   2.874   6.684
 3521SOL    HW111462   2.526   2.949   6.625
 3521SOL    HW211463   2.565   2.799   6.675
 3522SOL     OW11464   0.587   5.514   6.329
 3522SOL    HW111465   0.612   5.479   6.239
 3522SOL    HW211466   0.663   5.565   6.368
 3523SOL     OW11467   2.204   5.647   0.258
 3523SOL    HW111468   2.169   5.626   0.350
 3523SOL    HW211469   2.272   5.720   0.264
 3524SOL     OW11470   5.220   1.261   3.640
 3524SOL    HW111471   5.203   1.357   3.620
 3524SOL    HW211472   5.222   1.209   3.555
 3525SOL     OW11473   0.070   3.315   2.988
 3525SOL    HW111474   7.018   3.245   2.987
 3525SOL    HW211475   0.155   3.276   2.954
 3526SOL     OW11476   0.291   6.516   2.674
 3526SOL    HW111477   0.229   6.465   2.615
 3526SOL    HW211478   0.382   6.517   2.634
 3527SOL     OW11479   0.499   2.640   6.045
 3527SOL    HW111480   0.455   2.726   6.018
 3527SOL    HW211481   0.462   2.611   6.134
 3528SOL     OW11482   2.315   5.988   4.815
 3528SOL    HW111483   2.384   5.917   4.808
 3528SOL    HW211484   2.224   5.946   4.817
 3529SOL     OW11485   4.164   5.556   0.947
 3529SOL    HW111486   4.144   5.460   0.968
 3529SOL    HW211487   4.260   5.575   0.968
 3530SOL     OW11488   6.393   6.533   1.265
 3530SOL    HW111489   6.431   6.443   1.286
 3530SOL    HW211490   6.385   6.543   1.166
 3531SOL     OW11491   4.766   2.035   0.408
 3531SOL    HW111492   4.749   2.133   0.405
 3531SOL    HW211493   4.845   2.012   0.352
 3532SOL     OW11494   1.847   1.223   2.162
 3532SOL    HW111495   1.748   1.207   2.173
 3532SOL    HW211496   1.861   1.297   2.096
 3533SOL     OW11497   1.126   1.819   2.988
 3533SOL    HW111498   1.041   1.801   3.036
 3533SOL    HW211499   1.168   1.902   3.024
 3534SOL     OW11500   0.301   1.221   1.095
 3534SOL    HW111501   0.399   1.239   1.093
 3534SOL    HW211502   0.259   1.271   1.171
 3535SOL     OW11503   2.673   5.556   4.323
 3535SOL    HW111504   2.767   5.559   4.291
 3535SOL    HW211505   2.668   5.506   4.410
 3536SOL     OW11506   3.760   2.091   2.622
 3536SOL    HW111507   3.775   1.994   2.606
 3536SOL    HW211508   3.715   2.131   2.542
 3537SOL     OW11509   2.390   0.114   3.151
 3537SOL    HW111510   2.360   0.020   3.135
 3537SOL    HW211511   2.485   0.124   3.120
 3538SOL     OW11512   3.311   5.657   3.407
 3538SOL    HW111513   3.223   5.649   3.360
 3538SOL    HW211514   3.384   5.623   3.349
 3539SOL     OW11515   3.845   3.464   4.449
 3539SOL    HW111516   3.773   3.400   4.423
 3539SOL    HW211517   3.824   3.555   4.414
 3540SOL     OW11518   1.841   2.474   3.432
 3540SOL    HW111519   1.888   2.431   3.509
 3540SOL    HW211520   1.861   2.571   3.430
 3541SOL     OW11521   3.632   4.145   4.150
 3541SOL    HW111522   3.703   4.074   4.152
 3541SOL    HW211523   3.622   4.179   4.057
 3542SOL     OW11524   0.003   5.007   1.404
 3542SOL    HW111525   0.018   5.083   1.340
 3542SOL    HW211526   0.070   4.935   1.387
 3543SOL     OW11527   5.878   2.753   5.355
 3543SOL    HW111528   5.840   2.661   5.357
 3543SOL    HW211529   5.831   2.810   5.422
 3544SOL     OW11530   1.801   5.993   0.155
 3544SOL    HW111531   1.739   6.042   0.218
 3544SOL    HW211532   1.757   5.909   0.125
 3545SOL     OW11533   3.057   5.097   0.408
 3545SOL    HW111534   3.060   4.997   0.399
 3545SOL    HW211535   3.081   5.123   0.501
 3546SOL     OW11536   6.353   4.592   2.886
 3546SOL    HW111537   6.451   4.598   2.902
 3546SOL    HW211538   6.326   4.496   2.877
 3547SOL     OW11539   5.192   4.578   4.539
 3547SOL    HW111540   5.292   4.573   4.545
 3547SOL    HW211541   5.156   4.492   4.504
 3548SOL     OW11542   4.690   2.886   5.644
 3548SOL    HW111543   4.764   2.938   5.601
 3548SOL    HW211544   4.630   2.949   5.693
 3549SOL     OW11545   5.849   3.669   2.249
 3549SOL    HW111546   5.917   3.739   2.230
 3549SOL    HW211547   5.812   3.682   2.341
 3550SOL     OW11548   6.006   1.999   2.552
 3550SOL    HW111549   5.949   1.947   2.616
 3550SOL    HW211550   5.951   2.029   2.474
 3551SOL     OW11551   2.577   6.974   2.766
 3551SOL    HW111552   2.614   7.008   2.679
 3551SOL    HW211553   2.493   0.004   2.787
 3552SOL     OW11554   6.905   4.523   3.292
 3552SOL    HW111555   6.806   4.524   3.277
 3552SOL    HW211556   6.928   4.589   3.364
 3553SOL     OW11557   5.571   2.289   3.213
 3553SOL    HW111558   5.566   2.338   3.126
 3553SOL    HW211559   5.665   2.264   3.233
 3554SOL     OW11560   3.769   5.716   6.649
 3554SOL    HW111561   3.828   5.785   6.691
 3554SOL    HW211562   3.774   5.631   6.702
 3555SOL     OW11563   0.315   2.848   3.593
 3555SOL    HW111564   0.375   2.795   3.653
 3555SOL    HW211565   0.283   2.791   3.518
 3556SOL     OW11566   4.270   0.953   6.503
 3556SOL    HW111567   4.293   1.041   6.461
 3556SOL    HW211568   4.347   0.891   6.493
 3557SOL     OW11569   0.772   0.704   4.352
 3557SOL    HW111570   0.675   0.685   4.365
 3557SOL    HW211571   0.784   0.769   4.277
 3558SOL     OW11572   6.940   5.314   1.663
 3558SOL    HW111573   6.852   5.276   1.691
 3558SOL    HW211574   6.925   5.384   1.592
 3559SOL     OW11575   1.142   0.556   5.630
 3559SOL    HW111576   1.152   0.541   5.729
 3559SOL    HW211577   1.130   0.467   5.585
 3560SOL     OW11578   6.833   6.343   2.027
 3560SOL    HW111579   6.800   6.320   2.119
 3560SOL    HW211580   6.782   6.421   1.992
 3561SOL     OW11581   4.583   4.433   4.127
 3561SOL    HW111582   4.613   4.353   4.077
 3561SOL    HW211583   4.644   4.450   4.205
 3562SOL     OW11584   4.268   2.365   3.331
 3562SOL    HW111585   4.243   2.327   3.242
 3562SOL    HW211586   4.352   2.418   3.321
 3563SOL     OW11587   4.513   0.483   1.443
 3563SOL    HW111588   4.523   0.400   1.498
 3563SOL    HW211589   4.603   0.518   1.418
 3564SOL     OW11590   6.939   4.269   2.994
 3564SOL    HW111591   6.896   4.302   3.078
 3564SOL    HW211592   0.014   4.244   3.012
 3565SOL     OW11593   1.651   0.481   5.029
 3565SOL    HW111594   1.718   0.445   4.964
 3565SOL    HW211595   1.576   0.523   4.980
 3566SOL     OW11596   0.875   4.033   6.211
 3566SOL    HW111597   0.817   4.013   6.132
 3566SOL    HW211598   0.860   4.127   6.240
 3567SOL     OW11599   0.248   2.658   0.973
 3567SOL    HW111600   0.160   2.614   0.992
 3567SOL    HW211601   0.252   2.746   1.021
 3568SOL     OW11602   5.410   3.750   3.742
 3568SOL    HW111603   5.345   3.814   3.702
 3568SOL    HW211604   5.423   3.771   3.839
 3569SOL     OW11605   3.639   2.930   3.942
 3569SOL    HW111606   3.611   2.993   3.870
 3569SOL    HW211607   3.739   2.935   3.953
 3570SOL     OW11608   0.791   2.017   5.360
 3570SOL    HW111609   0.768   1.935   5.412
 3570SOL    HW211610   0.864   1.997   5.295
 3571SOL     OW11611   2.453   6.725   4.587
 3571SOL    HW111612   2.425   6.694   4.496
 3571SOL    HW211613   2.500   6.650   4.634
 3572SOL     OW11614   4.832   4.652   1.799
 3572SOL    HW111615   4.779   4.702   1.867
 3572SOL    HW211616   4.798   4.558   1.793
 3573SOL     OW11617   0.408   4.732   3.728
 3573SOL    HW111618   0.475   4.765   3.661
 3573SOL    HW211619   0.332   4.689   3.680
 3574SOL     OW11620   2.253   1.823   5.695
 3574SOL    HW111621   2.325   1.756   5.713
 3574SOL    HW211622   2.214   1.805   5.604
 3575SOL     OW11623   5.154   0.307   0.109
 3575SOL    HW111624   5.232   0.368   0.095
 3575SOL    HW211625   5.075   0.359   0.140
 3576SOL     OW11626   1.470   2.317   0.661
 3576SOL    HW111627   1.562   2.344   0.632
 3576SOL    HW211628   1.448   2.360   0.749
 3577SOL     OW11629   1.702   2.860   4.934
 3577SOL    HW111630   1.794   2.896   4.945
 3577SOL    HW211631   1.699   2.802   4.853
 3578SOL     OW11632   3.686   2.594   6.247
 3578SOL    HW111633   3.675   2.520   6.313
 3578SOL    HW211634   3.595   2.626   6.218
 3579SOL     OW11635   1.001   3.533   1.762
 3579SOL    HW111636   0.944   3.605   1.723
 3579SOL    HW211637   1.040   3.477   1.688
 3580SOL     OW11638   6.970   4.309   1.891
 3580SOL    HW111639   6.978   4.387   1.953
 3580SOL    HW211640   0.040   4.287   1.853
 3581SOL     OW11641   1.581   0.447   2.532
 3581SOL    HW111642   1.497   0.500   2.543
 3581SOL    HW211643   1.570   0.357   2.573
 3582SOL     OW11644   4.310   5.743   6.147
 3582SOL    HW111645   4.408   5.747   6.130
 3582SOL    HW211646   4.291   5.672   6.215
 3583SOL     OW11647   1.054   4.987   1.311
 3583SOL    HW111648   1.043   4.904   1.255
 3583SOL    HW211649   1.104   4.965   1.394
 3584SOL     OW11650   6.129   4.923   4.936
 3584SOL    HW111651   6.136   4.823   4.930
 3584SOL    HW211652   6.190   4.956   5.008
 3585SOL     OW11653   3.299   1.845   4.007
 3585SOL    HW111654   3.363   1.778   3.970
 3585SOL    HW211655   3.289   1.831   4.105
 3586SOL     OW11656   0.196   1.870   4.899
 3586SOL    HW111657   0.214   1.780   4.938
 3586SOL    HW211658   0.112   1.868   4.845
 3587SOL     OW11659   3.246   0.361   6.229
 3587SOL    HW111660   3.166   0.375   6.287
 3587SOL    HW211661   3.291   0.275   6.256
 3588SOL     OW11662   5.794   4.773   4.755
 3588SOL    HW111663   5.729   4.718   4.808
 3588SOL    HW211664   5.887   4.742   4.774
 3589SOL     OW11665   0.873   6.889   6.112
 3589SOL    HW111666   0.902   6.806   6.160
 3589SOL    HW211667   0.828   6.863   6.026
 3590SOL     OW11668   0.017   5.209   5.717
 3590SOL    HW111669   6.943   5.244   5.715
 3590SOL    HW211670   0.051   5.212   5.811
 3591SOL     OW11671   5.824   1.559   0.295
 3591SOL    HW111672   5.831   1.552   0.394
 3591SOL    HW211673   5.732   1.591   0.270
 3592SOL     OW11674   1.512   6.404   1.263
 3592SOL    HW111675   1.415   6.421   1.277
 3592SOL    HW211676   1.548   6.350   1.339
 3593SOL     OW11677   4.023   3.060   5.257
 3593SOL    HW111678   3.938   3.081   5.305
 3593SOL    HW211679   4.093   3.127   5.281
 3594SOL     OW11680   4.715   4.885   5.427
 3594SOL    HW111681   4.808   4.852   5.444
 3594SOL    HW211682   4.649   4.825   5.472
 3595SOL     OW11683   5.696   6.192   4.475
 3595SOL    HW111684   5.612   6.232   4.513
 3595SOL    HW211685   5.741   6.137   4.545
 3596SOL     OW11686   4.107   1.676   3.262
 3596SOL    HW111687   4.113   1.757   3.203
 3596SOL    HW211688   4.173   1.685   3.337
 3597SOL     OW11689   3.352   3.757   5.624
 3597SOL    HW111690   3.305   3.795   5.544
 3597SOL    HW211691   3.289   3.755   5.702
 3598SOL     OW11692   0.441   5.137   4.883
 3598SOL    HW111693   0.426   5.227   4.842
 3598SOL    HW211694   0.405   5.136   4.976
 3599SOL     OW11695   2.736   1.174   5.367
 3599SOL    HW111696   2.803   1.180   5.293
 3599SOL    HW211697   2.765   1.234   5.442
 3600SOL     OW11698   2.878   3.685   6.673
 3600SOL    HW111699   2.907   3.601   6.626
 3600SOL    HW211700   2.907   3.765   6.619
 3601SOL     OW11701   5.035   1.151   5.330
 3601SOL    HW111702   5.051   1.053   5.339
 3601SOL    HW211703   5.120   1.198   5.309
 3602SOL     OW11704   1.580   2.146   1.293
 3602SOL    HW111705   1.594   2.244   1.306
 3602SOL    HW211706   1.507   2.114   1.353
 3603SOL     OW11707   2.237   0.390   5.413
 3603SOL    HW111708   2.244   0.365   5.317
 3603SOL    HW211709   2.218   0.488   5.421
 3604SOL     OW11710   6.976   0.616   3.516
 3604SOL    HW111711   6.941   0.651   3.603
 3604SOL    HW211712   7.008   0.522   3.529
 3605SOL     OW11713   1.082   6.837   4.833
 3605SOL    HW111714   1.052   6.919   4.882
 3605SOL    HW211715   1.004   6.795   4.787
 3606SOL     OW11716   1.898   0.494   2.246
 3606SOL    HW111717   1.947   0.411   2.272
 3606SOL    HW211718   1.954   0.547   2.183
 3607SOL     OW11719   6.170   1.463   3.310
 3607SOL    HW111720   6.110   1.507   3.376
 3607SOL    HW211721   6.244   1.416   3.358
 3608SOL     OW11722   3.041   1.626   5.867
 3608SOL    HW111723   2.980   1.552   5.892
 3608SOL    HW211724   2.997   1.684   5.799
 3609SOL     OW11725   3.613   0.643   5.568
 3609SOL    HW111726   3.710   0.619   5.568
 3609SOL    HW211727   3.558   0.562   5.547
 3610SOL     OW11728   1.441   0.561   5.642
 3610SOL    HW111729   1.348   0.527   5.635
 3610SOL    HW211730   1.483   0.529   5.726
 3611SOL     OW11731   5.752   4.172   2.816
 3611SOL    HW111732   5.807   4.122   2.750
 3611SOL    HW211733   5.656   4.171   2.787
 3612SOL     OW11734   5.216   1.585   0.283
 3612SOL    HW111735   5.239   1.492   0.313
 3612SOL    HW211736   5.249   1.599   0.190
 3613SOL     OW11737   3.693   6.527   2.980
 3613SOL    HW111738   3.659   6.462   2.912
 3613SOL    HW211739   3.784   6.559   2.954
 3614SOL     OW11740   3.479   5.649   6.622
 3614SOL    HW111741   3.436   5.562   6.648
 3614SOL    HW211742   3.569   5.656   6.665
 3615SOL     OW11743   5.098   2.804   5.520
 3615SOL    HW111744   5.029   2.874   5.536
 3615SOL    HW211745   5.156   2.795   5.601
 3616SOL     OW11746   1.727   2.371   0.597
 3616SOL    HW111747   1.795   2.420   0.652
 3616SOL    HW211748   1.749   2.383   0.500
 3617SOL     OW11749   4.228   5.717   5.585
 3617SOL    HW111750   4.217   5.750   5.679
 3617SOL    HW211751   4.319   5.742   5.552
 3618SOL     OW11752   1.138   5.458   4.198
 3618SOL    HW111753   1.220   5.483   4.250
 3618SOL    HW211754   1.165   5.407   4.116
 3619SOL     OW11755   5.801   2.642   2.077
 3619SOL    HW111756   5.845   2.706   2.141
 3619SOL    HW211757   5.756   2.569   2.128
 3620SOL     OW11758   5.772   6.014   4.988
 3620SOL    HW111759   5.745   6.106   4.959
 3620SOL    HW211760   5.726   5.946   4.930
 3621SOL     OW11761   3.363   2.961   3.614
 3621SOL    HW111762   3.433   3.007   3.669
 3621SOL    HW211763   3.291   2.927   3.674
 3622SOL     OW11764   1.533   5.571   6.291
 3622SOL    HW111765   1.446   5.618   6.302
 3622SOL    HW211766   1.594   5.596   6.366
 3623SOL     OW11767   1.262   5.918   5.995
 3623SOL    HW111768   1.301   6.007   5.971
 3623SOL    HW211769   1.162   5.922   5.988
 3624SOL     OW11770   2.282   2.248   2.184
 3624SOL    HW111771   2.262   2.345   2.193
 3624SOL    HW211772   2.228   2.210   2.109
 3625SOL     OW11773   6.325   2.342   1.010
 3625SOL    HW111774   6.377   2.373   1.089
 3625SOL    HW211775   6.277   2.420   0.970
 3626SOL     OW11776   1.812   3.081   5.794
 3626SOL    HW111777   1.801   2.986   5.762
 3626SOL    HW211778   1.842   3.080   5.889
 3627SOL     OW11779   3.504   1.821   2.297
 3627SOL    HW111780   3.477   1.835   2.393
 3627SOL    HW211781   3.515   1.910   2.253
 3628SOL     OW11782   6.478   1.733   1.893
 3628SOL    HW111783   6.429   1.813   1.926
 3628SOL    HW211784   6.452   1.714   1.798
 3629SOL     OW11785   1.837   1.485   4.314
 3629SOL    HW111786   1.844   1.584   4.332
 3629SOL    HW211787   1.797   1.440   4.393
 3630SOL     OW11788   6.337   2.197   2.351
 3630SOL    HW111789   6.257   2.137   2.362
 3630SOL    HW211790   6.418   2.151   2.388
 3631SOL     OW11791   1.989   6.268   2.222
 3631SOL    HW111792   2.043   6.184   2.233
 3631SOL    HW211793   1.929   6.280   2.301
 3632SOL     OW11794   4.941   3.123   2.424
 3632SOL    HW111795   4.896   3.073   2.498
 3632SOL    HW211796   4.879   3.194   2.389
 3633SOL     OW11797   3.946   4.249   0.138
 3633SOL    HW111798   3.851   4.261   0.166
 3633SOL    HW211799   4.006   4.303   0.197
 3634SOL     OW11800   2.832   5.346   6.253
 3634SOL    HW111801   2.909   5.336   6.190
 3634SOL    HW211802   2.760   5.401   6.211
 3635SOL     OW11803   0.975   6.676   2.249
 3635SOL    HW111804   1.059   6.688   2.303
 3635SOL    HW211805   0.996   6.629   2.163
 3636SOL     OW11806   0.424   5.548   5.839
 3636SOL    HW111807   0.371   5.480   5.789
 3636SOL    HW211808   0.507   5.569   5.787
 3637SOL     OW11809   6.180   3.225   0.071
 3637SOL    HW111810   6.239   3.306   0.063
 3637SOL    HW211811   6.086   3.254   0.091
 3638SOL     OW11812   0.283   3.202   3.177
 3638SOL    HW111813   0.374   3.219   3.215
 3638SOL    HW211814   0.247   3.286   3.138
 3639SOL     OW11815   4.083   3.587   4.291
 3639SOL    HW111816   4.176   3.566   4.262
 3639SOL    HW211817   4.024   3.509   4.270
 3640SOL     OW11818   4.345   1.996   2.032
 3640SOL    HW111819   4.308   2.088   2.020
 3640SOL    HW211820   4.414   1.996   2.104
 3641SOL     OW11821   6.206   3.677   2.239
 3641SOL    HW111822   6.228   3.643   2.331
 3641SOL    HW211823   6.253   3.621   2.171
 3642SOL     OW11824   4.854   4.125   6.755
 3642SOL    HW111825   4.942   4.173   6.752
 3642SOL    HW211826   4.796   4.157   6.680
 3643SOL     OW11827   4.087   5.968   4.951
 3643SOL    HW111828   4.132   6.044   4.998
 3643SOL    HW211829   4.109   5.883   4.997
 3644SOL     OW11830   2.864   1.061   1.750
 3644SOL    HW111831   2.944   1.115   1.722
 3644SOL    HW211832   2.795   1.065   1.677
 3645SOL     OW11833   1.500   4.438   3.579
 3645SOL    HW111834   1.498   4.459   3.481
 3645SOL    HW211835   1.587   4.467   3.617
 3646SOL     OW11836   2.124   5.364   5.945
 3646SOL    HW111837   2.213   5.326   5.919
 3646SOL    HW211838   2.058   5.290   5.959
 3647SOL     OW11839   3.504   6.770   7.015
 3647SOL    HW111840   3.456   6.844   0.041
 3647SOL    HW211841   3.448   6.687   7.016
 3648SOL     OW11842   5.109   4.690   3.123
 3648SOL    HW111843   5.013   4.711   3.105
 3648SOL    HW211844   5.122   4.669   3.220
 3649SOL     OW11845   5.581   2.391   0.464
 3649SOL    HW111846   5.502   2.350   0.420
 3649SOL    HW211847   5.551   2.451   0.539
 3650SOL     OW11848   5.190   6.005   6.029
 3650SOL    HW111849   5.151   5.925   5.983
 3650SOL    HW211850   5.118   6.072   6.046
 3651SOL     OW11851   0.551   2.165   5.868
 3651SOL    HW111852   0.496   2.114   5.934
 3651SOL    HW211853   0.612   2.228   5.917
 3652SOL     OW11854   4.858   2.489   2.502
 3652SOL    HW111855   4.789   2.554   2.535
 3652SOL    HW211856   4.832   2.455   2.412
 3653SOL     OW11857   1.929   1.261   0.537
 3653SOL    HW111858   1.910   1.228   0.630
 3653SOL    HW211859   2.026   1.248   0.516
 3654SOL     OW11860   4.139   6.839   2.058
 3654SOL    HW111861   4.106   6.933   2.070
 3654SOL    HW211862   4.093   6.779   2.123
 3655SOL     OW11863   1.252   0.913   3.629
 3655SOL    HW111864   1.258   0.953   3.720
 3655SOL    HW211865   1.205   0.825   3.634
 3656SOL     OW11866   0.127   0.256   1.084
 3656SOL    HW111867   0.224   0.234   1.098
 3656SOL    HW211868   0.099   0.324   1.151
 3657SOL     OW11869   5.744   5.148   6.354
 3657SOL    HW111870   5.694   5.175   6.272
 3657SOL    HW211871   5.813   5.080   6.330
 3658SOL     OW11872   1.840   4.658   5.590
 3658SOL    HW111873   1.895   4.713   5.528
 3658SOL    HW211874   1.893   4.579   5.621
 3659SOL     OW11875   0.506   2.904   6.777
 3659SOL    HW111876   0.599   2.904   6.814
 3659SOL    HW211877   0.441   2.891   6.852
 3660SOL     OW11878   4.229   5.295   5.518
 3660SOL    HW111879   4.281   5.348   5.450
 3660SOL    HW211880   4.190   5.357   5.586
 3661SOL     OW11881   0.326   1.140   4.356
 3661SOL    HW111882   0.266   1.148   4.435
 3661SOL    HW211883   0.364   1.230   4.333
 3662SOL     OW11884   3.230   1.518   5.667
 3662SOL    HW111885   3.171   1.504   5.588
 3662SOL    HW211886   3.175   1.514   5.751
 3663SOL     OW11887   2.142   2.450   6.377
 3663SOL    HW111888   2.129   2.485   6.284
 3663SOL    HW211889   2.202   2.370   6.374
 3664SOL     OW11890   3.481   1.784   1.257
 3664SOL    HW111891   3.496   1.708   1.194
 3664SOL    HW211892   3.455   1.748   1.347
 3665SOL     OW11893   6.999   5.164   5.420
 3665SOL    HW111894   6.991   5.208   5.510
 3665SOL    HW211895   0.070   5.122   5.412
 3666SOL     OW11896   2.202   3.768   4.275
 3666SOL    HW111897   2.147   3.707   4.333
 3666SOL    HW211898   2.245   3.838   4.332
 3667SOL     OW11899   1.814   6.693   0.675
 3667SOL    HW111900   1.723   6.684   0.716
 3667SOL    HW211901   1.876   6.735   0.742
 3668SOL     OW11902   6.206   1.389   0.717
 3668SOL    HW111903   6.144   1.360   0.644
 3668SOL    HW211904   6.175   1.352   0.804
 3669SOL     OW11905   0.210   1.302   2.051
 3669SOL    HW111906   0.174   1.229   2.108
 3669SOL    HW211907   0.309   1.290   2.039
 3670SOL     OW11908   1.947   6.887   1.850
 3670SOL    HW111909   1.945   6.876   1.750
 3670SOL    HW211910   2.031   6.846   1.886
 3671SOL     OW11911   0.149   0.547   4.725
 3671SOL    HW111912   0.101   0.561   4.638
 3671SOL    HW211913   0.117   0.463   4.767
 3672SOL     OW11914   3.894   0.032   3.493
 3672SOL    HW111915   3.806   0.014   3.450
 3672SOL    HW211916   3.967   7.007   3.440
 3673SOL     OW11917   3.246   1.080   1.456
 3673SOL    HW111918   3.169   1.130   1.494
 3673SOL    HW211919   3.260   0.995   1.507
 3674SOL     OW11920   0.392   4.169   5.762
 3674SOL    HW111921   0.327   4.127   5.699
 3674SOL    HW211922   0.387   4.269   5.755
 3675SOL     OW11923   0.069   0.930   4.320
 3675SOL    HW111924   0.074   1.012   4.377
 3675SOL    HW211925   0.116   0.947   4.233
 3676SOL     OW11926   3.178   0.972   5.587
 3676SOL    HW111927   3.263   0.919   5.592
 3676SOL    HW211928   3.120   0.949   5.665
 3677SOL     OW11929   1.494   1.222   4.418
 3677SOL    HW111930   1.550   1.238   4.499
 3677SOL    HW211931   1.397   1.222   4.444
 3678SOL     OW11932   2.179   1.078   3.519
 3678SOL    HW111933   2.217   1.109   3.607
 3678SOL    HW211934   2.193   1.149   3.450
 3679SOL     OW11935   3.168   0.745   2.854
 3679SOL    HW111936   3.165   0.744   2.754
 3679SOL    HW211937   3.076   0.759   2.890
 3680SOL     OW11938   3.189   2.122   4.475
 3680SOL    HW111939   3.125   2.120   4.551
 3680SOL    HW211940   3.140   2.140   4.390
 3681SOL     OW11941   1.156   6.945   3.743
 3681SOL    HW111942   1.083   6.948   3.812
 3681SOL    HW211943   1.244   6.960   3.788
 3682SOL     OW11944   5.448   2.215   1.254
 3682SOL    HW111945   5.440   2.309   1.287
 3682SOL    HW211946   5.415   2.152   1.324
 3683SOL     OW11947   6.679   1.569   0.674
 3683SOL    HW111948   6.672   1.522   0.586
 3683SOL    HW211949   6.666   1.667   0.661
 3684SOL     OW11950   2.624   6.175   5.981
 3684SOL    HW111951   2.654   6.271   5.983
 3684SOL    HW211952   2.667   6.126   6.057
 3685SOL     OW11953   2.382   6.207   3.753
 3685SOL    HW111954   2.446   6.193   3.678
 3685SOL    HW211955   2.423   6.175   3.839
 3686SOL     OW11956   0.049   3.997   0.122
 3686SOL    HW111957   0.035   4.005   0.220
 3686SOL    HW211958   7.000   4.050   0.073
 3687SOL     OW11959   6.020   4.368   4.445
 3687SOL    HW111960   6.071   4.434   4.499
 3687SOL    HW211961   6.035   4.384   4.348
 3688SOL     OW11962   7.010   2.890   1.182
 3688SOL    HW111963   0.054   2.877   1.257
 3688SOL    HW211964   6.931   2.944   1.214
 3689SOL     OW11965   1.208   1.294   5.879
 3689SOL    HW111966   1.261   1.234   5.818
 3689SOL    HW211967   1.221   1.266   5.974
 3690SOL     OW11968   5.820   4.855   1.825
 3690SOL    HW111969   5.812   4.773   1.768
 3690SOL    HW211970   5.776   4.838   1.914
 3691SOL     OW11971   1.487   2.411   0.982
 3691SOL    HW111972   1.498   2.500   0.938
 3691SOL    HW211973   1.576   2.377   1.011
 3692SOL     OW11974   1.223   3.034   5.309
 3692SOL    HW111975   1.244   2.947   5.263
 3692SOL    HW211976   1.293   3.101   5.286
 3693SOL     OW11977   7.011   1.676   2.368
 3693SOL    HW111978   0.013   1.613   2.443
 3693SOL    HW211979   6.980   1.763   2.405
 3694SOL     OW11980   6.987   6.467   2.320
 3694SOL    HW111981   6.906   6.412   2.299
 3694SOL    HW211982   6.974   6.512   2.409
 3695SOL     OW11983   6.067   3.898   3.697
 3695SOL    HW111984   6.103   3.976   3.747
 3695SOL    HW211985   5.985   3.863   3.743
 3696SOL     OW11986   4.598   0.438   3.803
 3696SOL    HW111987   4.503   0.407   3.789
 3696SOL    HW211988   4.598   0.536   3.823
 3697SOL     OW11989   6.273   5.386   2.666
 3697SOL    HW111990   6.347   5.429   2.614
 3697SOL    HW211991   6.290   5.288   2.673
 3698SOL     OW11992   1.813   6.990   4.006
 3698SOL    HW111993   1.773   0.058   3.978
 3698SOL    HW211994   1.911   7.001   4.018
 3699SOL     OW11995   2.432   2.441   3.044
 3699SOL    HW111996   2.427   2.533   3.005
 3699SOL    HW211997   2.514   2.395   3.011
 3700SOL     OW11998   0.967   5.017   4.717
 3700SOL    HW111999   0.977   4.932   4.769
 3700SOL    HW212000   0.900   5.076   4.762
 3701SOL     OW12001   0.458   1.088   2.164
 3701SOL    HW112002   0.373   1.037   2.174
 3701SOL    HW212003   0.529   1.028   2.129
 3702SOL     OW12004   6.565   4.550   3.494
 3702SOL    HW112005   6.465   4.546   3.486
 3702SOL    HW212006   6.591   4.638   3.535
 3703SOL     OW12007   1.364   1.983   3.079
 3703SOL    HW112008   1.351   1.888   3.110
 3703SOL    HW212009   1.390   2.040   3.157
 3704SOL     OW12010   6.108   0.237   1.003
 3704SOL    HW112011   6.131   0.329   1.035
 3704SOL    HW212012   6.095   0.238   0.904
 3705SOL     OW12013   6.181   4.119   3.881
 3705SOL    HW112014   6.271   4.146   3.848
 3705SOL    HW212015   6.117   4.196   3.872
 3706SOL     OW12016   1.050   4.791   6.271
 3706SOL    HW112017   0.961   4.751   6.249
 3706SOL    HW212018   1.037   4.879   6.316
 3707SOL     OW12019   0.928   4.902   3.670
 3707SOL    HW112020   1.006   4.922   3.730
 3707SOL    HW212021   0.848   4.954   3.700
 3708SOL     OW12022   1.499   6.099   0.156
 3708SOL    HW112023   1.432   6.134   0.221
 3708SOL    HW212024   1.534   6.174   0.100
 3709SOL     OW12025   0.598   1.725   2.250
 3709SOL    HW112026   0.672   1.758   2.308
 3709SOL    HW212027   0.511   1.730   2.300
 3710SOL     OW12028   1.799   3.852   4.889
 3710SOL    HW112029   1.810   3.753   4.895
 3710SOL    HW212030   1.867   3.896   4.948
 3711SOL     OW12031   2.257   5.409   4.880
 3711SOL    HW112032   2.306   5.407   4.793
 3711SOL    HW212033   2.181   5.344   4.877
 3712SOL     OW12034   3.209   5.410   4.358
 3712SOL    HW112035   3.197   5.416   4.457
 3712SOL    HW212036   3.283   5.346   4.338
 3713SOL     OW12037   5.905   0.319   5.086
 3713SOL    HW112038   5.938   0.354   5.174
 3713SOL    HW212039   5.928   0.222   5.078
 3714SOL     OW12040   0.263   4.722   6.724
 3714SOL    HW112041   0.306   4.764   6.645
 3714SOL    HW212042   0.228   4.632   6.699
 3715SOL     OW12043   6.244   4.472   3.541
 3715SOL    HW112044   6.201   4.539   3.480
 3715SOL    HW212045   6.251   4.384   3.493
 3716SOL     OW12046   5.870   5.837   5.661
 3716SOL    HW112047   5.922   5.870   5.583
 3716SOL    HW212048   5.825   5.751   5.638
 3717SOL     OW12049   4.581   0.519   1.067
 3717SOL    HW112050   4.639   0.523   1.149
 3717SOL    HW212051   4.573   0.610   1.028
 3718SOL     OW12052   5.711   6.949   6.482
 3718SOL    HW112053   5.640   6.997   6.430
 3718SOL    HW212054   5.729   6.860   6.440
 3719SOL     OW12055   3.035   4.523   0.334
 3719SOL    HW112056   2.957   4.469   0.365
 3719SOL    HW212057   3.046   4.603   0.393
 3720SOL     OW12058   6.907   2.774   0.961
 3720SOL    HW112059   6.807   2.781   0.958
 3720SOL    HW212060   6.942   2.833   1.034
 3721SOL     OW12061   6.245   0.268   5.651
 3721SOL    HW112062   6.267   0.313   5.565
 3721SOL    HW212063   6.328   0.254   5.704
 3722SOL     OW12064   5.878   6.456   1.456
 3722SOL    HW112065   5.881   6.455   1.556
 3722SOL    HW212066   5.933   6.532   1.422
 3723SOL     OW12067   4.802   4.425   6.403
 3723SOL    HW112068   4.901   4.428   6.416
 3723SOL    HW212069   4.757   4.492   6.462
 3724SOL     OW12070   6.746   4.313   4.831
 3724SOL    HW112071   6.819   4.380   4.847
 3724SOL    HW212072   6.762   4.232   4.888
 3725SOL     OW12073   0.882   5.895   0.371
 3725SOL    HW112074   0.800   5.919   0.423
 3725SOL    HW212075   0.957   5.957   0.397
 3726SOL     OW12076   6.415   3.303   5.343
 3726SOL    HW112077   6.334   3.255   5.375
 3726SOL    HW212078   6.497   3.260   5.382
 3727SOL     OW12079   6.522   2.048   4.173
 3727SOL    HW112080   6.460   1.977   4.139
 3727SOL    HW212081   6.541   2.113   4.099
 3728SOL     OW12082   1.855   4.260   0.745
 3728SOL    HW112083   1.943   4.308   0.741
 3728SOL    HW212084   1.788   4.308   0.690
 3729SOL     OW12085   0.355   6.994   5.921
 3729SOL    HW112086   0.436   0.032   5.928
 3729SOL    HW212087   0.307   7.013   5.835
 3730SOL     OW12088   5.013   5.073   4.706
 3730SOL    HW112089   5.074   4.996   4.729
 3730SOL    HW212090   5.057   5.159   4.733
 3731SOL     OW12091   0.233   1.938   0.586
 3731SOL    HW112092   0.146   1.925   0.538
 3731SOL    HW212093   0.231   1.887   0.672
 3732SOL     OW12094   3.714   3.100   6.698
 3732SOL    HW112095   3.715   3.064   6.791
 3732SOL    HW212096   3.643   3.170   6.689
 3733SOL     OW12097   1.489   1.272   3.655
 3733SOL    HW112098   1.559   1.343   3.658
 3733SOL    HW212099   1.528   1.185   3.687
 3734SOL     OW12100   3.376   0.201   2.094
 3734SOL    HW112101   3.310   0.242   2.157
 3734SOL    HW212102   3.354   0.104   2.082
 3735SOL     OW12103   4.604   0.868   2.806
 3735SOL    HW112104   4.509   0.860   2.776
 3735SOL    HW212105   4.643   0.953   2.770
 3736SOL     OW12106   0.727   1.660   0.196
 3736SOL    HW112107   0.630   1.686   0.197
 3736SOL    HW212108   0.782   1.737   0.230
 3737SOL     OW12109   5.835   2.267   3.231
 3737SOL    HW112110   5.888   2.213   3.166
 3737SOL    HW212111   5.895   2.301   3.303
 3738SOL     OW12112   0.542   0.815   1.225
 3738SOL    HW112113   0.586   0.870   1.154
 3738SOL    HW212114   0.526   0.723   1.189
 3739SOL     OW12115   2.899   4.380   6.936
 3739SOL    HW112116   2.920   4.477   6.941
 3739SOL    HW212117   2.808   4.368   6.896
 3740SOL     OW12118   5.361   6.231   6.774
 3740SOL    HW112119   5.414   6.164   6.722
 3740SOL    HW212120   5.422   6.283   6.833
 3741SOL     OW12121   5.458   3.988   0.351
 3741SOL    HW112122   5.546   3.983   0.397
 3741SOL    HW212123   5.420   3.896   0.341
 3742SOL     OW12124   4.540   5.364   1.208
 3742SOL    HW112125   4.499   5.320   1.128
 3742SOL    HW212126   4.517   5.461   1.208
 3743SOL     OW12127   2.871   4.307   0.712
 3743SOL    HW112128   2.933   4.230   0.724
 3743SOL    HW212129   2.812   4.316   0.792
 3744SOL     OW12130   6.628   5.736   2.556
 3744SOL    HW112131   6.628   5.836   2.562
 3744SOL    HW212132   6.645   5.697   2.647
 3745SOL     OW12133   4.764   2.308   2.799
 3745SOL    HW112134   4.669   2.281   2.812
 3745SOL    HW212135   4.772   2.365   2.717
 3746SOL     OW12136   5.182   6.889   4.571
 3746SOL    HW112137   5.171   6.791   4.559
 3746SOL    HW212138   5.220   6.929   4.487
 3747SOL     OW12139   2.796   5.680   5.309
 3747SOL    HW112140   2.723   5.688   5.241
 3747SOL    HW212141   2.885   5.676   5.263
 3748SOL     OW12142   5.123   2.399   3.442
 3748SOL    HW112143   5.085   2.490   3.453
 3748SOL    HW212144   5.058   2.342   3.390
 3749SOL     OW12145   6.451   6.490   2.006
 3749SOL    HW112146   6.458   6.589   1.995
 3749SOL    HW212147   6.439   6.448   1.916
 3750SOL     OW12148   5.764   3.987   1.133
 3750SOL    HW112149   5.764   4.005   1.231
 3750SOL    HW212150   5.844   3.933   1.109
 3751SOL     OW12151   1.018   4.202   1.587
 3751SOL    HW112152   0.991   4.283   1.536
 3751SOL    HW212153   1.117   4.204   1.602
 3752SOL     OW12154   0.950   6.382   6.164
 3752SOL    HW112155   0.886   6.435   6.219
 3752SOL    HW212156   0.954   6.288   6.199
 3753SOL     OW12157   0.179   0.623   5.108
 3753SOL    HW112158   0.225   0.600   5.195
 3753SOL    HW212159   0.213   0.563   5.036
 3754SOL     OW12160   6.533   6.103   1.451
 3754SOL    HW112161   6.598   6.137   1.519
 3754SOL    HW212162   6.475   6.178   1.421
 3755SOL     OW12163   4.618   2.606   3.024
 3755SOL    HW112164   4.602   2.573   2.931
 3755SOL    HW212165   4.663   2.695   3.021
 3756SOL     OW12166   3.577   6.951   0.327
 3756SOL    HW112167   3.544   6.999   0.246
 3756SOL    HW212168   3.531   6.862   0.334
 3757SOL     OW12169   3.711   5.076   6.683
 3757SOL    HW112170   3.768   5.019   6.624
 3757SOL    HW212171   3.615   5.065   6.658
 3758SOL     OW12172   6.684   0.691   2.530
 3758SOL    HW112173   6.643   0.646   2.451
 3758SOL    HW212174   6.647   0.651   2.614
 3759SOL     OW12175   4.952   4.913   0.896
 3759SOL    HW112176   4.932   4.948   0.987
 3759SOL    HW212177   4.933   4.984   0.828
 3760SOL     OW12178   1.876   1.750   6.128
 3760SOL    HW112179   1.938   1.688   6.080
 3760SOL    HW212180   1.807   1.697   6.177
 3761SOL     OW12181   6.744   6.171   4.238
 3761SOL    HW112182   6.680   6.117   4.292
 3761SOL    HW212183   6.819   6.113   4.206
 3762SOL     OW12184   0.437   3.013   0.282
 3762SOL    HW112185   0.381   3.096   0.283
 3762SOL    HW212186   0.529   3.034   0.314
 3763SOL     OW12187   0.197   3.534   5.517
 3763SOL    HW112188   0.263   3.596   5.559
 3763SOL    HW212189   0.174   3.566   5.425
 3764SOL     OW12190   2.590   6.920   4.327
 3764SOL    HW112191   2.580   6.989   4.399
 3764SOL    HW212192   2.502   6.875   4.312
 3765SOL     OW12193   5.667   1.483   3.310
 3765SOL    HW112194   5.731   1.560   3.308
 3765SOL    HW212195   5.666   1.439   3.221
 3766SOL     OW12196   1.644   0.905   5.120
 3766SOL    HW112197   1.550   0.873   5.112
 3766SOL    HW212198   1.693   0.848   5.186
 3767SOL     OW12199   0.420   4.571   0.234
 3767SOL    HW112200   0.520   4.574   0.228
 3767SOL    HW212201   0.381   4.586   0.143
 3768SOL     OW12202   4.269   6.516   1.335
 3768SOL    HW112203   4.287   6.613   1.349
 3768SOL    HW212204   4.344   6.462   1.373
 3769SOL     OW12205   4.453   6.798   5.074
 3769SOL    HW112206   4.471   6.809   4.976
 3769SOL    HW212207   4.526   6.743   5.115
 3770SOL     OW12208   2.346   2.482   0.617
 3770SOL    HW112209   2.350   2.576   0.651
 3770SOL    HW212210   2.428   2.463   0.563
 3771SOL     OW12211   4.473   1.838   5.188
 3771SOL    HW112212   4.492   1.901   5.263
 3771SOL    HW212213   4.559   1.803   5.151
 3772SOL     OW12214   4.735   0.389   2.593
 3772SOL    HW112215   4.734   0.376   2.494
 3772SOL    HW212216   4.665   0.457   2.619
 3773SOL     OW12217   6.490   2.254   0.828
 3773SOL    HW112218   6.500   2.333   0.769
 3773SOL    HW212219   6.423   2.274   0.899
 3774SOL     OW12220   1.013   2.009   2.193
 3774SOL    HW112221   0.925   2.057   2.186
 3774SOL    HW212222   1.087   2.072   2.170
 3775SOL     OW12223   5.593   3.059   3.300
 3775SOL    HW112224   5.545   3.144   3.323
 3775SOL    HW212225   5.681   3.056   3.349
 3776SOL     OW12226   3.208   2.434   6.677
 3776SOL    HW112227   3.214   2.452   6.775
 3776SOL    HW212228   3.186   2.518   6.629
 3777SOL     OW12229   1.050   4.118   3.318
 3777SOL    HW112230   1.122   4.065   3.362
 3777SOL    HW212231   1.033   4.082   3.227
 3778SOL     OW12232   2.489   6.732   1.701
 3778SOL    HW112233   2.549   6.746   1.780
 3778SOL    HW212234   2.396   6.760   1.724
 3779SOL     OW12235   1.940   4.581   6.993
 3779SOL    HW112236   2.000   4.597   0.052
 3779SOL    HW212237   1.847   4.562   0.006
 3780SOL     OW12238   2.702   0.480   3.819
 3780SOL    HW112239   2.616   0.468   3.770
 3780SOL    HW212240   2.713   0.407   3.887
 3781SOL     OW12241   2.701   5.299   4.891
 3781SOL    HW112242   2.664   5.392   4.894
 3781SOL    HW212243   2.750   5.280   4.976
 3782SOL     OW12244   2.879   1.159   2.785
 3782SOL    HW112245   2.866   1.142   2.882
 3782SOL    HW212246   2.941   1.236   2.772
 3783SOL     OW12247   5.292   5.497   5.037
 3783SOL    HW112248   5.216   5.440   5.069
 3783SOL    HW212249   5.257   5.568   4.976
 3784SOL     OW12250   5.215   1.946   4.537
 3784SOL    HW112251   5.121   1.967   4.508
 3784SOL    HW212252   5.279   2.000   4.483
 3785SOL     OW12253   1.322   1.333   2.120
 3785SOL    HW112254   1.391   1.381   2.173
 3785SOL    HW212255   1.364   1.252   2.077
 3786SOL     OW12256   3.180   6.261   2.846
 3786SOL    HW112257   3.268   6.283   2.889
 3786SOL    HW212258   3.178   6.300   2.754
 3787SOL     OW12259   4.456   1.093   4.193
 3787SOL    HW112260   4.379   1.104   4.255
 3787SOL    HW212261   4.507   1.178   4.187
 3788SOL     OW12262   6.526   3.402   2.282
 3788SOL    HW112263   6.616   3.447   2.286
 3788SOL    HW212264   6.539   3.303   2.287
 3789SOL     OW12265   1.126   5.408   2.099
 3789SOL    HW112266   1.218   5.410   2.139
 3789SOL    HW212267   1.110   5.320   2.055
 3790SOL     OW12268   2.105   3.172   3.104
 3790SOL    HW112269   2.098   3.255   3.158
 3790SOL    HW212270   2.043   3.178   3.025
 3791SOL     OW12271   6.097   0.579   2.637
 3791SOL    HW112272   6.194   0.553   2.634
 3791SOL    HW212273   6.086   0.671   2.599
 3792SOL     OW12274   0.389   6.582   6.187
 3792SOL    HW112275   0.347   6.510   6.242
 3792SOL    HW212276   0.389   6.556   6.091
 3793SOL     OW12277   0.823   6.189   2.766
 3793SOL    HW112278   0.839   6.100   2.809
 3793SOL    HW212279   0.745   6.182   2.704
 3794SOL     OW12280   4.084   6.468   3.570
 3794SOL    HW112281   4.025   6.507   3.640
 3794SOL    HW212282   4.127   6.542   3.518
 3795SOL     OW12283   5.400   0.184   0.707
 3795SOL    HW112284   5.421   0.093   0.671
 3795SOL    HW212285   5.474   0.213   0.768
 3796SOL     OW12286   1.235   3.197   0.597
 3796SOL    HW112287   1.177   3.210   0.678
 3796SOL    HW212288   1.240   3.283   0.547
 3797SOL     OW12289   6.932   5.327   2.130
 3797SOL    HW112290   6.991   5.376   2.066
 3797SOL    HW212291   6.988   5.290   2.205
 3798SOL     OW12292   0.799   4.179   1.108
 3798SOL    HW112293   0.765   4.119   1.181
 3798SOL    HW212294   0.826   4.267   1.148
 3799SOL     OW12295   1.211   0.507   4.927
 3799SOL    HW112296   1.188   0.602   4.950
 3799SOL    HW212297   1.142   0.446   4.966
 3800SOL     OW12298   4.963   2.441   5.286
 3800SOL    HW112299   5.054   2.418   5.253
 3800SOL    HW212300   4.954   2.540   5.294
 3801SOL     OW12301   6.753   0.099   6.688
 3801SOL    HW112302   6.712   0.045   6.761
 3801SOL    HW212303   6.848   0.071   6.675
 3802SOL     OW12304   1.584   2.696   5.368
 3802SOL    HW112305   1.571   2.653   5.279
 3802SOL    HW212306   1.681   2.691   5.394
 3803SOL     OW12307   4.244   1.000   1.363
 3803SOL    HW112308   4.296   1.049   1.433
 3803SOL    HW212309   4.188   0.930   1.406
 3804SOL     OW12310   5.089   2.912   5.138
 3804SOL    HW112311   5.169   2.903   5.198
 3804SOL    HW212312   5.111   2.978   5.065
 3805SOL     OW12313   2.038   3.773   1.728
 3805SOL    HW112314   2.125   3.740   1.766
 3805SOL    HW212315   2.045   3.871   1.711
 3806SOL     OW12316   3.679   1.493   0.749
 3806SOL    HW112317   3.730   1.486   0.663
 3806SOL    HW212318   3.595   1.545   0.734
 3807SOL     OW12319   1.345   6.951   2.909
 3807SOL    HW112320   1.435   6.968   2.867
 3807SOL    HW212321   1.280   7.019   2.876
 3808SOL     OW12322   3.087   0.552   1.031
 3808SOL    HW112323   3.078   0.500   1.116
 3808SOL    HW212324   3.183   0.559   1.006
 3809SOL     OW12325   4.132   0.485   6.829
 3809SOL    HW112326   4.121   0.584   6.820
 3809SOL    HW212327   4.182   0.464   6.913
 3810SOL     OW12328   2.436   3.692   6.277
 3810SOL    HW112329   2.389   3.606   6.299
 3810SOL    HW212330   2.534   3.679   6.285
 3811SOL     OW12331   0.929   0.242   6.539
 3811SOL    HW112332   1.001   0.194   6.491
 3811SOL    HW212333   0.867   0.285   6.473
 3812SOL     OW12334   5.356   0.859   5.841
 3812SOL    HW112335   5.258   0.839   5.834
 3812SOL    HW212336   5.391   0.887   5.752
 3813SOL     OW12337   3.901   4.875   1.926
 3813SOL    HW112338   3.817   4.829   1.954
 3813SOL    HW212339   3.944   4.824   1.851
 3814SOL     OW12340   2.094   0.920   2.029
 3814SOL    HW112341   2.009   0.954   1.989
 3814SOL    HW212342   2.170   0.942   1.968
 3815SOL     OW12343   5.337   2.192   2.012
 3815SOL    HW112344   5.364   2.283   1.978
 3815SOL    HW212345   5.388   2.122   1.962
 3816SOL     OW12346   0.263   6.538   1.095
 3816SOL    HW112347   0.347   6.495   1.129
 3816SOL    HW212348   0.279   6.577   1.005
 3817SOL     OW12349   4.886   1.652   5.504
 3817SOL    HW112350   4.898   1.700   5.417
 3817SOL    HW212351   4.961   1.676   5.566
 3818SOL     OW12352   4.629   5.509   3.188
 3818SOL    HW112353   4.684   5.507   3.104
 3818SOL    HW212354   4.689   5.527   3.267
 3819SOL     OW12355   6.003   4.057   5.898
 3819SOL    HW112356   5.953   4.078   5.814
 3819SOL    HW212357   5.947   4.000   5.957
 3820SOL     OW12358   4.934   6.133   3.449
 3820SOL    HW112359   4.942   6.233   3.451
 3820SOL    HW212360   4.857   6.105   3.507
 3821SOL     OW12361   0.053   4.679   1.373
 3821SOL    HW112362   0.055   4.591   1.421
 3821SOL    HW212363   6.992   4.683   1.314
 3822SOL     OW12364   0.436   4.494   1.718
 3822SOL    HW112365   0.465   4.550   1.640
 3822SOL    HW212366   0.448   4.397   1.696
 3823SOL     OW12367   2.706   3.168   5.718
 3823SOL    HW112368   2.727   3.252   5.768
 3823SOL    HW212369   2.782   3.146   5.657
 3824SOL     OW12370   6.599   2.095   6.300
 3824SOL    HW112371   6.579   2.148   6.383
 3824SOL    HW212372   6.514   2.062   6.261
 3825SOL     OW12373   6.391   6.562   5.728
 3825SOL    HW112374   6.398   6.578   5.827
 3825SOL    HW212375   6.333   6.632   5.687
 3826SOL     OW12376   6.916   2.006   1.058
 3826SOL    HW112377   6.981   1.957   1.000
 3826SOL    HW212378   6.965   2.047   1.136
 3827SOL     OW12379   5.717   2.117   1.240
 3827SOL    HW112380   5.788   2.176   1.277
 3827SOL    HW212381   5.627   2.152   1.266
 3828SOL     OW12382   4.384   1.159   1.573
 3828SOL    HW112383   4.382   1.257   1.591
 3828SOL    HW212384   4.462   1.118   1.621
 3829SOL     OW12385   0.946   4.987   3.412
 3829SOL    HW112386   0.880   5.061   3.399
 3829SOL    HW212387   0.950   4.962   3.508
 3830SOL     OW12388   2.977   0.420   5.539
 3830SOL    HW112389   2.999   0.386   5.447
 3830SOL    HW212390   2.950   0.516   5.533
 3831SOL     OW12391   4.723   1.553   2.214
 3831SOL    HW112392   4.656   1.619   2.179
 3831SOL    HW212393   4.693   1.461   2.190
 3832SOL     OW12394   5.492   6.931   2.501
 3832SOL    HW112395   5.478   6.995   2.425
 3832SOL    HW212396   5.555   6.859   2.472
 3833SOL     OW12397   1.635   6.468   1.658
 3833SOL    HW112398   1.556   6.529   1.652
 3833SOL    HW212399   1.685   6.488   1.743
 3834SOL     OW12400   2.854   2.723   0.961
 3834SOL    HW112401   2.919   2.780   0.912
 3834SOL    HW212402   2.841   2.758   1.053
 3835SOL     OW12403   3.618   5.515   3.571
 3835SOL    HW112404   3.648   5.601   3.528
 3835SOL    HW212405   3.693   5.449   3.568
 3836SOL     OW12406   1.826   3.050   5.229
 3836SOL    HW112407   1.844   3.131   5.173
 3836SOL    HW212408   1.887   3.049   5.308
 3837SOL     OW12409   3.085   3.629   0.158
 3837SOL    HW112410   3.062   3.618   0.061
 3837SOL    HW212411   3.180   3.605   0.173
 3838SOL     OW12412   5.745   3.032   5.421
 3838SOL    HW112413   5.719   3.082   5.339
 3838SOL    HW212414   5.838   3.056   5.447
 3839SOL     OW12415   0.436   6.049   6.006
 3839SOL    HW112416   0.420   5.956   5.975
 3839SOL    HW212417   0.485   6.100   5.935
 3840SOL     OW12418   2.290   1.114   3.758
 3840SOL    HW112419   2.325   1.025   3.787
 3840SOL    HW212420   2.260   1.166   3.838
 3841SOL     OW12421   0.865   3.857   4.024
 3841SOL    HW112422   0.934   3.785   4.022
 3841SOL    HW212423   0.850   3.886   4.118
 3842SOL     OW12424   1.683   5.489   0.057
 3842SOL    HW112425   1.764   5.431   0.070
 3842SOL    HW212426   1.675   5.514   6.981
 3843SOL     OW12427   5.731   4.186   0.443
 3843SOL    HW112428   5.727   4.211   0.346
 3843SOL    HW212429   5.724   4.269   0.499
 3844SOL     OW12430   2.498   4.403   5.688
 3844SOL    HW112431   2.585   4.405   5.737
 3844SOL    HW212432   2.506   4.456   5.604
 3845SOL     OW12433   3.239   3.521   3.786
 3845SOL    HW112434   3.326   3.513   3.738
 3845SOL    HW212435   3.175   3.452   3.751
 3846SOL     OW12436   6.807   4.410   4.335
 3846SOL    HW112437   6.885   4.455   4.380
 3846SOL    HW212438   6.841   4.351   4.262
 3847SOL     OW12439   0.867   0.008   0.915
 3847SOL    HW112440   0.839   0.055   0.999
 3847SOL    HW212441   0.787   7.008   0.859
 3848SOL     OW12442   2.837   6.088   1.470
 3848SOL    HW112443   2.752   6.088   1.524
 3848SOL    HW212444   2.876   5.996   1.470
 3849SOL     OW12445   2.486   1.164   6.094
 3849SOL    HW112446   2.447   1.072   6.095
 3849SOL    HW212447   2.464   1.210   6.180
 3850SOL     OW12448   2.040   3.670   1.456
 3850SOL    HW112449   2.058   3.708   1.547
 3850SOL    HW212450   2.098   3.717   1.389
 3851SOL     OW12451   2.829   2.469   1.121
 3851SOL    HW112452   2.864   2.535   1.055
 3851SOL    HW212453   2.761   2.514   1.180
 3852SOL     OW12454   4.305   0.968   5.711
 3852SOL    HW112455   4.295   1.044   5.647
 3852SOL    HW212456   4.284   0.882   5.664
 3853SOL     OW12457   0.949   3.256   1.825
 3853SOL    HW112458   0.959   3.355   1.812
 3853SOL    HW212459   0.940   3.236   1.923
 3854SOL     OW12460   1.864   3.171   4.190
 3854SOL    HW112461   1.801   3.156   4.267
 3854SOL    HW212462   1.857   3.095   4.126
 3855SOL     OW12463   6.867   1.801   4.800
 3855SOL    HW112464   6.878   1.718   4.855
 3855SOL    HW212465   6.770   1.816   4.781
 3856SOL     OW12466   1.298   6.189   5.913
 3856SOL    HW112467   1.274   6.127   5.838
 3856SOL    HW212468   1.232   6.264   5.916
 3857SOL     OW12469   0.762   0.172   6.163
 3857SOL    HW112470   0.807   0.109   6.226
 3857SOL    HW212471   0.736   0.123   6.080
 3858SOL     OW12472   2.818   4.953   6.864
 3858SOL    HW112473   2.734   5.007   6.856
 3858SOL    HW212474   2.880   4.998   6.928
 3859SOL     OW12475   5.958   2.803   2.238
 3859SOL    HW112476   5.933   2.864   2.313
 3859SOL    HW212477   6.053   2.776   2.247
 3860SOL     OW12478   2.173   5.863   5.046
 3860SOL    HW112479   2.235   5.940   5.033
 3860SOL    HW212480   2.109   5.859   4.970
 3861SOL     OW12481   3.716   4.232   0.248
 3861SOL    HW112482   3.694   4.320   0.290
 3861SOL    HW212483   3.679   4.159   0.305
 3862SOL     OW12484   0.682   5.793   5.340
 3862SOL    HW112485   0.626   5.798   5.422
 3862SOL    HW212486   0.767   5.844   5.355
 3863SOL     OW12487   2.755   3.514   0.791
 3863SOL    HW112488   2.716   3.440   0.846
 3863SOL    HW212489   2.853   3.500   0.781
 3864SOL     OW12490   3.392   1.472   0.869
 3864SOL    HW112491   3.440   1.425   0.943
 3864SOL    HW212492   3.363   1.405   0.800
 3865SOL     OW12493   4.220   0.579   2.338
 3865SOL    HW112494   4.125   0.568   2.309
 3865SOL    HW212495   4.262   0.655   2.288
 3866SOL     OW12496   3.463   6.235   6.819
 3866SOL    HW112497   3.439   6.302   6.748
 3866SOL    HW212498   3.542   6.268   6.871
 3867SOL     OW12499   1.625   4.951   3.490
 3867SOL    HW112500   1.630   5.036   3.437
 3867SOL    HW212501   1.706   4.943   3.548
 3868SOL     OW12502   2.282   6.017   2.590
 3868SOL    HW112503   2.350   5.945   2.579
 3868SOL    HW212504   2.301   6.091   2.527
 3869SOL     OW12505   0.479   1.707   3.655
 3869SOL    HW112506   0.575   1.699   3.627
 3869SOL    HW212507   0.421   1.683   3.577
 3870SOL     OW12508   3.595   4.014   0.457
 3870SOL    HW112509   3.603   3.940   0.524
 3870SOL    HW212510   3.523   4.078   0.486
 3871SOL     OW12511   3.159   1.253   5.227
 3871SOL    HW112512   3.216   1.289   5.154
 3871SOL    HW212513   3.077   1.211   5.188
 3872SOL     OW12514   4.389   3.802   1.050
 3872SOL    HW112515   4.318   3.735   1.073
 3872SOL    HW212516   4.450   3.814   1.128
 3873SOL     OW12517   5.652   4.597   2.040
 3873SOL    HW112518   5.617   4.528   1.977
 3873SOL    HW212519   5.749   4.613   2.022
 3874SOL     OW12520   4.576   5.826   5.965
 3874SOL    HW112521   4.649   5.767   5.997
 3874SOL    HW212522   4.545   5.796   5.875
 3875SOL     OW12523   2.470   4.045   0.244
 3875SOL    HW112524   2.569   4.042   0.236
 3875SOL    HW212525   2.438   3.967   0.298
 3876SOL     OW12526   5.621   3.657   2.097
 3876SOL    HW112527   5.689   3.621   2.161
 3876SOL    HW212528   5.529   3.642   2.134
 3877SOL     OW12529   4.606   1.970   2.114
 3877SOL    HW112530   4.631   1.908   2.039
 3877SOL    HW212531   4.651   2.058   2.099
 3878SOL     OW12532   4.858   5.496   4.458
 3878SOL    HW112533   4.930   5.555   4.494
 3878SOL    HW212534   4.808   5.455   4.535
 3879SOL     OW12535   2.767   5.935   0.900
 3879SOL    HW112536   2.846   5.895   0.948
 3879SOL    HW212537   2.694   5.954   0.965
 3880SOL     OW12538   6.179   1.901   4.182
 3880SOL    HW112539   6.110   1.967   4.213
 3880SOL    HW212540   6.237   1.875   4.259
 3881SOL     OW12541   0.587   5.632   6.953
 3881SOL    HW112542   0.644   5.706   6.988
 3881SOL    HW212543   0.523   5.603   0.005
 3882SOL     OW12544   0.123   6.394   6.751
 3882SOL    HW112545   0.158   6.482   6.783
 3882SOL    HW212546   0.200   6.336   6.723
 3883SOL     OW12547   3.564   1.858   0.242
 3883SOL    HW112548   3.502   1.829   0.170
 3883SOL    HW212549   3.650   1.889   0.203
 3884SOL     OW12550   2.238   5.104   5.889
 3884SOL    HW112551   2.260   5.017   5.933
 3884SOL    HW212552   2.285   5.109   5.801
 3885SOL     OW12553   6.784   0.802   4.356
 3885SOL    HW112554   6.792   0.760   4.446
 3885SOL    HW212555   6.713   0.873   4.358
 3886SOL     OW12556   0.171   5.882   4.917
 3886SOL    HW112557   0.162   5.929   4.830
 3886SOL    HW212558   0.104   5.808   4.923
 3887SOL     OW12559   5.415   2.664   4.869
 3887SOL    HW112560   5.405   2.566   4.889
 3887SOL    HW212561   5.463   2.708   4.945
 3888SOL     OW12562   5.477   1.155   2.705
 3888SOL    HW112563   5.528   1.143   2.620
 3888SOL    HW212564   5.538   1.138   2.783
 3889SOL     OW12565   6.275   5.757   6.672
 3889SOL    HW112566   6.348   5.797   6.617
 3889SOL    HW212567   6.200   5.822   6.682
 3890SOL     OW12568   6.247   3.142   3.191
 3890SOL    HW112569   6.263   3.045   3.208
 3890SOL    HW212570   6.334   3.188   3.174
 3891SOL     OW12571   4.850   4.661   5.927
 3891SOL    HW112572   4.826   4.737   5.987
 3891SOL    HW212573   4.855   4.576   5.980
 3892SOL     OW12574   5.769   5.502   3.652
 3892SOL    HW112575   5.703   5.494   3.578
 3892SOL    HW212576   5.799   5.598   3.660
 3893SOL     OW12577   2.918   6.260   4.379
 3893SOL    HW112578   2.873   6.242   4.291
 3893SOL    HW212579   2.971   6.180   4.406
 3894SOL     OW12580   5.969   4.925   6.866
 3894SOL    HW112581   5.983   5.023   6.880
 3894SOL    HW212582   5.931   4.909   6.775
 3895SOL     OW12583   1.771   1.996   6.220
 3895SOL    HW112584   1.819   1.911   6.194
 3895SOL    HW212585   1.756   1.997   6.319
 3896SOL     OW12586   6.316   3.218   0.631
 3896SOL    HW112587   6.415   3.203   0.631
 3896SOL    HW212588   6.275   3.165   0.557
 3897SOL     OW12589   2.955   6.800   3.531
 3897SOL    HW112590   2.864   6.807   3.573
 3897SOL    HW212591   3.025   6.820   3.599
 3898SOL     OW12592   3.428   3.302   3.958
 3898SOL    HW112593   3.370   3.263   4.029
 3898SOL    HW212594   3.504   3.351   4.001
 3899SOL     OW12595   4.725   1.692   6.636
 3899SOL    HW112596   4.742   1.761   6.708
 3899SOL    HW212597   4.652   1.724   6.576
 3900SOL     OW12598   0.818   2.481   3.889
 3900SOL    HW112599   0.764   2.428   3.823
 3900SOL    HW212600   0.819   2.433   3.977
 3901SOL     OW12601   3.742   5.858   5.451
 3901SOL    HW112602   3.835   5.873   5.483
 3901SOL    HW212603   3.677   5.886   5.521
 3902SOL     OW12604   3.698   5.462   2.877
 3902SOL    HW112605   3.618   5.455   2.819
 3902SOL    HW212606   3.723   5.558   2.890
 3903SOL     OW12607   3.913   3.752   6.035
 3903SOL    HW112608   3.955   3.667   6.069
 3903SOL    HW212609   3.835   3.775   6.093
 3904SOL     OW12610   2.158   6.188   6.977
 3904SOL    HW112611   2.203   6.111   6.932
 3904SOL    HW212612   2.059   6.182   6.964
 3905SOL     OW12613   4.733   0.304   5.697
 3905SOL    HW112614   4.770   0.263   5.781
 3905SOL    HW212615   4.636   0.325   5.711
 3906SOL     OW12616   6.698   5.859   4.230
 3906SOL    HW112617   6.649   5.918   4.293
 3906SOL    HW212618   6.653   5.770   4.225
 3907SOL     OW12619   0.610   1.567   4.332
 3907SOL    HW112620   0.676   1.636   4.302
 3907SOL    HW212621   0.610   1.491   4.267
 3908SOL     OW12622   2.104   0.684   4.727
 3908SOL    HW112623   2.143   0.644   4.644
 3908SOL    HW212624   2.024   0.739   4.703
 3909SOL     OW12625   5.489   3.571   1.858
 3909SOL    HW112626   5.564   3.572   1.924
 3909SOL    HW212627   5.507   3.501   1.789
 3910SOL     OW12628   2.433   2.792   1.350
 3910SOL    HW112629   2.507   2.757   1.408
 3910SOL    HW212630   2.445   2.890   1.336
 3911SOL     OW12631   6.927   1.551   1.209
 3911SOL    HW112632   6.873   1.602   1.143
 3911SOL    HW212633   7.017   1.530   1.170
 3912SOL     OW12634   4.569   4.069   0.365
 3912SOL    HW112635   4.648   4.099   0.418
 3912SOL    HW212636   4.496   4.040   0.427
 3913SOL     OW12637   4.042   4.909   1.278
 3913SOL    HW112638   3.989   4.838   1.231
 3913SOL    HW212639   3.983   4.956   1.344
 3914SOL     OW12640   0.542   0.816   0.831
 3914SOL    HW112641   0.451   0.826   0.791
 3914SOL    HW212642   0.545   0.865   0.919
 3915SOL     OW12643   5.632   0.446   5.012
 3915SOL    HW112644   5.704   0.401   5.065
 3915SOL    HW212645   5.662   0.537   4.986
 3916SOL     OW12646   1.886   2.527   2.390
 3916SOL    HW112647   1.925   2.591   2.324
 3916SOL    HW212648   1.849   2.448   2.341
 3917SOL     OW12649   4.514   5.294   2.544
 3917SOL    HW112650   4.447   5.304   2.470
 3917SOL    HW212651   4.563   5.208   2.532
 3918SOL     OW12652   4.012   6.760   1.447
 3918SOL    HW112653   4.101   6.805   1.439
 3918SOL    HW212654   3.941   6.818   1.408
 3919SOL     OW12655   5.377   5.514   3.088
 3919SOL    HW112656   5.449   5.459   3.047
 3919SOL    HW212657   5.388   5.610   3.061
 3920SOL     OW12658   3.906   1.471   5.865
 3920SOL    HW112659   3.911   1.466   5.964
 3920SOL    HW212660   3.844   1.544   5.837
 3921SOL     OW12661   1.532   2.958   6.209
 3921SOL    HW112662   1.572   3.028   6.268
 3921SOL    HW212663   1.459   3.000   6.153
 3922SOL     OW12664   5.295   2.298   4.208
 3922SOL    HW112665   5.287   2.394   4.183
 3922SOL    HW212666   5.284   2.241   4.127
 3923SOL     OW12667   6.139   0.782   1.408
 3923SOL    HW112668   6.175   0.875   1.411
 3923SOL    HW212669   6.203   0.720   1.453
 3924SOL     OW12670   5.400   4.749   4.273
 3924SOL    HW112671   5.446   4.801   4.200
 3924SOL    HW212672   5.314   4.793   4.296
 3925SOL     OW12673   3.271   4.990   1.436
 3925SOL    HW112674   3.282   4.974   1.534
 3925SOL    HW212675   3.245   5.085   1.421
 3926SOL     OW12676   1.462   6.031   5.469
 3926SOL    HW112677   1.539   6.061   5.412
 3926SOL    HW212678   1.448   5.933   5.458
 3927SOL     OW12679   6.073   6.755   5.292
 3927SOL    HW112680   6.071   6.669   5.242
 3927SOL    HW212681   6.128   6.822   5.241
 3928SOL     OW12682   4.633   5.472   2.686
 3928SOL    HW112683   4.607   5.411   2.611
 3928SOL    HW212684   4.632   5.566   2.654
 3929SOL     OW12685   1.718   0.849   5.510
 3929SOL    HW112686   1.810   0.864   5.474
 3929SOL    HW212687   1.679   0.765   5.471
 3930SOL     OW12688   2.477   5.977   4.522
 3930SOL    HW112689   2.390   5.944   4.485
 3930SOL    HW212690   2.550   5.960   4.455
 3931SOL     OW12691   0.548   2.513   0.230
 3931SOL    HW112692   0.493   2.569   0.291
 3931SOL    HW212693   0.588   2.571   0.158
 3932SOL     OW12694   2.284   4.169   3.033
 3932SOL    HW112695   2.240   4.123   2.956
 3932SOL    HW212696   2.354   4.232   3.000
 3933SOL     OW12697   1.881   6.567   1.539
 3933SOL    HW112698   1.791   6.523   1.544
 3933SOL    HW212699   1.925   6.563   1.629
 3934SOL     OW12700   1.756   6.809   2.021
 3934SOL    HW112701   1.828   6.859   1.972
 3934SOL    HW212702   1.688   6.873   2.057
 3935SOL     OW12703   0.424   1.800   4.658
 3935SOL    HW112704   0.330   1.814   4.691
 3935SOL    HW212705   0.460   1.887   4.624
 3936SOL     OW12706   6.719   4.245   3.932
 3936SOL    HW112707   6.661   4.165   3.951
 3936SOL    HW212708   6.662   4.326   3.925
 3937SOL     OW12709   0.801   6.671   0.332
 3937SOL    HW112710   0.898   6.686   0.317
 3937SOL    HW212711   0.761   6.752   0.376
 3938SOL     OW12712   0.895   4.121   6.539
 3938SOL    HW112713   0.869   4.159   6.450
 3938SOL    HW212714   0.849   4.032   6.551
 3939SOL     OW12715   2.064   6.373   3.979
 3939SOL    HW112716   2.087   6.317   3.900
 3939SOL    HW212717   2.123   6.349   4.056
 3940SOL     OW12718   2.134   6.218   6.628
 3940SOL    HW112719   2.179   6.251   6.711
 3940SOL    HW212720   2.049   6.268   6.613
 3941SOL     OW12721   5.478   5.375   2.626
 3941SOL    HW112722   5.483   5.277   2.646
 3941SOL    HW212723   5.383   5.402   2.615
 3942SOL     OW12724   6.708   6.474   6.459
 3942SOL    HW112725   6.694   6.573   6.459
 3942SOL    HW212726   6.646   6.432   6.526
 3943SOL     OW12727   1.432   4.174   0.268
 3943SOL    HW112728   1.436   4.156   0.170
 3943SOL    HW212729   1.487   4.255   0.289
 3944SOL     OW12730   4.617   3.502   6.837
 3944SOL    HW112731   4.533   3.479   6.789
 3944SOL    HW212732   4.608   3.593   6.879
 3945SOL     OW12733   7.001   0.602   3.065
 3945SOL    HW112734   6.945   0.639   3.139
 3945SOL    HW212735   6.980   0.505   3.053
 3946SOL     OW12736   6.110   1.995   1.312
 3946SOL    HW112737   6.134   1.899   1.327
 3946SOL    HW212738   6.038   2.001   1.243
 3947SOL     OW12739   5.381   6.760   2.232
 3947SOL    HW112740   5.390   6.856   2.259
 3947SOL    HW212741   5.462   6.709   2.263
 3948SOL     OW12742   2.409   1.061   5.013
 3948SOL    HW112743   2.317   1.031   4.988
 3948SOL    HW212744   2.459   0.985   5.054
 3949SOL     OW12745   6.332   7.011   2.330
 3949SOL    HW112746   6.283   6.937   2.377
 3949SOL    HW212747   6.275   0.027   2.256
 3950SOL     OW12748   2.748   4.817   1.261
 3950SOL    HW112749   2.678   4.858   1.318
 3950SOL    HW212750   2.838   4.840   1.297
 3951SOL     OW12751   6.584   2.552   3.509
 3951SOL    HW112752   6.654   2.490   3.475
 3951SOL    HW212753   6.579   2.546   3.609
 3952SOL     OW12754   5.994   4.437   0.101
 3952SOL    HW112755   5.947   4.359   0.142
 3952SOL    HW212756   6.093   4.426   0.111
 3953SOL     OW12757   3.688   3.424   5.759
 3953SOL    HW112758   3.781   3.399   5.730
 3953SOL    HW212759   3.622   3.374   5.702
 3954SOL     OW12760   1.295   3.729   5.364
 3954SOL    HW112761   1.226   3.677   5.414
 3954SOL    HW212762   1.370   3.669   5.338
 3955SOL     OW12763   5.851   3.470   0.268
 3955SOL    HW112764   5.854   3.381   0.224
 3955SOL    HW212765   5.778   3.471   0.337
 3956SOL     OW12766   6.654   2.476   4.894
 3956SOL    HW112767   6.573   2.505   4.946
 3956SOL    HW212768   6.736   2.493   4.949
 3957SOL     OW12769   1.300   2.559   2.248
 3957SOL    HW112770   1.337   2.479   2.295
 3957SOL    HW212771   1.303   2.638   2.309
 3958SOL     OW12772   5.443   5.772   1.460
 3958SOL    HW112773   5.362   5.809   1.506
 3958SOL    HW212774   5.479   5.695   1.512
 3959SOL     OW12775   2.710   4.919   1.716
 3959SOL    HW112776   2.671   4.834   1.681
 3959SOL    HW212777   2.724   4.983   1.640
 3960SOL     OW12778   6.195   2.421   0.669
 3960SOL    HW112779   6.149   2.471   0.595
 3960SOL    HW212780   6.289   2.400   0.641
 3961SOL     OW12781   0.040   1.182   1.081
 3961SOL    HW112782   0.006   1.095   1.047
 3961SOL    HW212783   0.139   1.188   1.065
 3962SOL     OW12784   6.756   0.209   6.252
 3962SOL    HW112785   6.777   0.293   6.202
 3962SOL    HW212786   6.838   0.176   6.298
 3963SOL     OW12787   5.385   3.982   4.316
 3963SOL    HW112788   5.298   3.957   4.359
 3963SOL    HW212789   5.455   3.915   4.341
 3964SOL     OW12790   6.299   4.695   0.552
 3964SOL    HW112791   6.234   4.765   0.583
 3964SOL    HW212792   6.337   4.647   0.631
 3965SOL     OW12793   2.934   4.219   1.149
 3965SOL    HW112794   2.856   4.192   1.206
 3965SOL    HW212795   2.974   4.137   1.107
 3966SOL     OW12796   0.065   3.284   5.710
 3966SOL    HW112797   0.032   3.376   5.728
 3966SOL    HW212798   0.054   3.228   5.792
 3967SOL     OW12799   2.371   6.243   0.158
 3967SOL    HW112800   2.324   6.262   0.072
 3967SOL    HW212801   2.344   6.152   0.191
 3968SOL     OW12802   4.703   2.399   0.790
 3968SOL    HW112803   4.759   2.343   0.851
 3968SOL    HW212804   4.665   2.342   0.718
 3969SOL     OW12805   6.351   6.583   0.964
 3969SOL    HW112806   6.427   6.518   0.954
 3969SOL    HW212807   6.363   6.659   0.900
 3970SOL     OW12808   5.730   4.502   4.464
 3970SOL    HW112809   5.760   4.598   4.464
 3970SOL    HW212810   5.809   4.442   4.474
 3971SOL     OW12811   0.649   5.987   4.142
 3971SOL    HW112812   0.701   5.977   4.058
 3971SOL    HW212813   0.679   6.069   4.191
 3972SOL     OW12814   1.051   0.184   5.814
 3972SOL    HW112815   0.967   0.176   5.760
 3972SOL    HW212816   1.074   0.280   5.826
 3973SOL     OW12817   3.879   2.981   2.505
 3973SOL    HW112818   3.800   2.985   2.565
 3973SOL    HW212819   3.853   2.942   2.417
 3974SOL     OW12820   5.083   0.732   6.497
 3974SOL    HW112821   5.086   0.782   6.410
 3974SOL    HW212822   4.995   0.686   6.506
 3975SOL     OW12823   0.404   6.659   4.541
 3975SOL    HW112824   0.345   6.726   4.585
 3975SOL    HW212825   0.359   6.570   4.541
 3976SOL     OW12826   1.016   2.857   5.655
 3976SOL    HW112827   1.113   2.864   5.630
 3976SOL    HW212828   0.974   2.783   5.603
 3977SOL     OW12829   3.125   4.804   5.685
 3977SOL    HW112830   3.186   4.731   5.657
 3977SOL    HW212831   3.157   4.843   5.772
 3978SOL     OW12832   5.146   2.914   6.743
 3978SOL    HW112833   5.220   2.978   6.763
 3978SOL    HW212834   5.059   2.955   6.770
 3979SOL     OW12835   1.269   5.921   3.031
 3979SOL    HW112836   1.341   5.990   3.026
 3979SOL    HW212837   1.259   5.891   3.126
 3980SOL     OW12838   5.154   3.832   4.393
 3980SOL    HW112839   5.085   3.843   4.465
 3980SOL    HW212840   5.108   3.817   4.306
 3981SOL     OW12841   0.229   1.118   6.332
 3981SOL    HW112842   0.155   1.185   6.342
 3981SOL    HW212843   0.289   1.146   6.258
 3982SOL     OW12844   2.169   3.318   4.392
 3982SOL    HW112845   2.110   3.274   4.460
 3982SOL    HW212846   2.194   3.410   4.424
 3983SOL     OW12847   3.003   0.480   3.718
 3983SOL    HW112848   2.929   0.542   3.746
 3983SOL    HW212849   3.042   0.437   3.800
 3984SOL     OW12850   1.729   5.559   2.419
 3984SOL    HW112851   1.775   5.569   2.507
 3984SOL    HW212852   1.776   5.613   2.350
 3985SOL     OW12853   1.808   2.557   1.447
 3985SOL    HW112854   1.800   2.648   1.408
 3985SOL    HW212855   1.723   2.506   1.430
 3986SOL     OW12856   6.597   2.434   2.334
 3986SOL    HW112857   6.540   2.472   2.406
 3986SOL    HW212858   6.692   2.427   2.366
 3987SOL     OW12859   0.959   4.232   5.180
 3987SOL    HW112860   0.910   4.150   5.151
 3987SOL    HW212861   0.981   4.287   5.099
 3988SOL     OW12862   4.941   6.968   2.130
 3988SOL    HW112863   4.889   0.032   2.118
 3988SOL    HW212864   4.956   6.925   2.040
 3989SOL     OW12865   4.665   1.145   5.770
 3989SOL    HW112866   4.625   1.063   5.730
 3989SOL    HW212867   4.703   1.202   5.698
 3990SOL     OW12868   6.031   0.527   3.975
 3990SOL    HW112869   6.026   0.615   4.023
 3990SOL    HW212870   6.089   0.537   3.894
 3991SOL     OW12871   6.806   2.076   3.480
 3991SOL    HW112872   6.730   2.049   3.539
 3991SOL    HW212873   6.875   2.123   3.535
 3992SOL     OW12874   5.406   3.781   6.047
 3992SOL    HW112875   5.417   3.777   5.948
 3992SOL    HW212876   5.496   3.777   6.091
 3993SOL     OW12877   1.487   0.673   3.780
 3993SOL    HW112878   1.456   0.598   3.840
 3993SOL    HW212879   1.453   0.760   3.817
 3994SOL     OW12880   2.763   1.693   3.660
 3994SOL    HW112881   2.737   1.676   3.755
 3994SOL    HW212882   2.846   1.749   3.657
 3995SOL     OW12883   1.606   3.191   2.175
 3995SOL    HW112884   1.624   3.242   2.091
 3995SOL    HW212885   1.681   3.206   2.239
 3996SOL     OW12886   6.711   6.434   4.836
 3996SOL    HW112887   6.633   6.426   4.898
 3996SOL    HW212888   6.766   6.514   4.861
 3997SOL     OW12889   5.665   4.079   4.494
 3997SOL    HW112890   5.617   4.160   4.529
 3997SOL    HW212891   5.636   3.998   4.545
 3998SOL     OW12892   4.787   1.793   4.003
 3998SOL    HW112893   4.728   1.862   3.959
 3998SOL    HW212894   4.881   1.827   4.006
 3999SOL     OW12895   5.209   2.867   0.814
 3999SOL    HW112896   5.125   2.866   0.868
 3999SOL    HW212897   5.205   2.794   0.746
 4000SOL     OW12898   2.213   4.892   3.035
 4000SOL    HW112899   2.257   4.852   2.954
 4000SOL    HW212900   2.227   4.991   3.034
 4001SOL     OW12901   0.738   5.924   4.588
 4001SOL    HW112902   0.827   5.881   4.572
 4001SOL    HW212903   0.750   6.002   4.649
 4002SOL     OW12904   3.622   3.609   4.707
 4002SOL    HW112905   3.610   3.670   4.785
 4002SOL    HW212906   3.668   3.526   4.737
 4003SOL     OW12907   2.680   0.945   4.573
 4003SOL    HW112908   2.723   0.884   4.640
 4003SOL    HW212909   2.718   1.037   4.583
 4004SOL     OW12910   1.984   4.164   4.836
 4004SOL    HW112911   1.924   4.112   4.775
 4004SOL    HW212912   2.006   4.108   4.916
 4005SOL     OW12913   5.253   3.084   0.662
 4005SOL    HW112914   5.222   2.997   0.699
 4005SOL    HW212915   5.200   3.106   0.580
 4006SOL     OW12916   6.869   5.660   1.914
 4006SOL    HW112917   6.967   5.681   1.909
 4006SOL    HW212918   6.847   5.591   1.845
 4007SOL     OW12919   0.828   1.609   1.844
 4007SOL    HW112920   0.825   1.687   1.906
 4007SOL    HW212921   0.736   1.570   1.834
 4008SOL     OW12922   3.930   0.960   1.624
 4008SOL    HW112923   3.952   0.889   1.690
 4008SOL    HW212924   3.833   0.983   1.629
 4009SOL     OW12925   3.942   2.287   1.289
 4009SOL    HW112926   4.039   2.307   1.297
 4009SOL    HW212927   3.928   2.188   1.282
 4010SOL     OW12928   1.991   4.591   1.088
 4010SOL    HW112929   2.072   4.533   1.093
 4010SOL    HW212930   1.963   4.603   0.993
 4011SOL     OW12931   6.314   0.044   5.873
 4011SOL    HW112932   6.371   7.010   5.811
 4011SOL    HW212933   6.304   7.016   5.960
 4012SOL     OW12934   5.424   5.726   2.260
 4012SOL    HW112935   5.474   5.698   2.342
 4012SOL    HW212936   5.475   5.797   2.212
 4013SOL     OW12937   0.058   1.956   7.008
 4013SOL    HW112938   0.021   1.946   0.080
 4013SOL    HW212939   0.157   1.942   7.010
 4014SOL     OW12940   3.205   5.811   2.799
 4014SOL    HW112941   3.254   5.834   2.883
 4014SOL    HW212942   3.200   5.711   2.791
 4015SOL     OW12943   4.412   6.021   5.308
 4015SOL    HW112944   4.499   6.068   5.294
 4015SOL    HW212945   4.344   6.087   5.340
 4016SOL     OW12946   5.230   5.227   4.427
 4016SOL    HW112947   5.234   5.145   4.483
 4016SOL    HW212948   5.275   5.210   4.339
 4017SOL     OW12949   2.133   5.813   6.014
 4017SOL    HW112950   2.034   5.797   6.005
 4017SOL    HW212951   2.173   5.744   6.074
 4018SOL     OW12952   4.066   5.460   1.242
 4018SOL    HW112953   4.003   5.529   1.206
 4018SOL    HW212954   4.106   5.408   1.167
 4019SOL     OW12955   6.755   2.899   2.391
 4019SOL    HW112956   6.738   2.864   2.483
 4019SOL    HW212957   6.709   2.988   2.380
 4020SOL     OW12958   0.035   5.849   4.359
 4020SOL    HW112959   0.096   5.912   4.311
 4020SOL    HW212960   6.987   5.813   4.295
 4021SOL     OW12961   4.450   5.197   6.240
 4021SOL    HW112962   4.372   5.197   6.302
 4021SOL    HW212963   4.520   5.134   6.275
 4022SOL     OW12964   3.349   0.008   1.305
 4022SOL    HW112965   3.312   0.046   1.390
 4022SOL    HW212966   3.389   6.938   1.324
 4023SOL     OW12967   0.401   2.068   4.265
 4023SOL    HW112968   0.395   2.158   4.307
 4023SOL    HW212969   0.349   2.067   4.180
 4024SOL     OW12970   7.007   6.428   6.017
 4024SOL    HW112971   6.962   6.479   6.090
 4024SOL    HW212972   7.009   6.331   6.041
 4025SOL     OW12973   6.763   4.799   3.889
 4025SOL    HW112974   6.666   4.813   3.910
 4025SOL    HW212975   6.816   4.800   3.973
 4026SOL     OW12976   0.644   6.872   3.781
 4026SOL    HW112977   0.680   6.964   3.764
 4026SOL    HW212978   0.705   6.823   3.843
 4027SOL     OW12979   3.502   5.394   5.164
 4027SOL    HW112980   3.445   5.419   5.242
 4027SOL    HW212981   3.528   5.298   5.171
 4028SOL     OW12982   5.434   1.423   4.501
 4028SOL    HW112983   5.507   1.376   4.551
 4028SOL    HW212984   5.393   1.493   4.559
 4029SOL     OW12985   1.036   6.629   0.640
 4029SOL    HW112986   1.041   6.701   0.709
 4029SOL    HW212987   0.946   6.585   0.644
 4030SOL     OW12988   0.669   2.100   1.865
 4030SOL    HW112989   0.688   2.198   1.865
 4030SOL    HW212990   0.593   2.080   1.927
 4031SOL     OW12991   5.676   5.812   0.440
 4031SOL    HW112992   5.676   5.723   0.485
 4031SOL    HW212993   5.598   5.866   0.472
 4032SOL     OW12994   5.081   1.468   2.840
 4032SOL    HW112995   5.160   1.434   2.788
 4032SOL    HW212996   5.105   1.554   2.884
 4033SOL     OW12997   1.856   3.193   2.954
 4033SOL    HW112998   1.860   3.168   2.857
 4033SOL    HW212999   1.890   3.286   2.965
 4034SOL     OW13000   1.724   2.705   4.725
 4034SOL    HW113001   1.797   2.659   4.675
 4034SOL    HW213002   1.652   2.733   4.660
 4035SOL     OW13003   4.442   2.357   1.813
 4035SOL    HW113004   4.466   2.366   1.909
 4035SOL    HW213005   4.407   2.445   1.779
 4036SOL     OW13006   3.909   5.993   3.300
 4036SOL    HW113007   3.993   5.997   3.354
 4036SOL    HW213008   3.834   5.961   3.357
 4037SOL     OW13009   1.882   2.399   6.473
 4037SOL    HW113010   1.976   2.428   6.457
 4037SOL    HW213011   1.822   2.479   6.474
 4038SOL     OW13012   3.312   4.866   6.098
 4038SOL    HW113013   3.411   4.853   6.108
 4038SOL    HW213014   3.271   4.879   6.189
 4039SOL     OW13015   5.919   4.409   1.733
 4039SOL    HW113016   5.986   4.335   1.721
 4039SOL    HW213017   5.966   4.497   1.727
 4040SOL     OW13018   3.510   0.723   5.255
 4040SOL    HW113019   3.543   0.792   5.321
 4040SOL    HW213020   3.584   0.661   5.233
 4041SOL     OW13021   1.425   5.431   1.968
 4041SOL    HW113022   1.401   5.385   2.053
 4041SOL    HW213023   1.342   5.460   1.921
 4042SOL     OW13024   7.003   1.781   3.259
 4042SOL    HW113025   0.023   1.815   3.174
 4042SOL    HW213026   6.903   1.786   3.253
 4043SOL     OW13027   4.485   2.099   6.078
 4043SOL    HW113028   4.454   2.162   6.149
 4043SOL    HW213029   4.406   2.057   6.033
 4044SOL     OW13030   4.513   4.413   3.224
 4044SOL    HW113031   4.579   4.446   3.157
 4044SOL    HW213032   4.560   4.353   3.290
 4045SOL     OW13033   4.604   1.472   5.165
 4045SOL    HW113034   4.700   1.495   5.179
 4045SOL    HW213035   4.562   1.454   5.254
 4046SOL     OW13036   5.107   1.487   4.185
 4046SOL    HW113037   5.168   1.443   4.251
 4046SOL    HW213038   5.089   1.581   4.213
 4047SOL     OW13039   3.489   2.704   6.452
 4047SOL    HW113040   3.542   2.774   6.499
 4047SOL    HW213041   3.517   2.614   6.483
 4048SOL     OW13042   4.911   2.001   3.253
 4048SOL    HW113043   4.920   1.940   3.175
 4048SOL    HW213044   4.824   1.986   3.299
 4049SOL     OW13045   4.202   3.864   1.407
 4049SOL    HW113046   4.127   3.813   1.366
 4049SOL    HW213047   4.285   3.808   1.408
 4050SOL     OW13048   6.907   4.907   2.602
 4050SOL    HW113049   6.953   4.829   2.561
 4050SOL    HW213050   6.888   4.888   2.699
 4051SOL     OW13051   5.350   0.410   5.050
 4051SOL    HW113052   5.341   0.508   5.066
 4051SOL    HW213053   5.442   0.390   5.018
 4052SOL     OW13054   5.139   1.821   4.206
 4052SOL    HW113055   5.097   1.887   4.268
 4052SOL    HW213056   5.230   1.797   4.240
 4053SOL     OW13057   0.797   5.100   3.871
 4053SOL    HW113058   0.802   5.195   3.901
 4053SOL    HW213059   0.751   5.046   3.942
 4054SOL     OW13060   4.466   3.791   1.397
 4054SOL    HW113061   4.467   3.784   1.497
 4054SOL    HW213062   4.553   3.830   1.366
 4055SOL     OW13063   7.009   4.479   0.157
 4055SOL    HW113064   0.028   4.405   0.103
 4055SOL    HW213065   7.013   4.456   0.254
 4056SOL     OW13066   4.979   3.168   6.873
 4056SOL    HW113067   5.069   3.212   6.867
 4056SOL    HW213068   4.907   3.237   6.866
 4057SOL     OW13069   0.078   3.902   6.831
 4057SOL    HW113070   0.114   3.902   6.738
 4057SOL    HW213071   0.092   3.992   6.872
 4058SOL     OW13072   3.312   0.066   4.630
 4058SOL    HW113073   3.397   0.087   4.580
 4058SOL    HW213074   3.273   0.151   4.666
 4059SOL     OW13075   0.618   1.340   3.879
 4059SOL    HW113076   0.545   1.339   3.948
 4059SOL    HW213077   0.580   1.369   3.791
 4060SOL     OW13078   0.428   6.279   4.402
 4060SOL    HW113079   0.427   6.366   4.353
 4060SOL    HW213080   0.429   6.297   4.501
 4061SOL     OW13081   0.540   4.920   2.013
 4061SOL    HW113082   0.523   4.892   2.108
 4061SOL    HW213083   0.452   4.936   1.968
 4062SOL     OW13084   1.906   3.617   0.615
 4062SOL    HW113085   1.853   3.699   0.594
 4062SOL    HW213086   1.949   3.584   0.531
 4063SOL     OW13087   3.996   0.497   0.860
 4063SOL    HW113088   4.003   0.419   0.797
 4063SOL    HW213089   3.993   0.464   0.954
 4064SOL     OW13090   1.984   1.102   5.748
 4064SOL    HW113091   1.917   1.140   5.685
 4064SOL    HW213092   2.046   1.041   5.698
 4065SOL     OW13093   2.514   1.314   1.479
 4065SOL    HW113094   2.523   1.379   1.403
 4065SOL    HW213095   2.439   1.343   1.538
 4066SOL     OW13096   0.411   3.893   3.976
 4066SOL    HW113097   0.493   3.845   3.945
 4066SOL    HW213098   0.340   3.886   3.906
 4067SOL     OW13099   6.327   4.932   0.819
 4067SOL    HW113100   6.335   5.009   0.757
 4067SOL    HW213101   6.408   4.874   0.811
 4068SOL     OW13102   2.435   2.692   5.116
 4068SOL    HW113103   2.441   2.789   5.091
 4068SOL    HW213104   2.481   2.677   5.203
 4069SOL     OW13105   4.645   6.239   5.886
 4069SOL    HW113106   4.737   6.208   5.863
 4069SOL    HW213107   4.650   6.303   5.963
 4070SOL     OW13108   1.704   3.674   4.174
 4070SOL    HW113109   1.650   3.724   4.105
 4070SOL    HW213110   1.780   3.731   4.203
 4071SOL     OW13111   1.696   1.183   4.784
 4071SOL    HW113112   1.681   1.147   4.876
 4071SOL    HW213113   1.712   1.282   4.788
 4072SOL     OW13114   3.004   6.311   2.622
 4072SOL    HW113115   2.991   6.249   2.544
 4072SOL    HW213116   2.925   6.304   2.682
 4073SOL     OW13117   3.891   5.282   6.636
 4073SOL    HW113118   3.897   5.309   6.540
 4073SOL    HW213119   3.813   5.221   6.649
 4074SOL     OW13120   1.619   5.336   2.599
 4074SOL    HW113121   1.683   5.309   2.672
 4074SOL    HW213122   1.646   5.426   2.564
 4075SOL     OW13123   6.252   1.042   6.979
 4075SOL    HW113124   6.336   1.074   0.003
 4075SOL    HW213125   6.253   1.069   6.882
 4076SOL     OW13126   2.466   5.725   3.815
 4076SOL    HW113127   2.369   5.703   3.824
 4076SOL    HW213128   2.518   5.675   3.883
 4077SOL     OW13129   3.015   1.224   1.560
 4077SOL    HW113130   2.959   1.292   1.513
 4077SOL    HW213131   3.072   1.269   1.628
 4078SOL     OW13132   3.719   4.863   2.267
 4078SOL    HW113133   3.633   4.890   2.312
 4078SOL    HW213134   3.699   4.831   2.174
 4079SOL     OW13135   6.974   2.198   3.887
 4079SOL    HW113136   7.007   2.243   3.970
 4079SOL    HW213137   6.946   2.104   3.908
 4080SOL     OW13138   0.005   2.066   5.105
 4080SOL    HW113139   0.093   2.053   5.149
 4080SOL    HW213140   6.952   2.065   5.174
 4081SOL     OW13141   1.146   3.603   3.527
 4081SOL    HW113142   1.229   3.607   3.472
 4081SOL    HW213143   1.150   3.671   3.600
 4082SOL     OW13144   0.642   3.696   0.253
 4082SOL    HW113145   0.660   3.610   0.301
 4082SOL    HW213146   0.597   3.676   0.166
 4083SOL     OW13147   6.528   2.690   5.294
 4083SOL    HW113148   6.489   2.779   5.269
 4083SOL    HW213149   6.571   2.649   5.213
 4084SOL     OW13150   6.331   1.060   4.240
 4084SOL    HW113151   6.273   1.095   4.166
 4084SOL    HW213152   6.274   1.039   4.319
 4085SOL     OW13153   2.878   6.245   0.282
 4085SOL    HW113154   2.957   6.280   0.232
 4085SOL    HW213155   2.864   6.300   0.365
 4086SOL     OW13156   1.630   4.141   1.178
 4086SOL    HW113157   1.666   4.200   1.105
 4086SOL    HW213158   1.619   4.195   1.262
 4087SOL     OW13159   2.437   1.699   2.605
 4087SOL    HW113160   2.456   1.779   2.548
 4087SOL    HW213161   2.523   1.667   2.646
 4088SOL     OW13162   6.702   1.742   0.306
 4088SOL    HW113163   6.627   1.680   0.330
 4088SOL    HW213164   6.675   1.799   0.229
 4089SOL     OW13165   1.374   1.618   5.377
 4089SOL    HW113166   1.430   1.699   5.363
 4089SOL    HW213167   1.306   1.611   5.304
 4090SOL     OW13168   2.675   4.615   6.376
 4090SOL    HW113169   2.750   4.629   6.311
 4090SOL    HW213170   2.673   4.519   6.404
 4091SOL     OW13171   4.151   0.141   1.189
 4091SOL    HW113172   4.213   0.217   1.210
 4091SOL    HW213173   4.174   0.103   1.099
 4092SOL     OW13174   6.681   1.616   4.322
 4092SOL    HW113175   6.616   1.622   4.247
 4092SOL    HW213176   6.735   1.700   4.326
 4093SOL     OW13177   5.622   6.656   4.440
 4093SOL    HW113178   5.536   6.687   4.400
 4093SOL    HW213179   5.683   6.734   4.455
 4094SOL     OW13180   3.143   4.291   5.347
 4094SOL    HW113181   3.164   4.386   5.326
 4094SOL    HW213182   3.043   4.279   5.351
 4095SOL     OW13183   1.896   3.483   5.907
 4095SOL    HW113184   1.928   3.573   5.879
 4095SOL    HW213185   1.956   3.413   5.869
 4096SOL     OW13186   4.360   4.569   2.166
 4096SOL    HW113187   4.337   4.622   2.247
 4096SOL    HW213188   4.278   4.522   2.133
 4097SOL     OW13189   3.838   3.922   3.513
 4097SOL    HW113190   3.851   4.009   3.560
 4097SOL    HW213191   3.765   3.870   3.559
 4098SOL     OW13192   0.738   3.436   2.396
 4098SOL    HW113193   0.745   3.373   2.473
 4098SOL    HW213194   0.652   3.421   2.348
 4099SOL     OW13195   2.370   5.942   1.854
 4099SOL    HW113196   2.303   5.957   1.927
 4099SOL    HW213197   2.342   5.992   1.773
 4100SOL     OW13198   3.716   6.491   3.239
 4100SOL    HW113199   3.713   6.506   3.140
 4100SOL    HW213200   3.802   6.447   3.263
 4101SOL     OW13201   4.513   1.112   0.225
 4101SOL    HW113202   4.476   1.147   0.311
 4101SOL    HW213203   4.564   1.186   0.179
 4102SOL     OW13204   5.323   1.323   0.337
 4102SOL    HW113205   5.366   1.237   0.365
 4102SOL    HW213206   5.244   1.341   0.394
 4103SOL     OW13207   0.193   0.123   2.359
 4103SOL    HW113208   0.269   0.059   2.345
 4103SOL    HW213209   0.108   0.081   2.326
 4104SOL     OW13210   1.920   5.087   2.605
 4104SOL    HW113211   2.018   5.072   2.614
 4104SOL    HW213212   1.882   5.021   2.540
 4105SOL     OW13213   6.103   4.971   0.451
 4105SOL    HW113214   6.164   5.035   0.405
 4105SOL    HW213215   6.040   4.930   0.384
 4106SOL     OW13216   0.171   3.633   4.546
 4106SOL    HW113217   0.236   3.708   4.558
 4106SOL    HW213218   0.107   3.632   4.623
 4107SOL     OW13219   6.615   0.426   0.305
 4107SOL    HW113220   6.619   0.326   0.318
 4107SOL    HW213221   6.561   0.466   0.379
 4108SOL     OW13222   6.428   2.649   5.011
 4108SOL    HW113223   6.384   2.738   5.001
 4108SOL    HW213224   6.359   2.577   5.006
 4109SOL     OW13225   3.158   6.575   3.660
 4109SOL    HW113226   3.074   6.529   3.631
 4109SOL    HW213227   3.135   6.656   3.714
 4110SOL     OW13228   4.510   3.399   5.871
 4110SOL    HW113229   4.432   3.371   5.815
 4110SOL    HW213230   4.571   3.455   5.815
 4111SOL     OW13231   3.984   3.506   6.123
 4111SOL    HW113232   4.074   3.546   6.140
 4111SOL    HW213233   3.994   3.426   6.063
 4112SOL     OW13234   4.142   0.679   4.874
 4112SOL    HW113235   4.172   0.595   4.829
 4112SOL    HW213236   4.051   0.667   4.912
 4113SOL     OW13237   3.996   5.029   4.994
 4113SOL    HW113238   3.963   5.116   5.030
 4113SOL    HW213239   3.944   5.005   4.912
 4114SOL     OW13240   3.576   2.092   2.418
 4114SOL    HW113241   3.563   2.094   2.319
 4114SOL    HW213242   3.498   2.046   2.461
 4115SOL     OW13243   5.470   4.866   2.124
 4115SOL    HW113244   5.465   4.775   2.083
 4115SOL    HW213245   5.473   4.858   2.224
 4116SOL     OW13246   3.126   0.985   2.612
 4116SOL    HW113247   3.031   0.976   2.642
 4116SOL    HW213248   3.158   1.078   2.630
 4117SOL     OW13249   0.450   5.717   1.787
 4117SOL    HW113250   0.528   5.677   1.738
 4117SOL    HW213251   0.464   5.708   1.885
 4118SOL     OW13252   2.674   6.955   0.353
 4118SOL    HW113253   2.680   6.944   0.452
 4118SOL    HW213254   2.594   6.906   0.319
 4119SOL     OW13255   4.539   1.005   3.202
 4119SOL    HW113256   4.535   1.095   3.159
 4119SOL    HW213257   4.502   1.011   3.295
 4120SOL     OW13258   4.577   0.916   2.324
 4120SOL    HW113259   4.641   0.945   2.253
 4120SOL    HW213260   4.515   0.846   2.287
 4121SOL     OW13261   6.750   2.194   4.768
 4121SOL    HW113262   6.719   2.289   4.758
 4121SOL    HW213263   6.850   2.191   4.756
 4122SOL     OW13264   1.973   5.702   0.107
 4122SOL    HW113265   1.897   5.746   0.156
 4122SOL    HW213266   2.050   5.690   0.170
 4123SOL     OW13267   4.250   4.499   5.981
 4123SOL    HW113268   4.340   4.457   5.966
 4123SOL    HW213269   4.181   4.446   5.931
 4124SOL     OW13270   4.430   6.340   3.428
 4124SOL    HW113271   4.375   6.346   3.511
 4124SOL    HW213272   4.444   6.431   3.390
 4125SOL     OW13273   5.293   1.039   1.476
 4125SOL    HW113274   5.219   1.013   1.413
 4125SOL    HW213275   5.263   1.114   1.534
 4126SOL     OW13276   2.172   5.148   4.228
 4126SOL    HW113277   2.261   5.104   4.237
 4126SOL    HW213278   2.111   5.090   4.173
 4127SOL     OW13279   6.498   3.843   5.126
 4127SOL    HW113280   6.461   3.817   5.037
 4127SOL    HW213281   6.424   3.848   5.193
 4128SOL     OW13282   0.759   2.374   1.897
 4128SOL    HW113283   0.670   2.421   1.901
 4128SOL    HW213284   0.832   2.442   1.897
 4129SOL     OW13285   6.045   2.338   6.524
 4129SOL    HW113286   6.007   2.289   6.602
 4129SOL    HW213287   6.045   2.436   6.542
 4130SOL     OW13288   6.739   3.024   1.032
 4130SOL    HW113289   6.789   3.029   0.945
 4130SOL    HW213290   6.798   3.057   1.106
 4131SOL     OW13291   0.176   3.938   3.274
 4131SOL    HW113292   0.134   3.873   3.336
 4131SOL    HW213293   0.224   4.008   3.327
 4132SOL     OW13294   4.994   2.171   4.704
 4132SOL    HW113295   4.939   2.150   4.785
 4132SOL    HW213296   5.088   2.141   4.718
 4133SOL     OW13297   2.399   2.323   0.866
 4133SOL    HW113298   2.429   2.381   0.942
 4133SOL    HW213299   2.389   2.379   0.784
 4134SOL     OW13300   1.644   1.560   0.238
 4134SOL    HW113301   1.729   1.537   0.285
 4134SOL    HW213302   1.569   1.559   0.304
 4135SOL     OW13303   1.809   0.788   0.947
 4135SOL    HW113304   1.739   0.859   0.935
 4135SOL    HW213305   1.777   0.702   0.909
 4136SOL     OW13306   0.905   1.809   3.161
 4136SOL    HW113307   0.874   1.715   3.175
 4136SOL    HW213308   0.890   1.862   3.245
 4137SOL     OW13309   4.012   3.743   5.598
 4137SOL    HW113310   4.027   3.660   5.545
 4137SOL    HW213311   3.930   3.732   5.655
 4138SOL     OW13312   4.071   5.635   2.574
 4138SOL    HW113313   4.091   5.699   2.648
 4138SOL    HW213314   4.096   5.678   2.486
 4139SOL     OW13315   2.592   0.933   0.491
 4139SOL    HW113316   2.560   0.974   0.405
 4139SOL    HW213317   2.692   0.933   0.492
 4140SOL     OW13318   4.333   2.055   5.037
 4140SOL    HW113319   4.389   2.119   4.985
 4140SOL    HW213320   4.391   1.985   5.079
 4141SOL     OW13321   5.477   5.010   0.329
 4141SOL    HW113322   5.422   4.971   0.403
 4141SOL    HW213323   5.439   5.099   0.302
 4142SOL     OW13324   6.479   2.467   1.198
 4142SOL    HW113325   6.418   2.454   1.276
 4142SOL    HW213326   6.469   2.560   1.162
 4143SOL     OW13327   0.691   2.753   1.931
 4143SOL    HW113328   0.746   2.677   1.966
 4143SOL    HW213329   0.746   2.837   1.930
 4144SOL     OW13330   4.629   0.592   1.835
 4144SOL    HW113331   4.554   0.607   1.769
 4144SOL    HW213332   4.592   0.548   1.917
 4145SOL     OW13333   3.315   0.047   2.986
 4145SOL    HW113334   3.361   0.078   3.070
 4145SOL    HW213335   3.217   0.042   3.002
 4146SOL     OW13336   4.584   5.329   0.614
 4146SOL    HW113337   4.639   5.307   0.533
 4146SOL    HW213338   4.493   5.360   0.585
 4147SOL     OW13339   2.746   2.198   6.098
 4147SOL    HW113340   2.785   2.274   6.046
 4147SOL    HW213341   2.646   2.202   6.093
 4148SOL     OW13342   6.463   0.073   3.170
 4148SOL    HW113343   6.415   7.006   3.180
 4148SOL    HW213344   6.524   0.086   3.249
 4149SOL     OW13345   5.241   4.242   1.662
 4149SOL    HW113346   5.235   4.270   1.758
 4149SOL    HW213347   5.220   4.144   1.655
 4150SOL     OW13348   4.925   0.568   5.986
 4150SOL    HW113349   4.911   0.532   5.893
 4150SOL    HW213350   4.874   0.653   5.996
 4151SOL     OW13351   0.361   5.393   0.533
 4151SOL    HW113352   0.300   5.315   0.517
 4151SOL    HW213353   0.415   5.377   0.615
 4152SOL     OW13354   3.598   4.177   1.347
 4152SOL    HW113355   3.677   4.130   1.387
 4152SOL    HW213356   3.609   4.275   1.356
 4153SOL     OW13357   5.861   5.715   6.085
 4153SOL    HW113358   5.933   5.766   6.037
 4153SOL    HW213359   5.880   5.617   6.078
 4154SOL     OW13360   4.285   2.313   5.761
 4154SOL    HW113361   4.367   2.318   5.817
 4154SOL    HW213362   4.277   2.395   5.705
 4155SOL     OW13363   1.543   3.420   0.658
 4155SOL    HW113364   1.626   3.368   0.639
 4155SOL    HW213365   1.489   3.371   0.727
 4156SOL     OW13366   5.939   0.038   5.179
 4156SOL    HW113367   5.934   6.966   5.141
 4156SOL    HW213368   6.027   0.050   5.226
 4157SOL     OW13369   3.576   0.608   4.168
 4157SOL    HW113370   3.506   0.555   4.119
 4157SOL    HW213371   3.536   0.695   4.197
 4158SOL     OW13372   1.083   0.679   3.645
 4158SOL    HW113373   0.986   0.688   3.668
 4158SOL    HW213374   1.092   0.637   3.555
 4159SOL     OW13375   0.620   3.461   5.053
 4159SOL    HW113376   0.650   3.552   5.079
 4159SOL    HW213377   0.698   3.398   5.056
 4160SOL     OW13378   1.405   0.701   0.987
 4160SOL    HW113379   1.351   0.624   0.953
 4160SOL    HW213380   1.425   0.687   1.084
 4161SOL     OW13381   6.415   2.012   0.712
 4161SOL    HW113382   6.469   2.078   0.765
 4161SOL    HW213383   6.378   2.057   0.631
 4162SOL     OW13384   0.431   6.634   4.883
 4162SOL    HW113385   0.373   6.552   4.882
 4162SOL    HW213386   0.495   6.628   4.959
 4163SOL     OW13387   6.441   1.186   5.121
 4163SOL    HW113388   6.528   1.232   5.137
 4163SOL    HW213389   6.459   1.095   5.083
 4164SOL     OW13390   2.660   6.747   6.106
 4164SOL    HW113391   2.635   6.843   6.098
 4164SOL    HW213392   2.578   6.690   6.098
 4165SOL     OW13393   2.651   5.967   2.591
 4165SOL    HW113394   2.574   5.904   2.600
 4165SOL    HW213395   2.736   5.918   2.611
 4166SOL     OW13396   5.835   2.306   1.403
 4166SOL    HW113397   5.813   2.336   1.496
 4166SOL    HW213398   5.898   2.370   1.361
 4167SOL     OW13399   1.846   3.227   1.208
 4167SOL    HW113400   1.820   3.131   1.203
 4167SOL    HW213401   1.767   3.281   1.239
 4168SOL     OW13402   1.650   4.651   1.181
 4168SOL    HW113403   1.724   4.716   1.199
 4168SOL    HW213404   1.598   4.635   1.265
 4169SOL     OW13405   5.963   3.426   4.996
 4169SOL    HW113406   5.976   3.331   5.024
 4169SOL    HW213407   6.043   3.458   4.945
 4170SOL     OW13408   4.008   1.713   4.964
 4170SOL    HW113409   3.987   1.723   5.061
 4170SOL    HW213410   4.055   1.795   4.931
 4171SOL     OW13411   5.782   3.385   1.341
 4171SOL    HW113412   5.868   3.349   1.377
 4171SOL    HW213413   5.795   3.409   1.245
 4172SOL     OW13414   2.396   1.070   0.306
 4172SOL    HW113415   2.464   1.053   0.235
 4172SOL    HW213416   2.323   1.128   0.269
 4173SOL     OW13417   4.996   3.450   6.349
 4173SOL    HW113418   4.951   3.409   6.270
 4173SOL    HW213419   4.962   3.543   6.362
 4174SOL     OW13420   5.291   0.766   4.269
 4174SOL    HW113421   5.238   0.847   4.294
 4174SOL    HW213422   5.328   0.723   4.351
 4175SOL     OW13423   3.006   1.636   3.233
 4175SOL    HW113424   2.990   1.654   3.331
 4175SOL    HW213425   2.999   1.722   3.182
 4176SOL     OW13426   6.055   4.946   2.524
 4176SOL    HW113427   5.988   4.990   2.465
 4176SOL    HW213428   6.009   4.888   2.591
 4177SOL     OW13429   6.450   4.807   3.311
 4177SOL    HW113430   6.414   4.886   3.261
 4177SOL    HW213431   6.539   4.831   3.352
 4178SOL     OW13432   3.841   3.138   5.536
 4178SOL    HW113433   3.833   3.180   5.445
 4178SOL    HW213434   3.933   3.156   5.573
 4179SOL     OW13435   6.593   2.731   6.771
 4179SOL    HW113436   6.567   2.827   6.784
 4179SOL    HW213437   6.670   2.725   6.708
 4180SOL     OW13438   4.516   3.557   1.650
 4180SOL    HW113439   4.502   3.655   1.667
 4180SOL    HW213440   4.439   3.506   1.687
 4181SOL     OW13441   6.660   0.828   0.297
 4181SOL    HW113442   6.707   0.740   0.303
 4181SOL    HW213443   6.569   0.815   0.259
 4182SOL     OW13444   5.488   0.826   3.875
 4182SOL    HW113445   5.405   0.858   3.920
 4182SOL    HW213446   5.487   0.855   3.779
 4183SOL     OW13447   2.086   1.311   1.533
 4183SOL    HW113448   1.998   1.317   1.486
 4183SOL    HW213449   2.145   1.385   1.502
 4184SOL     OW13450   4.375   5.115   6.903
 4184SOL    HW113451   4.281   5.124   6.871
 4184SOL    HW213452   4.416   5.206   6.913
 4185SOL     OW13453   0.120   6.918   4.206
 4185SOL    HW113454   0.131   6.927   4.108
 4185SOL    HW213455   0.032   6.875   4.226
 4186SOL     OW13456   3.857   4.238   1.737
 4186SOL    HW113457   3.772   4.288   1.720
 4186SOL    HW213458   3.835   4.148   1.774
 4187SOL     OW13459   4.171   5.133   6.598
 4187SOL    HW113460   4.139   5.195   6.669
 4187SOL    HW213461   4.191   5.185   6.515
 4188SOL     OW13462   5.341   6.114   4.134
 4188SOL    HW113463   5.366   6.062   4.053
 4188SOL    HW213464   5.358   6.211   4.118
 4189SOL     OW13465   1.681   3.679   3.456
 4189SOL    HW113466   1.704   3.640   3.366
 4189SOL    HW213467   1.725   3.768   3.466
 4190SOL     OW13468   2.653   0.198   1.200
 4190SOL    HW113469   2.596   0.132   1.151
 4190SOL    HW213470   2.628   0.291   1.175
 4191SOL     OW13471   0.591   2.419   2.468
 4191SOL    HW113472   0.647   2.407   2.550
 4191SOL    HW213473   0.602   2.512   2.434
 4192SOL     OW13474   5.673   0.290   3.144
 4192SOL    HW113475   5.625   0.357   3.200
 4192SOL    HW213476   5.713   0.220   3.204
 4193SOL     OW13477   1.973   6.770   2.534
 4193SOL    HW113478   1.996   6.774   2.436
 4193SOL    HW213479   2.046   6.721   2.583
 4194SOL     OW13480   5.869   0.640   3.734
 4194SOL    HW113481   5.785   0.694   3.739
 4194SOL    HW213482   5.948   0.702   3.736
 4195SOL     OW13483   5.489   0.991   3.144
 4195SOL    HW113484   5.578   1.021   3.178
 4195SOL    HW213485   5.434   1.071   3.119
 4196SOL     OW13486   4.529   2.437   3.756
 4196SOL    HW113487   4.475   2.397   3.830
 4196SOL    HW213488   4.609   2.379   3.739
 4197SOL     OW13489   5.165   3.982   5.029
 4197SOL    HW113490   5.074   3.940   5.019
 4197SOL    HW213491   5.232   3.928   4.978
 4198SOL     OW13492   6.271   3.582   6.138
 4198SOL    HW113493   6.330   3.605   6.215
 4198SOL    HW213494   6.260   3.482   6.134
 4199SOL     OW13495   2.973   3.780   5.646
 4199SOL    HW113496   3.044   3.850   5.638
 4199SOL    HW213497   2.890   3.810   5.599
 4200SOL     OW13498   2.603   0.483   6.580
 4200SOL    HW113499   2.622   0.581   6.583
 4200SOL    HW213500   2.523   0.462   6.636
 4201SOL     OW13501   6.142   6.852   4.580
 4201SOL    HW113502   6.115   6.927   4.641
 4201SOL    HW213503   6.213   6.884   4.517
 4202SOL     OW13504   5.298   3.633   5.451
 4202SOL    HW113505   5.305   3.620   5.352
 4202SOL    HW213506   5.371   3.694   5.481
 4203SOL     OW13507   4.487   5.033   4.169
 4203SOL    HW113508   4.519   5.038   4.263
 4203SOL    HW213509   4.551   4.977   4.115
 4204SOL     OW13510   1.775   3.985   0.767
 4204SOL    HW113511   1.787   4.082   0.747
 4204SOL    HW213512   1.694   3.973   0.825
 4205SOL     OW13513   2.703   6.203   3.207
 4205SOL    HW113514   2.678   6.286   3.158
 4205SOL    HW213515   2.802   6.189   3.199
 4206SOL     OW13516   5.065   6.092   4.165
 4206SOL    HW113517   5.161   6.094   4.137
 4206SOL    HW213518   5.014   6.162   4.115
 4207SOL     OW13519   0.769   7.009   0.133
 4207SOL    HW113520   0.727   6.920   0.113
 4207SOL    HW213521   0.711   0.039   0.197
 4208SOL     OW13522   0.980   2.756   0.727
 4208SOL    HW113523   0.904   2.726   0.785
 4208SOL    HW213524   1.053   2.688   0.731
 4209SOL     OW13525   3.285   0.574   5.297
 4209SOL    HW113526   3.208   0.631   5.326
 4209SOL    HW213527   3.368   0.631   5.292
 4210SOL     OW13528   4.079   2.533   0.384
 4210SOL    HW113529   4.142   2.512   0.459
 4210SOL    HW213530   4.126   2.588   0.315
 4211SOL     OW13531   5.473   3.535   4.601
 4211SOL    HW113532   5.393   3.517   4.544
 4211SOL    HW213533   5.444   3.550   4.695
 4212SOL     OW13534   6.482   6.297   2.190
 4212SOL    HW113535   6.461   6.368   2.123
 4212SOL    HW213536   6.399   6.244   2.210
 4213SOL     OW13537   0.581   0.024   1.366
 4213SOL    HW113538   0.602   0.048   1.460
 4213SOL    HW213539   0.561   6.946   1.360
 4214SOL     OW13540   3.294   5.422   4.986
 4214SOL    HW113541   3.360   5.385   5.051
 4214SOL    HW213542   3.281   5.357   4.911
 4215SOL     OW13543   1.069   6.058   5.717
 4215SOL    HW113544   1.024   5.974   5.688
 4215SOL    HW213545   1.054   6.073   5.815
 4216SOL     OW13546   2.720   3.187   5.324
 4216SOL    HW113547   2.655   3.123   5.284
 4216SOL    HW213548   2.761   3.243   5.252
 4217SOL     OW13549   6.835   1.013   3.687
 4217SOL    HW113550   6.871   1.046   3.774
 4217SOL    HW213551   6.777   1.083   3.646
 4218SOL     OW13552   3.189   5.895   2.509
 4218SOL    HW113553   3.177   5.911   2.607
 4218SOL    HW213554   3.233   5.806   2.495
 4219SOL     OW13555   5.510   0.051   3.008
 4219SOL    HW113556   5.487   7.015   3.087
 4219SOL    HW213557   5.554   7.014   2.938
 4220SOL     OW13558   0.316   4.153   3.676
 4220SOL    HW113559   0.297   4.165   3.578
 4220SOL    HW213560   0.253   4.085   3.714
 4221SOL     OW13561   5.588   6.121   5.737
 4221SOL    HW113562   5.616   6.091   5.646
 4221SOL    HW213563   5.638   6.069   5.806
 4222SOL     OW13564   3.108   3.279   0.425
 4222SOL    HW113565   3.018   3.306   0.456
 4222SOL    HW213566   3.114   3.290   0.325
 4223SOL     OW13567   3.208   4.094   2.365
 4223SOL    HW113568   3.235   4.104   2.269
 4223SOL    HW213569   3.286   4.060   2.418
 4224SOL     OW13570   3.860   1.869   5.874
 4224SOL    HW113571   3.868   1.825   5.964
 4224SOL    HW213572   3.951   1.879   5.834
 4225SOL     OW13573   4.809   0.484   4.011
 4225SOL    HW113574   4.877   0.420   3.974
 4225SOL    HW213575   4.722   0.471   3.964
 4226SOL     OW13576   1.626   1.463   3.072
 4226SOL    HW113577   1.584   1.428   3.156
 4226SOL    HW213578   1.638   1.388   3.007
 4227SOL     OW13579   5.232   4.277   6.494
 4227SOL    HW113580   5.201   4.183   6.483
 4227SOL    HW213581   5.332   4.278   6.504
 4228SOL     OW13582   5.229   5.075   3.145
 4228SOL    HW113583   5.169   5.085   3.224
 4228SOL    HW213584   5.184   5.019   3.075
 4229SOL     OW13585   4.482   4.977   5.194
 4229SOL    HW113586   4.409   4.910   5.180
 4229SOL    HW213587   4.477   5.013   5.287
 4230SOL     OW13588   3.132   0.886   5.835
 4230SOL    HW113589   3.199   0.937   5.888
 4230SOL    HW213590   3.060   0.852   5.895
 4231SOL     OW13591   3.553   6.666   6.323
 4231SOL    HW113592   3.492   6.630   6.252
 4231SOL    HW213593   3.615   6.734   6.282
 4232SOL     OW13594   2.245   4.129   1.395
 4232SOL    HW113595   2.174   4.199   1.393
 4232SOL    HW213596   2.332   4.170   1.367
 4233SOL     OW13597   5.614   6.115   1.242
 4233SOL    HW113598   5.676   6.038   1.235
 4233SOL    HW213599   5.574   6.134   1.152
 4234SOL     OW13600   3.536   3.338   5.526
 4234SOL    HW113601   3.535   3.437   5.539
 4234SOL    HW213602   3.572   3.317   5.435
 4235SOL     OW13603   0.309   4.038   4.873
 4235SOL    HW113604   0.271   4.090   4.796
 4235SOL    HW213605   0.250   4.048   4.953
 4236SOL     OW13606   0.862   3.694   4.900
 4236SOL    HW113607   0.935   3.626   4.906
 4236SOL    HW213608   0.807   3.692   4.983
 4237SOL     OW13609   6.597   3.931   5.513
 4237SOL    HW113610   6.516   3.982   5.541
 4237SOL    HW213611   6.638   3.976   5.433
 4238SOL     OW13612   4.969   4.756   4.507
 4238SOL    HW113613   5.049   4.698   4.490
 4238SOL    HW213614   4.926   4.728   4.593
 4239SOL     OW13615   4.981   5.640   5.529
 4239SOL    HW113616   4.951   5.683   5.615
 4239SOL    HW213617   5.073   5.672   5.506
 4240SOL     OW13618   2.634   5.175   6.487
 4240SOL    HW113619   2.706   5.177   6.417
 4240SOL    HW213620   2.611   5.080   6.508
 4241SOL     OW13621   4.146   2.260   0.922
 4241SOL    HW113622   4.064   2.206   0.942
 4241SOL    HW213623   4.219   2.198   0.891
 4242SOL     OW13624   1.900   0.556   1.936
 4242SOL    HW113625   1.957   0.590   1.861
 4242SOL    HW213626   1.805   0.580   1.920
 4243SOL     OW13627   1.418   2.922   3.252
 4243SOL    HW113628   1.386   2.838   3.207
 4243SOL    HW213629   1.500   2.902   3.305
 4244SOL     OW13630   3.334   0.604   0.954
 4244SOL    HW113631   3.407   0.563   1.008
 4244SOL    HW213632   3.353   0.592   0.856
 4245SOL     OW13633   0.049   1.858   0.891
 4245SOL    HW113634   0.144   1.868   0.861
 4245SOL    HW213635   0.022   1.762   0.883
 4246SOL     OW13636   4.860   2.781   3.645
 4246SOL    HW113637   4.897   2.697   3.684
 4246SOL    HW213638   4.774   2.804   3.690
 4247SOL     OW13639   2.139   5.394   0.113
 4247SOL    HW113640   2.133   5.490   0.140
 4247SOL    HW213641   2.193   5.344   0.181
 4248SOL     OW13642   1.922   0.964   3.337
 4248SOL    HW113643   1.839   1.021   3.336
 4248SOL    HW213644   1.936   0.923   3.247
 4249SOL     OW13645   5.587   0.505   5.985
 4249SOL    HW113646   5.623   0.570   5.919
 4249SOL    HW213647   5.635   0.515   6.073
 4250SOL     OW13648   0.603   5.427   5.037
 4250SOL    HW113649   0.547   5.498   5.080
 4250SOL    HW213650   0.557   5.392   4.955
 4251SOL     OW13651   4.581   2.204   5.859
 4251SOL    HW113652   4.660   2.266   5.863
 4251SOL    HW213653   4.547   2.187   5.952
 4252SOL     OW13654   7.014   0.038   6.653
 4252SOL    HW113655   7.014   0.126   6.700
 4252SOL    HW213656   7.017   0.053   6.554
 4253SOL     OW13657   4.386   6.311   3.024
 4253SOL    HW113658   4.288   6.305   3.046
 4253SOL    HW213659   4.400   6.386   2.960
 4254SOL     OW13660   1.533   2.306   5.721
 4254SOL    HW113661   1.502   2.333   5.630
 4254SOL    HW213662   1.518   2.208   5.734
 4255SOL     OW13663   0.965   3.030   3.116
 4255SOL    HW113664   0.997   3.113   3.069
 4255SOL    HW213665   1.044   2.977   3.147
 4256SOL     OW13666   5.832   6.030   0.764
 4256SOL    HW113667   5.755   5.971   0.788
 4256SOL    HW213668   5.851   6.092   0.840
 4257SOL     OW13669   6.716   0.736   2.979
 4257SOL    HW113670   6.766   0.815   2.945
 4257SOL    HW213671   6.713   0.739   3.079
 4258SOL     OW13672   3.102   6.053   0.916
 4258SOL    HW113673   3.132   6.020   0.827
 4258SOL    HW213674   3.010   6.092   0.909
 4259SOL     OW13675   0.574   6.762   0.572
 4259SOL    HW113676   0.660   6.740   0.617
 4259SOL    HW213677   0.500   6.710   0.613
 4260SOL     OW13678   6.075   0.317   4.772
 4260SOL    HW113679   6.104   0.380   4.844
 4260SOL    HW213680   6.122   0.341   4.686
 4261SOL     OW13681   2.626   6.412   3.461
 4261SOL    HW113682   2.678   6.410   3.546
 4261SOL    HW213683   2.629   6.322   3.419
 4262SOL     OW13684   1.883   4.859   4.896
 4262SOL    HW113685   1.889   4.779   4.837
 4262SOL    HW213686   1.942   4.931   4.860
 4263SOL     OW13687   3.252   1.477   2.990
 4263SOL    HW113688   3.163   1.464   3.032
 4263SOL    HW213689   3.284   1.391   2.952
 4264SOL     OW13690   4.809   1.911   6.814
 4264SOL    HW113691   4.746   1.948   6.745
 4264SOL    HW213692   4.788   1.951   6.903
 4265SOL     OW13693   3.196   6.164   6.626
 4265SOL    HW113694   3.270   6.118   6.577
 4265SOL    HW213695   3.172   6.249   6.578
 4266SOL     OW13696   0.763   4.791   1.904
 4266SOL    HW113697   0.842   4.803   1.965
 4266SOL    HW213698   0.687   4.847   1.938
 4267SOL     OW13699   1.240   4.102   3.709
 4267SOL    HW113700   1.261   4.171   3.639
 4267SOL    HW213701   1.157   4.129   3.757
 4268SOL     OW13702   1.369   4.376   6.179
 4268SOL    HW113703   1.325   4.341   6.097
 4268SOL    HW213704   1.454   4.424   6.154
 4269SOL     OW13705   2.750   1.351   3.977
 4269SOL    HW113706   2.698   1.266   3.968
 4269SOL    HW213707   2.844   1.336   3.945
 4270SOL     OW13708   4.207   4.007   1.015
 4270SOL    HW113709   4.272   3.931   1.011
 4270SOL    HW213710   4.121   3.980   0.972
 4271SOL     OW13711   6.709   0.663   0.893
 4271SOL    HW113712   6.674   0.689   0.804
 4271SOL    HW213713   6.633   0.648   0.956
 4272SOL     OW13714   0.015   1.856   5.401
 4272SOL    HW113715   0.018   1.764   5.440
 4272SOL    HW213716   6.977   1.855   5.319
 4273SOL     OW13717   3.340   6.145   3.936
 4273SOL    HW113718   3.307   6.226   3.887
 4273SOL    HW213719   3.276   6.121   4.008
 4274SOL     OW13720   0.283   1.361   1.409
 4274SOL    HW113721   0.277   1.454   1.445
 4274SOL    HW213722   0.365   1.317   1.445
 4275SOL     OW13723   6.699   2.304   3.799
 4275SOL    HW113724   6.787   2.266   3.827
 4275SOL    HW213725   6.713   2.394   3.758
 4276SOL     OW13726   1.460   6.522   2.718
 4276SOL    HW113727   1.557   6.505   2.740
 4276SOL    HW213728   1.427   6.451   2.656
 4277SOL     OW13729   6.406   5.454   3.230
 4277SOL    HW113730   6.498   5.445   3.193
 4277SOL    HW213731   6.363   5.536   3.193
 4278SOL     OW13732   0.044   0.006   1.111
 4278SOL    HW113733   0.061   0.104   1.098
 4278SOL    HW213734   0.098   6.974   1.045
 4279SOL     OW13735   0.859   2.510   2.953
 4279SOL    HW113736   0.928   2.476   3.017
 4279SOL    HW213737   0.790   2.562   3.004
 4280SOL     OW13738   2.340   6.433   6.767
 4280SOL    HW113739   2.404   6.362   6.738
 4280SOL    HW213740   2.386   6.495   6.831
 4281SOL     OW13741   6.494   6.030   2.953
 4281SOL    HW113742   6.574   5.989   2.910
 4281SOL    HW213743   6.445   6.086   2.887
 4282SOL     OW13744   5.422   5.239   1.737
 4282SOL    HW113745   5.392   5.156   1.784
 4282SOL    HW213746   5.511   5.267   1.773
 4283SOL     OW13747   6.029   1.516   4.629
 4283SOL    HW113748   5.942   1.519   4.580
 4283SOL    HW213749   6.077   1.431   4.607
 4284SOL     OW13750   4.643   5.953   6.643
 4284SOL    HW113751   4.667   5.974   6.549
 4284SOL    HW213752   4.559   5.897   6.645
 4285SOL     OW13753   3.164   1.416   6.690
 4285SOL    HW113754   3.147   1.511   6.667
 4285SOL    HW213755   3.106   1.357   6.633
 4286SOL     OW13756   4.975   6.565   0.270
 4286SOL    HW113757   4.945   6.470   0.265
 4286SOL    HW213758   4.896   6.626   0.279
 4287SOL     OW13759   3.694   0.967   1.157
 4287SOL    HW113760   3.649   0.878   1.170
 4287SOL    HW213761   3.625   1.039   1.152
 4288SOL     OW13762   6.860   5.734   2.198
 4288SOL    HW113763   6.811   5.677   2.131
 4288SOL    HW213764   6.814   5.823   2.205
 4289SOL     OW13765   0.285   4.197   5.392
 4289SOL    HW113766   0.231   4.264   5.342
 4289SOL    HW213767   0.380   4.228   5.396
 4290SOL     OW13768   6.796   1.497   3.482
 4290SOL    HW113769   6.800   1.526   3.578
 4290SOL    HW213770   6.740   1.414   3.474
 4291SOL     OW13771   4.168   4.827   6.700
 4291SOL    HW113772   4.268   4.830   6.706
 4291SOL    HW213773   4.131   4.783   6.782
 4292SOL     OW13774   6.901   0.822   1.575
 4292SOL    HW113775   6.919   0.839   1.672
 4292SOL    HW213776   6.830   0.884   1.542
 4293SOL     OW13777   3.703   2.864   6.573
 4293SOL    HW113778   3.724   2.797   6.644
 4293SOL    HW213779   3.704   2.956   6.612
 4294SOL     OW13780   2.762   1.857   6.834
 4294SOL    HW113781   2.693   1.879   6.903
 4294SOL    HW213782   2.848   1.903   6.856
 4295SOL     OW13783   4.422   6.492   2.777
 4295SOL    HW113784   4.432   6.408   2.725
 4295SOL    HW213785   4.330   6.529   2.763
 4296SOL     OW13786   2.128   5.847   2.393
 4296SOL    HW113787   2.190   5.774   2.363
 4296SOL    HW213788   2.161   5.884   2.480
 4297SOL     OW13789   4.738   5.203   0.384
 4297SOL    HW113790   4.703   5.118   0.345
 4297SOL    HW213791   4.818   5.184   0.440
 4298SOL     OW13792   1.621   0.071   0.445
 4298SOL    HW113793   1.585   0.016   0.521
 4298SOL    HW213794   1.546   0.101   0.386
 4299SOL     OW13795   0.410   2.898   6.172
 4299SOL    HW113796   0.416   2.869   6.268
 4299SOL    HW213797   0.314   2.910   6.147
 4300SOL     OW13798   3.077   0.517   2.112
 4300SOL    HW113799   3.025   0.597   2.139
 4300SOL    HW213800   3.121   0.477   2.193
 4301SOL     OW13801   2.063   6.128   5.304
 4301SOL    HW113802   2.008   6.052   5.338
 4301SOL    HW213803   2.070   6.199   5.375
 4302SOL     OW13804   3.706   5.127   6.936
 4302SOL    HW113805   3.788   5.112   6.990
 4302SOL    HW213806   3.718   5.090   6.844
 4303SOL     OW13807   4.242   5.396   3.921
 4303SOL    HW113808   4.274   5.485   3.889
 4303SOL    HW213809   4.315   5.328   3.910
 4304SOL     OW13810   3.068   4.190   1.794
 4304SOL    HW113811   3.058   4.239   1.708
 4304SOL    HW213812   2.978   4.171   1.833
 4305SOL     OW13813   0.407   6.516   5.575
 4305SOL    HW113814   0.391   6.506   5.477
 4305SOL    HW213815   0.401   6.427   5.619
 4306SOL     OW13816   5.625   3.169   5.223
 4306SOL    HW113817   5.612   3.190   5.126
 4306SOL    HW213818   5.536   3.167   5.269
 4307SOL     OW13819   6.856   1.623   5.513
 4307SOL    HW113820   6.894   1.565   5.440
 4307SOL    HW213821   6.811   1.566   5.581
 4308SOL     OW13822   4.192   5.825   5.873
 4308SOL    HW113823   4.207   5.924   5.883
 4308SOL    HW213824   4.236   5.777   5.948
 4309SOL     OW13825   3.034   1.586   0.841
 4309SOL    HW113826   3.040   1.564   0.938
 4309SOL    HW213827   3.076   1.675   0.824
 4310SOL     OW13828   6.125   2.119   3.658
 4310SOL    HW113829   6.034   2.081   3.679
 4310SOL    HW213830   6.118   2.218   3.650
 4311SOL     OW13831   0.471   6.790   1.277
 4311SOL    HW113832   0.444   6.786   1.180
 4311SOL    HW213833   0.406   6.847   1.327
 4312SOL     OW13834   0.118   3.730   2.368
 4312SOL    HW113835   0.196   3.716   2.430
 4312SOL    HW213836   0.119   3.824   2.334
 4313SOL     OW13837   0.900   3.329   0.290
 4313SOL    HW113838   0.842   3.325   0.208
 4313SOL    HW213839   0.996   3.330   0.262
 4314SOL     OW13840   1.770   1.736   5.838
 4314SOL    HW113841   1.729   1.756   5.927
 4314SOL    HW213842   1.817   1.817   5.804
 4315SOL     OW13843   2.771   2.338   4.984
 4315SOL    HW113844   2.686   2.391   4.975
 4315SOL    HW213845   2.816   2.333   4.895
 4316SOL     OW13846   4.663   5.172   2.037
 4316SOL    HW113847   4.621   5.253   1.996
 4316SOL    HW213848   4.760   5.190   2.054
 4317SOL     OW13849   4.806   0.298   4.228
 4317SOL    HW113850   4.841   0.381   4.185
 4317SOL    HW213851   4.882   0.241   4.258
 4318SOL     OW13852   1.909   6.053   3.636
 4318SOL    HW113853   1.851   6.133   3.649
 4318SOL    HW213854   1.871   5.995   3.564
 4319SOL     OW13855   1.278   4.840   2.278
 4319SOL    HW113856   1.372   4.809   2.267
 4319SOL    HW213857   1.262   4.865   2.373
 4320SOL     OW13858   3.319   0.531   1.383
 4320SOL    HW113859   3.317   0.627   1.358
 4320SOL    HW213860   3.230   0.490   1.364
 4321SOL     OW13861   6.601   5.643   2.821
 4321SOL    HW113862   6.505   5.656   2.846
 4321SOL    HW213863   6.638   5.566   2.872
 4322SOL     OW13864   2.663   2.374   3.725
 4322SOL    HW113865   2.741   2.311   3.723
 4322SOL    HW213866   2.585   2.333   3.679
 4323SOL     OW13867   5.104   4.584   1.324
 4323SOL    HW113868   5.035   4.657   1.319
 4323SOL    HW213869   5.191   4.623   1.352
 4324SOL     OW13870   0.106   4.146   5.884
 4324SOL    HW113871   0.192   4.106   5.914
 4324SOL    HW213872   0.119   4.243   5.864
 4325SOL     OW13873   1.498   0.355   1.237
 4325SOL    HW113874   1.461   0.445   1.214
 4325SOL    HW213875   1.566   0.363   1.310
 4326SOL     OW13876   4.515   2.494   3.264
 4326SOL    HW113877   4.563   2.520   3.180
 4326SOL    HW213878   4.558   2.540   3.342
 4327SOL     OW13879   3.098   6.802   3.768
 4327SOL    HW113880   3.157   6.880   3.745
 4327SOL    HW213881   3.082   6.801   3.867
 4328SOL     OW13882   6.097   0.170   3.128
 4328SOL    HW113883   6.034   0.108   3.082
 4328SOL    HW213884   6.047   0.225   3.195
 4329SOL     OW13885   6.135   3.948   0.417
 4329SOL    HW113886   6.199   3.903   0.479
 4329SOL    HW213887   6.041   3.933   0.449
 4330SOL     OW13888   2.456   5.157   4.490
 4330SOL    HW113889   2.415   5.129   4.403
 4330SOL    HW213890   2.556   5.159   4.481
 4331SOL     OW13891   5.687   1.538   2.545
 4331SOL    HW113892   5.782   1.568   2.539
 4331SOL    HW213893   5.681   1.441   2.525
 4332SOL     OW13894   6.927   5.442   1.328
 4332SOL    HW113895   6.839   5.438   1.281
 4332SOL    HW213896   6.945   5.535   1.359
 4333SOL     OW13897   3.570   2.960   6.314
 4333SOL    HW113898   3.634   2.959   6.392
 4333SOL    HW213899   3.522   2.872   6.309
 4334SOL     OW13900   7.016   2.682   4.226
 4334SOL    HW113901   6.969   2.603   4.267
 4334SOL    HW213902   0.003   2.669   4.127
 4335SOL     OW13903   2.333   3.995   1.760
 4335SOL    HW113904   2.327   3.896   1.746
 4335SOL    HW213905   2.422   4.028   1.729
 4336SOL     OW13906   3.141   5.677   5.641
 4336SOL    HW113907   3.099   5.765   5.663
 4336SOL    HW213908   3.199   5.648   5.716
 4337SOL     OW13909   6.658   4.759   3.615
 4337SOL    HW113910   6.671   4.771   3.713
 4337SOL    HW213911   6.618   4.843   3.577
 4338SOL     OW13912   3.064   2.183   5.873
 4338SOL    HW113913   3.132   2.148   5.809
 4338SOL    HW213914   3.069   2.131   5.958
 4339SOL     OW13915   4.268   4.560   5.388
 4339SOL    HW113916   4.264   4.513   5.299
 4339SOL    HW213917   4.224   4.649   5.380
 4340SOL     OW13918   0.024   3.993   0.389
 4340SOL    HW113919   6.992   4.033   0.465
 4340SOL    HW213920   0.111   3.959   0.423
 4341SOL     OW13921   6.143   5.521   0.887
 4341SOL    HW113922   6.061   5.573   0.909
 4341SOL    HW213923   6.222   5.582   0.882
 4342SOL     OW13924   5.193   3.396   2.508
 4342SOL    HW113925   5.163   3.491   2.508
 4342SOL    HW213926   5.189   3.360   2.415
 4343SOL     OW13927   4.009   0.688   6.582
 4343SOL    HW113928   4.023   0.782   6.551
 4343SOL    HW213929   3.999   0.628   6.503
 4344SOL     OW13930   1.274   4.291   2.319
 4344SOL    HW113931   1.248   4.387   2.313
 4344SOL    HW213932   1.192   4.234   2.319
 4345SOL     OW13933   3.575   3.481   2.948
 4345SOL    HW113934   3.487   3.455   2.987
 4345SOL    HW213935   3.635   3.402   2.946
 4346SOL     OW13936   0.750   3.686   2.531
 4346SOL    HW113937   0.833   3.737   2.509
 4346SOL    HW213938   0.732   3.620   2.458
 4347SOL     OW13939   6.467   5.741   0.525
 4347SOL    HW113940   6.397   5.670   0.531
 4347SOL    HW213941   6.444   5.815   0.589
 4348SOL     OW13942   6.236   3.962   5.807
 4348SOL    HW113943   6.149   3.989   5.849
 4348SOL    HW213944   6.309   3.969   5.875
 4349SOL     OW13945   1.212   4.218   3.981
 4349SOL    HW113946   1.228   4.166   4.064
 4349SOL    HW213947   1.119   4.201   3.948
 4350SOL     OW13948   4.993   0.731   3.865
 4350SOL    HW113949   4.936   0.795   3.815
 4350SOL    HW213950   4.998   0.644   3.816
 4351SOL     OW13951   0.167   5.727   0.918
 4351SOL    HW113952   0.191   5.655   0.984
 4351SOL    HW213953   0.102   5.690   0.852
 4352SOL     OW13954   3.324   4.648   1.697
 4352SOL    HW113955   3.341   4.676   1.603
 4352SOL    HW213956   3.410   4.641   1.747
 4353SOL     OW13957   2.469   4.257   0.680
 4353SOL    HW113958   2.502   4.168   0.646
 4353SOL    HW213959   2.500   4.329   0.618
 4354SOL     OW13960   5.117   5.374   2.346
 4354SOL    HW113961   5.018   5.384   2.352
 4354SOL    HW213962   5.154   5.442   2.283
 4355SOL     OW13963   2.557   5.068   3.038
 4355SOL    HW113964   2.562   5.028   3.130
 4355SOL    HW213965   2.467   5.110   3.026
 4356SOL     OW13966   5.742   2.186   5.850
 4356SOL    HW113967   5.712   2.248   5.923
 4356SOL    HW213968   5.712   2.093   5.871
 4357SOL     OW13969   5.597   5.915   2.175
 4357SOL    HW113970   5.573   6.007   2.143
 4357SOL    HW213971   5.668   5.921   2.246
 4358SOL     OW13972   2.820   0.660   0.702
 4358SOL    HW113973   2.829   0.593   0.776
 4358SOL    HW213974   2.723   0.680   0.686
 4359SOL     OW13975   2.451   2.236   1.874
 4359SOL    HW113976   2.540   2.273   1.849
 4359SOL    HW213977   2.455   2.198   1.967
 4360SOL     OW13978   2.577   5.910   4.133
 4360SOL    HW113979   2.624   5.843   4.076
 4360SOL    HW213980   2.610   5.903   4.227
 4361SOL     OW13981   1.226   1.809   0.166
 4361SOL    HW113982   1.247   1.777   0.258
 4361SOL    HW213983   1.162   1.746   0.123
 4362SOL     OW13984   0.607   5.246   2.772
 4362SOL    HW113985   0.591   5.202   2.684
 4362SOL    HW213986   0.655   5.183   2.832
 4363SOL     OW13987   3.367   0.702   2.242
 4363SOL    HW113988   3.393   0.623   2.298
 4363SOL    HW213989   3.310   0.764   2.297
 4364SOL     OW13990   3.297   4.135   2.771
 4364SOL    HW113991   3.280   4.233   2.764
 4364SOL    HW213992   3.364   4.108   2.702
 4365SOL     OW13993   2.207   1.229   0.848
 4365SOL    HW113994   2.255   1.288   0.913
 4365SOL    HW213995   2.120   1.199   0.888
 4366SOL     OW13996   5.427   5.888   4.829
 4366SOL    HW113997   5.434   5.897   4.730
 4366SOL    HW213998   5.365   5.957   4.865
 4367SOL     OW13999   2.853   6.623   2.045
 4367SOL    HW114000   2.848   6.554   1.973
 4367SOL    HW214001   2.886   6.580   2.129
 4368SOL     OW14002   4.952   3.861   4.165
 4368SOL    HW114003   4.935   3.773   4.120
 4368SOL    HW214004   4.865   3.901   4.195
 4369SOL     OW14005   5.813   4.267   3.722
 4369SOL    HW114006   5.880   4.297   3.789
 4369SOL    HW214007   5.723   4.304   3.745
 4370SOL     OW14008   4.249   5.039   0.751
 4370SOL    HW114009   4.169   5.033   0.691
 4370SOL    HW214010   4.227   5.092   0.832
 4371SOL     OW14011   3.528   1.305   2.861
 4371SOL    HW114012   3.456   1.287   2.928
 4371SOL    HW214013   3.615   1.318   2.908
 4372SOL     OW14014   1.911   4.477   4.887
 4372SOL    HW114015   1.975   4.550   4.862
 4372SOL    HW214016   1.950   4.389   4.860
 4373SOL     OW14017   4.041   0.308   0.249
 4373SOL    HW114018   3.993   0.381   0.298
 4373SOL    HW214019   4.054   0.230   0.311
 4374SOL     OW14020   2.802   6.378   0.505
 4374SOL    HW114021   2.739   6.301   0.505
 4374SOL    HW214022   2.750   6.463   0.519
 4375SOL     OW14023   3.878   1.444   5.520
 4375SOL    HW114024   3.784   1.471   5.500
 4375SOL    HW214025   3.901   1.469   5.614
 4376SOL     OW14026   2.472   5.789   0.195
 4376SOL    HW114027   2.564   5.824   0.180
 4376SOL    HW214028   2.406   5.863   0.186
 4377SOL     OW14029   5.027   5.776   6.860
 4377SOL    HW114030   5.107   5.828   6.891
 4377SOL    HW214031   4.948   5.837   6.852
 4378SOL     OW14032   2.987   5.259   2.336
 4378SOL    HW114033   2.915   5.305   2.388
 4378SOL    HW214034   2.970   5.269   2.238
 4379SOL     OW14035   0.204   6.642   0.839
 4379SOL    HW114036   0.254   6.610   0.758
 4379SOL    HW214037   0.110   6.608   0.836
 4380SOL     OW14038   2.094   5.758   4.145
 4380SOL    HW114039   2.118   5.855   4.142
 4380SOL    HW214040   2.098   5.726   4.240
 4381SOL     OW14041   3.819   5.958   4.887
 4381SOL    HW114042   3.811   5.952   4.788
 4381SOL    HW214043   3.916   5.960   4.912
 4382SOL     OW14044   5.508   4.729   2.799
 4382SOL    HW114045   5.415   4.694   2.784
 4382SOL    HW214046   5.504   4.815   2.849
 4383SOL     OW14047   1.024   1.147   0.646
 4383SOL    HW114048   0.965   1.224   0.624
 4383SOL    HW214049   1.115   1.163   0.607
 4384SOL     OW14050   3.555   0.407   2.109
 4384SOL    HW114051   3.514   0.448   2.191
 4384SOL    HW214052   3.517   0.316   2.094
 4385SOL     OW14053   6.195   2.426   2.943
 4385SOL    HW114054   6.263   2.465   2.881
 4385SOL    HW214055   6.229   2.338   2.978
 4386SOL     OW14056   1.738   4.201   0.112
 4386SOL    HW114057   1.765   4.127   0.174
 4386SOL    HW214058   1.700   4.162   0.028
 4387SOL     OW14059   6.162   2.206   1.478
 4387SOL    HW114060   6.103   2.147   1.422
 4387SOL    HW214061   6.165   2.171   1.571
 4388SOL     OW14062   3.605   1.503   5.476
 4388SOL    HW114063   3.551   1.420   5.482
 4388SOL    HW214064   3.578   1.566   5.549
 4389SOL     OW14065   6.371   2.515   2.498
 4389SOL    HW114066   6.319   2.545   2.578
 4389SOL    HW214067   6.316   2.528   2.416
 4390SOL     OW14068   4.138   2.968   1.072
 4390SOL    HW114069   4.143   3.065   1.051
 4390SOL    HW214070   4.177   2.915   0.996
 4391SOL     OW14071   0.644   6.228   0.270
 4391SOL    HW114072   0.656   6.212   0.172
 4391SOL    HW214073   0.563   6.180   0.302
 4392SOL     OW14074   5.253   4.753   5.111
 4392SOL    HW114075   5.258   4.852   5.100
 4392SOL    HW214076   5.260   4.709   5.021
 4393SOL     OW14077   4.960   6.473   2.934
 4393SOL    HW114078   4.877   6.424   2.964
 4393SOL    HW214079   4.964   6.562   2.979
 4394SOL     OW14080   4.559   0.541   2.107
 4394SOL    HW114081   4.502   0.459   2.109
 4394SOL    HW214082   4.506   0.619   2.140
 4395SOL     OW14083   4.641   1.907   1.401
 4395SOL    HW114084   4.611   1.818   1.434
 4395SOL    HW214085   4.560   1.963   1.378
 4396SOL     OW14086   1.564   1.402   3.338
 4396SOL    HW114087   1.570   1.435   3.433
 4396SOL    HW214088   1.584   1.304   3.336
 4397SOL     OW14089   5.089   6.947   6.416
 4397SOL    HW114090   5.077   6.984   6.509
 4397SOL    HW214091   5.048   6.856   6.411
 4398SOL     OW14092   0.112   5.149   4.772
 4398SOL    HW114093   0.169   5.175   4.694
 4398SOL    HW214094   0.171   5.127   4.851
 4399SOL     OW14095   3.265   1.235   2.815
 4399SOL    HW114096   3.293   1.151   2.862
 4399SOL    HW214097   3.302   1.235   2.722
 4400SOL     OW14098   4.030   5.440   3.363
 4400SOL    HW114099   4.119   5.413   3.328
 4400SOL    HW214100   3.962   5.436   3.290
 4401SOL     OW14101   5.909   5.652   4.996
 4401SOL    HW114102   5.972   5.679   4.923
 4401SOL    HW214103   5.823   5.702   4.985
 4402SOL     OW14104   6.740   6.312   2.308
 4402SOL    HW114105   6.726   6.245   2.381
 4402SOL    HW214106   6.654   6.326   2.259
 4403SOL     OW14107   6.863   1.257   2.289
 4403SOL    HW114108   6.900   1.338   2.335
 4403SOL    HW214109   6.821   1.197   2.357
 4404SOL     OW14110   2.359   4.761   2.496
 4404SOL    HW114111   2.435   4.710   2.456
 4404SOL    HW214112   2.392   4.848   2.533
 4405SOL     OW14113   2.913   3.644   5.883
 4405SOL    HW114114   2.925   3.663   5.786
 4405SOL    HW214115   2.819   3.666   5.909
 4406SOL     OW14116   5.869   3.289   1.919
 4406SOL    HW114117   5.835   3.238   1.998
 4406SOL    HW214118   5.948   3.242   1.880
 4407SOL     OW14119   0.610   1.239   0.240
 4407SOL    HW114120   0.518   1.251   0.202
 4407SOL    HW214121   0.622   1.144   0.269
 4408SOL     OW14122   4.048   6.488   1.160
 4408SOL    HW114123   4.120   6.517   1.223
 4408SOL    HW214124   4.010   6.401   1.191
 4409SOL     OW14125   2.655   1.991   2.651
 4409SOL    HW114126   2.742   1.945   2.671
 4409SOL    HW214127   2.637   1.984   2.552
 4410SOL     OW14128   1.742   5.696   1.543
 4410SOL    HW114129   1.801   5.725   1.618
 4410SOL    HW214130   1.700   5.608   1.566
 4411SOL     OW14131   4.079   3.151   2.485
 4411SOL    HW114132   4.118   3.177   2.573
 4411SOL    HW214133   4.008   3.082   2.498
 4412SOL     OW14134   3.723   1.654   5.760
 4412SOL    HW114135   3.745   1.746   5.792
 4412SOL    HW214136   3.643   1.658   5.700
 4413SOL     OW14137   4.479   5.345   3.745
 4413SOL    HW114138   4.460   5.261   3.695
 4413SOL    HW214139   4.549   5.328   3.814
 4414SOL     OW14140   3.426   5.093   2.030
 4414SOL    HW114141   3.457   5.051   1.945
 4414SOL    HW214142   3.366   5.030   2.079
 4415SOL     OW14143   4.622   1.492   1.256
 4415SOL    HW114144   4.703   1.507   1.199
 4415SOL    HW214145   4.540   1.515   1.203
 4416SOL     OW14146   2.572   2.054   4.777
 4416SOL    HW114147   2.524   2.141   4.792
 4416SOL    HW214148   2.595   2.014   4.865
 4417SOL     OW14149   6.187   6.561   1.472
 4417SOL    HW114150   6.287   6.557   1.466
 4417SOL    HW214151   6.148   6.572   1.380
 4418SOL     OW14152   5.039   1.177   3.138
 4418SOL    HW114153   4.989   1.090   3.148
 4418SOL    HW214154   4.982   1.242   3.088
 4419SOL     OW14155   6.103   5.553   6.430
 4419SOL    HW114156   6.183   5.518   6.381
 4419SOL    HW214157   6.068   5.481   6.491
 4420SOL     OW14158   4.539   0.704   6.978
 4420SOL    HW114159   4.580   0.794   6.996
 4420SOL    HW214160   4.456   0.693   0.013
 4421SOL     OW14161   0.637   1.353   3.092
 4421SOL    HW114162   0.677   1.303   3.169
 4421SOL    HW214163   0.538   1.342   3.093
 4422SOL     OW14164   1.623   4.320   6.002
 4422SOL    HW114165   1.573   4.241   5.966
 4422SOL    HW214166   1.673   4.365   5.927
 4423SOL     OW14167   0.218   1.535   6.073
 4423SOL    HW114168   0.177   1.498   6.157
 4423SOL    HW214169   0.255   1.460   6.018
 4424SOL     OW14170   1.156   5.695   3.664
 4424SOL    HW114171   1.122   5.601   3.667
 4424SOL    HW214172   1.144   5.737   3.754
 4425SOL     OW14173   5.222   4.457   0.829
 4425SOL    HW114174   5.175   4.500   0.907
 4425SOL    HW214175   5.296   4.399   0.863
 4426SOL     OW14176   0.697   0.287   6.722
 4426SOL    HW114177   0.692   0.221   6.796
 4426SOL    HW214178   0.776   0.267   6.664
 4427SOL     OW14179   1.201   5.948   3.511
 4427SOL    HW114180   1.254   6.007   3.571
 4427SOL    HW214181   1.151   5.881   3.566
 4428SOL     OW14182   2.018   7.000   2.858
 4428SOL    HW114183   2.059   6.973   2.771
 4428SOL    HW214184   2.083   6.983   2.933
 4429SOL     OW14185   3.244   0.803   3.184
 4429SOL    HW114186   3.324   0.859   3.162
 4429SOL    HW214187   3.186   0.794   3.102
 4430SOL     OW14188   1.139   0.979   2.163
 4430SOL    HW114189   1.227   0.961   2.120
 4430SOL    HW214190   1.103   1.067   2.131
 4431SOL     OW14191   2.227   2.092   3.531
 4431SOL    HW114192   2.149   2.149   3.506
 4431SOL    HW214193   2.207   2.043   3.616
 4432SOL     OW14194   3.021   3.786   3.581
 4432SOL    HW114195   3.033   3.837   3.666
 4432SOL    HW214196   3.110   3.756   3.547
 4433SOL     OW14197   6.360   0.526   2.564
 4433SOL    HW114198   6.444   0.564   2.601
 4433SOL    HW214199   6.367   0.426   2.564
 4434SOL     OW14200   5.248   2.374   5.250
 4434SOL    HW114201   5.193   2.356   5.169
 4434SOL    HW214202   5.345   2.374   5.226
 4435SOL     OW14203   3.931   2.992   1.924
 4435SOL    HW114204   3.857   3.036   1.975
 4435SOL    HW214205   4.013   3.049   1.928
 4436SOL     OW14206   5.124   0.136   0.743
 4436SOL    HW114207   5.109   0.083   0.827
 4436SOL    HW214208   5.221   0.156   0.733
 4437SOL     OW14209   3.394   0.396   5.504
 4437SOL    HW114210   3.338   0.436   5.432
 4437SOL    HW214211   3.336   0.356   5.574
 4438SOL     OW14212   3.827   3.332   6.260
 4438SOL    HW114213   3.845   3.252   6.203
 4438SOL    HW214214   3.882   3.409   6.228
 4439SOL     OW14215   2.035   4.430   2.787
 4439SOL    HW114216   1.984   4.513   2.764
 4439SOL    HW214217   2.057   4.430   2.885
 4440SOL     OW14218   6.185   1.635   0.230
 4440SOL    HW114219   6.155   1.632   0.325
 4440SOL    HW214220   6.214   1.728   0.207
 4441SOL     OW14221   6.201   0.490   3.767
 4441SOL    HW114222   6.206   0.587   3.741
 4441SOL    HW214223   6.130   0.445   3.713
 4442SOL     OW14224   1.796   6.078   1.972
 4442SOL    HW114225   1.809   6.176   1.957
 4442SOL    HW214226   1.729   6.064   2.044
 4443SOL     OW14227   2.491   1.631   0.342
 4443SOL    HW114228   2.466   1.565   0.413
 4443SOL    HW214229   2.555   1.588   0.278
 4444SOL     OW14230   4.311   1.135   2.883
 4444SOL    HW114231   4.267   1.102   2.967
 4444SOL    HW214232   4.330   1.057   2.822
 4445SOL     OW14233   0.773   1.041   6.085
 4445SOL    HW114234   0.797   1.007   5.994
 4445SOL    HW214235   0.729   1.131   6.076
 4446SOL     OW14236   5.203   4.449   4.007
 4446SOL    HW114237   5.186   4.441   3.909
 4446SOL    HW214238   5.292   4.493   4.022
 4447SOL     OW14239   4.891   3.046   5.521
 4447SOL    HW114240   4.955   3.107   5.568
 4447SOL    HW214241   4.885   3.072   5.424
 4448SOL     OW14242   2.184   3.267   6.412
 4448SOL    HW114243   2.101   3.319   6.392
 4448SOL    HW214244   2.174   3.220   6.500
 4449SOL     OW14245   0.381   1.062   5.735
 4449SOL    HW114246   0.398   1.014   5.821
 4449SOL    HW214247   0.463   1.114   5.710
 4450SOL     OW14248   3.602   3.457   2.233
 4450SOL    HW114249   3.679   3.401   2.264
 4450SOL    HW214250   3.523   3.440   2.292
 4451SOL     OW14251   0.061   3.974   0.952
 4451SOL    HW114252   6.984   3.992   0.968
 4451SOL    HW214253   0.106   3.948   1.038
 4452SOL     OW14254   6.420   3.053   6.367
 4452SOL    HW114255   6.363   3.045   6.286
 4452SOL    HW214256   6.486   3.127   6.353
 4453SOL     OW14257   5.157   1.034   0.954
 4453SOL    HW114258   5.198   1.115   0.913
 4453SOL    HW214259   5.229   0.974   0.989
 4454SOL     OW14260   4.947   2.961   1.842
 4454SOL    HW114261   4.858   2.958   1.886
 4454SOL    HW214262   4.937   2.940   1.745
 4455SOL     OW14263   4.540   2.523   2.776
 4455SOL    HW114264   4.565   2.564   2.688
 4455SOL    HW214265   4.521   2.426   2.764
 4456SOL     OW14266   0.664   5.513   2.733
 4456SOL    HW114267   0.666   5.413   2.722
 4456SOL    HW214268   0.610   5.554   2.660
 4457SOL     OW14269   4.284   1.879   0.060
 4457SOL    HW114270   4.376   1.839   0.059
 4457SOL    HW214271   4.227   1.832   7.012
 4458SOL     OW14272   4.414   1.600   1.110
 4458SOL    HW114273   4.344   1.529   1.121
 4458SOL    HW214274   4.369   1.689   1.098
 4459SOL     OW14275   5.614   6.394   5.212
 4459SOL    HW114276   5.569   6.322   5.265
 4459SOL    HW214277   5.564   6.480   5.225
 4460SOL     OW14278   1.203   1.337   6.880
 4460SOL    HW114279   1.121   1.285   6.862
 4460SOL    HW214280   1.276   1.308   6.818
 4461SOL     OW14281   2.103   0.006   2.356
 4461SOL    HW114282   2.005   7.018   2.375
 4461SOL    HW214283   2.134   0.099   2.376
 4462SOL     OW14284   6.717   4.357   0.451
 4462SOL    HW114285   6.708   4.288   0.379
 4462SOL    HW214286   6.715   4.448   0.411
 4463SOL     OW14287   1.125   4.555   6.491
 4463SOL    HW114288   1.134   4.580   6.588
 4463SOL    HW214289   1.076   4.628   6.443
 4464SOL     OW14290   6.550   2.809   0.062
 4464SOL    HW114291   6.561   2.902   0.028
 4464SOL    HW214292   6.587   2.745   7.015
 4465SOL     OW14293   0.359   5.639   0.412
 4465SOL    HW114294   0.449   5.647   0.371
 4465SOL    HW214295   0.346   5.546   0.446
 4466SOL     OW14296   6.859   2.905   3.108
 4466SOL    HW114297   6.919   2.834   3.073
 4466SOL    HW214298   6.781   2.863   3.154
 4467SOL     OW14299   1.146   0.413   3.178
 4467SOL    HW114300   1.096   0.330   3.155
 4467SOL    HW214301   1.237   0.390   3.211
 4468SOL     OW14302   1.725   2.009   0.871
 4468SOL    HW114303   1.661   2.029   0.797
 4468SOL    HW214304   1.785   2.087   0.885
 4469SOL     OW14305   4.489   6.865   0.509
 4469SOL    HW114306   4.448   6.919   0.435
 4469SOL    HW214307   4.490   6.919   0.593
 4470SOL     OW14308   4.949   4.997   1.175
 4470SOL    HW114309   4.961   4.925   1.244
 4470SOL    HW214310   4.856   5.033   1.181
 4471SOL     OW14311   6.335   2.650   0.992
 4471SOL    HW114312   6.244   2.683   0.967
 4471SOL    HW214313   6.398   2.667   0.916
 4472SOL     OW14314   2.135   4.805   1.393
 4472SOL    HW114315   2.119   4.712   1.427
 4472SOL    HW214316   2.053   4.836   1.345
 4473SOL     OW14317   6.910   0.727   6.594
 4473SOL    HW114318   6.959   0.814   6.591
 4473SOL    HW214319   6.912   0.684   6.504
 4474SOL     OW14320   6.386   0.728   4.501
 4474SOL    HW114321   6.426   0.812   4.465
 4474SOL    HW214322   6.409   0.651   4.440
 4475SOL     OW14323   1.713   3.810   0.536
 4475SOL    HW114324   1.643   3.746   0.566
 4475SOL    HW214325   1.735   3.873   0.610
 4476SOL     OW14326   5.023   6.363   2.671
 4476SOL    HW114327   4.947   6.392   2.612
 4476SOL    HW214328   5.010   6.402   2.763
 4477SOL     OW14329   1.506   2.048   0.707
 4477SOL    HW114330   1.490   2.133   0.657
 4477SOL    HW214331   1.427   2.027   0.765
 4478SOL     OW14332   1.369   4.862   2.005
 4478SOL    HW114333   1.456   4.884   2.047
 4478SOL    HW214334   1.305   4.830   2.075
 4479SOL     OW14335   1.340   0.005   6.135
 4479SOL    HW114336   1.243   0.030   6.133
 4479SOL    HW214337   1.372   0.002   6.229
 4480SOL     OW14338   6.622   4.303   3.597
 4480SOL    HW114339   6.608   4.394   3.558
 4480SOL    HW214340   6.720   4.284   3.603
 4481SOL     OW14341   0.385   0.882   4.008
 4481SOL    HW114342   0.289   0.878   4.035
 4481SOL    HW214343   0.443   0.860   4.087
 4482SOL     OW14344   1.497   4.214   3.169
 4482SOL    HW114345   1.552   4.132   3.184
 4482SOL    HW214346   1.537   4.290   3.221
 4483SOL     OW14347   6.078   3.303   1.183
 4483SOL    HW114348   6.156   3.255   1.143
 4483SOL    HW214349   5.997   3.245   1.179
 4484SOL     OW14350   3.383   3.519   6.265
 4484SOL    HW114351   3.433   3.477   6.189
 4484SOL    HW214352   3.438   3.592   6.305
 4485SOL     OW14353   4.653   0.133   6.759
 4485SOL    HW114354   4.640   0.057   6.695
 4485SOL    HW214355   4.657   0.218   6.707
 4486SOL     OW14356   6.077   3.404   3.875
 4486SOL    HW114357   6.099   3.395   3.972
 4486SOL    HW214358   6.111   3.324   3.825
 4487SOL     OW14359   2.941   2.881   5.709
 4487SOL    HW114360   2.896   2.940   5.643
 4487SOL    HW214361   3.035   2.863   5.679
 4488SOL     OW14362   6.873   1.878   6.603
 4488SOL    HW114363   6.883   1.892   6.504
 4488SOL    HW214364   6.800   1.811   6.620
 4489SOL     OW14365   0.954   1.369   2.497
 4489SOL    HW114366   0.978   1.277   2.467
 4489SOL    HW214367   1.004   1.436   2.442
 4490SOL     OW14368   6.524   2.222   3.971
 4490SOL    HW114369   6.570   2.274   3.899
 4490SOL    HW214370   6.427   2.248   3.974
 4491SOL     OW14371   2.134   4.011   2.560
 4491SOL    HW114372   2.112   4.106   2.539
 4491SOL    HW214373   2.136   3.958   2.475
 4492SOL     OW14374   4.776   4.631   6.598
 4492SOL    HW114375   4.807   4.625   6.693
 4492SOL    HW214376   4.853   4.657   6.539
 4493SOL     OW14377   6.002   4.852   3.830
 4493SOL    HW114378   5.990   4.949   3.851
 4493SOL    HW214379   5.952   4.797   3.897
 4494SOL     OW14380   5.194   2.647   2.924
 4494SOL    HW114381   5.265   2.715   2.906
 4494SOL    HW214382   5.210   2.566   2.868
 4495SOL     OW14383   4.863   6.099   2.147
 4495SOL    HW114384   4.825   6.170   2.087
 4495SOL    HW214385   4.820   6.011   2.125
 4496SOL     OW14386   6.051   3.670   5.991
 4496SOL    HW114387   6.050   3.649   5.893
 4496SOL    HW214388   6.135   3.634   6.032
 4497SOL     OW14389   6.580   6.014   0.746
 4497SOL    HW114390   6.523   6.028   0.827
 4497SOL    HW214391   6.654   5.950   0.768
 4498SOL     OW14392   0.969   3.901   6.897
 4498SOL    HW114393   0.997   3.860   6.810
 4498SOL    HW214394   0.876   3.874   6.919
 4499SOL     OW14395   5.056   3.538   6.991
 4499SOL    HW114396   5.113   3.460   6.965
 4499SOL    HW214397   4.976   3.505   0.023
 4500SOL     OW14398   4.030   3.873   2.820
 4500SOL    HW114399   3.976   3.883   2.904
 4500SOL    HW214400   4.049   3.776   2.805
 4501SOL     OW14401   1.491   4.983   4.655
 4501SOL    HW114402   1.537   4.942   4.733
 4501SOL    HW214403   1.431   4.916   4.611
 4502SOL     OW14404   5.666   2.793   6.913
 4502SOL    HW114405   5.574   2.756   6.920
 4502SOL    HW214406   5.730   2.732   6.959
 4503SOL     OW14407   1.602   3.749   2.698
 4503SOL    HW114408   1.660   3.804   2.758
 4503SOL    HW214409   1.525   3.712   2.751
 4504SOL     OW14410   4.726   2.553   4.126
 4504SOL    HW114411   4.812   2.503   4.143
 4504SOL    HW214412   4.651   2.504   4.169
 4505SOL     OW14413   1.932   5.063   6.922
 4505SOL    HW114414   2.024   5.101   6.920
 4505SOL    HW214415   1.933   4.970   6.885
 4506SOL     OW14416   3.775   6.834   5.181
 4506SOL    HW114417   3.699   6.788   5.135
 4506SOL    HW214418   3.800   6.916   5.128
 4507SOL     OW14419   6.187   3.240   2.097
 4507SOL    HW114420   6.278   3.279   2.078
 4507SOL    HW214421   6.136   3.232   2.011
 4508SOL     OW14422   2.030   3.764   0.217
 4508SOL    HW114423   2.075   3.749   0.129
 4508SOL    HW214424   2.020   3.677   0.265
 4509SOL     OW14425   0.074   1.851   3.510
 4509SOL    HW114426   0.118   1.940   3.519
 4509SOL    HW214427   0.048   1.835   3.415
 4510SOL     OW14428   2.996   6.291   6.062
 4510SOL    HW114429   2.909   6.337   6.080
 4510SOL    HW214430   3.041   6.270   6.149
 4511SOL     OW14431   6.750   2.013   0.049
 4511SOL    HW114432   6.697   2.093   0.077
 4511SOL    HW214433   6.708   1.971   6.989
 4512SOL     OW14434   2.376   4.187   6.752
 4512SOL    HW114435   2.441   4.263   6.750
 4512SOL    HW214436   2.426   4.101   6.761
 4513SOL     OW14437   6.032   1.306   2.412
 4513SOL    HW114438   6.127   1.288   2.435
 4513SOL    HW214439   6.012   1.274   2.319
 4514SOL     OW14440   3.247   0.626   5.794
 4514SOL    HW114441   3.287   0.627   5.886
 4514SOL    HW214442   3.174   0.695   5.789
 4515SOL     OW14443   6.452   4.803   0.315
 4515SOL    HW114444   6.543   4.777   0.344
 4515SOL    HW214445   6.386   4.781   0.387
 4516SOL     OW14446   0.733   0.127   3.835
 4516SOL    HW114447   0.796   0.164   3.904
 4516SOL    HW214448   0.784   0.101   3.754
 4517SOL     OW14449   3.843   0.539   6.810
 4517SOL    HW114450   3.934   0.577   6.795
 4517SOL    HW214451   3.788   0.605   6.861
 4518SOL     OW14452   1.660   0.429   3.501
 4518SOL    HW114453   1.593   0.362   3.468
 4518SOL    HW214454   1.736   0.435   3.436
 4519SOL     OW14455   6.285   2.537   5.372
 4519SOL    HW114456   6.352   2.482   5.322
 4519SOL    HW214457   6.197   2.491   5.372
 4520SOL     OW14458   0.182   3.925   2.732
 4520SOL    HW114459   0.256   3.930   2.800
 4520SOL    HW214460   0.221   3.905   2.642
 4521SOL     OW14461   4.929   1.778   6.394
 4521SOL    HW114462   4.874   1.819   6.466
 4521SOL    HW214463   5.007   1.838   6.373
 4522SOL     OW14464   5.704   0.069   3.289
 4522SOL    HW114465   5.658   7.010   3.249
 4522SOL    HW214466   5.640   0.119   3.348
 4523SOL     OW14467   4.581   2.525   6.376
 4523SOL    HW114468   4.551   2.498   6.468
 4523SOL    HW214469   4.638   2.606   6.382
 4524SOL     OW14470   5.983   0.687   4.762
 4524SOL    HW114471   5.973   0.629   4.682
 4524SOL    HW214472   6.048   0.760   4.743
 4525SOL     OW14473   6.462   1.859   5.088
 4525SOL    HW114474   6.473   1.761   5.107
 4525SOL    HW214475   6.369   1.888   5.110
 4526SOL     OW14476   3.192   1.171   1.761
 4526SOL    HW114477   3.245   1.087   1.762
 4526SOL    HW214478   3.247   1.246   1.800
 4527SOL     OW14479   4.324   6.362   3.679
 4527SOL    HW114480   4.371   6.412   3.752
 4527SOL    HW214481   4.232   6.399   3.667
 4528SOL     OW14482   4.988   6.986   5.654
 4528SOL    HW114483   5.039   0.045   5.621
 4528SOL    HW214484   4.911   7.017   5.710
 4529SOL     OW14485   3.818   0.214   3.685
 4529SOL    HW114486   3.888   0.269   3.730
 4529SOL    HW214487   3.856   0.172   3.603
 4530SOL     OW14488   0.476   3.060   5.014
 4530SOL    HW114489   0.485   2.966   5.048
 4530SOL    HW214490   0.552   3.080   4.952
 4531SOL     OW14491   0.527   3.908   3.468
 4531SOL    HW114492   0.530   3.992   3.414
 4531SOL    HW214493   0.484   3.927   3.556
 4532SOL     OW14494   0.038   2.166   0.345
 4532SOL    HW114495   7.016   2.088   0.299
 4532SOL    HW214496   0.117   2.198   0.293
 4533SOL     OW14497   3.044   5.904   2.046
 4533SOL    HW114498   3.007   5.968   1.979
 4533SOL    HW214499   3.132   5.870   2.013
 4534SOL     OW14500   0.146   4.410   5.849
 4534SOL    HW114501   0.173   4.494   5.895
 4534SOL    HW214502   0.097   4.433   5.764
 4535SOL     OW14503   4.898   2.599   3.182
 4535SOL    HW114504   4.891   2.530   3.109
 4535SOL    HW214505   4.966   2.668   3.155
 4536SOL     OW14506   6.706   0.380   4.361
 4536SOL    HW114507   6.719   0.443   4.284
 4536SOL    HW214508   6.776   0.398   4.430
 4537SOL     OW14509   5.066   3.577   6.607
 4537SOL    HW114510   5.020   3.632   6.538
 4537SOL    HW214511   5.121   3.506   6.562
 4538SOL     OW14512   3.478   2.053   1.557
 4538SOL    HW114513   3.566   2.090   1.587
 4538SOL    HW214514   3.412   2.061   1.631
 4539SOL     OW14515   2.502   2.485   2.513
 4539SOL    HW114516   2.490   2.439   2.600
 4539SOL    HW214517   2.589   2.534   2.512
 4540SOL     OW14518   3.222   3.361   5.152
 4540SOL    HW114519   3.285   3.361   5.075
 4540SOL    HW214520   3.138   3.314   5.127
 4541SOL     OW14521   5.679   0.809   1.655
 4541SOL    HW114522   5.731   0.885   1.694
 4541SOL    HW214523   5.635   0.839   1.570
 4542SOL     OW14524   5.268   6.704   3.181
 4542SOL    HW114525   5.279   6.608   3.208
 4542SOL    HW214526   5.197   6.711   3.111
 4543SOL     OW14527   5.667   1.763   2.130
 4543SOL    HW114528   5.674   1.861   2.144
 4543SOL    HW214529   5.586   1.728   2.176
 4544SOL     OW14530   4.593   5.414   6.540
 4544SOL    HW114531   4.601   5.500   6.591
 4544SOL    HW214532   4.680   5.365   6.542
 4545SOL     OW14533   4.032   3.964   5.898
 4545SOL    HW114534   4.050   3.992   5.804
 4545SOL    HW214535   4.003   3.869   5.901
 4546SOL     OW14536   0.388   6.083   0.591
 4546SOL    HW114537   0.369   6.097   0.494
 4546SOL    HW214538   0.314   6.121   0.646
 4547SOL     OW14539   4.383   1.594   2.111
 4547SOL    HW114540   4.393   1.649   2.193
 4547SOL    HW214541   4.384   1.497   2.136
 4548SOL     OW14542   1.088   3.706   4.004
 4548SOL    HW114543   1.177   3.703   4.049
 4548SOL    HW214544   1.096   3.757   3.918
 4549SOL     OW14545   4.945   1.650   2.546
 4549SOL    HW114546   5.043   1.639   2.525
 4549SOL    HW214547   4.897   1.565   2.524
 4550SOL     OW14548   1.650   5.643   4.716
 4550SOL    HW114549   1.712   5.620   4.792
 4550SOL    HW214550   1.634   5.741   4.716
 4551SOL     OW14551   6.427   3.071   7.003
 4551SOL    HW114552   6.346   3.128   6.988
 4551SOL    HW214553   6.487   3.117   0.048
 4552SOL     OW14554   6.980   3.285   4.628
 4552SOL    HW114555   0.001   3.297   4.718
 4552SOL    HW214556   0.025   3.239   4.567
 4553SOL     OW14557   5.087   5.033   0.246
 4553SOL    HW114558   5.144   4.958   0.212
 4553SOL    HW214559   5.093   5.036   0.346
 4554SOL     OW14560   6.019   6.777   3.726
 4554SOL    HW114561   5.955   6.725   3.783
 4554SOL    HW214562   5.969   6.819   3.650
 4555SOL     OW14563   4.209   3.295   6.386
 4555SOL    HW114564   4.124   3.276   6.435
 4555SOL    HW214565   4.256   3.372   6.429
 4556SOL     OW14566   4.880   0.450   5.097
 4556SOL    HW114567   4.974   0.421   5.113
 4556SOL    HW214568   4.879   0.535   5.045
 4557SOL     OW14569   4.908   0.517   4.734
 4557SOL    HW114570   4.950   0.597   4.776
 4557SOL    HW214571   4.834   0.483   4.792
 4558SOL     OW14572   6.080   2.704   5.707
 4558SOL    HW114573   5.988   2.735   5.736
 4558SOL    HW214574   6.104   2.749   5.622
 4559SOL     OW14575   1.173   6.133   1.240
 4559SOL    HW114576   1.266   6.113   1.269
 4559SOL    HW214577   1.132   6.052   1.198
 4560SOL     OW14578   5.701   2.296   2.575
 4560SOL    HW114579   5.708   2.395   2.588
 4560SOL    HW214580   5.607   2.273   2.551
 4561SOL     OW14581   3.254   0.329   6.613
 4561SOL    HW114582   3.219   0.310   6.705
 4561SOL    HW214583   3.348   0.362   6.620
 4562SOL     OW14584   2.341   4.368   5.895
 4562SOL    HW114585   2.389   4.379   5.808
 4562SOL    HW214586   2.302   4.276   5.900
 4563SOL     OW14587   5.593   2.363   6.342
 4563SOL    HW114588   5.684   2.363   6.382
 4563SOL    HW214589   5.560   2.457   6.333
 4564SOL     OW14590   0.912   5.276   6.727
 4564SOL    HW114591   0.879   5.271   6.821
 4564SOL    HW214592   0.834   5.290   6.665
 4565SOL     OW14593   2.592   1.118   3.982
 4565SOL    HW114594   2.653   1.092   4.057
 4565SOL    HW214595   2.511   1.164   4.020
 4566SOL     OW14596   1.377   0.923   0.561
 4566SOL    HW114597   1.398   0.910   0.464
 4566SOL    HW214598   1.302   0.988   0.570
 4567SOL     OW14599   5.799   1.298   0.889
 4567SOL    HW114600   5.845   1.243   0.958
 4567SOL    HW214601   5.700   1.289   0.899
 4568SOL     OW14602   4.093   4.785   3.951
 4568SOL    HW114603   4.162   4.782   4.023
 4568SOL    HW214604   4.007   4.819   3.988
 4569SOL     OW14605   0.320   2.155   3.273
 4569SOL    HW114606   0.403   2.205   3.297
 4569SOL    HW214607   0.246   2.219   3.253
 4570SOL     OW14608   5.436   5.887   4.557
 4570SOL    HW114609   5.513   5.842   4.512
 4570SOL    HW214610   5.365   5.908   4.489
 4571SOL     OW14611   3.337   2.884   4.411
 4571SOL    HW114612   3.292   2.834   4.337
 4571SOL    HW214613   3.269   2.937   4.462
 4572SOL     OW14614   1.867   5.098   1.759
 4572SOL    HW114615   1.767   5.103   1.760
 4572SOL    HW214616   1.896   5.009   1.794
 4573SOL     OW14617   4.819   0.492   0.918
 4573SOL    HW114618   4.722   0.510   0.900
 4573SOL    HW214619   4.831   0.470   1.015
 4574SOL     OW14620   0.055   4.428   1.538
 4574SOL    HW114621   6.990   4.476   1.560
 4574SOL    HW214622   0.125   4.449   1.607
 4575SOL     OW14623   6.611   6.119   2.008
 4575SOL    HW114624   6.544   6.181   2.049
 4575SOL    HW214625   6.674   6.171   1.950
 4576SOL     OW14626   3.976   6.340   4.096
 4576SOL    HW114627   3.982   6.242   4.075
 4576SOL    HW214628   3.883   6.361   4.127
 4577SOL     OW14629   1.345   3.189   4.083
 4577SOL    HW114630   1.403   3.207   4.004
 4577SOL    HW214631   1.300   3.274   4.111
 4578SOL     OW14632   0.383   5.486   3.939
 4578SOL    HW114633   0.345   5.562   3.993
 4578SOL    HW214634   0.382   5.403   3.994
 4579SOL     OW14635   5.536   1.815   4.879
 4579SOL    HW114636   5.551   1.755   4.958
 4579SOL    HW214637   5.458   1.783   4.827
 4580SOL     OW14638   0.387   5.529   0.127
 4580SOL    HW114639   0.319   5.458   0.141
 4580SOL    HW214640   0.351   5.617   0.160
 4581SOL     OW14641   3.524   6.271   4.192
 4581SOL    HW114642   3.547   6.240   4.100
 4581SOL    HW214643   3.484   6.195   4.244
 4582SOL     OW14644   4.802   6.473   3.275
 4582SOL    HW114645   4.856   6.556   3.264
 4582SOL    HW214646   4.705   6.493   3.257
 4583SOL     OW14647   3.790   1.192   5.469
 4583SOL    HW114648   3.852   1.271   5.475
 4583SOL    HW214649   3.699   1.223   5.440
 4584SOL     OW14650   1.176   4.884   5.700
 4584SOL    HW114651   1.114   4.895   5.622
 4584SOL    HW214652   1.138   4.818   5.765
 4585SOL     OW14653   3.310   6.358   2.050
 4585SOL    HW114654   3.371   6.316   2.117
 4585SOL    HW214655   3.220   6.315   2.056
 4586SOL     OW14656   2.620   6.166   1.818
 4586SOL    HW114657   2.576   6.229   1.755
 4586SOL    HW214658   2.590   6.186   1.912
 4587SOL     OW14659   3.323   4.859   0.575
 4587SOL    HW114660   3.257   4.901   0.637
 4587SOL    HW214661   3.414   4.894   0.596
 4588SOL     OW14662   3.502   4.155   5.263
 4588SOL    HW114663   3.440   4.164   5.185
 4588SOL    HW214664   3.535   4.061   5.270
 4589SOL     OW14665   0.661   1.934   3.059
 4589SOL    HW114666   0.732   1.874   3.095
 4589SOL    HW214667   0.604   1.884   2.994
 4590SOL     OW14668   4.090   6.275   3.134
 4590SOL    HW114669   4.033   6.280   3.216
 4590SOL    HW214670   4.058   6.342   3.067
 4591SOL     OW14671   6.077   6.650   4.973
 4591SOL    HW114672   6.006   6.718   4.992
 4591SOL    HW214673   6.075   6.579   5.044
 4592SOL     OW14674   3.112   1.448   6.342
 4592SOL    HW114675   3.168   1.451   6.259
 4592SOL    HW214676   3.104   1.354   6.375
 4593SOL     OW14677   4.933   6.669   1.683
 4593SOL    HW114678   4.939   6.590   1.743
 4593SOL    HW214679   5.023   6.690   1.646
 4594SOL     OW14680   3.781   1.781   2.381
 4594SOL    HW114681   3.855   1.718   2.357
 4594SOL    HW214682   3.703   1.767   2.320
 4595SOL     OW14683   4.863   3.569   5.907
 4595SOL    HW114684   4.921   3.650   5.895
 4595SOL    HW214685   4.811   3.553   5.823
 4596SOL     OW14686   5.233   0.302   2.448
 4596SOL    HW114687   5.317   0.265   2.488
 4596SOL    HW214688   5.155   0.250   2.482
 4597SOL     OW14689   6.669   4.258   5.771
 4597SOL    HW114690   6.737   4.212   5.828
 4597SOL    HW214691   6.664   4.355   5.797
 4598SOL     OW14692   3.318   3.870   0.372
 4598SOL    HW114693   3.390   3.850   0.307
 4598SOL    HW214694   3.352   3.854   0.465
 4599SOL     OW14695   2.475   5.403   0.423
 4599SOL    HW114696   2.557   5.434   0.373
 4599SOL    HW214697   2.497   5.321   0.475
 4600SOL     OW14698   3.666   4.446   1.413
 4600SOL    HW114699   3.597   4.500   1.365
 4600SOL    HW214700   3.650   4.451   1.511
 4601SOL     OW14701   1.570   5.631   4.135
 4601SOL    HW114702   1.552   5.727   4.156
 4601SOL    HW214703   1.653   5.623   4.080
 4602SOL     OW14704   1.605   0.935   0.885
 4602SOL    HW114705   1.534   0.977   0.940
 4602SOL    HW214706   1.563   0.878   0.814
 4603SOL     OW14707   2.994   1.541   1.998
 4603SOL    HW114708   3.008   1.549   1.899
 4603SOL    HW214709   2.980   1.445   2.022
 4604SOL     OW14710   1.649   0.854   2.222
 4604SOL    HW114711   1.722   0.836   2.288
 4604SOL    HW214712   1.586   0.776   2.220
 4605SOL     OW14713   5.321   6.063   5.740
 4605SOL    HW114714   5.412   6.105   5.742
 4605SOL    HW214715   5.251   6.135   5.737
 4606SOL     OW14716   6.829   5.590   4.737
 4606SOL    HW114717   6.867   5.667   4.686
 4606SOL    HW214718   6.884   5.508   4.720
 4607SOL     OW14719   2.620   2.606   1.234
 4607SOL    HW114720   2.628   2.588   1.332
 4607SOL    HW214721   2.614   2.704   1.219
 4608SOL     OW14722   1.427   3.481   4.952
 4608SOL    HW114723   1.501   3.481   5.019
 4608SOL    HW214724   1.420   3.390   4.911
 4609SOL     OW14725   3.142   6.913   0.408
 4609SOL    HW114726   3.060   6.964   0.383
 4609SOL    HW214727   3.219   6.977   0.418
 4610SOL     OW14728   0.226   3.222   6.606
 4610SOL    HW114729   0.278   3.136   6.603
 4610SOL    HW214730   0.195   3.239   6.699
 4611SOL     OW14731   1.430   4.238   6.551
 4611SOL    HW114732   1.478   4.198   6.473
 4611SOL    HW214733   1.332   4.244   6.531
 4612SOL     OW14734   2.430   0.052   6.314
 4612SOL    HW114735   2.511   0.093   6.359
 4612SOL    HW214736   2.421   6.977   6.343
 4613SOL     OW14737   3.259   4.929   1.692
 4613SOL    HW114738   3.222   4.967   1.777
 4613SOL    HW214739   3.261   4.829   1.699
 4614SOL     OW14740   2.465   5.011   7.011
 4614SOL    HW114741   2.476   4.912   7.008
 4614SOL    HW214742   2.476   5.042   0.086
 4615SOL     OW14743   6.637   3.206   0.109
 4615SOL    HW114744   6.700   3.158   0.049
 4615SOL    HW214745   6.649   3.305   0.098
 4616SOL     OW14746   5.957   0.622   0.522
 4616SOL    HW114747   5.959   0.696   0.454
 4616SOL    HW214748   5.998   0.540   0.482
 4617SOL     OW14749   7.015   3.889   1.984
 4617SOL    HW114750   6.984   3.937   1.902
 4617SOL    HW214751   7.002   3.790   1.972
 4618SOL     OW14752   0.611   2.781   6.492
 4618SOL    HW114753   0.631   2.860   6.433
 4618SOL    HW214754   0.516   2.753   6.479
 4619SOL     OW14755   3.676   0.562   3.862
 4619SOL    HW114756   3.611   0.487   3.856
 4619SOL    HW214757   3.732   0.551   3.945
 4620SOL     OW14758   2.170   5.741   6.428
 4620SOL    HW114759   2.227   5.789   6.495
 4620SOL    HW214760   2.224   5.723   6.346
 4621SOL     OW14761   0.626   0.665   6.179
 4621SOL    HW114762   0.592   0.580   6.219
 4621SOL    HW214763   0.722   0.677   6.204
 4622SOL     OW14764   2.148   3.604   0.735
 4622SOL    HW114765   2.060   3.623   0.691
 4622SOL    HW214766   2.221   3.651   0.685
 4623SOL     OW14767   5.482   4.189   2.779
 4623SOL    HW114768   5.412   4.257   2.758
 4623SOL    HW214769   5.462   4.146   2.867
 4624SOL     OW14770   4.717   6.827   5.552
 4624SOL    HW114771   4.758   6.737   5.536
 4624SOL    HW214772   4.785   6.898   5.537
 4625SOL     OW14773   1.292   3.899   6.298
 4625SOL    HW114774   1.334   3.818   6.338
 4625SOL    HW214775   1.358   3.975   6.300
 4626SOL     OW14776   5.608   5.467   2.133
 4626SOL    HW114777   5.534   5.412   2.095
 4626SOL    HW214778   5.599   5.471   2.233
 4627SOL     OW14779   1.419   6.966   5.401
 4627SOL    HW114780   1.404   0.032   5.351
 4627SOL    HW214781   1.371   6.970   5.489
 4628SOL     OW14782   6.324   2.873   2.459
 4628SOL    HW114783   6.343   2.809   2.384
 4628SOL    HW214784   6.235   2.851   2.500
 4629SOL     OW14785   4.651   4.794   4.300
 4629SOL    HW114786   4.701   4.808   4.214
 4629SOL    HW214787   4.666   4.700   4.332
 4630SOL     OW14788   1.893   6.675   2.212
 4630SOL    HW114789   1.850   6.601   2.264
 4630SOL    HW214790   1.832   6.704   2.138
 4631SOL     OW14791   1.956   0.284   2.998
 4631SOL    HW114792   2.014   0.237   3.064
 4631SOL    HW214793   1.979   0.381   2.998
 4632SOL     OW14794   6.067   5.659   4.150
 4632SOL    HW114795   5.968   5.645   4.149
 4632SOL    HW214796   6.114   5.571   4.141
 4633SOL     OW14797   5.214   2.526   5.768
 4633SOL    HW114798   5.267   2.531   5.683
 4633SOL    HW214799   5.177   2.433   5.779
 4634SOL     OW14800   3.009   4.553   0.663
 4634SOL    HW114801   3.101   4.559   0.626
 4634SOL    HW214802   2.972   4.461   0.646
 4635SOL     OW14803   5.523   3.055   1.828
 4635SOL    HW114804   5.445   2.995   1.847
 4635SOL    HW214805   5.605   2.999   1.818
 4636SOL     OW14806   0.779   5.861   1.527
 4636SOL    HW114807   0.780   5.781   1.587
 4636SOL    HW214808   0.827   5.839   1.442
 4637SOL     OW14809   1.557   0.944   4.321
 4637SOL    HW114810   1.612   0.990   4.390
 4637SOL    HW214811   1.491   1.009   4.282
 4638SOL     OW14812   4.320   4.740   5.697
 4638SOL    HW114813   4.393   4.736   5.766
 4638SOL    HW214814   4.247   4.677   5.722
 4639SOL     OW14815   0.244   2.309   4.803
 4639SOL    HW114816   0.314   2.381   4.812
 4639SOL    HW214817   0.243   2.276   4.708
 4640SOL     OW14818   6.163   4.696   3.050
 4640SOL    HW114819   6.253   4.695   3.007
 4640SOL    HW214820   6.118   4.607   3.037
 4641SOL     OW14821   3.194   3.403   5.581
 4641SOL    HW114822   3.139   3.468   5.529
 4641SOL    HW214823   3.238   3.338   5.518
 4642SOL     OW14824   6.606   6.095   3.861
 4642SOL    HW114825   6.644   6.129   3.775
 4642SOL    HW214826   6.619   6.163   3.933
 4643SOL     OW14827   3.992   3.107   0.600
 4643SOL    HW114828   4.033   3.197   0.616
 4643SOL    HW214829   4.048   3.037   0.645
 4644SOL     OW14830   3.647   4.620   5.379
 4644SOL    HW114831   3.553   4.629   5.348
 4644SOL    HW214832   3.677   4.525   5.365
 4645SOL     OW14833   1.913   6.150   5.065
 4645SOL    HW114834   1.956   6.190   4.985
 4645SOL    HW214835   1.964   6.176   5.147
 4646SOL     OW14836   3.901   0.577   1.344
 4646SOL    HW114837   3.964   0.639   1.391
 4646SOL    HW214838   3.850   0.627   1.274
 4647SOL     OW14839   6.916   0.483   4.973
 4647SOL    HW114840   6.910   0.583   4.975
 4647SOL    HW214841   6.928   0.448   5.065
 4648SOL     OW14842   1.744   5.435   2.920
 4648SOL    HW114843   1.765   5.347   2.876
 4648SOL    HW214844   1.691   5.419   3.003
 4649SOL     OW14845   5.718   6.615   5.735
 4649SOL    HW114846   5.635   6.650   5.778
 4649SOL    HW214847   5.735   6.663   5.649
 4650SOL     OW14848   6.513   4.569   1.514
 4650SOL    HW114849   6.573   4.648   1.524
 4650SOL    HW214850   6.515   4.514   1.597
 4651SOL     OW14851   6.239   2.692   2.251
 4651SOL    HW114852   6.214   2.604   2.212
 4651SOL    HW214853   6.282   2.749   2.181
 4652SOL     OW14854   0.130   5.789   5.181
 4652SOL    HW114855   0.104   5.693   5.193
 4652SOL    HW214856   0.167   5.802   5.089
 4653SOL     OW14857   0.657   5.357   6.555
 4653SOL    HW114858   0.597   5.406   6.618
 4653SOL    HW214859   0.607   5.281   6.513
 4654SOL     OW14860   1.171   1.634   6.556
 4654SOL    HW114861   1.119   1.564   6.605
 4654SOL    HW214862   1.225   1.687   6.621
 4655SOL     OW14863   0.151   5.437   3.481
 4655SOL    HW114864   0.174   5.424   3.577
 4655SOL    HW214865   0.228   5.411   3.424
 4656SOL     OW14866   2.530   6.712   2.798
 4656SOL    HW114867   2.437   6.724   2.833
 4656SOL    HW214868   2.577   6.800   2.796
 4657SOL     OW14869   6.280   0.624   5.991
 4657SOL    HW114870   6.206   0.691   5.996
 4657SOL    HW214871   6.248   0.537   6.030
 4658SOL     OW14872   5.200   0.885   3.939
 4658SOL    HW114873   5.130   0.825   3.901
 4658SOL    HW214874   5.212   0.964   3.880
 4659SOL     OW14875   2.023   2.892   4.557
 4659SOL    HW114876   2.091   2.955   4.595
 4659SOL    HW214877   2.070   2.815   4.514
 4660SOL     OW14878   6.697   1.675   5.294
 4660SOL    HW114879   6.761   1.734   5.246
 4660SOL    HW214880   6.734   1.652   5.384
 4661SOL     OW14881   3.886   3.020   3.129
 4661SOL    HW114882   3.809   2.996   3.069
 4661SOL    HW214883   3.853   3.035   3.222
 4662SOL     OW14884   5.710   0.052   3.668
 4662SOL    HW114885   5.806   0.065   3.694
 4662SOL    HW214886   5.697   6.978   3.636
 4663SOL     OW14887   0.965   2.548   1.874
 4663SOL    HW114888   0.983   2.517   1.967
 4663SOL    HW214889   1.040   2.608   1.844
 4664SOL     OW14890   3.554   3.884   0.211
 4664SOL    HW114891   3.579   3.927   0.298
 4664SOL    HW214892   3.615   3.807   0.194
 4665SOL     OW14893   5.477   0.227   6.760
 4665SOL    HW114894   5.440   0.317   6.739
 4665SOL    HW214895   5.477   0.170   6.678
 4666SOL     OW14896   2.039   2.165   0.405
 4666SOL    HW114897   2.084   2.142   0.492
 4666SOL    HW214898   1.956   2.110   0.395
 4667SOL     OW14899   0.811   5.320   4.523
 4667SOL    HW114900   0.729   5.274   4.556
 4667SOL    HW214901   0.829   5.293   4.428
 4668SOL     OW14902   4.938   0.902   5.592
 4668SOL    HW114903   4.926   0.865   5.500
 4668SOL    HW214904   4.866   0.970   5.610
 4669SOL     OW14905   2.541   1.239   1.785
 4669SOL    HW114906   2.604   1.246   1.862
 4669SOL    HW214907   2.587   1.195   1.707
 4670SOL     OW14908   2.610   1.606   4.608
 4670SOL    HW114909   2.592   1.576   4.514
 4670SOL    HW214910   2.614   1.705   4.611
 4671SOL     OW14911   5.655   2.252   1.810
 4671SOL    HW114912   5.588   2.183   1.782
 4671SOL    HW214913   5.660   2.256   1.910
 4672SOL     OW14914   2.954   2.728   5.355
 4672SOL    HW114915   2.991   2.658   5.293
 4672SOL    HW214916   3.016   2.742   5.431
 4673SOL     OW14917   4.722   0.648   2.345
 4673SOL    HW114918   4.817   0.649   2.377
 4673SOL    HW214919   4.662   0.624   2.421
 4674SOL     OW14920   5.023   6.512   5.020
 4674SOL    HW114921   4.977   6.566   5.091
 4674SOL    HW214922   5.043   6.421   5.056
 4675SOL     OW14923   0.918   4.339   6.270
 4675SOL    HW114924   0.993   4.392   6.309
 4675SOL    HW214925   0.886   4.385   6.187
 4676SOL     OW14926   0.648   4.946   4.052
 4676SOL    HW114927   0.677   4.853   4.073
 4676SOL    HW214928   0.605   4.987   4.132
 4677SOL     OW14929   1.630   3.034   0.485
 4677SOL    HW114930   1.663   3.090   0.561
 4677SOL    HW214931   1.596   2.947   0.521
 4678SOL     OW14932   1.217   4.521   2.177
 4678SOL    HW114933   1.286   4.539   2.106
 4678SOL    HW214934   1.134   4.487   2.134
 4679SOL     OW14935   3.982   0.203   1.887
 4679SOL    HW114936   3.920   0.255   1.946
 4679SOL    HW214937   3.931   0.130   1.842
 4680SOL     OW14938   2.061   0.334   6.592
 4680SOL    HW114939   2.151   0.323   6.548
 4680SOL    HW214940   2.025   0.425   6.571
 4681SOL     OW14941   5.076   5.787   2.471
 4681SOL    HW114942   5.057   5.717   2.541
 4681SOL    HW214943   5.116   5.867   2.515
 4682SOL     OW14944   3.526   3.905   5.861
 4682SOL    HW114945   3.468   3.848   5.802
 4682SOL    HW214946   3.507   4.002   5.844
 4683SOL     OW14947   6.274   4.802   3.725
 4683SOL    HW114948   6.289   4.879   3.663
 4683SOL    HW214949   6.179   4.805   3.758
 4684SOL     OW14950   5.762   6.665   6.396
 4684SOL    HW114951   5.672   6.654   6.439
 4684SOL    HW214952   5.802   6.575   6.380
 4685SOL     OW14953   3.179   4.104   4.406
 4685SOL    HW114954   3.121   4.072   4.331
 4685SOL    HW214955   3.267   4.134   4.370
 4686SOL     OW14956   1.589   0.104   6.863
 4686SOL    HW114957   1.619   0.023   6.912
 4686SOL    HW214958   1.493   0.122   6.885
 4687SOL     OW14959   2.090   0.792   2.854
 4687SOL    HW114960   2.139   0.831   2.776
 4687SOL    HW214961   2.150   0.729   2.903
 4688SOL     OW14962   4.877   2.599   6.145
 4688SOL    HW114963   4.794   2.654   6.132
 4688SOL    HW214964   4.851   2.507   6.176
 4689SOL     OW14965   6.923   1.180   0.757
 4689SOL    HW114966   7.015   1.219   0.771
 4689SOL    HW214967   6.854   1.250   0.777
 4690SOL     OW14968   3.037   2.432   0.782
 4690SOL    HW114969   3.126   2.388   0.774
 4690SOL    HW214970   2.975   2.373   0.834
 4691SOL     OW14971   6.341   3.836   1.931
 4691SOL    HW114972   6.348   3.822   1.832
 4691SOL    HW214973   6.269   3.777   1.968
 4692SOL     OW14974   5.011   2.950   2.870
 4692SOL    HW114975   5.065   3.032   2.847
 4692SOL    HW214976   4.988   2.952   2.967
 4693SOL     OW14977   0.884   0.410   2.380
 4693SOL    HW114978   0.925   0.319   2.366
 4693SOL    HW214979   0.956   0.479   2.376
 4694SOL     OW14980   1.810   0.194   6.495
 4694SOL    HW114981   1.838   0.230   6.584
 4694SOL    HW214982   1.863   0.111   6.476
 4695SOL     OW14983   2.343   5.076   2.346
 4695SOL    HW114984   2.421   5.136   2.325
 4695SOL    HW214985   2.318   5.024   2.265
 4696SOL     OW14986   1.380   6.418   6.065
 4696SOL    HW114987   1.381   6.502   6.011
 4696SOL    HW214988   1.422   6.344   6.012
 4697SOL     OW14989   4.232   5.689   1.547
 4697SOL    HW114990   4.201   5.597   1.571
 4697SOL    HW214991   4.326   5.685   1.513
 4698SOL     OW14992   5.587   1.041   4.395
 4698SOL    HW114993   5.647   1.011   4.469
 4698SOL    HW214994   5.625   1.011   4.307
 4699SOL     OW14995   1.393   1.160   2.862
 4699SOL    HW114996   1.372   1.244   2.813
 4699SOL    HW214997   1.492   1.154   2.877
 4700SOL     OW14998   6.327   1.631   3.151
 4700SOL    HW114999   6.266   1.656   3.075
 4700SOL    HW215000   6.279   1.569   3.213
 4701SOL     OW15001   3.152   2.701   1.729
 4701SOL    HW115002   3.110   2.620   1.768
 4701SOL    HW215003   3.177   2.764   1.803
 4702SOL     OW15004   6.197   5.398   0.032
 4702SOL    HW115005   6.194   5.465   6.978
 4702SOL    HW215006   6.172   5.442   0.118
 4703SOL     OW15007   0.750   5.557   3.445
 4703SOL    HW115008   0.755   5.638   3.503
 4703SOL    HW215009   0.680   5.494   3.481
 4704SOL     OW15010   1.210   5.142   4.083
 4704SOL    HW115011   1.217   5.223   4.026
 4704SOL    HW215012   1.246   5.162   4.175
 4705SOL     OW15013   3.745   1.996   1.920
 4705SOL    HW115014   3.705   2.086   1.934
 4705SOL    HW215015   3.783   1.989   1.827
 4706SOL     OW15016   2.390   0.641   0.995
 4706SOL    HW115017   2.304   0.625   1.045
 4706SOL    HW215018   2.373   0.702   0.918
 4707SOL     OW15019   1.374   5.371   2.225
 4707SOL    HW115020   1.417   5.442   2.280
 4707SOL    HW215021   1.349   5.294   2.283
 4708SOL     OW15022   1.470   2.958   5.050
 4708SOL    HW115023   1.549   2.914   5.008
 4708SOL    HW215024   1.489   2.976   5.147
 4709SOL     OW15025   5.889   3.784   5.553
 4709SOL    HW115026   5.988   3.787   5.541
 4709SOL    HW215027   5.850   3.872   5.525
 4710SOL     OW15028   6.209   5.898   5.168
 4710SOL    HW115029   6.210   5.802   5.196
 4710SOL    HW215030   6.116   5.933   5.173
 4711SOL     OW15031   4.864   4.476   2.350
 4711SOL    HW115032   4.766   4.472   2.335
 4711SOL    HW215033   4.908   4.525   2.275
 4712SOL     OW15034   4.481   4.333   5.597
 4712SOL    HW115035   4.443   4.265   5.659
 4712SOL    HW215036   4.407   4.391   5.561
 4713SOL     OW15037   5.151   3.825   1.041
 4713SOL    HW115038   5.169   3.869   0.953
 4713SOL    HW215039   5.228   3.842   1.104
 4714SOL     OW15040   4.298   2.240   6.812
 4714SOL    HW115041   4.338   2.251   6.721
 4714SOL    HW215042   4.341   2.163   6.859
 4715SOL     OW15043   6.577   1.328   1.697
 4715SOL    HW115044   6.633   1.246   1.698
 4715SOL    HW215045   6.626   1.402   1.743
 4716SOL     OW15046   3.721   4.562   5.894
 4716SOL    HW115047   3.749   4.517   5.809
 4716SOL    HW215048   3.725   4.661   5.882
 4717SOL     OW15049   1.913   4.871   5.783
 4717SOL    HW115050   1.863   4.785   5.771
 4717SOL    HW215051   2.009   4.857   5.759
 4718SOL     OW15052   4.896   4.766   1.333
 4718SOL    HW115053   4.806   4.742   1.298
 4718SOL    HW215054   4.892   4.776   1.433
 4719SOL     OW15055   6.630   4.502   3.957
 4719SOL    HW115056   6.556   4.551   3.911
 4719SOL    HW215057   6.718   4.528   3.917
 4720SOL     OW15058   2.483   3.046   6.943
 4720SOL    HW115059   2.403   3.103   6.923
 4720SOL    HW215060   2.483   2.967   6.883
 4721SOL     OW15061   0.645   2.847   3.440
 4721SOL    HW115062   0.666   2.868   3.344
 4721SOL    HW215063   0.730   2.833   3.491
 4722SOL     OW15064   1.014   5.590   6.748
 4722SOL    HW115065   1.036   5.530   6.671
 4722SOL    HW215066   1.044   5.548   6.833
 4723SOL     OW15067   3.175   5.068   6.638
 4723SOL    HW115068   3.110   4.992   6.648
 4723SOL    HW215069   3.155   5.138   6.707
 4724SOL     OW15070   0.886   0.255   4.056
 4724SOL    HW115071   0.874   0.320   4.132
 4724SOL    HW215072   0.910   0.305   3.973
 4725SOL     OW15073   5.835   5.144   0.937
 4725SOL    HW115074   5.756   5.193   0.900
 4725SOL    HW215075   5.816   5.116   1.031
 4726SOL     OW15076   2.051   2.751   5.238
 4726SOL    HW115077   2.143   2.782   5.258
 4726SOL    HW215078   1.997   2.826   5.201
 4727SOL     OW15079   6.215   4.493   1.173
 4727SOL    HW115080   6.217   4.499   1.073
 4727SOL    HW215081   6.288   4.433   1.204
 4728SOL     OW15082   5.691   1.913   4.399
 4728SOL    HW115083   5.630   1.890   4.475
 4728SOL    HW215084   5.760   1.978   4.430
 4729SOL     OW15085   5.610   1.194   1.930
 4729SOL    HW115086   5.679   1.263   1.954
 4729SOL    HW215087   5.523   1.239   1.912
 4730SOL     OW15088   3.789   0.610   3.634
 4730SOL    HW115089   3.725   0.576   3.565
 4730SOL    HW215090   3.756   0.588   3.725
 4731SOL     OW15091   3.164   6.831   1.273
 4731SOL    HW115092   3.231   6.905   1.266
 4731SOL    HW215093   3.075   6.865   1.242
 4732SOL     OW15094   0.028   4.868   4.743
 4732SOL    HW115095   0.041   4.966   4.756
 4732SOL    HW215096   0.091   4.818   4.802
 4733SOL     OW15097   1.650   4.296   2.549
 4733SOL    HW115098   1.652   4.206   2.593
 4733SOL    HW215099   1.616   4.287   2.455
 4734SOL     OW15100   4.585   4.213   6.912
 4734SOL    HW115101   4.673   4.200   6.865
 4734SOL    HW215102   4.600   4.255   7.001
 4735SOL     OW15103   0.362   0.501   4.882
 4735SOL    HW115104   0.325   0.422   4.932
 4735SOL    HW215105   0.301   0.524   4.807
 4736SOL     OW15106   6.088   1.406   4.004
 4736SOL    HW115107   6.048   1.491   4.037
 4736SOL    HW215108   6.132   1.422   3.915
 4737SOL     OW15109   2.082   5.132   0.334
 4737SOL    HW115110   2.171   5.177   0.332
 4737SOL    HW215111   2.094   5.035   0.356
 4738SOL     OW15112   0.546   5.747   4.215
 4738SOL    HW115113   0.588   5.829   4.174
 4738SOL    HW215114   0.535   5.761   4.313
 4739SOL     OW15115   5.775   3.401   3.130
 4739SOL    HW115116   5.869   3.399   3.098
 4739SOL    HW215117   5.771   3.368   3.225
 4740SOL     OW15118   1.209   6.750   0.463
 4740SOL    HW115119   1.165   6.697   0.535
 4740SOL    HW215120   1.288   6.700   0.427
 4741SOL     OW15121   5.760   4.699   1.093
 4741SOL    HW115122   5.740   4.602   1.077
 4741SOL    HW215123   5.856   4.710   1.120
 4742SOL     OW15124   2.625   5.540   2.358
 4742SOL    HW115125   2.627   5.618   2.295
 4742SOL    HW215126   2.539   5.540   2.409
 4743SOL     OW15127   2.529   3.698   0.781
 4743SOL    HW115128   2.519   3.745   0.693
 4743SOL    HW215129   2.599   3.627   0.773
 4744SOL     OW15130   2.623   1.780   5.565
 4744SOL    HW115131   2.598   1.767   5.469
 4744SOL    HW215132   2.594   1.871   5.595
 4745SOL     OW15133   4.687   5.407   4.650
 4745SOL    HW115134   4.595   5.429   4.617
 4745SOL    HW215135   4.693   5.309   4.670
 4746SOL     OW15136   5.838   1.098   1.447
 4746SOL    HW115137   5.824   1.012   1.399
 4746SOL    HW215138   5.834   1.083   1.546
 4747SOL     OW15139   0.605   2.862   2.231
 4747SOL    HW115140   0.564   2.931   2.290
 4747SOL    HW215141   0.553   2.856   2.146
 4748SOL     OW15142   2.098   0.601   0.796
 4748SOL    HW115143   2.098   0.676   0.730
 4748SOL    HW215144   2.104   0.514   0.748
 4749SOL     OW15145   2.890   0.313   0.253
 4749SOL    HW115146   2.927   0.222   0.276
 4749SOL    HW215147   2.800   0.302   0.211
 4750SOL     OW15148   0.765   1.860   4.514
 4750SOL    HW115149   0.668   1.885   4.520
 4750SOL    HW215150   0.782   1.814   4.427
 4751SOL     OW15151   0.968   3.673   6.048
 4751SOL    HW115152   0.914   3.622   6.115
 4751SOL    HW215153   1.028   3.610   5.999
 4752SOL     OW15154   1.941   5.935   1.457
 4752SOL    HW115155   1.887   5.851   1.459
 4752SOL    HW215156   2.038   5.913   1.446
 4753SOL     OW15157   0.550   6.765   5.656
 4753SOL    HW115158   0.518   6.675   5.625
 4753SOL    HW215159   0.513   6.836   5.595
 4754SOL     OW15160   0.980   0.590   6.079
 4754SOL    HW115161   0.943   0.683   6.087
 4754SOL    HW215162   0.999   0.554   6.170
 4755SOL     OW15163   3.045   0.330   1.599
 4755SOL    HW115164   3.137   0.298   1.622
 4755SOL    HW215165   3.025   0.414   1.650
 4756SOL     OW15166   5.410   2.461   1.357
 4756SOL    HW115167   5.326   2.514   1.345
 4756SOL    HW215168   5.439   2.467   1.453
 4757SOL     OW15169   2.510   1.703   1.125
 4757SOL    HW115170   2.458   1.776   1.169
 4757SOL    HW215171   2.589   1.742   1.078
 4758SOL     OW15172   5.404   3.368   5.829
 4758SOL    HW115173   5.398   3.407   5.921
 4758SOL    HW215174   5.496   3.334   5.813
 4759SOL     OW15175   5.803   4.138   6.184
 4759SOL    HW115176   5.881   4.077   6.179
 4759SOL    HW215177   5.729   4.104   6.125
 4760SOL     OW15178   2.265   2.881   0.562
 4760SOL    HW115179   2.241   2.974   0.592
 4760SOL    HW215180   2.318   2.836   0.633
 4761SOL     OW15181   1.860   5.711   5.946
 4761SOL    HW115182   1.925   5.660   5.890
 4761SOL    HW215183   1.795   5.760   5.887
 4762SOL     OW15184   3.682   6.820   2.059
 4762SOL    HW115185   3.585   6.822   2.085
 4762SOL    HW215186   3.716   6.914   2.054
 4763SOL     OW15187   5.799   5.659   5.253
 4763SOL    HW115188   5.889   5.676   5.214
 4763SOL    HW215189   5.764   5.571   5.219
 4764SOL     OW15190   3.855   3.609   4.066
 4764SOL    HW115191   3.935   3.648   4.111
 4764SOL    HW215192   3.783   3.592   4.134
 4765SOL     OW15193   6.478   5.502   6.228
 4765SOL    HW115194   6.382   5.483   6.210
 4765SOL    HW215195   6.529   5.503   6.142
 4766SOL     OW15196   3.397   0.749   3.555
 4766SOL    HW115197   3.377   0.822   3.489
 4766SOL    HW215198   3.322   0.743   3.621
 4767SOL     OW15199   3.662   6.852   6.818
 4767SOL    HW115200   3.643   6.939   6.772
 4767SOL    HW215201   3.597   6.839   6.893
 4768SOL     OW15202   1.311   1.089   4.798
 4768SOL    HW115203   1.357   1.005   4.827
 4768SOL    HW215204   1.251   1.122   4.871
 4769SOL     OW15205   4.422   0.919   1.951
 4769SOL    HW115206   4.466   0.928   1.861
 4769SOL    HW215207   4.328   0.953   1.946
 4770SOL     OW15208   1.969   0.649   3.780
 4770SOL    HW115209   1.937   0.704   3.703
 4770SOL    HW215210   1.890   0.610   3.828
 4771SOL     OW15211   4.151   4.243   5.303
 4771SOL    HW115212   4.225   4.294   5.259
 4771SOL    HW215213   4.175   4.146   5.307
 4772SOL     OW15214   2.220   3.137   6.893
 4772SOL    HW115215   2.186   3.061   6.948
 4772SOL    HW215216   2.198   3.122   6.797
 4773SOL     OW15217   0.277   5.256   4.305
 4773SOL    HW115218   0.186   5.243   4.267
 4773SOL    HW215219   0.338   5.293   4.234
 4774SOL     OW15220   1.759   4.259   6.786
 4774SOL    HW115221   1.673   4.307   6.805
 4774SOL    HW215222   1.765   4.239   6.689
 4775SOL     OW15223   2.038   1.841   2.266
 4775SOL    HW115224   2.126   1.796   2.249
 4775SOL    HW215225   1.966   1.772   2.268
 4776SOL     OW15226   4.253   4.760   2.328
 4776SOL    HW115227   4.180   4.780   2.262
 4776SOL    HW215228   4.222   4.784   2.420
 4777SOL     OW15229   2.890   3.904   1.651
 4777SOL    HW115230   2.922   3.823   1.700
 4777SOL    HW215231   2.911   3.895   1.554
 4778SOL     OW15232   5.180   3.754   2.718
 4778SOL    HW115233   5.251   3.710   2.773
 4778SOL    HW215234   5.188   3.723   2.623
 4779SOL     OW15235   4.625   1.390   2.812
 4779SOL    HW115236   4.627   1.365   2.715
 4779SOL    HW215237   4.580   1.478   2.822
 4780SOL     OW15238   1.720   0.264   5.234
 4780SOL    HW115239   1.670   0.177   5.225
 4780SOL    HW215240   1.680   0.332   5.173
 4781SOL     OW15241   2.136   5.937   2.809
 4781SOL    HW115242   2.172   5.979   2.891
 4781SOL    HW215243   2.183   5.973   2.729
 4782SOL     OW15244   5.968   5.594   0.352
 4782SOL    HW115245   6.061   5.574   0.320
 4782SOL    HW215246   5.973   5.636   0.443
 4783SOL     OW15247   6.445   3.825   2.438
 4783SOL    HW115248   6.385   3.745   2.431
 4783SOL    HW215249   6.426   3.888   2.362
 4784SOL     OW15250   5.604   4.455   5.417
 4784SOL    HW115251   5.658   4.493   5.492
 4784SOL    HW215252   5.513   4.497   5.417
 4785SOL     OW15253   5.830   0.050   0.363
 4785SOL    HW115254   5.784   7.008   0.299
 4785SOL    HW215255   5.784   0.139   0.363
 4786SOL     OW15256   1.287   3.228   2.024
 4786SOL    HW115257   1.231   3.311   2.036
 4786SOL    HW215258   1.383   3.251   2.039
 4787SOL     OW15259   4.659   2.017   2.898
 4787SOL    HW115260   4.603   1.971   2.967
 4787SOL    HW215261   4.602   2.083   2.849
 4788SOL     OW15262   2.300   6.624   5.177
 4788SOL    HW115263   2.296   6.649   5.274
 4788SOL    HW215264   2.392   6.590   5.156
 4789SOL     OW15265   5.339   6.515   0.519
 4789SOL    HW115266   5.317   6.425   0.559
 4789SOL    HW215267   5.255   6.567   0.506
 4790SOL     OW15268   5.287   6.878   6.657
 4790SOL    HW115269   5.329   6.861   6.746
 4790SOL    HW215270   5.232   6.799   6.630
 4791SOL     OW15271   4.755   1.975   3.578
 4791SOL    HW115272   4.832   1.913   3.595
 4791SOL    HW215273   4.722   1.961   3.484
 4792SOL     OW15274   3.193   2.226   1.229
 4792SOL    HW115275   3.232   2.138   1.257
 4792SOL    HW215276   3.169   2.279   1.310
 4793SOL     OW15277   0.619   6.926   6.769
 4793SOL    HW115278   0.635   6.877   6.683
 4793SOL    HW215279   0.706   6.937   6.818
 4794SOL     OW15280   5.077   1.184   2.010
 4794SOL    HW115281   5.063   1.085   2.003
 4794SOL    HW215282   5.082   1.223   1.918
 4795SOL     OW15283   6.215   3.041   4.093
 4795SOL    HW115284   6.282   3.044   4.167
 4795SOL    HW215285   6.145   2.973   4.113
 4796SOL     OW15286   5.596   3.714   1.084
 4796SOL    HW115287   5.568   3.806   1.057
 4796SOL    HW215288   5.691   3.716   1.117
 4797SOL     OW15289   0.783   4.980   4.486
 4797SOL    HW115290   0.820   4.919   4.416
 4797SOL    HW215291   0.856   5.007   4.549
 4798SOL     OW15292   6.594   5.161   5.831
 4798SOL    HW115293   6.594   5.236   5.764
 4798SOL    HW215294   6.611   5.197   5.922
 4799SOL     OW15295   4.691   0.862   5.169
 4799SOL    HW115296   4.598   0.835   5.192
 4799SOL    HW215297   4.690   0.949   5.119
 4800SOL     OW15298   2.261   2.967   4.188
 4800SOL    HW115299   2.294   3.062   4.189
 4800SOL    HW215300   2.274   2.927   4.279
 4801SOL     OW15301   0.700   2.704   0.748
 4801SOL    HW115302   0.661   2.725   0.837
 4801SOL    HW215303   0.707   2.788   0.694
 4802SOL     OW15304   2.116   0.235   1.624
 4802SOL    HW115305   2.082   0.329   1.628
 4802SOL    HW215306   2.060   0.182   1.560
 4803SOL     OW15307   1.157   0.824   0.936
 4803SOL    HW115308   1.078   0.783   0.982
 4803SOL    HW215309   1.241   0.784   0.972
 4804SOL     OW15310   4.324   5.714   6.782
 4804SOL    HW115311   4.258   5.686   6.852
 4804SOL    HW215312   4.413   5.728   6.825
 4805SOL     OW15313   0.253   0.510   1.340
 4805SOL    HW115314   0.161   0.499   1.301
 4805SOL    HW215315   0.289   0.600   1.317
 4806SOL     OW15316   6.990   2.620   3.936
 4806SOL    HW115317   6.946   2.708   3.917
 4806SOL    HW215318   0.004   2.580   3.851
 4807SOL     OW15319   0.664   6.762   2.134
 4807SOL    HW115320   0.641   6.690   2.069
 4807SOL    HW215321   0.727   6.726   2.203
 4808SOL     OW15322   5.630   3.080   1.030
 4808SOL    HW115323   5.635   2.982   1.010
 4808SOL    HW215324   5.677   3.131   0.959
 4809SOL     OW15325   4.128   6.743   0.339
 4809SOL    HW115326   4.042   6.746   0.391
 4809SOL    HW215327   4.150   6.835   0.307
 4810SOL     OW15328   1.699   6.977   0.870
 4810SOL    HW115329   1.766   6.925   0.922
 4810SOL    HW215330   1.725   0.054   0.870
 4811SOL     OW15331   5.606   4.870   3.119
 4811SOL    HW115332   5.647   4.792   3.071
 4811SOL    HW215333   5.516   4.845   3.153
 4812SOL     OW15334   6.296   5.200   4.252
 4812SOL    HW115335   6.273   5.174   4.346
 4812SOL    HW215336   6.394   5.191   4.238
 4813SOL     OW15337   5.847   3.271   2.825
 4813SOL    HW115338   5.916   3.265   2.897
 4813SOL    HW215339   5.800   3.183   2.817
 4814SOL     OW15340   6.626   3.464   1.363
 4814SOL    HW115341   6.684   3.396   1.408
 4814SOL    HW215342   6.539   3.422   1.337
 4815SOL     OW15343   4.468   0.574   3.193
 4815SOL    HW115344   4.378   0.611   3.218
 4815SOL    HW215345   4.516   0.639   3.135
 4816SOL     OW15346   5.426   4.478   3.528
 4816SOL    HW115347   5.352   4.540   3.503
 4816SOL    HW215348   5.489   4.470   3.451
 4817SOL     OW15349   6.911   1.669   0.072
 4817SOL    HW115350   6.980   1.719   0.020
 4817SOL    HW215351   6.825   1.669   0.021
 4818SOL     OW15352   0.308   6.267   3.697
 4818SOL    HW115353   0.254   6.198   3.745
 4818SOL    HW215354   0.278   6.358   3.723
 4819SOL     OW15355   2.649   2.568   0.791
 4819SOL    HW115356   2.722   2.625   0.828
 4819SOL    HW215357   2.634   2.590   0.695
 4820SOL     OW15358   0.466   3.025   2.654
 4820SOL    HW115359   0.417   2.944   2.687
 4820SOL    HW215360   0.522   3.063   2.727
 4821SOL     OW15361   0.574   5.870   3.647
 4821SOL    HW115362   0.497   5.868   3.584
 4821SOL    HW215363   0.564   5.946   3.712
 4822SOL     OW15364   2.392   4.436   4.260
 4822SOL    HW115365   2.402   4.534   4.244
 4822SOL    HW215366   2.411   4.415   4.355
 4823SOL     OW15367   2.415   2.767   0.764
 4823SOL    HW115368   2.384   2.785   0.858
 4823SOL    HW215369   2.513   2.750   0.764
 4824SOL     OW15370   6.462   1.879   0.124
 4824SOL    HW115371   6.467   1.955   0.059
 4824SOL    HW215372   6.380   1.889   0.180
 4825SOL     OW15373   1.433   6.782   4.094
 4825SOL    HW115374   1.359   6.793   4.160
 4825SOL    HW215375   1.521   6.787   4.140
 4826SOL     OW15376   3.878   6.559   0.985
 4826SOL    HW115377   3.927   6.536   0.901
 4826SOL    HW215378   3.934   6.533   1.064
 4827SOL     OW15379   6.582   1.217   1.271
 4827SOL    HW115380   6.641   1.179   1.342
 4827SOL    HW215381   6.626   1.296   1.228
 4828SOL     OW15382   5.226   1.148   5.670
 4828SOL    HW115383   5.137   1.132   5.713
 4828SOL    HW215384   5.287   1.196   5.734
 4829SOL     OW15385   4.303   6.251   5.440
 4829SOL    HW115386   4.305   6.311   5.361
 4829SOL    HW215387   4.222   6.271   5.496
 4830SOL     OW15388   1.913   6.545   3.698
 4830SOL    HW115389   1.846   6.609   3.735
 4830SOL    HW215390   2.005   6.577   3.721
 4831SOL     OW15391   3.523   4.722   5.608
 4831SOL    HW115392   3.589   4.709   5.534
 4831SOL    HW215393   3.432   4.692   5.577
 4832SOL     OW15394   4.169   3.576   4.908
 4832SOL    HW115395   4.105   3.651   4.891
 4832SOL    HW215396   4.234   3.570   4.832
 4833SOL     OW15397   6.092   2.134   5.680
 4833SOL    HW115398   6.142   2.164   5.599
 4833SOL    HW215399   6.020   2.201   5.701
 4834SOL     OW15400   0.320   5.757   1.434
 4834SOL    HW115401   0.395   5.775   1.370
 4834SOL    HW215402   0.330   5.816   1.514
 4835SOL     OW15403   0.459   3.424   6.746
 4835SOL    HW115404   0.460   3.381   6.656
 4835SOL    HW215405   0.431   3.520   6.736
 4836SOL     OW15406   4.290   1.973   5.557
 4836SOL    HW115407   4.383   1.996   5.584
 4836SOL    HW215408   4.264   1.885   5.598
 4837SOL     OW15409   1.333   3.786   4.372
 4837SOL    HW115410   1.396   3.863   4.381
 4837SOL    HW215411   1.257   3.799   4.436
 4838SOL     OW15412   1.683   3.917   6.093
 4838SOL    HW115413   1.599   3.909   6.039
 4838SOL    HW215414   1.762   3.922   6.032
 4839SOL     OW15415   2.918   1.649   1.501
 4839SOL    HW115416   2.883   1.558   1.477
 4839SOL    HW215417   2.881   1.676   1.590
 4840SOL     OW15418   4.961   2.697   5.315
 4840SOL    HW115419   5.018   2.750   5.252
 4840SOL    HW215420   4.984   2.721   5.409
 4841SOL     OW15421   2.637   6.457   3.104
 4841SOL    HW115422   2.649   6.427   3.010
 4841SOL    HW215423   2.692   6.539   3.121
 4842SOL     OW15424   3.963   5.753   3.734
 4842SOL    HW115425   4.043   5.766   3.677
 4842SOL    HW215426   3.990   5.720   3.824
 4843SOL     OW15427   6.391   1.557   1.038
 4843SOL    HW115428   6.340   1.633   0.998
 4843SOL    HW215429   6.410   1.489   0.967
 4844SOL     OW15430   1.510   5.231   6.764
 4844SOL    HW115431   1.438   5.285   6.809
 4844SOL    HW215432   1.588   5.290   6.743
 4845SOL     OW15433   4.969   3.781   4.873
 4845SOL    HW115434   5.028   3.735   4.807
 4845SOL    HW215435   4.915   3.714   4.923
 4846SOL     OW15436   6.729   3.650   4.839
 4846SOL    HW115437   6.698   3.743   4.860
 4846SOL    HW215438   6.664   3.584   4.878
 4847SOL     OW15439   3.201   6.791   0.157
 4847SOL    HW115440   3.198   6.800   0.256
 4847SOL    HW215441   3.179   6.879   0.115
 4848SOL     OW15442   4.946   1.772   3.627
 4848SOL    HW115443   5.038   1.737   3.607
 4848SOL    HW215444   4.932   1.773   3.726
 4849SOL     OW15445   2.283   6.159   1.629
 4849SOL    HW115446   2.337   6.240   1.650
 4849SOL    HW215447   2.186   6.179   1.645
 4850SOL     OW15448   3.145   6.654   2.030
 4850SOL    HW115449   3.153   6.581   2.098
 4850SOL    HW215450   3.052   6.657   1.995
 4851SOL     OW15451   4.408   4.840   6.925
 4851SOL    HW115452   4.488   4.812   6.872
 4851SOL    HW215453   4.399   4.940   6.922
 4852SOL     OW15454   5.111   4.518   5.857
 4852SOL    HW115455   5.012   4.516   5.845
 4852SOL    HW215456   5.155   4.483   5.774
 4853SOL     OW15457   4.191   0.370   3.053
 4853SOL    HW115458   4.199   0.280   3.096
 4853SOL    HW215459   4.217   0.363   2.956
 4854SOL     OW15460   4.095   6.721   2.469
 4854SOL    HW115461   4.109   6.663   2.388
 4854SOL    HW215462   4.014   6.778   2.455
 4855SOL     OW15463   4.933   5.043   5.781
 4855SOL    HW115464   4.975   5.098   5.854
 4855SOL    HW215465   4.922   5.100   5.699
 4856SOL     OW15466   0.471   2.630   2.982
 4856SOL    HW115467   0.493   2.533   2.969
 4856SOL    HW215468   0.534   2.670   3.048
 4857SOL     OW15469   1.581   2.202   5.081
 4857SOL    HW115470   1.579   2.103   5.087
 4857SOL    HW215471   1.521   2.233   5.007
 4858SOL     OW15472   1.546   5.317   4.955
 4858SOL    HW115473   1.483   5.391   4.930
 4858SOL    HW215474   1.623   5.316   4.890
 4859SOL     OW15475   6.612   5.907   3.553
 4859SOL    HW115476   6.645   5.818   3.521
 4859SOL    HW215477   6.516   5.898   3.581
 4860SOL     OW15478   3.718   5.335   1.896
 4860SOL    HW115479   3.786   5.265   1.917
 4860SOL    HW215480   3.680   5.319   1.805
 4861SOL     OW15481   6.833   4.916   5.791
 4861SOL    HW115482   6.739   4.898   5.763
 4861SOL    HW215483   6.835   4.939   5.889
 4862SOL     OW15484   2.050   5.987   4.397
 4862SOL    HW115485   2.146   5.958   4.391
 4862SOL    HW215486   2.026   6.040   4.315
 4863SOL     OW15487   5.761   1.410   2.023
 4863SOL    HW115488   5.844   1.433   1.971
 4863SOL    HW215489   5.717   1.493   2.055
 4864SOL     OW15490   1.956   2.360   1.329
 4864SOL    HW115491   1.898   2.434   1.364
 4864SOL    HW215492   2.043   2.399   1.297
 4865SOL     OW15493   3.951   6.445   5.264
 4865SOL    HW115494   3.879   6.488   5.211
 4865SOL    HW215495   3.920   6.355   5.296
 4866SOL     OW15496   0.228   5.571   1.611
 4866SOL    HW115497   0.183   5.619   1.686
 4866SOL    HW215498   0.277   5.636   1.553
 4867SOL     OW15499   5.611   4.909   4.962
 4867SOL    HW115500   5.691   4.934   4.907
 4867SOL    HW215501   5.601   4.810   4.963
 4868SOL     OW15502   1.654   5.543   1.844
 4868SOL    HW115503   1.572   5.506   1.888
 4868SOL    HW215504   1.671   5.635   1.878
 4869SOL     OW15505   6.494   1.065   2.265
 4869SOL    HW115506   6.591   1.066   2.241
 4869SOL    HW215507   6.477   0.989   2.327
 4870SOL     OW15508   6.276   1.012   0.942
 4870SOL    HW115509   6.257   1.073   0.865
 4870SOL    HW215510   6.290   1.065   1.025
 4871SOL     OW15511   1.540   3.611   4.393
 4871SOL    HW115512   1.477   3.689   4.383
 4871SOL    HW215513   1.623   3.629   4.341
 4872SOL     OW15514   1.289   1.929   3.568
 4872SOL    HW115515   1.297   1.861   3.640
 4872SOL    HW215516   1.376   1.936   3.518
 4873SOL     OW15517   1.276   6.725   5.288
 4873SOL    HW115518   1.336   6.791   5.335
 4873SOL    HW215519   1.328   6.676   5.219
 4874SOL     OW15520   6.048   2.352   3.370
 4874SOL    HW115521   6.053   2.350   3.470
 4874SOL    HW215522   6.138   2.330   3.332
 4875SOL     OW15523   0.294   2.943   6.624
 4875SOL    HW115524   0.378   2.928   6.677
 4875SOL    HW215525   0.315   2.938   6.526
 4876SOL     OW15526   0.022   1.416   6.919
 4876SOL    HW115527   0.077   1.469   6.855
 4876SOL    HW215528   0.013   1.465   7.005
 4877SOL     OW15529   5.370   1.787   1.884
 4877SOL    HW115530   5.342   1.811   1.791
 4877SOL    HW215531   5.408   1.694   1.884
 4878SOL     OW15532   1.056   2.938   1.722
 4878SOL    HW115533   1.129   3.002   1.743
 4878SOL    HW215534   1.088   2.845   1.736
 4879SOL     OW15535   4.436   5.831   3.705
 4879SOL    HW115536   4.431   5.805   3.609
 4879SOL    HW215537   4.398   5.922   3.717
 4880SOL     OW15538   5.686   1.779   5.664
 4880SOL    HW115539   5.629   1.733   5.732
 4880SOL    HW215540   5.642   1.774   5.574
 4881SOL     OW15541   2.647   5.833   5.824
 4881SOL    HW115542   2.595   5.914   5.798
 4881SOL    HW215543   2.671   5.837   5.921
 4882SOL     OW15544   5.252   5.887   6.932
 4882SOL    HW115545   5.333   5.882   6.874
 4882SOL    HW215546   5.245   5.979   6.971
 4883SOL     OW15547   6.201   5.176   6.437
 4883SOL    HW115548   6.139   5.243   6.479
 4883SOL    HW215549   6.295   5.196   6.467
 4884SOL     OW15550   3.710   6.346   2.009
 4884SOL    HW115551   3.643   6.420   2.013
 4884SOL    HW215552   3.739   6.333   1.914
 4885SOL     OW15553   1.476   0.280   2.055
 4885SOL    HW115554   1.433   0.338   2.123
 4885SOL    HW215555   1.573   0.304   2.047
 4886SOL     OW15556   6.043   0.457   5.305
 4886SOL    HW115557   6.039   0.378   5.367
 4886SOL    HW215558   5.994   0.534   5.345
 4887SOL     OW15559   0.978   1.715   5.183
 4887SOL    HW115560   1.007   1.650   5.114
 4887SOL    HW215561   1.048   1.786   5.195
 4888SOL     OW15562   3.602   5.870   1.757
 4888SOL    HW115563   3.551   5.800   1.807
 4888SOL    HW215564   3.695   5.838   1.740
 4889SOL     OW15565   1.323   3.472   6.746
 4889SOL    HW115566   1.372   3.558   6.726
 4889SOL    HW215567   1.267   3.448   6.667
 4890SOL     OW15568   0.214   0.675   4.161
 4890SOL    HW115569   0.268   0.744   4.210
 4890SOL    HW215570   0.122   0.712   4.145
 4891SOL     OW15571   1.015   4.133   0.672
 4891SOL    HW115572   1.083   4.086   0.729
 4891SOL    HW215573   0.925   4.129   0.717
 4892SOL     OW15574   2.125   5.527   2.154
 4892SOL    HW115575   2.065   5.528   2.074
 4892SOL    HW215576   2.196   5.458   2.142
 4893SOL     OW15577   0.183   3.671   6.455
 4893SOL    HW115578   0.151   3.610   6.527
 4893SOL    HW215579   0.220   3.616   6.380
 4894SOL     OW15580   0.531   7.000   2.946
 4894SOL    HW115581   0.454   6.994   2.882
 4894SOL    HW215582   0.617   6.992   2.896
 4895SOL     OW15583   6.128   3.944   6.562
 4895SOL    HW115584   6.185   3.928   6.481
 4895SOL    HW215585   6.146   3.873   6.630
 4896SOL     OW15586   4.354   6.996   4.369
 4896SOL    HW115587   4.431   6.950   4.325
 4896SOL    HW215588   4.322   0.051   4.310
 4897SOL     OW15589   2.798   6.211   6.510
 4897SOL    HW115590   2.797   6.112   6.491
 4897SOL    HW215591   2.768   6.260   6.428
 4898SOL     OW15592   5.848   1.967   4.877
 4898SOL    HW115593   5.814   1.896   4.815
 4898SOL    HW215594   5.947   1.973   4.870
 4899SOL     OW15595   5.601   4.400   4.235
 4899SOL    HW115596   5.601   4.300   4.242
 4899SOL    HW215597   5.664   4.437   4.303
 4900SOL     OW15598   1.264   6.423   4.829
 4900SOL    HW115599   1.179   6.436   4.778
 4900SOL    HW215600   1.270   6.491   4.901
 4901SOL     OW15601   0.140   6.349   3.198
 4901SOL    HW115602   0.174   6.328   3.107
 4901SOL    HW215603   0.052   6.304   3.212
 4902SOL     OW15604   3.857   4.761   1.029
 4902SOL    HW115605   3.883   4.664   1.031
 4902SOL    HW215606   3.784   4.775   0.962
 4903SOL     OW15607   5.933   5.465   6.116
 4903SOL    HW115608   5.893   5.444   6.205
 4903SOL    HW215609   5.925   5.386   6.055
 4904SOL     OW15610   2.450   0.447   3.340
 4904SOL    HW115611   2.531   0.447   3.281
 4904SOL    HW215612   2.422   0.541   3.359
 4905SOL     OW15613   6.483   3.307   3.539
 4905SOL    HW115614   6.389   3.291   3.569
 4905SOL    HW215615   6.508   3.402   3.560
 4906SOL     OW15616   5.079   0.259   1.448
 4906SOL    HW115617   5.032   0.255   1.360
 4906SOL    HW215618   5.167   0.305   1.437
 4907SOL     OW15619   2.723   2.015   1.778
 4907SOL    HW115620   2.801   1.975   1.826
 4907SOL    HW215621   2.726   2.114   1.786
 4908SOL     OW15622   4.082   6.030   0.467
 4908SOL    HW115623   4.145   6.009   0.541
 4908SOL    HW215624   4.126   6.009   0.379
 4909SOL     OW15625   6.269   6.901   5.147
 4909SOL    HW115626   6.332   6.976   5.168
 4909SOL    HW215627   6.273   6.881   5.049
 4910SOL     OW15628   5.536   6.458   6.022
 4910SOL    HW115629   5.488   6.380   5.982
 4910SOL    HW215630   5.631   6.460   5.990
 4911SOL     OW15631   0.706   3.944   6.644
 4911SOL    HW115632   0.773   3.893   6.697
 4911SOL    HW215633   0.640   3.881   6.604
 4912SOL     OW15634   2.463   2.304   1.338
 4912SOL    HW115635   2.556   2.287   1.369
 4912SOL    HW215636   2.399   2.256   1.398
 4913SOL     OW15637   2.494   3.021   1.604
 4913SOL    HW115638   2.439   3.099   1.633
 4913SOL    HW215639   2.474   2.999   1.509
 4914SOL     OW15640   1.664   6.872   2.439
 4914SOL    HW115641   1.748   6.905   2.396
 4914SOL    HW215642   1.683   6.842   2.532
 4915SOL     OW15643   3.359   6.358   3.535
 4915SOL    HW115644   3.332   6.269   3.573
 4915SOL    HW215645   3.284   6.423   3.547
 4916SOL     OW15646   1.555   1.947   2.093
 4916SOL    HW115647   1.620   1.905   2.156
 4916SOL    HW215648   1.534   1.882   2.019
 4917SOL     OW15649   2.002   3.943   6.415
 4917SOL    HW115650   2.008   3.957   6.316
 4917SOL    HW215651   1.909   3.959   6.445
 4918SOL     OW15652   2.126   0.308   3.502
 4918SOL    HW115653   2.221   0.329   3.523
 4918SOL    HW215654   2.080   0.277   3.585
 4919SOL     OW15655   2.288   3.218   1.640
 4919SOL    HW115656   2.290   3.303   1.692
 4919SOL    HW215657   2.210   3.162   1.669
 4920SOL     OW15658   3.374   0.833   0.260
 4920SOL    HW115659   3.321   0.851   0.343
 4920SOL    HW215660   3.330   0.760   0.208
 4921SOL     OW15661   6.667   4.758   1.653
 4921SOL    HW115662   6.723   4.824   1.604
 4921SOL    HW215663   6.584   4.803   1.686
 4922SOL     OW15664   0.949   2.895   5.946
 4922SOL    HW115665   0.973   2.928   5.855
 4922SOL    HW215666   0.860   2.933   5.972
 4923SOL     OW15667   2.665   2.231   6.490
 4923SOL    HW115668   2.581   2.180   6.474
 4923SOL    HW215669   2.742   2.167   6.500
 4924SOL     OW15670   0.246   3.410   3.931
 4924SOL    HW115671   0.157   3.435   3.968
 4924SOL    HW215672   0.245   3.418   3.832
 4925SOL     OW15673   4.894   5.332   5.819
 4925SOL    HW115674   4.933   5.322   5.727
 4925SOL    HW215675   4.951   5.394   5.873
 4926SOL     OW15676   4.361   3.237   0.672
 4926SOL    HW115677   4.448   3.285   0.664
 4926SOL    HW215678   4.358   3.161   0.608
 4927SOL     OW15679   3.282   4.026   2.104
 4927SOL    HW115680   3.280   3.999   2.007
 4927SOL    HW215681   3.375   4.055   2.128
 4928SOL     OW15682   0.530   0.480   0.399
 4928SOL    HW115683   0.486   0.392   0.385
 4928SOL    HW215684   0.488   0.527   0.476
 4929SOL     OW15685   1.222   4.816   4.357
 4929SOL    HW115686   1.164   4.894   4.382
 4929SOL    HW215687   1.298   4.847   4.300
 4930SOL     OW15688   0.496   3.371   0.512
 4930SOL    HW115689   0.397   3.382   0.524
 4930SOL    HW215690   0.519   3.274   0.522
 4931SOL     OW15691   5.660   6.822   1.406
 4931SOL    HW115692   5.665   6.913   1.365
 4931SOL    HW215693   5.647   6.831   1.505
 4932SOL     OW15694   3.575   1.562   1.096
 4932SOL    HW115695   3.630   1.627   1.044
 4932SOL    HW215696   3.608   1.469   1.078
 4933SOL     OW15697   3.205   6.882   4.939
 4933SOL    HW115698   3.258   6.901   4.856
 4933SOL    HW215699   3.175   6.967   4.980
 4934SOL     OW15700   2.362   5.448   5.280
 4934SOL    HW115701   2.308   5.374   5.239
 4934SOL    HW215702   2.339   5.535   5.236
 4935SOL     OW15703   2.094   2.424   0.543
 4935SOL    HW115704   2.071   2.331   0.514
 4935SOL    HW215705   2.174   2.421   0.603
 4936SOL     OW15706   5.712   4.730   1.464
 4936SOL    HW115707   5.679   4.675   1.387
 4936SOL    HW215708   5.685   4.687   1.550
 4937SOL     OW15709   0.755   3.643   4.462
 4937SOL    HW115710   0.788   3.702   4.535
 4937SOL    HW215711   0.657   3.661   4.447
 4938SOL     OW15712   3.611   4.371   1.694
 4938SOL    HW115713   3.546   4.307   1.654
 4938SOL    HW215714   3.565   4.428   1.762
 4939SOL     OW15715   1.058   1.396   1.075
 4939SOL    HW115716   1.136   1.440   1.120
 4939SOL    HW215717   1.071   1.400   0.976
 4940SOL     OW15718   1.195   2.030   5.477
 4940SOL    HW115719   1.218   1.937   5.507
 4940SOL    HW215720   1.269   2.065   5.420
 4941SOL     OW15721   4.098   2.445   5.427
 4941SOL    HW115722   4.133   2.486   5.343
 4941SOL    HW215723   4.135   2.352   5.436
 4942SOL     OW15724   6.502   0.948   3.258
 4942SOL    HW115725   6.469   0.957   3.164
 4942SOL    HW215726   6.600   0.968   3.261
 4943SOL     OW15727   4.525   2.400   6.640
 4943SOL    HW115728   4.522   2.317   6.585
 4943SOL    HW215729   4.442   2.454   6.623
 4944SOL     OW15730   1.037   4.789   0.673
 4944SOL    HW115731   1.121   4.774   0.725
 4944SOL    HW215732   0.984   4.863   0.715
 4945SOL     OW15733   2.683   0.603   5.386
 4945SOL    HW115734   2.739   0.546   5.326
 4945SOL    HW215735   2.728   0.613   5.475
 4946SOL     OW15736   2.960   5.985   0.535
 4946SOL    HW115737   2.893   5.911   0.532
 4946SOL    HW215738   3.037   5.963   0.475
 4947SOL     OW15739   0.792   0.396   1.065
 4947SOL    HW115740   0.852   0.430   1.137
 4947SOL    HW215741   0.766   0.302   1.084
 4948SOL     OW15742   1.704   2.618   1.932
 4948SOL    HW115743   1.732   2.608   2.028
 4948SOL    HW215744   1.633   2.551   1.912
 4949SOL     OW15745   6.557   4.589   5.550
 4949SOL    HW115746   6.604   4.562   5.633
 4949SOL    HW215747   6.600   4.546   5.471
 4950SOL     OW15748   4.005   4.407   5.464
 4950SOL    HW115749   4.057   4.361   5.392
 4950SOL    HW215750   4.005   4.505   5.448
 4951SOL     OW15751   4.642   5.036   3.356
 4951SOL    HW115752   4.676   5.076   3.271
 4951SOL    HW215753   4.696   4.955   3.379
 4952SOL     OW15754   0.605   0.985   6.917
 4952SOL    HW115755   0.576   0.890   6.930
 4952SOL    HW215756   0.677   0.988   6.848
 4953SOL     OW15757   1.413   2.324   4.886
 4953SOL    HW115758   1.400   2.260   4.810
 4953SOL    HW215759   1.422   2.417   4.850
 4954SOL     OW15760   3.007   3.957   4.833
 4954SOL    HW115761   3.035   3.968   4.929
 4954SOL    HW215762   3.034   4.038   4.781
 4955SOL     OW15763   3.914   5.873   6.821
 4955SOL    HW115764   4.005   5.913   6.821
 4955SOL    HW215765   3.879   5.869   6.914
 4956SOL     OW15766   2.587   0.330   4.765
 4956SOL    HW115767   2.490   0.333   4.742
 4956SOL    HW215768   2.639   0.380   4.695
 4957SOL     OW15769   5.736   5.274   0.071
 4957SOL    HW115770   5.756   5.254   6.994
 4957SOL    HW215771   5.706   5.190   0.116
 4958SOL     OW15772   3.429   5.273   0.297
 4958SOL    HW115773   3.371   5.195   0.273
 4958SOL    HW215774   3.393   5.316   0.380
 4959SOL     OW15775   6.822   2.601   2.776
 4959SOL    HW115776   6.916   2.591   2.743
 4959SOL    HW215777   6.770   2.519   2.752
 4960SOL     OW15778   5.462   4.564   4.042
 4960SOL    HW115779   5.440   4.637   4.106
 4960SOL    HW215780   5.506   4.489   4.092
 4961SOL     OW15781   3.376   2.804   2.104
 4961SOL    HW115782   3.388   2.715   2.148
 4961SOL    HW215783   3.461   2.831   2.059
 4962SOL     OW15784   1.749   2.637   0.162
 4962SOL    HW115785   1.709   2.588   0.084
 4962SOL    HW215786   1.845   2.657   0.142
 4963SOL     OW15787   0.527   4.039   6.377
 4963SOL    HW115788   0.559   3.945   6.392
 4963SOL    HW215789   0.468   4.042   6.297
 4964SOL     OW15790   1.830   5.141   4.300
 4964SOL    HW115791   1.794   5.234   4.295
 4964SOL    HW215792   1.828   5.099   4.209
 4965SOL     OW15793   2.356   0.102   2.793
 4965SOL    HW115794   2.286   0.078   2.726
 4965SOL    HW215795   2.325   0.180   2.847
 4966SOL     OW15796   4.011   0.299   5.328
 4966SOL    HW115797   4.007   0.201   5.308
 4966SOL    HW215798   4.049   0.348   5.249
 4967SOL     OW15799   4.441   4.636   3.994
 4967SOL    HW115800   4.391   4.695   4.057
 4967SOL    HW215801   4.476   4.556   4.044
 4968SOL     OW15802   6.927   3.044   4.150
 4968SOL    HW115803   6.962   2.957   4.185
 4968SOL    HW215804   7.003   3.107   4.133
 4969SOL     OW15805   0.543   5.766   4.481
 4969SOL    HW115806   0.446   5.786   4.496
 4969SOL    HW215807   0.598   5.834   4.529
 4970SOL     OW15808   1.897   1.668   1.695
 4970SOL    HW115809   1.800   1.642   1.701
 4970SOL    HW215810   1.915   1.709   1.605
 4971SOL     OW15811   0.222   5.567   1.144
 4971SOL    HW115812   0.188   5.520   1.225
 4971SOL    HW215813   0.297   5.514   1.103
 4972SOL     OW15814   0.100   4.255   0.043
 4972SOL    HW115815   0.095   4.171   0.097
 4972SOL    HW215816   0.186   4.256   7.011
 4973SOL     OW15817   5.607   1.926   6.896
 4973SOL    HW115818   5.549   1.965   6.968
 4973SOL    HW215819   5.607   1.988   6.817
 4974SOL     OW15820   3.638   0.098   5.228
 4974SOL    HW115821   3.625   0.197   5.242
 4974SOL    HW215822   3.701   0.083   5.152
 4975SOL     OW15823   5.382   4.682   1.084
 4975SOL    HW115824   5.377   4.594   1.037
 4975SOL    HW215825   5.403   4.667   1.181
 4976SOL     OW15826   0.599   0.188   3.554
 4976SOL    HW115827   0.615   0.238   3.639
 4976SOL    HW215828   0.586   0.254   3.479
 4977SOL     OW15829   1.571   3.707   5.576
 4977SOL    HW115830   1.561   3.628   5.516
 4977SOL    HW215831   1.496   3.707   5.643
 4978SOL     OW15832   6.305   4.143   4.960
 4978SOL    HW115833   6.230   4.187   5.009
 4978SOL    HW215834   6.390   4.153   5.012
 4979SOL     OW15835   2.516   6.790   6.687
 4979SOL    HW115836   2.515   6.727   6.609
 4979SOL    HW215837   2.494   6.740   6.771
 4980SOL     OW15838   5.798   2.912   4.491
 4980SOL    HW115839   5.877   2.958   4.532
 4980SOL    HW215840   5.776   2.955   4.403
 4981SOL     OW15841   3.597   5.760   3.438
 4981SOL    HW115842   3.509   5.776   3.484
 4981SOL    HW215843   3.581   5.714   3.351
 4982SOL     OW15844   3.936   2.139   4.866
 4982SOL    HW115845   3.841   2.120   4.838
 4982SOL    HW215846   3.944   2.131   4.965
 4983SOL     OW15847   6.172   3.745   2.753
 4983SOL    HW115848   6.155   3.762   2.851
 4983SOL    HW215849   6.108   3.675   2.721
 4984SOL     OW15850   4.912   3.462   4.752
 4984SOL    HW115851   4.911   3.500   4.659
 4984SOL    HW215852   4.880   3.530   4.817
 4985SOL     OW15853   5.830   0.345   2.082
 4985SOL    HW115854   5.811   0.280   2.155
 4985SOL    HW215855   5.768   0.424   2.091
 4986SOL     OW15856   0.793   5.173   1.459
 4986SOL    HW115857   0.841   5.161   1.546
 4986SOL    HW215858   0.725   5.101   1.448
 4987SOL     OW15859   1.681   2.583   3.009
 4987SOL    HW115860   1.753   2.628   3.062
 4987SOL    HW215861   1.619   2.653   2.973
 4988SOL     OW15862   6.242   5.463   4.162
 4988SOL    HW115863   6.285   5.476   4.072
 4988SOL    HW215864   6.259   5.369   4.193
 4989SOL     OW15865   6.236   6.923   3.879
 4989SOL    HW115866   6.173   6.845   3.870
 4989SOL    HW215867   6.302   6.921   3.804
 4990SOL     OW15868   4.424   1.907   6.600
 4990SOL    HW115869   4.476   1.889   6.516
 4990SOL    HW215870   4.345   1.846   6.603
 4991SOL     OW15871   1.727   6.054   6.233
 4991SOL    HW115872   1.767   6.087   6.147
 4991SOL    HW215873   1.787   6.081   6.309
 4992SOL     OW15874   1.544   4.102   4.491
 4992SOL    HW115875   1.596   4.025   4.455
 4992SOL    HW215876   1.459   4.069   4.533
 4993SOL     OW15877   2.099   6.241   3.749
 4993SOL    HW115878   2.022   6.181   3.732
 4993SOL    HW215879   2.184   6.190   3.736
 4994SOL     OW15880   3.621   5.163   5.157
 4994SOL    HW115881   3.614   5.080   5.101
 4994SOL    HW215882   3.616   5.139   5.254
 4995SOL     OW15883   0.587   0.909   6.305
 4995SOL    HW115884   0.582   0.836   6.238
 4995SOL    HW215885   0.636   0.987   6.266
 4996SOL     OW15886   6.927   0.762   3.820
 4996SOL    HW115887   6.882   0.781   3.907
 4996SOL    HW215888   6.933   0.846   3.766
 4997SOL     OW15889   4.086   1.602   0.860
 4997SOL    HW115890   4.113   1.698   0.862
 4997SOL    HW215891   4.160   1.546   0.896
 4998SOL     OW15892   0.898   3.920   3.568
 4998SOL    HW115893   0.889   4.014   3.534
 4998SOL    HW215894   0.845   3.858   3.510
 4999SOL     OW15895   0.964   3.126   3.668
 4999SOL    HW115896   1.003   3.138   3.760
 4999SOL    HW215897   0.964   3.214   3.621
 5000SOL     OW15898   2.767   6.714   3.181
 5000SOL    HW115899   2.834   6.716   3.106
 5000SOL    HW215900   2.810   6.673   3.262
 5001SOL     OW15901   0.691   5.692   3.058
 5001SOL    HW115902   0.623   5.723   3.125
 5001SOL    HW215903   0.765   5.759   3.053
 5002SOL     OW15904   1.332   4.874   3.972
 5002SOL    HW115905   1.246   4.926   3.976
 5002SOL    HW215906   1.396   4.910   4.040
 5003SOL     OW15907   3.457   0.483   2.400
 5003SOL    HW115908   3.449   0.561   2.462
 5003SOL    HW215909   3.533   0.425   2.430
 5004SOL     OW15910   3.861   5.939   0.315
 5004SOL    HW115911   3.862   5.850   0.361
 5004SOL    HW215912   3.929   5.999   0.356
 5005SOL     OW15913   3.318   2.480   1.189
 5005SOL    HW115914   3.381   2.473   1.266
 5005SOL    HW215915   3.272   2.392   1.176
 5006SOL     OW15916   5.451   0.823   2.225
 5006SOL    HW115917   5.498   0.839   2.312
 5006SOL    HW215918   5.491   0.882   2.155
 5007SOL     OW15919   6.292   5.669   2.288
 5007SOL    HW115920   6.350   5.619   2.224
 5007SOL    HW215921   6.231   5.604   2.335
 5008SOL     OW15922   5.060   0.305   3.560
 5008SOL    HW115923   5.146   0.295   3.509
 5008SOL    HW215924   5.032   0.401   3.558
 5009SOL     OW15925   0.548   1.793   0.521
 5009SOL    HW115926   0.604   1.737   0.583
 5009SOL    HW215927   0.602   1.870   0.488
 5010SOL     OW15928   4.693   3.593   1.303
 5010SOL    HW115929   4.609   3.637   1.331
 5010SOL    HW215930   4.743   3.652   1.239
 5011SOL     OW15931   1.737   2.420   6.064
 5011SOL    HW115932   1.784   2.355   6.124
 5011SOL    HW215933   1.788   2.430   5.979
 5012SOL     OW15934   6.315   1.326   6.049
 5012SOL    HW115935   6.344   1.273   5.969
 5012SOL    HW215936   6.215   1.331   6.052
 5013SOL     OW15937   5.255   6.949   5.698
 5013SOL    HW115938   5.159   6.952   5.669
 5013SOL    HW215939   5.273   0.003   5.763
 5014SOL     OW15940   5.951   3.341   1.567
 5014SOL    HW115941   6.050   3.351   1.560
 5014SOL    HW215942   5.921   3.365   1.659
 5015SOL     OW15943   6.104   5.488   4.482
 5015SOL    HW115944   6.172   5.558   4.507
 5015SOL    HW215945   6.131   5.401   4.523
 5016SOL     OW15946   1.675   3.161   6.354
 5016SOL    HW115947   1.720   3.247   6.328
 5016SOL    HW215948   1.598   3.180   6.415
 5017SOL     OW15949   0.042   2.780   1.839
 5017SOL    HW115950   7.002   2.860   1.840
 5017SOL    HW215951   0.019   2.721   1.916
 5018SOL     OW15952   1.370   0.624   6.693
 5018SOL    HW115953   1.342   0.720   6.699
 5018SOL    HW215954   1.331   0.574   6.770
 5019SOL     OW15955   1.821   4.553   4.180
 5019SOL    HW115956   1.744   4.596   4.134
 5019SOL    HW215957   1.788   4.499   4.257
 5020SOL     OW15958   1.748   0.465   4.171
 5020SOL    HW115959   1.757   0.556   4.212
 5020SOL    HW215960   1.658   0.427   4.194
 5021SOL     OW15961   2.768   1.005   1.315
 5021SOL    HW115962   2.709   0.986   1.236
 5021SOL    HW215963   2.717   1.060   1.381
 5022SOL     OW15964   6.636   2.744   0.902
 5022SOL    HW115965   6.632   2.767   0.999
 5022SOL    HW215966   6.566   2.795   0.853
 5023SOL     OW15967   0.762   4.004   2.821
 5023SOL    HW115968   0.844   4.027   2.768
 5023SOL    HW215969   0.718   3.924   2.780
 5024SOL     OW15970   4.742   3.820   0.529
 5024SOL    HW115971   4.749   3.832   0.629
 5024SOL    HW215972   4.767   3.906   0.484
 5025SOL     OW15973   4.963   2.011   4.486
 5025SOL    HW115974   4.948   2.084   4.554
 5025SOL    HW215975   4.884   2.007   4.424
 5026SOL     OW15976   5.214   6.383   4.548
 5026SOL    HW115977   5.305   6.354   4.579
 5026SOL    HW215978   5.146   6.314   4.576
 5027SOL     OW15979   5.353   6.558   0.862
 5027SOL    HW115980   5.427   6.598   0.808
 5027SOL    HW215981   5.268   6.606   0.841
 5028SOL     OW15982   6.221   1.839   2.113
 5028SOL    HW115983   6.284   1.917   2.117
 5028SOL    HW215984   6.265   1.758   2.151
 5029SOL     OW15985   4.859   1.919   2.445
 5029SOL    HW115986   4.919   1.945   2.520
 5029SOL    HW215987   4.859   1.819   2.436
 5030SOL     OW15988   0.196   3.695   7.013
 5030SOL    HW115989   0.119   3.733   6.960
 5030SOL    HW215990   0.248   3.771   0.034
 5031SOL     OW15991   6.438   0.283   5.845
 5031SOL    HW115992   6.465   0.336   5.925
 5031SOL    HW215993   6.402   0.194   5.874
 5032SOL     OW15994   2.644   3.616   6.017
 5032SOL    HW115995   2.681   3.532   6.057
 5032SOL    HW215996   2.623   3.681   6.089
 5033SOL     OW15997   2.320   0.106   6.071
 5033SOL    HW115998   2.365   0.086   6.159
 5033SOL    HW215999   2.387   0.094   5.997
 5034SOL     OW16000   4.340   6.195   4.704
 5034SOL    HW116001   4.247   6.230   4.707
 5034SOL    HW216002   4.379   6.194   4.796
 5035SOL     OW16003   2.116   3.821   4.025
 5035SOL    HW116004   2.154   3.831   4.117
 5035SOL    HW216005   2.190   3.801   3.961
 5036SOL     OW16006   1.143   2.708   4.646
 5036SOL    HW116007   1.221   2.658   4.607
 5036SOL    HW216008   1.115   2.779   4.581
 5037SOL     OW16009   4.647   4.089   0.964
 5037SOL    HW116010   4.589   4.038   1.027
 5037SOL    HW216011   4.671   4.177   1.005
 5038SOL     OW16012   3.219   3.729   3.397
 5038SOL    HW116013   3.235   3.634   3.422
 5038SOL    HW216014   3.292   3.761   3.337
 5039SOL     OW16015   1.167   3.802   0.388
 5039SOL    HW116016   1.111   3.819   0.307
 5039SOL    HW216017   1.250   3.752   0.361
 5040SOL     OW16018   0.225   1.608   5.356
 5040SOL    HW116019   0.172   1.621   5.440
 5040SOL    HW216020   0.310   1.659   5.362
 5041SOL     OW16021   6.862   2.292   1.322
 5041SOL    HW116022   6.926   2.221   1.293
 5041SOL    HW216023   6.822   2.336   1.241
 5042SOL     OW16024   1.196   2.308   5.905
 5042SOL    HW116025   1.280   2.360   5.917
 5042SOL    HW216026   1.145   2.344   5.827
 5043SOL     OW16027   3.511   6.601   1.755
 5043SOL    HW116028   3.511   6.700   1.750
 5043SOL    HW216029   3.446   6.564   1.688
 5044SOL     OW16030   0.047   5.550   6.952
 5044SOL    HW116031   0.097   5.631   6.920
 5044SOL    HW216032   0.101   5.468   6.934
 5045SOL     OW16033   5.681   2.545   0.263
 5045SOL    HW116034   5.595   2.562   0.214
 5045SOL    HW216035   5.662   2.500   0.350
 5046SOL     OW16036   3.824   3.296   2.310
 5046SOL    HW116037   3.804   3.245   2.394
 5046SOL    HW216038   3.893   3.366   2.328
 5047SOL     OW16039   2.098   3.859   3.670
 5047SOL    HW116040   2.009   3.862   3.716
 5047SOL    HW216041   2.135   3.766   3.676
 5048SOL     OW16042   2.376   0.341   6.685
 5048SOL    HW116043   2.360   0.242   6.691
 5048SOL    HW216044   2.352   0.384   6.772
 5049SOL     OW16045   4.583   2.131   0.203
 5049SOL    HW116046   4.505   2.184   0.238
 5049SOL    HW216047   4.622   2.077   0.278
 5050SOL     OW16048   1.502   0.509   0.708
 5050SOL    HW116049   1.448   0.534   0.789
 5050SOL    HW216050   1.444   0.513   0.627
 5051SOL     OW16051   4.766   5.235   1.434
 5051SOL    HW116052   4.750   5.188   1.347
 5051SOL    HW216053   4.842   5.192   1.482
 5052SOL     OW16054   1.965   2.657   4.939
 5052SOL    HW116055   1.872   2.626   4.922
 5052SOL    HW216056   1.965   2.756   4.954
 5053SOL     OW16057   0.277   1.067   1.748
 5053SOL    HW116058   0.217   1.146   1.760
 5053SOL    HW216059   0.280   1.042   1.651
 5054SOL     OW16060   4.066   5.270   3.719
 5054SOL    HW116061   4.112   5.330   3.785
 5054SOL    HW216062   4.112   5.181   3.718
 5055SOL     OW16063   0.366   3.466   5.872
 5055SOL    HW116064   0.292   3.529   5.899
 5055SOL    HW216065   0.432   3.515   5.815
 5056SOL     OW16066   6.312   3.849   3.873
 5056SOL    HW116067   6.265   3.775   3.825
 5056SOL    HW216068   6.286   3.937   3.833
 5057SOL     OW16069   0.302   5.577   2.402
 5057SOL    HW116070   0.313   5.500   2.465
 5057SOL    HW216071   0.210   5.614   2.411
 5058SOL     OW16072   2.811   5.300   5.663
 5058SOL    HW116073   2.713   5.304   5.681
 5058SOL    HW216074   2.842   5.385   5.620
 5059SOL     OW16075   6.854   0.294   2.574
 5059SOL    HW116076   6.836   0.246   2.488
 5059SOL    HW216077   6.941   0.342   2.568
 5060SOL     OW16078   0.098   2.423   6.176
 5060SOL    HW116079   0.127   2.426   6.080
 5060SOL    HW216080   0.082   2.328   6.203
 5061SOL     OW16081   5.314   3.825   1.268
 5061SOL    HW116082   5.371   3.778   1.336
 5061SOL    HW216083   5.277   3.909   1.308
 5062SOL     OW16084   6.450   0.457   0.790
 5062SOL    HW116085   6.365   0.462   0.841
 5062SOL    HW216086   6.527   0.459   0.854
 5063SOL     OW16087   1.443   6.188   2.298
 5063SOL    HW116088   1.378   6.112   2.303
 5063SOL    HW216089   1.488   6.199   2.386
 5064SOL     OW16090   5.045   3.785   0.093
 5064SOL    HW116091   5.056   3.696   0.047
 5064SOL    HW216092   4.952   3.818   0.077
 5065SOL     OW16093   2.733   6.444   5.993
 5065SOL    HW116094   2.650   6.498   6.007
 5065SOL    HW216095   2.784   6.480   5.914
 5066SOL     OW16096   4.985   5.263   1.228
 5066SOL    HW116097   4.961   5.172   1.193
 5066SOL    HW216098   4.907   5.301   1.277
 5067SOL     OW16099   5.324   1.158   6.804
 5067SOL    HW116100   5.286   1.078   6.759
 5067SOL    HW216101   5.338   1.139   6.901
 5068SOL     OW16102   3.640   4.751   1.343
 5068SOL    HW116103   3.654   4.832   1.286
 5068SOL    HW216104   3.722   4.693   1.339
 5069SOL     OW16105   6.740   5.393   2.875
 5069SOL    HW116106   6.695   5.306   2.891
 5069SOL    HW216107   6.729   5.419   2.779
 5070SOL     OW16108   4.869   3.474   3.840
 5070SOL    HW116109   4.859   3.435   3.749
 5070SOL    HW216110   4.823   3.416   3.907
 5071SOL     OW16111   4.174   1.025   6.942
 5071SOL    HW116112   4.162   1.028   0.022
 5071SOL    HW216113   4.271   1.013   6.921
 5072SOL     OW16114   0.949   3.845   1.212
 5072SOL    HW116115   0.986   3.808   1.127
 5072SOL    HW216116   1.004   3.922   1.242
 5073SOL     OW16117   4.421   2.111   4.354
 5073SOL    HW116118   4.383   2.040   4.413
 5073SOL    HW216119   4.351   2.143   4.290
 5074SOL     OW16120   4.145   4.831   4.783
 5074SOL    HW116121   4.243   4.831   4.802
 5074SOL    HW216122   4.099   4.891   4.849
 5075SOL     OW16123   6.522   6.847   4.010
 5075SOL    HW116124   6.563   6.925   3.962
 5075SOL    HW216125   6.445   6.879   4.065
 5076SOL     OW16126   4.065   0.774   1.447
 5076SOL    HW116127   4.014   0.818   1.373
 5076SOL    HW216128   4.041   0.816   1.534
 5077SOL     OW16129   6.823   2.695   2.245
 5077SOL    HW116130   6.794   2.770   2.304
 5077SOL    HW216131   6.820   2.609   2.296
 5078SOL     OW16132   6.829   1.218   4.147
 5078SOL    HW116133   6.793   1.125   4.157
 5078SOL    HW216134   6.894   1.238   4.220
 5079SOL     OW16135   4.572   4.800   4.927
 5079SOL    HW116136   4.528   4.865   4.865
 5079SOL    HW216137   4.593   4.716   4.878
 5080SOL     OW16138   5.967   0.323   5.592
 5080SOL    HW116139   5.906   0.385   5.641
 5080SOL    HW216140   6.060   0.333   5.628
 5081SOL     OW16141   3.379   3.465   2.590
 5081SOL    HW116142   3.364   3.370   2.563
 5081SOL    HW216143   3.300   3.520   2.562
 5082SOL     OW16144   0.059   0.125   5.957
 5082SOL    HW116145   0.119   0.130   6.037
 5082SOL    HW216146   0.018   0.034   5.952
 5083SOL     OW16147   1.399   5.813   2.001
 5083SOL    HW116148   1.486   5.769   2.022
 5083SOL    HW216149   1.411   5.912   2.000
 5084SOL     OW16150   1.258   5.697   2.238
 5084SOL    HW116151   1.317   5.651   2.305
 5084SOL    HW216152   1.309   5.714   2.154
 5085SOL     OW16153   6.567   3.276   6.648
 5085SOL    HW116154   6.558   3.183   6.684
 5085SOL    HW216155   6.571   3.340   6.725
 5086SOL     OW16156   6.850   5.208   4.542
 5086SOL    HW116157   6.762   5.251   4.561
 5086SOL    HW216158   6.835   5.113   4.512
 5087SOL     OW16159   6.529   5.435   5.147
 5087SOL    HW116160   6.591   5.366   5.184
 5087SOL    HW216161   6.567   5.472   5.063
 5088SOL     OW16162   6.050   0.780   0.311
 5088SOL    HW116163   6.066   0.875   0.335
 5088SOL    HW216164   6.135   0.728   0.323
 5089SOL     OW16165   5.735   2.655   4.478
 5089SOL    HW116166   5.654   2.631   4.532
 5089SOL    HW216167   5.756   2.752   4.491
 5090SOL     OW16168   0.653   5.290   0.695
 5090SOL    HW116169   0.634   5.214   0.757
 5090SOL    HW216170   0.619   5.268   0.603
 5091SOL     OW16171   1.556   6.464   3.706
 5091SOL    HW116172   1.558   6.546   3.764
 5091SOL    HW216173   1.488   6.400   3.741
 5092SOL     OW16174   3.343   3.076   1.185
 5092SOL    HW116175   3.245   3.062   1.201
 5092SOL    HW216176   3.394   2.998   1.220
 5093SOL     OW16177   1.062   2.004   1.181
 5093SOL    HW116178   1.114   2.001   1.095
 5093SOL    HW216179   1.073   1.918   1.229
 5094SOL     OW16180   6.820   0.552   6.958
 5094SOL    HW116181   6.885   0.554   0.014
 5094SOL    HW216182   6.730   0.523   6.992
 5095SOL     OW16183   3.331   0.144   5.294
 5095SOL    HW116184   3.427   0.146   5.266
 5095SOL    HW216185   3.324   0.097   5.382
 5096SOL     OW16186   3.541   6.028   2.969
 5096SOL    HW116187   3.496   6.101   3.021
 5096SOL    HW216188   3.639   6.045   2.966
 5097SOL     OW16189   0.928   1.598   6.117
 5097SOL    HW116190   0.971   1.570   6.031
 5097SOL    HW216191   0.942   1.527   6.186
 5098SOL     OW16192   6.762   2.849   2.680
 5098SOL    HW116193   6.776   2.757   2.717
 5098SOL    HW216194   6.851   2.894   2.668
 5099SOL     OW16195   1.202   0.712   3.937
 5099SOL    HW116196   1.163   0.711   3.845
 5099SOL    HW216197   1.264   0.634   3.948
 5100SOL     OW16198   4.791   5.169   6.076
 5100SOL    HW116199   4.826   5.248   6.127
 5100SOL    HW216200   4.691   5.176   6.069
 5101SOL     OW16201   4.716   6.194   0.623
 5101SOL    HW116202   4.675   6.107   0.647
 5101SOL    HW216203   4.660   6.269   0.659
 5102SOL     OW16204   3.657   5.535   4.142
 5102SOL    HW116205   3.617   5.516   4.232
 5102SOL    HW216206   3.583   5.546   4.075
 5103SOL     OW16207   1.358   1.353   4.208
 5103SOL    HW116208   1.430   1.347   4.277
 5103SOL    HW216209   1.383   1.422   4.139
 5104SOL     OW16210   1.158   0.565   1.135
 5104SOL    HW116211   1.203   0.584   1.222
 5104SOL    HW216212   1.064   0.534   1.152
 5105SOL     OW16213   1.901   2.812   6.028
 5105SOL    HW116214   1.819   2.757   6.044
 5105SOL    HW216215   1.880   2.908   6.045
 5106SOL     OW16216   2.697   0.123   2.602
 5106SOL    HW116217   2.764   0.193   2.625
 5106SOL    HW216218   2.701   0.104   2.504
 5107SOL     OW16219   1.979   6.964   6.700
 5107SOL    HW116220   1.961   6.960   6.798
 5107SOL    HW216221   2.071   7.000   6.684
 5108SOL     OW16222   3.386   3.946   3.945
 5108SOL    HW116223   3.334   4.016   3.994
 5108SOL    HW216224   3.462   3.989   3.896
 5109SOL     OW16225   6.806   2.049   2.251
 5109SOL    HW116226   6.881   2.109   2.222
 5109SOL    HW216227   6.742   2.101   2.308
 5110SOL     OW16228   2.157   5.732   5.311
 5110SOL    HW116229   2.191   5.777   5.229
 5110SOL    HW216230   2.214   5.756   5.389
 5111SOL     OW16231   1.502   1.033   0.170
 5111SOL    HW116232   1.428   1.042   0.102
 5111SOL    HW216233   1.483   0.955   0.229
 5112SOL     OW16234   0.164   0.073   3.178
 5112SOL    HW116235   0.138   6.998   3.195
 5112SOL    HW216236   0.193   0.083   3.083
 5113SOL     OW16237   0.535   0.444   6.338
 5113SOL    HW116238   0.513   0.521   6.398
 5113SOL    HW216239   0.627   0.410   6.359
 5114SOL     OW16240   3.987   5.727   6.492
 5114SOL    HW116241   3.900   5.722   6.543
 5114SOL    HW216242   4.015   5.822   6.484
 5115SOL     OW16243   2.091   3.867   4.897
 5115SOL    HW116244   2.065   3.794   4.961
 5115SOL    HW216245   2.174   3.911   4.930
 5116SOL     OW16246   6.784   3.286   0.591
 5116SOL    HW116247   6.791   3.213   0.659
 5116SOL    HW216248   6.756   3.371   0.636
 5117SOL     OW16249   2.731   4.913   2.884
 5117SOL    HW116250   2.774   4.851   2.949
 5117SOL    HW216251   2.667   4.973   2.932
 5118SOL     OW16252   3.788   6.660   1.873
 5118SOL    HW116253   3.740   6.711   1.944
 5118SOL    HW216254   3.724   6.597   1.829
 5119SOL     OW16255   6.208   0.172   2.681
 5119SOL    HW116256   6.215   0.073   2.689
 5119SOL    HW216257   6.221   0.214   2.771
 5120SOL     OW16258   3.295   1.278   2.504
 5120SOL    HW116259   3.230   1.282   2.428
 5120SOL    HW216260   3.368   1.213   2.483
 5121SOL     OW16261   0.800   3.515   3.789
 5121SOL    HW116262   0.893   3.515   3.752
 5121SOL    HW216263   0.803   3.525   3.888
 5122SOL     OW16264   2.432   5.529   3.402
 5122SOL    HW116265   2.480   5.472   3.335
 5122SOL    HW216266   2.492   5.602   3.433
 5123SOL     OW16267   6.443   3.348   2.021
 5123SOL    HW116268   6.498   3.390   2.094
 5123SOL    HW216269   6.382   3.417   1.981
 5124SOL     OW16270   2.570   6.240   0.598
 5124SOL    HW116271   2.641   6.197   0.654
 5124SOL    HW216272   2.501   6.172   0.574
 5125SOL     OW16273   6.988   2.040   5.684
 5125SOL    HW116274   7.013   2.107   5.754
 5125SOL    HW216275   0.046   2.025   5.623
 5126SOL     OW16276   4.355   2.277   0.229
 5126SOL    HW116277   4.387   2.297   0.322
 5126SOL    HW216278   4.384   2.350   0.167
 5127SOL     OW16279   5.655   3.446   6.493
 5127SOL    HW116280   5.597   3.519   6.456
 5127SOL    HW216281   5.651   3.449   6.593
 5128SOL     OW16282   6.622   0.013   6.427
 5128SOL    HW116283   6.654   0.014   6.522
 5128SOL    HW216284   6.643   0.101   6.384
 5129SOL     OW16285   5.035   2.671   3.450
 5129SOL    HW116286   4.976   2.730   3.504
 5129SOL    HW216287   4.999   2.663   3.357
 5130SOL     OW16288   1.886   6.562   5.032
 5130SOL    HW116289   1.824   6.490   5.001
 5130SOL    HW216290   1.960   6.521   5.086
 5131SOL     OW16291   3.581   4.864   3.433
 5131SOL    HW116292   3.564   4.850   3.531
 5131SOL    HW216293   3.551   4.956   3.407
 5132SOL     OW16294   4.054   2.211   6.932
 5132SOL    HW116295   4.140   2.235   6.887
 5132SOL    HW216296   4.071   2.195   0.010
 5133SOL     OW16297   4.943   4.548   6.826
 5133SOL    HW116298   4.927   4.511   6.918
 5133SOL    HW216299   5.034   4.520   6.794
 5134SOL     OW16300   5.772   5.750   0.172
 5134SOL    HW116301   5.703   5.757   0.244
 5134SOL    HW216302   5.855   5.708   0.210
 5135SOL     OW16303   6.334   3.142   2.310
 5135SOL    HW116304   6.296   3.075   2.374
 5135SOL    HW216305   6.267   3.161   2.238
 5136SOL     OW16306   0.531   1.042   4.616
 5136SOL    HW116307   0.532   1.139   4.595
 5136SOL    HW216308   0.605   1.021   4.680
 5137SOL     OW16309   5.301   0.262   3.398
 5137SOL    HW116310   5.350   0.196   3.454
 5137SOL    HW216311   5.281   0.222   3.309
 5138SOL     OW16312   3.029   3.292   2.217
 5138SOL    HW116313   3.056   3.207   2.172
 5138SOL    HW216314   2.947   3.329   2.172
 5139SOL     OW16315   4.448   0.396   4.886
 5139SOL    HW116316   4.392   0.389   4.803
 5139SOL    HW216317   4.440   0.489   4.924
 5140SOL     OW16318   3.297   4.012   6.464
 5140SOL    HW116319   3.293   4.076   6.541
 5140SOL    HW216320   3.288   3.919   6.497
 5141SOL     OW16321   1.231   2.897   1.397
 5141SOL    HW116322   1.178   2.813   1.402
 5141SOL    HW216323   1.301   2.897   1.469
 5142SOL     OW16324   0.755   0.081   2.583
 5142SOL    HW116325   0.734   0.179   2.583
 5142SOL    HW216326   0.841   0.065   2.630
 5143SOL     OW16327   6.784   5.925   1.774
 5143SOL    HW116328   6.819   5.917   1.868
 5143SOL    HW216329   6.718   5.852   1.757
 5144SOL     OW16330   2.153   3.422   4.916
 5144SOL    HW116331   2.226   3.490   4.917
 5144SOL    HW216332   2.179   3.344   4.972
 5145SOL     OW16333   2.347   5.809   5.505
 5145SOL    HW116334   2.327   5.812   5.603
 5145SOL    HW216335   2.445   5.796   5.491
 5146SOL     OW16336   5.972   5.752   6.550
 5146SOL    HW116337   6.027   5.719   6.626
 5146SOL    HW216338   6.000   5.705   6.466
 5147SOL     OW16339   5.832   2.293   3.831
 5147SOL    HW116340   5.771   2.291   3.910
 5147SOL    HW216341   5.817   2.211   3.775
 5148SOL     OW16342   6.464   1.537   0.318
 5148SOL    HW116343   6.380   1.571   0.361
 5148SOL    HW216344   6.454   1.538   0.219
 5149SOL     OW16345   4.508   5.816   4.401
 5149SOL    HW116346   4.423   5.794   4.451
 5149SOL    HW216347   4.562   5.733   4.390
 5150SOL     OW16348   6.481   0.664   3.628
 5150SOL    HW116349   6.463   0.576   3.672
 5150SOL    HW216350   6.513   0.730   3.697
 5151SOL     OW16351   5.378   5.149   1.489
 5151SOL    HW116352   5.439   5.085   1.442
 5151SOL    HW216353   5.414   5.169   1.580
 5152SOL     OW16354   2.385   2.158   0.517
 5152SOL    HW116355   2.455   2.105   0.565
 5152SOL    HW216356   2.301   2.159   0.573
 5153SOL     OW16357   2.494   2.375   0.382
 5153SOL    HW116358   2.463   2.289   0.423
 5153SOL    HW216359   2.428   2.404   0.312
 5154SOL     OW16360   0.431   2.521   0.611
 5154SOL    HW116361   0.419   2.561   0.520
 5154SOL    HW216362   0.515   2.466   0.612
 5155SOL     OW16363   1.630   1.229   0.348
 5155SOL    HW116364   1.539   1.187   0.347
 5155SOL    HW216365   1.669   1.228   0.256
 5156SOL     OW16366   5.321   5.011   6.258
 5156SOL    HW116367   5.330   5.109   6.279
 5156SOL    HW216368   5.313   4.960   6.343
 5157SOL     OW16369   3.848   1.061   1.954
 5157SOL    HW116370   3.891   1.057   2.044
 5157SOL    HW216371   3.839   1.157   1.927
 5158SOL     OW16372   1.492   2.416   1.916
 5158SOL    HW116373   1.395   2.415   1.891
 5158SOL    HW216374   1.519   2.327   1.951
 5159SOL     OW16375   6.556   3.071   5.833
 5159SOL    HW116376   6.526   3.016   5.755
 5159SOL    HW216377   6.606   3.012   5.897
 5160SOL     OW16378   6.748   7.011   3.247
 5160SOL    HW116379   6.804   0.072   3.268
 5160SOL    HW216380   6.803   6.947   3.193
 5161SOL     OW16381   1.245   2.054   5.845
 5161SOL    HW116382   1.233   2.147   5.878
 5161SOL    HW216383   1.335   2.045   5.802
 5162SOL     OW16384   0.248   6.847   4.953
 5162SOL    HW116385   0.333   6.793   4.956
 5162SOL    HW216386   0.184   6.813   5.021
 5163SOL     OW16387   2.991   0.801   1.719
 5163SOL    HW116388   2.964   0.893   1.748
 5163SOL    HW216389   2.915   0.760   1.667
 5164SOL     OW16390   2.739   3.969   0.241
 5164SOL    HW116391   2.836   3.967   0.217
 5164SOL    HW216392   2.694   3.886   0.208
 5165SOL     OW16393   1.912   5.175   5.982
 5165SOL    HW116394   1.848   5.113   6.028
 5165SOL    HW216395   1.958   5.126   5.908
 5166SOL     OW16396   0.071   5.190   5.993
 5166SOL    HW116397   0.009   5.149   6.060
 5166SOL    HW216398   0.083   5.287   6.014
 5167SOL     OW16399   5.739   3.588   5.935
 5167SOL    HW116400   5.736   3.687   5.949
 5167SOL    HW216401   5.667   3.545   5.989
 5168SOL     OW16402   4.653   1.898   3.336
 5168SOL    HW116403   4.573   1.881   3.279
 5168SOL    HW216404   4.680   1.813   3.382
 5169SOL     OW16405   5.557   5.714   4.161
 5169SOL    HW116406   5.547   5.628   4.210
 5169SOL    HW216407   5.581   5.787   4.225
 5170SOL     OW16408   2.003   4.240   6.107
 5170SOL    HW116409   2.088   4.187   6.101
 5170SOL    HW216410   1.985   4.284   6.019
 5171SOL     OW16411   2.284   6.407   6.224
 5171SOL    HW116412   2.202   6.461   6.202
 5171SOL    HW216413   2.287   6.390   6.323
 5172SOL     OW16414   5.818   5.404   6.390
 5172SOL    HW116415   5.778   5.317   6.364
 5172SOL    HW216416   5.751   5.477   6.377
 5173SOL     OW16417   4.443   5.463   4.548
 5173SOL    HW116418   4.357   5.419   4.576
 5173SOL    HW216419   4.431   5.563   4.550
 5174SOL     OW16420   1.299   6.315   2.871
 5174SOL    HW116421   1.212   6.265   2.870
 5174SOL    HW216422   1.281   6.412   2.888
 5175SOL     OW16423   2.353   2.308   6.296
 5175SOL    HW116424   2.398   2.397   6.287
 5175SOL    HW216425   2.388   2.246   6.227
 5176SOL     OW16426   6.037   6.079   6.648
 5176SOL    HW116427   5.955   6.108   6.598
 5176SOL    HW216428   6.106   6.151   6.644
 5177SOL     OW16429   5.102   5.947   0.561
 5177SOL    HW116430   5.102   6.027   0.501
 5177SOL    HW216431   5.020   5.892   0.544
 5178SOL     OW16432   0.463   4.092   1.130
 5178SOL    HW116433   0.553   4.050   1.118
 5178SOL    HW216434   0.432   4.130   1.043
 5179SOL     OW16435   5.113   5.519   3.086
 5179SOL    HW116436   5.211   5.498   3.090
 5179SOL    HW216437   5.061   5.438   3.112
 5180SOL     OW16438   1.820   4.734   2.092
 5180SOL    HW116439   1.886   4.692   2.155
 5180SOL    HW216440   1.868   4.788   2.023
 5181SOL     OW16441   6.990   1.520   5.293
 5181SOL    HW116442   0.060   1.564   5.290
 5181SOL    HW216443   7.001   1.422   5.313
 5182SOL     OW16444   2.495   6.698   2.025
 5182SOL    HW116445   2.535   6.609   2.001
 5182SOL    HW216446   2.423   6.685   2.093
 5183SOL     OW16447   4.592   2.615   3.549
 5183SOL    HW116448   4.561   2.634   3.642
 5183SOL    HW216449   4.652   2.535   3.550
 5184SOL     OW16450   2.056   1.912   2.619
 5184SOL    HW116451   2.076   1.982   2.550
 5184SOL    HW216452   2.141   1.883   2.662
 5185SOL     OW16453   6.522   6.726   1.927
 5185SOL    HW116454   6.516   6.823   1.952
 5185SOL    HW216455   6.613   6.707   1.892
 5186SOL     OW16456   5.916   2.361   6.855
 5186SOL    HW116457   5.956   2.442   6.898
 5186SOL    HW216458   5.971   2.281   6.879
 5187SOL     OW16459   1.814   4.784   5.151
 5187SOL    HW116460   1.844   4.808   5.059
 5187SOL    HW216461   1.715   4.766   5.150
 5188SOL     OW16462   6.934   0.920   1.819
 5188SOL    HW116463   6.976   1.004   1.854
 5188SOL    HW216464   6.901   0.865   1.895
 5189SOL     OW16465   4.849   5.975   6.851
 5189SOL    HW116466   4.900   6.046   6.802
 5189SOL    HW216467   4.773   5.944   6.793
 5190SOL     OW16468   1.588   4.794   0.704
 5190SOL    HW116469   1.654   4.820   0.634
 5190SOL    HW216470   1.502   4.844   0.690
 5191SOL     OW16471   2.747   4.266   1.716
 5191SOL    HW116472   2.742   4.275   1.616
 5191SOL    HW216473   2.795   4.345   1.754
 5192SOL     OW16474   0.835   4.631   2.928
 5192SOL    HW116475   0.814   4.533   2.930
 5192SOL    HW216476   0.912   4.649   2.988
 5193SOL     OW16477   4.594   0.884   5.691
 5193SOL    HW116478   4.506   0.902   5.649
 5193SOL    HW216479   4.600   0.787   5.716
 5194SOL     OW16480   4.514   1.855   4.824
 5194SOL    HW116481   4.503   1.891   4.917
 5194SOL    HW216482   4.452   1.778   4.810
 5195SOL     OW16483   1.456   0.494   5.368
 5195SOL    HW116484   1.514   0.559   5.317
 5195SOL    HW216485   1.452   0.522   5.464
 5196SOL     OW16486   5.716   6.648   3.224
 5196SOL    HW116487   5.754   6.591   3.297
 5196SOL    HW216488   5.790   6.686   3.169
 5197SOL     OW16489   1.331   3.209   4.526
 5197SOL    HW116490   1.363   3.163   4.609
 5197SOL    HW216491   1.406   3.262   4.487
 5198SOL     OW16492   5.807   5.067   2.873
 5198SOL    HW116493   5.745   5.100   2.944
 5198SOL    HW216494   5.836   4.974   2.896
 5199SOL     OW16495   0.246   4.562   1.091
 5199SOL    HW116496   0.314   4.493   1.114
 5199SOL    HW216497   0.154   4.522   1.096
 5200SOL     OW16498   6.362   3.453   5.146
 5200SOL    HW116499   6.328   3.544   5.169
 5200SOL    HW216500   6.382   3.402   5.230
 5201SOL     OW16501   0.853   6.144   4.731
 5201SOL    HW116502   0.887   6.161   4.824
 5201SOL    HW216503   0.922   6.095   4.678
 5202SOL     OW16504   0.401   4.210   1.962
 5202SOL    HW116505   0.419   4.124   1.914
 5202SOL    HW216506   0.339   4.266   1.908
 5203SOL     OW16507   6.547   3.414   6.898
 5203SOL    HW116508   6.606   3.494   6.907
 5203SOL    HW216509   6.504   3.395   6.986
 5204SOL     OW16510   5.127   5.240   6.197
 5204SOL    HW116511   5.109   5.144   6.217
 5204SOL    HW216512   5.201   5.273   6.254
 5205SOL     OW16513   2.446   6.509   0.240
 5205SOL    HW116514   2.421   6.422   0.197
 5205SOL    HW216515   2.420   6.507   0.337
 5206SOL     OW16516   0.053   4.263   4.483
 5206SOL    HW116517   0.138   4.315   4.469
 5206SOL    HW216518   0.019   4.281   4.575
 5207SOL     OW16519   1.896   4.891   3.228
 5207SOL    HW116520   1.940   4.814   3.181
 5207SOL    HW216521   1.801   4.897   3.199
 5208SOL     OW16522   5.392   1.124   0.035
 5208SOL    HW116523   5.474   1.090   0.081
 5208SOL    HW216524   5.342   1.184   0.097
 5209SOL     OW16525   5.405   5.114   3.350
 5209SOL    HW116526   5.348   5.097   3.269
 5209SOL    HW216527   5.487   5.165   3.322
 5210SOL     OW16528   4.660   4.569   3.036
 5210SOL    HW116529   4.678   4.522   2.949
 5210SOL    HW216530   4.706   4.657   3.037
 5211SOL     OW16531   2.905   3.653   2.166
 5211SOL    HW116532   2.996   3.686   2.190
 5211SOL    HW216533   2.849   3.730   2.135
 5212SOL     OW16534   0.503   0.169   6.292
 5212SOL    HW116535   0.583   0.152   6.234
 5212SOL    HW216536   0.510   0.261   6.331
 5213SOL     OW16537   4.352   2.174   6.550
 5213SOL    HW116538   4.272   2.186   6.492
 5213SOL    HW216539   4.369   2.076   6.563
 5214SOL     OW16540   4.919   1.533   0.254
 5214SOL    HW116541   4.993   1.589   0.290
 5214SOL    HW216542   4.891   1.568   0.164
 5215SOL     OW16543   5.624   4.978   3.707
 5215SOL    HW116544   5.621   5.068   3.749
 5215SOL    HW216545   5.628   4.988   3.607
 5216SOL     OW16546   4.101   5.890   1.695
 5216SOL    HW116547   4.128   5.896   1.791
 5216SOL    HW216548   4.143   5.809   1.653
 5217SOL     OW16549   2.944   4.829   3.679
 5217SOL    HW116550   2.914   4.798   3.769
 5217SOL    HW216551   3.044   4.840   3.680
 5218SOL     OW16552   2.295   6.951   4.107
 5218SOL    HW116553   2.264   6.919   4.017
 5218SOL    HW216554   2.217   6.981   4.160
 5219SOL     OW16555   2.197   6.928   0.685
 5219SOL    HW116556   2.208   6.829   0.690
 5219SOL    HW216557   2.164   6.963   0.773
 5220SOL     OW16558   1.413   6.643   1.718
 5220SOL    HW116559   1.330   6.693   1.691
 5220SOL    HW216560   1.415   6.633   1.817
 5221SOL     OW16561   3.845   1.313   6.941
 5221SOL    HW116562   3.881   1.235   6.889
 5221SOL    HW216563   3.747   1.300   6.957
 5222SOL     OW16564   0.721   6.826   2.520
 5222SOL    HW116565   0.716   6.924   2.538
 5222SOL    HW216566   0.660   6.802   2.445
 5223SOL     OW16567   4.838   6.755   1.093
 5223SOL    HW116568   4.788   6.738   1.178
 5223SOL    HW216569   4.911   6.822   1.110
 5224SOL     OW16570   5.668   1.152   3.271
 5224SOL    HW116571   5.751   1.098   3.284
 5224SOL    HW216572   5.690   1.241   3.233
 5225SOL     OW16573   6.939   6.590   5.708
 5225SOL    HW116574   6.855   6.545   5.736
 5225SOL    HW216575   6.995   6.609   5.788
 5226SOL     OW16576   2.656   6.341   4.054
 5226SOL    HW116577   2.744   6.292   4.059
 5226SOL    HW216578   2.650   6.389   3.967
 5227SOL     OW16579   5.419   3.403   3.804
 5227SOL    HW116580   5.423   3.491   3.851
 5227SOL    HW216581   5.325   3.367   3.808
 5228SOL     OW16582   5.073   0.856   1.263
 5228SOL    HW116583   5.081   0.767   1.307
 5228SOL    HW216584   5.142   0.865   1.191
 5229SOL     OW16585   1.319   4.248   3.497
 5229SOL    HW116586   1.390   4.312   3.524
 5229SOL    HW216587   1.243   4.298   3.455
 5230SOL     OW16588   1.390   6.942   5.816
 5230SOL    HW116589   1.422   6.942   5.911
 5230SOL    HW216590   1.468   6.950   5.755
 5231SOL     OW16591   3.228   2.939   2.903
 5231SOL    HW116592   3.269   2.919   2.814
 5231SOL    HW216593   3.135   2.901   2.905
 5232SOL     OW16594   5.296   2.906   5.347
 5232SOL    HW116595   5.348   2.823   5.327
 5232SOL    HW216596   5.220   2.884   5.407
 5233SOL     OW16597   0.685   0.482   2.923
 5233SOL    HW116598   0.742   0.460   2.844
 5233SOL    HW216599   0.698   0.578   2.949
 5234SOL     OW16600   3.841   5.313   1.395
 5234SOL    HW116601   3.929   5.355   1.375
 5234SOL    HW216602   3.849   5.256   1.477
 5235SOL     OW16603   0.587   3.231   1.168
 5235SOL    HW116604   0.577   3.173   1.249
 5235SOL    HW216605   0.555   3.182   1.087
 5236SOL     OW16606   6.047   3.206   0.734
 5236SOL    HW116607   6.069   3.150   0.653
 5236SOL    HW216608   6.132   3.230   0.781
 5237SOL     OW16609   1.797   1.748   3.686
 5237SOL    HW116610   1.890   1.754   3.649
 5237SOL    HW216611   1.740   1.819   3.644
 5238SOL     OW16612   2.125   3.586   0.997
 5238SOL    HW116613   2.117   3.599   0.898
 5238SOL    HW216614   2.035   3.562   1.034
 5239SOL     OW16615   2.866   3.417   4.371
 5239SOL    HW116616   2.816   3.390   4.454
 5239SOL    HW216617   2.895   3.512   4.379
 5240SOL     OW16618   3.643   1.746   4.851
 5240SOL    HW116619   3.557   1.756   4.801
 5240SOL    HW216620   3.661   1.828   4.905
 5241SOL     OW16621   2.924   5.548   5.557
 5241SOL    HW116622   2.866   5.597   5.492
 5241SOL    HW216623   3.010   5.597   5.570
 5242SOL     OW16624   4.823   0.702   4.961
 5242SOL    HW116625   4.767   0.751   5.026
 5242SOL    HW216626   4.808   0.738   4.869
 5243SOL     OW16627   0.736   4.381   0.444
 5243SOL    HW116628   0.834   4.400   0.434
 5243SOL    HW216629   0.707   4.408   0.536
 5244SOL     OW16630   5.858   3.263   0.053
 5244SOL    HW116631   5.809   3.176   0.058
 5244SOL    HW216632   5.885   3.281   6.978
 5245SOL     OW16633   4.402   4.809   6.321
 5245SOL    HW116634   4.442   4.728   6.363
 5245SOL    HW216635   4.470   4.882   6.318
 5246SOL     OW16636   1.398   3.614   3.019
 5246SOL    HW116637   1.327   3.545   3.029
 5246SOL    HW216638   1.364   3.702   3.052
 5247SOL     OW16639   0.271   4.465   0.817
 5247SOL    HW116640   0.276   4.544   0.756
 5247SOL    HW216641   0.277   4.496   0.912
 5248SOL     OW16642   5.164   0.985   0.282
 5248SOL    HW116643   5.092   0.957   0.345
 5248SOL    HW216644   5.129   1.057   0.221
 5249SOL     OW16645   1.451   5.746   6.526
 5249SOL    HW116646   1.507   5.697   6.593
 5249SOL    HW216647   1.511   5.798   6.465
 5250SOL     OW16648   1.298   1.508   5.608
 5250SOL    HW116649   1.219   1.562   5.637
 5250SOL    HW216650   1.306   1.510   5.509
 5251SOL     OW16651   1.098   2.818   0.468
 5251SOL    HW116652   1.034   2.801   0.543
 5251SOL    HW216653   1.163   2.743   0.461
 5252SOL     OW16654   5.158   6.786   1.329
 5252SOL    HW116655   5.088   6.853   1.304
 5252SOL    HW216656   5.134   6.697   1.291
 5253SOL     OW16657   6.008   2.725   3.749
 5253SOL    HW116658   6.004   2.664   3.828
 5253SOL    HW216659   6.015   2.670   3.665
 5254SOL     OW16660   4.993   0.512   4.286
 5254SOL    HW116661   5.058   0.539   4.215
 5254SOL    HW216662   5.043   0.471   4.362
 5255SOL     OW16663   3.089   6.038   4.437
 5255SOL    HW116664   3.144   6.052   4.519
 5255SOL    HW216665   3.014   5.975   4.458
 5256SOL     OW16666   5.141   6.431   2.288
 5256SOL    HW116667   5.043   6.413   2.292
 5256SOL    HW216668   5.163   6.514   2.339
 5257SOL     OW16669   3.378   1.287   3.620
 5257SOL    HW116670   3.466   1.313   3.580
 5257SOL    HW216671   3.304   1.330   3.569
 5258SOL     OW16672   5.987   2.026   2.065
 5258SOL    HW116673   5.905   2.084   2.062
 5258SOL    HW216674   6.068   2.083   2.074
 5259SOL     OW16675   5.478   4.386   1.504
 5259SOL    HW116676   5.384   4.400   1.535
 5259SOL    HW216677   5.529   4.338   1.576
 5260SOL     OW16678   5.082   2.599   1.688
 5260SOL    HW116679   4.998   2.652   1.679
 5260SOL    HW216680   5.082   2.552   1.777
 5261SOL     OW16681   2.492   2.503   4.612
 5261SOL    HW116682   2.463   2.438   4.682
 5261SOL    HW216683   2.585   2.482   4.583
 5262SOL     OW16684   1.639   0.010   1.535
 5262SOL    HW116685   1.546   0.001   1.571
 5262SOL    HW216686   1.634   0.043   1.441
 5263SOL     OW16687   1.090   6.403   0.067
 5263SOL    HW116688   1.032   6.362   0.137
 5263SOL    HW216689   1.038   6.415   7.003
 5264SOL     OW16690   1.074   1.736   1.226
 5264SOL    HW116691   0.984   1.693   1.233
 5264SOL    HW216692   1.142   1.667   1.201
 5265SOL     OW16693   5.545   4.877   3.424
 5265SOL    HW116694   5.502   4.806   3.368
 5265SOL    HW216695   5.504   4.966   3.403
 5266SOL     OW16696   1.272   6.871   1.049
 5266SOL    HW116697   1.294   6.887   1.145
 5266SOL    HW216698   1.305   6.949   0.994
 5267SOL     OW16699   4.512   3.708   5.328
 5267SOL    HW116700   4.546   3.778   5.391
 5267SOL    HW216701   4.586   3.676   5.270
 5268SOL     OW16702   5.754   5.274   5.629
 5268SOL    HW116703   5.764   5.294   5.532
 5268SOL    HW216704   5.763   5.175   5.644
 5269SOL     OW16705   2.153   4.559   5.880
 5269SOL    HW116706   2.227   4.505   5.920
 5269SOL    HW216707   2.085   4.581   5.951
 5270SOL     OW16708   6.641   2.420   3.211
 5270SOL    HW116709   6.641   2.333   3.261
 5270SOL    HW216710   6.576   2.483   3.253
 5271SOL     OW16711   5.491   3.791   5.508
 5271SOL    HW116712   5.472   3.889   5.519
 5271SOL    HW216713   5.575   3.779   5.456
 5272SOL     OW16714   1.618   1.279   4.032
 5272SOL    HW116715   1.642   1.282   4.129
 5272SOL    HW216716   1.701   1.287   3.977
 5273SOL     OW16717   0.197   0.280   5.013
 5273SOL    HW116718   0.113   0.303   5.061
 5273SOL    HW216719   0.179   0.207   4.947
 5274SOL     OW16720   0.733   5.618   4.755
 5274SOL    HW116721   0.646   5.571   4.741
 5274SOL    HW216722   0.782   5.624   4.668
 5275SOL     OW16723   1.452   6.601   6.890
 5275SOL    HW116724   1.545   6.569   6.909
 5275SOL    HW216725   1.397   6.524   6.857
 5276SOL     OW16726   0.157   0.010   0.683
 5276SOL    HW116727   0.118   0.012   0.591
 5276SOL    HW216728   0.186   0.103   0.710
 5277SOL     OW16729   0.516   1.255   2.665
 5277SOL    HW116730   0.431   1.307   2.656
 5277SOL    HW216731   0.525   1.192   2.588
 5278SOL     OW16732   0.799   3.494   6.214
 5278SOL    HW116733   0.791   3.586   6.253
 5278SOL    HW216734   0.716   3.472   6.163
 5279SOL     OW16735   2.821   6.393   6.851
 5279SOL    HW116736   2.775   6.424   6.768
 5279SOL    HW216737   2.821   6.467   6.918
 5280SOL     OW16738   4.716   6.383   4.889
 5280SOL    HW116739   4.750   6.292   4.912
 5280SOL    HW216740   4.779   6.428   4.826
 5281SOL     OW16741   2.924   6.866   5.052
 5281SOL    HW116742   2.842   6.921   5.038
 5281SOL    HW216743   2.949   6.868   5.149
 5282SOL     OW16744   0.620   6.910   0.804
 5282SOL    HW116745   0.636   6.890   0.708
 5282SOL    HW216746   0.545   6.976   0.813
 5283SOL     OW16747   0.699   1.113   4.006
 5283SOL    HW116748   0.784   1.136   4.052
 5283SOL    HW216749   0.664   1.193   3.957
 5284SOL     OW16750   4.924   3.409   1.981
 5284SOL    HW116751   4.882   3.418   1.891
 5284SOL    HW216752   5.000   3.345   1.977
 5285SOL     OW16753   1.457   2.001   4.008
 5285SOL    HW116754   1.364   2.000   4.043
 5285SOL    HW216755   1.457   2.031   3.912
 5286SOL     OW16756   6.515   2.763   1.603
 5286SOL    HW116757   6.581   2.732   1.534
 5286SOL    HW216758   6.468   2.845   1.570
 5287SOL     OW16759   1.296   5.348   1.492
 5287SOL    HW116760   1.238   5.429   1.501
 5287SOL    HW216761   1.289   5.313   1.399
 5288SOL     OW16762   3.965   0.759   1.801
 5288SOL    HW116763   3.901   0.760   1.878
 5288SOL    HW216764   4.049   0.712   1.828
 5289SOL     OW16765   2.601   4.345   6.073
 5289SOL    HW116766   2.653   4.376   5.993
 5289SOL    HW216767   2.503   4.350   6.052
 5290SOL     OW16768   1.846   3.446   4.523
 5290SOL    HW116769   1.845   3.424   4.426
 5290SOL    HW216770   1.777   3.390   4.570
 5291SOL     OW16771   3.377   4.950   4.514
 5291SOL    HW116772   3.452   4.928   4.452
 5291SOL    HW216773   3.318   5.018   4.471
 5292SOL     OW16774   0.392   3.834   4.682
 5292SOL    HW116775   0.483   3.811   4.715
 5292SOL    HW216776   0.354   3.908   4.737
 5293SOL     OW16777   2.280   0.129   4.359
 5293SOL    HW116778   2.205   0.131   4.293
 5293SOL    HW216779   2.267   0.054   4.423
 5294SOL     OW16780   4.950   6.938   4.820
 5294SOL    HW116781   4.929   7.009   4.887
 5294SOL    HW216782   4.876   6.934   4.753
 5295SOL     OW16783   2.026   0.916   2.288
 5295SOL    HW116784   2.104   0.967   2.325
 5295SOL    HW216785   2.038   0.903   2.190
 5296SOL     OW16786   4.582   4.750   1.495
 5296SOL    HW116787   4.482   4.750   1.500
 5296SOL    HW216788   4.615   4.656   1.485
 5297SOL     OW16789   2.531   5.850   6.242
 5297SOL    HW116790   2.438   5.877   6.216
 5297SOL    HW216791   2.594   5.869   6.166
 5298SOL     OW16792   2.115   1.600   0.342
 5298SOL    HW116793   2.108   1.561   0.250
 5298SOL    HW216794   2.118   1.699   0.336
 5299SOL     OW16795   2.251   0.797   1.667
 5299SOL    HW116796   2.311   0.781   1.590
 5299SOL    HW216797   2.165   0.837   1.635
 5300SOL     OW16798   2.979   5.112   0.059
 5300SOL    HW116799   3.022   5.188   0.108
 5300SOL    HW216800   3.040   5.033   0.061
 5301SOL     OW16801   6.131   0.164   6.030
 5301SOL    HW116802   6.048   0.147   5.977
 5301SOL    HW216803   6.211   0.137   5.976
 5302SOL     OW16804   5.219   5.897   2.706
 5302SOL    HW116805   5.190   5.991   2.724
 5302SOL    HW216806   5.282   5.896   2.628
 5303SOL     OW16807   1.221   5.500   5.298
 5303SOL    HW116808   1.270   5.427   5.345
 5303SOL    HW216809   1.224   5.483   5.199
 5304SOL     OW16810   0.360   0.697   3.173
 5304SOL    HW116811   0.386   0.602   3.189
 5304SOL    HW216812   0.290   0.724   3.239
 5305SOL     OW16813   0.100   5.202   4.113
 5305SOL    HW116814   0.098   5.251   4.026
 5305SOL    HW216815   0.138   5.111   4.099
 5306SOL     OW16816   0.718   2.416   6.001
 5306SOL    HW116817   0.652   2.491   6.010
 5306SOL    HW216818   0.701   2.348   6.073
 5307SOL     OW16819   6.846   1.862   1.465
 5307SOL    HW116820   6.842   1.763   1.454
 5307SOL    HW216821   6.941   1.893   1.458
 5308SOL     OW16822   1.813   4.179   2.875
 5308SOL    HW116823   1.874   4.186   2.795
 5308SOL    HW216824   1.862   4.213   2.956
 5309SOL     OW16825   6.189   5.282   3.173
 5309SOL    HW116826   6.249   5.353   3.212
 5309SOL    HW216827   6.162   5.308   3.081
 5310SOL     OW16828   6.028   2.543   3.163
 5310SOL    HW116829   6.108   2.514   3.111
 5310SOL    HW216830   6.004   2.472   3.230
 5311SOL     OW16831   5.805   0.336   0.695
 5311SOL    HW116832   5.900   0.308   0.704
 5311SOL    HW216833   5.789   0.372   0.603
 5312SOL     OW16834   6.321   6.587   0.564
 5312SOL    HW116835   6.381   6.516   0.601
 5312SOL    HW216836   6.330   6.670   0.620
 5313SOL     OW16837   1.233   6.464   5.656
 5313SOL    HW116838   1.191   6.444   5.745
 5313SOL    HW216839   1.192   6.407   5.586
 5314SOL     OW16840   6.048   1.175   1.831
 5314SOL    HW116841   6.061   1.264   1.788
 5314SOL    HW216842   6.020   1.188   1.926
 5315SOL     OW16843   4.474   1.716   4.017
 5315SOL    HW116844   4.562   1.734   3.974
 5315SOL    HW216845   4.455   1.618   4.014
 5316SOL     OW16846   0.823   2.499   4.744
 5316SOL    HW116847   0.801   2.473   4.838
 5316SOL    HW216848   0.786   2.591   4.727
 5317SOL     OW16849   5.856   2.567   0.047
 5317SOL    HW116850   5.804   2.599   0.127
 5317SOL    HW216851   5.953   2.563   0.070
 5318SOL     OW16852   0.173   3.919   6.599
 5318SOL    HW116853   0.262   3.962   6.584
 5318SOL    HW216854   0.165   3.839   6.539
 5319SOL     OW16855   4.097   6.247   2.209
 5319SOL    HW116856   4.079   6.340   2.177
 5319SOL    HW216857   4.050   6.182   2.150
 5320SOL     OW16858   3.956   5.688   1.073
 5320SOL    HW116859   4.046   5.659   1.040
 5320SOL    HW216860   3.967   5.751   1.150
 5321SOL     OW16861   2.041   4.466   5.639
 5321SOL    HW116862   2.084   4.475   5.550
 5321SOL    HW216863   2.107   4.487   5.711
 5322SOL     OW16864   4.436   6.891   1.965
 5322SOL    HW116865   4.495   6.812   1.984
 5322SOL    HW216866   4.347   6.877   2.008
 5323SOL     OW16867   4.378   0.342   5.919
 5323SOL    HW116868   4.367   0.380   5.828
 5323SOL    HW216869   4.322   0.392   5.984
 5324SOL     OW16870   1.990   2.085   1.279
 5324SOL    HW116871   1.968   2.183   1.273
 5324SOL    HW216872   2.051   2.070   1.357
 5325SOL     OW16873   2.127   2.333   5.047
 5325SOL    HW116874   2.105   2.345   5.144
 5325SOL    HW216875   2.153   2.421   5.008
 5326SOL     OW16876   6.287   6.740   1.723
 5326SOL    HW116877   6.350   6.687   1.667
 5326SOL    HW216878   6.325   6.753   1.815
 5327SOL     OW16879   0.275   2.649   5.713
 5327SOL    HW116880   0.367   2.624   5.682
 5327SOL    HW216881   0.209   2.629   5.641
 5328SOL     OW16882   4.449   5.575   0.256
 5328SOL    HW116883   4.402   5.562   0.169
 5328SOL    HW216884   4.527   5.512   0.262
 5329SOL     OW16885   1.745   6.621   6.223
 5329SOL    HW116886   1.684   6.587   6.295
 5329SOL    HW216887   1.753   6.720   6.231
 5330SOL     OW16888   2.311   4.812   0.960
 5330SOL    HW116889   2.365   4.778   0.883
 5330SOL    HW216890   2.318   4.911   0.965
 5331SOL     OW16891   6.338   0.995   5.988
 5331SOL    HW116892   6.382   1.000   6.078
 5331SOL    HW216893   6.378   1.063   5.928
 5332SOL     OW16894   0.269   4.834   1.575
 5332SOL    HW116895   0.289   4.833   1.477
 5332SOL    HW216896   0.184   4.784   1.593
 5333SOL     OW16897   1.016   6.171   4.977
 5333SOL    HW116898   1.094   6.225   5.008
 5333SOL    HW216899   1.025   6.077   5.010
 5334SOL     OW16900   3.710   0.525   4.657
 5334SOL    HW116901   3.753   0.614   4.641
 5334SOL    HW216902   3.751   0.456   4.598
 5335SOL     OW16903   0.164   5.839   6.863
 5335SOL    HW116904   0.110   5.918   6.893
 5335SOL    HW216905   0.193   5.852   6.769
 5336SOL     OW16906   1.062   3.942   1.798
 5336SOL    HW116907   1.104   3.989   1.721
 5336SOL    HW216908   1.115   3.960   1.881
 5337SOL     OW16909   5.755   3.742   1.360
 5337SOL    HW116910   5.740   3.673   1.432
 5337SOL    HW216911   5.717   3.829   1.389
 5338SOL     OW16912   6.217   1.309   6.723
 5338SOL    HW116913   6.199   1.359   6.808
 5338SOL    HW216914   6.308   1.335   6.688
 5339SOL     OW16915   6.954   0.405   2.288
 5339SOL    HW116916   6.964   0.407   2.388
 5339SOL    HW216917   6.864   0.369   2.264
 5340SOL     OW16918   5.138   2.628   5.986
 5340SOL    HW116919   5.175   2.582   5.905
 5340SOL    HW216920   5.043   2.601   5.999
 5341SOL     OW16921   3.580   0.267   0.607
 5341SOL    HW116922   3.508   0.297   0.544
 5341SOL    HW216923   3.552   0.181   0.651
 5342SOL     OW16924   2.385   0.919   6.115
 5342SOL    HW116925   2.443   0.886   6.189
 5342SOL    HW216926   2.290   0.897   6.133
 5343SOL     OW16927   3.840   3.928   1.990
 5343SOL    HW116928   3.775   3.892   2.056
 5343SOL    HW216929   3.818   4.023   1.969
 5344SOL     OW16930   2.050   2.195   2.991
 5344SOL    HW116931   2.027   2.104   2.957
 5344SOL    HW216932   2.149   2.204   3.000
 5345SOL     OW16933   4.752   0.142   2.105
 5345SOL    HW116934   4.764   0.240   2.121
 5345SOL    HW216935   4.679   0.128   2.037
 5346SOL     OW16936   2.527   6.662   3.393
 5346SOL    HW116937   2.559   6.654   3.299
 5346SOL    HW216938   2.559   6.583   3.446
 5347SOL     OW16939   0.187   2.021   2.137
 5347SOL    HW116940   0.154   1.942   2.086
 5347SOL    HW216941   0.117   2.092   2.138
 5348SOL     OW16942   6.927   0.741   0.141
 5348SOL    HW116943   6.919   0.649   0.178
 5348SOL    HW216944   6.837   0.772   0.110
 5349SOL     OW16945   6.491   0.105   1.633
 5349SOL    HW116946   6.541   0.024   1.663
 5349SOL    HW216947   6.546   0.187   1.652
 5350SOL     OW16948   2.411   0.723   6.845
 5350SOL    HW116949   2.410   0.629   6.880
 5350SOL    HW216950   2.325   0.742   6.797
 5351SOL     OW16951   4.230   0.572   2.054
 5351SOL    HW116952   4.233   0.582   1.954
 5351SOL    HW216953   4.257   0.479   2.079
 5352SOL     OW16954   3.617   6.379   3.518
 5352SOL    HW116955   3.517   6.378   3.525
 5352SOL    HW216956   3.645   6.430   3.437
 5353SOL     OW16957   5.569   0.360   5.476
 5353SOL    HW116958   5.644   0.312   5.430
 5353SOL    HW216959   5.557   0.322   5.568
 5354SOL     OW16960   1.372   3.521   1.618
 5354SOL    HW116961   1.445   3.564   1.564
 5354SOL    HW216962   1.393   3.529   1.716
 5355SOL     OW16963   4.355   1.488   5.042
 5355SOL    HW116964   4.280   1.516   5.102
 5355SOL    HW216965   4.442   1.498   5.091
 5356SOL     OW16966   5.649   3.630   0.823
 5356SOL    HW116967   5.672   3.625   0.920
 5356SOL    HW216968   5.729   3.605   0.768
 5357SOL     OW16969   3.723   6.868   0.697
 5357SOL    HW116970   3.663   6.792   0.722
 5357SOL    HW216971   3.668   6.949   0.678
 5358SOL     OW16972   4.669   3.134   1.294
 5358SOL    HW116973   4.678   3.036   1.281
 5358SOL    HW216974   4.603   3.153   1.367
 5359SOL     OW16975   2.721   0.015   6.893
 5359SOL    HW116976   2.796   6.997   6.948
 5359SOL    HW216977   2.642   0.031   6.952
 5360SOL     OW16978   3.928   0.396   6.409
 5360SOL    HW116979   4.000   0.360   6.469
 5360SOL    HW216980   3.913   0.333   6.334
 5361SOL     OW16981   1.897   0.648   6.022
 5361SOL    HW116982   1.957   0.574   6.054
 5361SOL    HW216983   1.875   0.633   5.926
 5362SOL     OW16984   3.844   5.885   4.077
 5362SOL    HW116985   3.871   5.790   4.058
 5362SOL    HW216986   3.760   5.906   4.028
 5363SOL     OW16987   0.883   5.171   5.388
 5363SOL    HW116988   0.864   5.231   5.311
 5363SOL    HW216989   0.964   5.115   5.367
 5364SOL     OW16990   0.665   6.481   6.835
 5364SOL    HW116991   0.598   6.553   6.855
 5364SOL    HW216992   0.654   6.450   6.741
 5365SOL     OW16993   3.824   1.584   6.384
 5365SOL    HW116994   3.887   1.536   6.323
 5365SOL    HW216995   3.826   1.541   6.475
 5366SOL     OW16996   3.610   4.168   6.599
 5366SOL    HW116997   3.703   4.201   6.616
 5366SOL    HW216998   3.560   4.162   6.686
 5367SOL     OW16999   0.484   4.747   0.945
 5367SOL    HW117000   0.439   4.768   0.858
 5367SOL    HW217001   0.484   4.828   1.003
 5368SOL     OW17002   6.535   0.880   3.818
 5368SOL    HW117003   6.471   0.867   3.894
 5368SOL    HW217004   6.526   0.973   3.782
 5369SOL     OW17005   1.568   3.748   2.403
 5369SOL    HW117006   1.529   3.734   2.494
 5369SOL    HW217007   1.656   3.796   2.411
 5370SOL     OW17008   3.948   2.938   1.527
 5370SOL    HW117009   3.972   3.032   1.552
 5370SOL    HW217010   3.938   2.932   1.427
 5371SOL     OW17011   1.609   4.187   4.987
 5371SOL    HW117012   1.606   4.254   4.913
 5371SOL    HW217013   1.690   4.204   5.044
 5372SOL     OW17014   2.958   5.729   2.950
 5372SOL    HW117015   3.013   5.808   2.924
 5372SOL    HW217016   2.862   5.756   2.953
 5373SOL     OW17017   1.806   5.161   3.794
 5373SOL    HW117018   1.722   5.108   3.787
 5373SOL    HW217019   1.884   5.104   3.766
 5374SOL     OW17020   3.283   2.316   0.707
 5374SOL    HW117021   3.333   2.235   0.676
 5374SOL    HW217022   3.342   2.396   0.700
 5375SOL     OW17023   1.781   4.046   4.698
 5375SOL    HW117024   1.689   4.083   4.684
 5375SOL    HW217025   1.777   3.966   4.758
 5376SOL     OW17026   2.842   4.279   0.352
 5376SOL    HW117027   2.804   4.190   0.376
 5376SOL    HW217028   2.896   4.271   0.268
 5377SOL     OW17029   0.796   1.693   1.326
 5377SOL    HW117030   0.833   1.640   1.402
 5377SOL    HW217031   0.753   1.776   1.360
 5378SOL     OW17032   4.384   6.982   0.260
 5378SOL    HW117033   4.465   6.979   0.201
 5378SOL    HW217034   4.301   6.972   0.204
 5379SOL     OW17035   6.565   6.871   1.121
 5379SOL    HW117036   6.500   6.829   1.185
 5379SOL    HW217037   6.603   6.954   1.161
 5380SOL     OW17038   2.496   0.256   4.250
 5380SOL    HW117039   2.486   0.355   4.238
 5380SOL    HW217040   2.411   0.218   4.286
 5381SOL     OW17041   5.533   3.273   1.677
 5381SOL    HW117042   5.444   3.317   1.691
 5381SOL    HW217043   5.538   3.190   1.733
 5382SOL     OW17044   1.960   0.565   1.401
 5382SOL    HW117045   1.916   0.503   1.466
 5382SOL    HW217046   2.059   0.562   1.413
 5383SOL     OW17047   1.988   2.160   4.858
 5383SOL    HW117048   1.947   2.097   4.924
 5383SOL    HW217049   2.037   2.232   4.906
 5384SOL     OW17050   5.756   6.573   4.121
 5384SOL    HW117051   5.708   6.534   4.199
 5384SOL    HW217052   5.758   6.507   4.046
 5385SOL     OW17053   3.427   4.032   2.575
 5385SOL    HW117054   3.437   3.972   2.495
 5385SOL    HW217055   3.515   4.040   2.622
 5386SOL     OW17056   5.751   0.016   5.813
 5386SOL    HW117057   5.708   0.096   5.853
 5386SOL    HW217058   5.850   0.020   5.829
 5387SOL     OW17059   3.268   5.589   1.430
 5387SOL    HW117060   3.191   5.609   1.369
 5387SOL    HW217061   3.241   5.519   1.495
 5388SOL     OW17062   6.279   6.453   2.665
 5388SOL    HW117063   6.274   6.494   2.574
 5388SOL    HW217064   6.375   6.450   2.695
 5389SOL     OW17065   4.937   2.164   1.209
 5389SOL    HW117066   4.882   2.080   1.206
 5389SOL    HW217067   5.006   2.156   1.280
 5390SOL     OW17068   6.350   4.713   5.949
 5390SOL    HW117069   6.361   4.614   5.953
 5390SOL    HW217070   6.422   4.752   5.891
 5391SOL     OW17071   2.793   3.719   0.047
 5391SOL    HW117072   2.710   3.701   0.101
 5391SOL    HW217073   2.873   3.691   0.099
 5392SOL     OW17074   6.109   2.766   2.618
 5392SOL    HW117075   6.028   2.822   2.598
 5392SOL    HW217076   6.080   2.674   2.645
 5393SOL     OW17077   6.265   6.850   6.076
 5393SOL    HW117078   6.211   6.768   6.057
 5393SOL    HW217079   6.232   6.893   6.159
 5394SOL     OW17080   1.885   3.874   5.632
 5394SOL    HW117081   1.796   3.847   5.594
 5394SOL    HW217082   1.936   3.924   5.562
 5395SOL     OW17083   4.689   0.673   0.665
 5395SOL    HW117084   4.753   0.715   0.729
 5395SOL    HW217085   4.728   0.588   0.630
 5396SOL     OW17086   4.994   2.655   2.306
 5396SOL    HW117087   5.058   2.619   2.374
 5396SOL    HW217088   5.006   2.754   2.298
 5397SOL     OW17089   0.563   3.104   1.455
 5397SOL    HW117090   0.642   3.141   1.504
 5397SOL    HW217091   0.527   3.025   1.505
 5398SOL     OW17092   3.409   3.416   2.007
 5398SOL    HW117093   3.497   3.445   2.043
 5398SOL    HW217094   3.374   3.486   1.945
 5399SOL     OW17095   0.788   6.509   0.642
 5399SOL    HW117096   0.740   6.483   0.558
 5399SOL    HW217097   0.786   6.433   0.706
 5400SOL     OW17098   2.048   4.094   6.832
 5400SOL    HW117099   2.070   4.007   6.789
 5400SOL    HW217100   1.953   4.118   6.812
 5401SOL     OW17101   6.531   1.815   1.485
 5401SOL    HW117102   6.626   1.833   1.512
 5401SOL    HW217103   6.490   1.750   1.549
 5402SOL     OW17104   1.641   6.152   2.526
 5402SOL    HW117105   1.656   6.054   2.538
 5402SOL    HW217106   1.605   6.191   2.611
 5403SOL     OW17107   5.964   3.522   6.900
 5403SOL    HW117108   5.999   3.587   6.832
 5403SOL    HW217109   5.971   3.429   6.863
 5404SOL     OW17110   1.394   3.153   3.097
 5404SOL    HW117111   1.449   3.138   3.015
 5404SOL    HW217112   1.406   3.076   3.160
 5405SOL     OW17113   7.002   3.558   5.745
 5405SOL    HW117114   0.004   3.633   5.807
 5405SOL    HW217115   0.049   3.555   5.671
 5406SOL     OW17116   1.480   0.035   4.200
 5406SOL    HW117117   1.574   0.028   4.165
 5406SOL    HW217118   1.450   6.965   4.232
 5407SOL     OW17119   4.048   3.152   6.763
 5407SOL    HW117120   3.982   3.106   6.823
 5407SOL    HW217121   4.010   3.160   6.671
 5408SOL     OW17122   3.309   1.124   0.453
 5408SOL    HW117123   3.337   1.196   0.516
 5408SOL    HW217124   3.284   1.165   0.366
 5409SOL     OW17125   3.847   0.592   2.456
 5409SOL    HW117126   3.829   0.690   2.457
 5409SOL    HW217127   3.867   0.562   2.362
 5410SOL     OW17128   1.499   2.776   2.973
 5410SOL    HW117129   1.502   2.807   2.878
 5410SOL    HW217130   1.560   2.834   3.028
 5411SOL     OW17131   1.348   5.248   4.315
 5411SOL    HW117132   1.412   5.241   4.392
 5411SOL    HW217133   1.257   5.271   4.350
 5412SOL     OW17134   5.877   2.645   1.816
 5412SOL    HW117135   5.968   2.685   1.813
 5412SOL    HW217136   5.848   2.636   1.911
 5413SOL     OW17137   2.707   0.374   2.268
 5413SOL    HW117138   2.738   0.409   2.180
 5413SOL    HW217139   2.636   0.434   2.304
 5414SOL     OW17140   4.729   0.638   5.480
 5414SOL    HW117141   4.743   0.690   5.396
 5414SOL    HW217142   4.799   0.566   5.486
 5415SOL     OW17143   6.047   3.879   2.149
 5415SOL    HW117144   6.125   3.820   2.172
 5415SOL    HW217145   6.039   3.952   2.217
 5416SOL     OW17146   4.067   5.164   4.044
 5416SOL    HW117147   3.999   5.091   4.033
 5416SOL    HW217148   4.092   5.172   4.140
 5417SOL     OW17149   3.657   7.009   5.482
 5417SOL    HW117150   3.587   6.939   5.465
 5417SOL    HW217151   3.686   0.029   5.396
 5418SOL     OW17152   3.602   1.041   3.296
 5418SOL    HW117153   3.520   0.994   3.330
 5418SOL    HW217154   3.660   1.067   3.373
 5419SOL     OW17155   3.332   4.392   0.012
 5419SOL    HW117156   3.274   4.380   6.951
 5419SOL    HW217157   3.384   4.309   0.030
 5420SOL     OW17158   1.280   2.455   2.834
 5420SOL    HW117159   1.239   2.368   2.809
 5420SOL    HW217160   1.341   2.442   2.912
 5421SOL     OW17161   1.455   3.012   1.155
 5421SOL    HW117162   1.538   2.970   1.191
 5421SOL    HW217163   1.416   3.074   1.224
 5422SOL     OW17164   1.630   3.938   0.048
 5422SOL    HW117165   1.534   3.957   0.070
 5422SOL    HW217166   1.664   3.863   0.105
 5423SOL     OW17167   5.551   3.447   6.072
 5423SOL    HW117168   5.576   3.352   6.088
 5423SOL    HW217169   5.454   3.461   6.093
 5424SOL     OW17170   5.190   3.440   5.664
 5424SOL    HW117171   5.213   3.483   5.577
 5424SOL    HW217172   5.275   3.413   5.710
 5425SOL     OW17173   5.182   0.265   4.392
 5425SOL    HW117174   5.168   0.346   4.449
 5425SOL    HW217175   5.269   0.223   4.414
 5426SOL     OW17176   0.158   0.075   4.854
 5426SOL    HW117177   0.162   0.069   4.754
 5426SOL    HW217178   0.196   7.012   4.893
 5427SOL     OW17179   4.347   6.735   0.047
 5427SOL    HW117180   4.247   6.734   0.046
 5427SOL    HW217181   4.380   6.794   6.994
 5428SOL     OW17182   1.817   0.678   6.683
 5428SOL    HW117183   1.819   0.723   6.772
 5428SOL    HW217184   1.751   0.604   6.684
 5429SOL     OW17185   1.477   2.456   6.514
 5429SOL    HW117186   1.411   2.511   6.567
 5429SOL    HW217187   1.427   2.388   6.460
 5430SOL     OW17188   2.268   1.947   5.150
 5430SOL    HW117189   2.183   1.918   5.106
 5430SOL    HW217190   2.247   2.010   5.225
 5431SOL     OW17191   3.833   6.202   4.581
 5431SOL    HW117192   3.831   6.283   4.522
 5431SOL    HW217193   3.922   6.158   4.574
 5432SOL     OW17194   5.816   6.152   1.460
 5432SOL    HW117195   5.761   6.085   1.410
 5432SOL    HW217196   5.817   6.238   1.409
 5433SOL     OW17197   7.003   2.248   4.430
 5433SOL    HW117198   6.918   2.195   4.422
 5433SOL    HW217199   6.983   2.345   4.415
 5434SOL     OW17200   2.546   0.206   5.247
 5434SOL    HW117201   2.513   0.223   5.154
 5434SOL    HW217202   2.519   0.282   5.306
 5435SOL     OW17203   4.429   1.273   1.953
 5435SOL    HW117204   4.352   1.210   1.968
 5435SOL    HW217205   4.412   1.328   1.871
 5436SOL     OW17206   4.829   4.009   2.473
 5436SOL    HW117207   4.857   4.104   2.459
 5436SOL    HW217208   4.799   3.997   2.568
 5437SOL     OW17209   3.168   4.439   6.809
 5437SOL    HW117210   3.182   4.534   6.781
 5437SOL    HW217211   3.076   4.428   6.845
 5438SOL     OW17212   6.879   1.330   1.563
 5438SOL    HW117213   6.844   1.248   1.608
 5438SOL    HW217214   6.918   1.305   1.474
 5439SOL     OW17215   1.728   2.669   1.099
 5439SOL    HW117216   1.815   2.702   1.063
 5439SOL    HW217217   1.731   2.569   1.108
 5440SOL     OW17218   1.541   1.788   0.834
 5440SOL    HW117219   1.570   1.855   0.766
 5440SOL    HW217220   1.565   1.696   0.803
 5441SOL     OW17221   4.053   1.958   4.484
 5441SOL    HW117222   4.005   1.918   4.562
 5441SOL    HW217223   3.988   1.970   4.408
 5442SOL     OW17224   3.463   0.734   2.582
 5442SOL    HW117225   3.530   0.700   2.648
 5442SOL    HW217226   3.374   0.742   2.626
 5443SOL     OW17227   2.803   6.778   5.860
 5443SOL    HW117228   2.832   6.684   5.845
 5443SOL    HW217229   2.760   6.785   5.951
 5444SOL     OW17230   0.122   0.575   3.889
 5444SOL    HW117231   0.035   0.620   3.870
 5444SOL    HW217232   0.143   0.580   3.986
 5445SOL     OW17233   5.846   3.521   1.772
 5445SOL    HW117234   5.941   3.553   1.765
 5445SOL    HW217235   5.839   3.452   1.843
 5446SOL     OW17236   6.904   5.865   5.927
 5446SOL    HW117237   6.871   5.820   6.010
 5446SOL    HW217238   6.962   5.942   5.951
 5447SOL     OW17239   3.001   2.275   1.045
 5447SOL    HW117240   3.080   2.254   1.102
 5447SOL    HW217241   2.937   2.332   1.095
 5448SOL     OW17242   5.499   2.131   6.299
 5448SOL    HW117243   5.439   2.089   6.366
 5448SOL    HW217244   5.538   2.215   6.337
 5449SOL     OW17245   0.591   3.340   6.393
 5449SOL    HW117246   0.625   3.434   6.396
 5449SOL    HW217247   0.542   3.325   6.307
 5450SOL     OW17248   2.135   6.311   0.881
 5450SOL    HW117249   2.062   6.374   0.857
 5450SOL    HW217250   2.170   6.268   0.797
 5451SOL     OW17251   1.509   0.175   2.592
 5451SOL    HW117252   1.498   0.224   2.678
 5451SOL    HW217253   1.527   0.078   2.611
 5452SOL     OW17254   2.599   3.427   5.481
 5452SOL    HW117255   2.666   3.495   5.449
 5452SOL    HW217256   2.637   3.336   5.469
 5453SOL     OW17257   0.090   5.041   6.402
 5453SOL    HW117258   0.063   4.972   6.469
 5453SOL    HW217259   0.009   5.075   6.354
 5454SOL     OW17260   0.695   3.738   5.116
 5454SOL    HW117261   0.748   3.809   5.163
 5454SOL    HW217262   0.598   3.760   5.122
 5455SOL     OW17263   0.393   3.116   0.652
 5455SOL    HW117264   0.383   3.020   0.627
 5455SOL    HW217265   0.305   3.162   0.645
 5456SOL     OW17266   3.092   6.668   1.486
 5456SOL    HW117267   3.064   6.739   1.550
 5456SOL    HW217268   3.120   6.710   1.400
 5457SOL     OW17269   5.875   3.702   0.486
 5457SOL    HW117270   5.859   3.792   0.525
 5457SOL    HW217271   5.906   3.711   0.391
 5458SOL     OW17272   2.461   4.466   6.623
 5458SOL    HW117273   2.498   4.538   6.565
 5458SOL    HW217274   2.396   4.411   6.569
 5459SOL     OW17275   2.514   4.723   6.120
 5459SOL    HW117276   2.554   4.795   6.176
 5459SOL    HW217277   2.554   4.635   6.145
 5460SOL     OW17278   3.559   6.804   2.996
 5460SOL    HW117279   3.486   6.748   2.956
 5460SOL    HW217280   3.646   6.755   2.989
 5461SOL     OW17281   4.448   6.538   4.877
 5461SOL    HW117282   4.492   6.568   4.793
 5461SOL    HW217283   4.510   6.480   4.929
 5462SOL     OW17284   1.042   0.299   1.486
 5462SOL    HW117285   0.944   0.283   1.500
 5462SOL    HW217286   1.061   0.299   1.387
 5463SOL     OW17287   0.111   3.124   0.777
 5463SOL    HW117288   0.142   3.147   0.869
 5463SOL    HW217289   0.110   3.025   0.765
 5464SOL     OW17290   2.203   6.346   4.214
 5464SOL    HW117291   2.260   6.288   4.273
 5464SOL    HW217292   2.202   6.439   4.250
 5465SOL     OW17293   1.919   6.249   6.437
 5465SOL    HW117294   1.960   6.280   6.352
 5465SOL    HW217295   1.960   6.162   6.464
 5466SOL     OW17296   5.328   5.003   5.005
 5466SOL    HW117297   5.329   5.080   4.941
 5466SOL    HW217298   5.414   4.952   4.998
 5467SOL     OW17299   6.149   1.571   2.320
 5467SOL    HW117300   6.081   1.643   2.305
 5467SOL    HW217301   6.104   1.491   2.359
 5468SOL     OW17302   4.307   1.692   5.586
 5468SOL    HW117303   4.406   1.679   5.592
 5468SOL    HW217304   4.281   1.708   5.491
 5469SOL     OW17305   4.458   4.461   1.054
 5469SOL    HW117306   4.481   4.539   0.997
 5469SOL    HW217307   4.398   4.399   1.004
 5470SOL     OW17308   0.377   5.399   3.316
 5470SOL    HW117309   0.431   5.413   3.233
 5470SOL    HW217310   0.437   5.407   3.396
 5471SOL     OW17311   6.302   5.080   2.534
 5471SOL    HW117312   6.321   5.112   2.442
 5471SOL    HW217313   6.215   5.030   2.535
 5472SOL     OW17314   3.749   5.312   5.903
 5472SOL    HW117315   3.663   5.288   5.947
 5472SOL    HW217316   3.825   5.272   5.954
 5473SOL     OW17317   1.341   3.933   3.422
 5473SOL    HW117318   1.363   3.877   3.502
 5473SOL    HW217319   1.334   4.029   3.450
 5474SOL     OW17320   1.755   6.282   3.719
 5474SOL    HW117321   1.662   6.314   3.705
 5474SOL    HW217322   1.816   6.360   3.731
 5475SOL     OW17323   3.107   2.805   1.485
 5475SOL    HW117324   3.168   2.884   1.494
 5475SOL    HW217325   3.099   2.759   1.573
 5476SOL     OW17326   1.742   3.580   6.623
 5476SOL    HW117327   1.809   3.623   6.563
 5476SOL    HW217328   1.767   3.597   6.719
 5477SOL     OW17329   1.689   3.021   2.485
 5477SOL    HW117330   1.640   2.975   2.560
 5477SOL    HW217331   1.722   2.953   2.420
 5478SOL     OW17332   0.143   5.743   6.117
 5478SOL    HW117333   0.047   5.730   6.143
 5478SOL    HW217334   0.203   5.714   6.191
 5479SOL     OW17335   4.357   6.974   4.622
 5479SOL    HW117336   4.375   6.980   4.524
 5479SOL    HW217337   4.373   0.044   4.664
 5480SOL     OW17338   0.953   2.571   5.238
 5480SOL    HW117339   0.913   2.636   5.303
 5480SOL    HW217340   0.964   2.482   5.283
 5481SOL     OW17341   4.750   6.691   3.561
 5481SOL    HW117342   4.719   6.598   3.581
 5481SOL    HW217343   4.671   6.750   3.543
 5482SOL     OW17344   1.639   5.088   2.080
 5482SOL    HW117345   1.618   5.041   2.166
 5482SOL    HW217346   1.733   5.123   2.084
 5483SOL     OW17347   0.708   2.984   6.306
 5483SOL    HW117348   0.657   3.064   6.336
 5483SOL    HW217349   0.748   3.001   6.216
 5484SOL     OW17350   4.989   0.111   4.313
 5484SOL    HW117351   5.064   0.174   4.332
 5484SOL    HW217352   5.023   0.032   4.262
 5485SOL     OW17353   3.880   0.656   5.029
 5485SOL    HW117354   3.782   0.665   5.011
 5485SOL    HW217355   3.917   0.745   5.056
 5486SOL     OW17356   3.001   5.230   4.145
 5486SOL    HW117357   2.990   5.234   4.244
 5486SOL    HW217358   3.070   5.161   4.122
 5487SOL     OW17359   3.255   5.215   5.297
 5487SOL    HW117360   3.300   5.304   5.301
 5487SOL    HW217361   3.182   5.211   5.365
 5488SOL     OW17362   4.828   1.720   0.040
 5488SOL    HW117363   4.869   1.718   6.969
 5488SOL    HW217364   4.799   1.814   0.061
 5489SOL     OW17365   0.337   3.718   3.754
 5489SOL    HW117366   0.269   3.645   3.739
 5489SOL    HW217367   0.423   3.694   3.709
 5490SOL     OW17368   0.982   5.660   2.766
 5490SOL    HW117369   0.978   5.725   2.690
 5490SOL    HW217370   0.898   5.666   2.820
 5491SOL     OW17371   6.335   3.796   0.612
 5491SOL    HW117372   6.310   3.709   0.655
 5491SOL    HW217373   6.373   3.858   0.680
 5492SOL     OW17374   0.345   1.754   6.174
 5492SOL    HW117375   0.283   1.677   6.159
 5492SOL    HW217376   0.431   1.739   6.126
 5493SOL     OW17377   4.413   4.042   0.607
 5493SOL    HW117378   4.437   3.956   0.650
 5493SOL    HW217379   4.446   4.118   0.662
 5494SOL     OW17380   5.975   3.118   5.532
 5494SOL    HW117381   6.069   3.088   5.517
 5494SOL    HW217382   5.955   3.116   5.630
 5495SOL     OW17383   5.624   6.902   6.933
 5495SOL    HW117384   5.672   6.871   6.851
 5495SOL    HW217385   5.525   6.893   6.920
 5496SOL     OW17386   4.441   6.836   5.504
 5496SOL    HW117387   4.451   6.932   5.481
 5496SOL    HW217388   4.530   6.797   5.528
 5497SOL     OW17389   0.701   0.334   4.760
 5497SOL    HW117390   0.634   0.285   4.817
 5497SOL    HW217391   0.736   0.273   4.689
 5498SOL     OW17392   0.272   5.174   1.144
 5498SOL    HW117393   0.238   5.219   1.061
 5498SOL    HW217394   0.243   5.226   1.224
 5499SOL     OW17395   2.077   0.108   4.163
 5499SOL    HW117396   2.002   0.143   4.218
 5499SOL    HW217397   2.078   0.154   4.075
 5500SOL     OW17398   2.249   0.141   1.206
 5500SOL    HW117399   2.212   0.228   1.173
 5500SOL    HW217400   2.320   0.109   1.144
 5501SOL     OW17401   4.205   3.341   6.878
 5501SOL    HW117402   4.234   3.304   6.966
 5501SOL    HW217403   4.159   3.269   6.825
 5502SOL     OW17404   4.543   3.787   6.821
 5502SOL    HW117405   4.461   3.746   6.859
 5502SOL    HW217406   4.522   3.829   6.733
 5503SOL     OW17407   6.140   3.022   0.557
 5503SOL    HW117408   6.147   3.041   0.459
 5503SOL    HW217409   6.070   2.952   0.572
 5504SOL     OW17410   3.859   2.150   0.168
 5504SOL    HW117411   3.955   2.124   0.160
 5504SOL    HW217412   3.851   2.250   0.172
 5505SOL     OW17413   2.858   4.780   2.670
 5505SOL    HW117414   2.796   4.703   2.660
 5505SOL    HW217415   2.823   4.842   2.740
 5506SOL     OW17416   6.286   2.264   6.459
 5506SOL    HW117417   6.317   2.356   6.436
 5506SOL    HW217418   6.191   2.268   6.490
 5507SOL     OW17419   3.806   6.714   0.319
 5507SOL    HW117420   3.709   6.734   0.322
 5507SOL    HW217421   3.821   6.630   0.266
 5508SOL     OW17422   0.707   1.209   6.356
 5508SOL    HW117423   0.714   1.261   6.271
 5508SOL    HW217424   0.622   1.234   6.403
 5509SOL     OW17425   6.634   4.279   0.178
 5509SOL    HW117426   6.580   4.207   0.221
 5509SOL    HW217427   6.632   4.267   0.079
 5510SOL     OW17428   5.072   5.284   6.628
 5510SOL    HW117429   4.977   5.287   6.595
 5510SOL    HW217430   5.117   5.203   6.592
 5511SOL     OW17431   0.919   2.509   6.185
 5511SOL    HW117432   0.850   2.569   6.226
 5511SOL    HW217433   0.878   2.458   6.109
 5512SOL     OW17434   1.687   0.269   2.288
 5512SOL    HW117435   1.705   0.317   2.202
 5512SOL    HW217436   1.684   0.335   2.363
 5513SOL     OW17437   3.598   4.742   6.895
 5513SOL    HW117438   3.690   4.736   6.935
 5513SOL    HW217439   3.571   4.838   6.889
 5514SOL     OW17440   3.044   0.910   0.277
 5514SOL    HW117441   3.070   0.920   0.181
 5514SOL    HW217442   3.012   0.997   0.312
 5515SOL     OW17443   3.436   5.474   2.279
 5515SOL    HW117444   3.424   5.413   2.357
 5515SOL    HW217445   3.497   5.431   2.212
 5516SOL     OW17446   1.676   2.082   5.436
 5516SOL    HW117447   1.756   2.102   5.380
 5516SOL    HW217448   1.705   2.050   5.527
 5517SOL     OW17449   0.796   2.342   3.314
 5517SOL    HW117450   0.766   2.254   3.353
 5517SOL    HW217451   0.891   2.334   3.284
 5518SOL     OW17452   4.723   5.144   6.769
 5518SOL    HW117453   4.711   5.196   6.854
 5518SOL    HW217454   4.765   5.056   6.790
 5519SOL     OW17455   5.263   2.565   5.459
 5519SOL    HW117456   5.251   2.478   5.411
 5519SOL    HW217457   5.176   2.595   5.496
 5520SOL     OW17458   4.716   7.009   1.583
 5520SOL    HW117459   4.639   6.984   1.641
 5520SOL    HW217460   4.726   6.942   1.510
 5521SOL     OW17461   4.859   6.436   2.190
 5521SOL    HW117462   4.764   6.418   2.213
 5521SOL    HW217463   4.876   6.534   2.191
 5522SOL     OW17464   5.541   6.560   0.335
 5522SOL    HW117465   5.464   6.534   0.393
 5522SOL    HW217466   5.590   6.636   0.378
 5523SOL     OW17467   5.185   2.061   1.057
 5523SOL    HW117468   5.107   2.100   1.107
 5523SOL    HW217469   5.227   1.989   1.112
 5524SOL     OW17470   2.481   1.401   2.798
 5524SOL    HW117471   2.560   1.368   2.850
 5524SOL    HW217472   2.467   1.342   2.719
 5525SOL     OW17473   6.750   1.618   0.937
 5525SOL    HW117474   6.725   1.693   0.997
 5525SOL    HW217475   6.692   1.620   0.855
 5526SOL     OW17476   5.826   4.380   4.034
 5526SOL    HW117477   5.743   4.373   4.089
 5526SOL    HW217478   5.876   4.293   4.037
 5527SOL     OW17479   6.517   0.314   3.042
 5527SOL    HW117480   6.583   0.311   2.967
 5527SOL    HW217481   6.505   0.221   3.078
 5528SOL     OW17482   1.321   2.135   7.007
 5528SOL    HW117483   1.285   2.221   6.970
 5528SOL    HW217484   1.308   2.062   6.940
 5529SOL     OW17485   3.192   0.378   2.339
 5529SOL    HW117486   3.282   0.422   2.335
 5529SOL    HW217487   3.189   0.316   2.418
 5530SOL     OW17488   0.323   1.820   0.842
 5530SOL    HW117489   0.401   1.818   0.779
 5530SOL    HW217490   0.348   1.868   0.926
 5531SOL     OW17491   1.419   4.362   1.712
 5531SOL    HW117492   1.519   4.364   1.708
 5531SOL    HW217493   1.387   4.268   1.699
 5532SOL     OW17494   0.348   3.706   6.740
 5532SOL    HW117495   0.253   3.696   6.769
 5532SOL    HW217496   0.387   3.788   6.782
 5533SOL     OW17497   3.951   1.146   2.867
 5533SOL    HW117498   3.992   1.101   2.946
 5533SOL    HW217499   3.887   1.216   2.897
 5534SOL     OW17500   1.120   0.275   4.486
 5534SOL    HW117501   1.031   0.237   4.459
 5534SOL    HW217502   1.190   0.205   4.475
 5535SOL     OW17503   6.918   1.944   2.836
 5535SOL    HW117504   6.992   1.921   2.900
 5535SOL    HW217505   6.849   1.998   2.883
 5536SOL     OW17506   4.528   6.485   4.342
 5536SOL    HW117507   4.492   6.551   4.276
 5536SOL    HW217508   4.462   6.475   4.417
 5537SOL     OW17509   2.582   2.385   3.291
 5537SOL    HW117510   2.671   2.404   3.250
 5537SOL    HW217511   2.510   2.426   3.234
 5538SOL     OW17512   4.688   5.335   4.026
 5538SOL    HW117513   4.647   5.276   4.096
 5538SOL    HW217514   4.672   5.431   4.050
 5539SOL     OW17515   2.109   4.440   6.820
 5539SOL    HW117516   2.050   4.432   6.740
 5539SOL    HW217517   2.060   4.489   6.893
 5540SOL     OW17518   3.823   5.660   1.830
 5540SOL    HW117519   3.761   5.582   1.827
 5540SOL    HW217520   3.848   5.687   1.737
 5541SOL     OW17521   4.754   0.785   6.047
 5541SOL    HW117522   4.720   0.736   6.127
 5541SOL    HW217523   4.681   0.793   5.979
 5542SOL     OW17524   5.470   4.560   6.558
 5542SOL    HW117525   5.468   4.558   6.458
 5542SOL    HW217526   5.558   4.525   6.590
 5543SOL     OW17527   0.635   1.460   4.975
 5543SOL    HW117528   0.597   1.516   4.902
 5543SOL    HW217529   0.660   1.519   5.052
 5544SOL     OW17530   5.504   0.875   6.881
 5544SOL    HW117531   5.422   0.912   6.837
 5544SOL    HW217532   5.564   0.950   6.908
 5545SOL     OW17533   2.385   2.576   1.897
 5545SOL    HW117534   2.437   2.652   1.859
 5545SOL    HW217535   2.432   2.540   1.978
 5546SOL     OW17536   4.212   5.437   5.867
 5546SOL    HW117537   4.295   5.382   5.862
 5546SOL    HW217538   4.229   5.518   5.924
 5547SOL     OW17539   3.470   5.533   4.390
 5547SOL    HW117540   3.400   5.605   4.394
 5547SOL    HW217541   3.425   5.444   4.381
 5548SOL     OW17542   0.529   2.006   4.509
 5548SOL    HW117543   0.495   2.006   4.415
 5548SOL    HW217544   0.467   2.058   4.568
 5549SOL     OW17545   3.285   5.212   0.002
 5549SOL    HW117546   3.224   5.229   6.944
 5549SOL    HW217547   3.238   5.238   0.087
 5550SOL     OW17548   2.744   6.346   2.299
 5550SOL    HW117549   2.771   6.271   2.360
 5550SOL    HW217550   2.822   6.406   2.284
 5551SOL     OW17551   0.284   1.354   2.810
 5551SOL    HW117552   0.303   1.268   2.858
 5551SOL    HW217553   0.201   1.343   2.755
 5552SOL     OW17554   1.420   2.623   2.674
 5552SOL    HW117555   1.362   2.556   2.719
 5552SOL    HW217556   1.507   2.581   2.648
 5553SOL     OW17557   4.736   6.229   6.168
 5553SOL    HW117558   4.758   6.224   6.265
 5553SOL    HW217559   4.693   6.317   6.147
 5554SOL     OW17560   3.329   1.001   4.755
 5554SOL    HW117561   3.368   0.939   4.823
 5554SOL    HW217562   3.280   0.948   4.686
 5555SOL     OW17563   1.010   6.195   1.449
 5555SOL    HW117564   1.040   6.139   1.526
 5555SOL    HW217565   1.059   6.167   1.366
 5556SOL     OW17566   0.093   0.782   4.862
 5556SOL    HW117567   0.111   0.689   4.831
 5556SOL    HW217568   0.007   0.784   4.913
 5557SOL     OW17569   2.702   0.530   2.644
 5557SOL    HW117570   2.664   0.621   2.662
 5557SOL    HW217571   2.631   0.461   2.658
 5558SOL     OW17572   5.084   1.925   5.173
 5558SOL    HW117573   5.005   1.873   5.206
 5558SOL    HW217574   5.101   2.002   5.235
 5559SOL     OW17575   2.054   1.112   1.035
 5559SOL    HW117576   2.130   1.163   1.074
 5559SOL    HW217577   2.074   1.014   1.040
 5560SOL     OW17578   0.351   1.551   4.488
 5560SOL    HW117579   0.363   1.631   4.547
 5560SOL    HW217580   0.441   1.521   4.455
 5561SOL     OW17581   1.579   4.308   2.283
 5561SOL    HW117582   1.481   4.287   2.283
 5561SOL    HW217583   1.628   4.236   2.235
 5562SOL     OW17584   3.349   2.182   6.672
 5562SOL    HW117585   3.406   2.201   6.592
 5562SOL    HW217586   3.292   2.262   6.692
 5563SOL     OW17587   4.047   4.279   1.425
 5563SOL    HW117588   3.986   4.206   1.455
 5563SOL    HW217589   4.124   4.239   1.374
 5564SOL     OW17590   5.675   1.657   1.594
 5564SOL    HW117591   5.677   1.706   1.507
 5564SOL    HW217592   5.717   1.712   1.666
 5565SOL     OW17593   2.237   2.597   4.963
 5565SOL    HW117594   2.149   2.640   4.987
 5565SOL    HW217595   2.308   2.630   5.025
 5566SOL     OW17596   2.582   4.018   0.618
 5566SOL    HW117597   2.506   3.964   0.581
 5566SOL    HW217598   2.667   3.968   0.606
 5567SOL     OW17599   1.521   5.418   3.141
 5567SOL    HW117600   1.597   5.418   3.206
 5567SOL    HW217601   1.463   5.498   3.157
 5568SOL     OW17602   3.633   2.621   0.114
 5568SOL    HW117603   3.590   2.660   0.196
 5568SOL    HW217604   3.566   2.618   0.040
 5569SOL     OW17605   4.510   1.745   0.087
 5569SOL    HW117606   4.575   1.722   0.014
 5569SOL    HW217607   4.512   1.674   0.157
 5570SOL     OW17608   1.472   2.702   5.627
 5570SOL    HW117609   1.514   2.652   5.703
 5570SOL    HW217610   1.512   2.670   5.540
 5571SOL     OW17611   6.569   4.645   6.272
 5571SOL    HW117612   6.545   4.723   6.329
 5571SOL    HW217613   6.494   4.579   6.271
 5572SOL     OW17614   0.607   2.906   5.734
 5572SOL    HW117615   0.592   2.864   5.644
 5572SOL    HW217616   0.522   2.945   5.767
 5573SOL     OW17617   6.612   4.040   6.629
 5573SOL    HW117618   6.629   3.949   6.666
 5573SOL    HW217619   6.622   4.038   6.529
 5574SOL     OW17620   1.775   6.754   3.851
 5574SOL    HW117621   1.803   6.847   3.876
 5574SOL    HW217622   1.798   6.691   3.925
 5575SOL     OW17623   0.848   1.543   2.714
 5575SOL    HW117624   0.890   1.460   2.676
 5575SOL    HW217625   0.762   1.520   2.758
 5576SOL     OW17626   5.714   6.442   5.508
 5576SOL    HW117627   5.770   6.525   5.504
 5576SOL    HW217628   5.772   6.363   5.527
 5577SOL     OW17629   2.249   4.282   4.534
 5577SOL    HW117630   2.270   4.208   4.469
 5577SOL    HW217631   2.264   4.249   4.627
 5578SOL     OW17632   3.945   2.459   6.284
 5578SOL    HW117633   3.928   2.437   6.380
 5578SOL    HW217634   3.861   2.445   6.231
 5579SOL     OW17635   5.116   4.763   1.905
 5579SOL    HW117636   5.032   4.719   1.872
 5579SOL    HW217637   5.097   4.858   1.930
 5580SOL     OW17638   5.469   1.546   1.842
 5580SOL    HW117639   5.469   1.514   1.747
 5580SOL    HW217640   5.429   1.476   1.901
 5581SOL     OW17641   3.458   2.513   0.608
 5581SOL    HW117642   3.469   2.603   0.651
 5581SOL    HW217643   3.396   2.521   0.530
 5582SOL     OW17644   3.232   3.183   3.085
 5582SOL    HW117645   3.237   3.090   3.048
 5582SOL    HW217646   3.221   3.179   3.184
 5583SOL     OW17647   3.893   0.631   0.159
 5583SOL    HW117648   3.889   0.679   0.072
 5583SOL    HW217649   3.813   0.573   0.170
 5584SOL     OW17650   4.942   3.788   3.743
 5584SOL    HW117651   4.988   3.828   3.822
 5584SOL    HW217652   4.900   3.701   3.770
 5585SOL     OW17653   0.388   0.197   3.303
 5585SOL    HW117654   0.459   0.136   3.268
 5585SOL    HW217655   0.298   0.165   3.273
 5586SOL     OW17656   2.214   0.708   6.649
 5586SOL    HW117657   2.173   0.793   6.684
 5586SOL    HW217658   2.142   0.643   6.626
 5587SOL     OW17659   3.759   6.161   3.528
 5587SOL    HW117660   3.731   6.088   3.591
 5587SOL    HW217661   3.709   6.245   3.550
 5588SOL     OW17662   5.514   6.634   6.532
 5588SOL    HW117663   5.477   6.615   6.441
 5588SOL    HW217664   5.465   6.712   6.572
 5589SOL     OW17665   1.974   4.038   0.178
 5589SOL    HW117666   2.036   4.075   0.109
 5589SOL    HW217667   1.981   3.938   0.179
 5590SOL     OW17668   6.775   0.361   3.704
 5590SOL    HW117669   6.849   0.314   3.754
 5590SOL    HW217670   6.756   0.448   3.748
 5591SOL     OW17671   5.748   0.320   0.378
 5591SOL    HW117672   5.778   0.332   0.283
 5591SOL    HW217673   5.656   0.357   0.388
 5592SOL     OW17674   1.444   2.929   2.710
 5592SOL    HW117675   1.367   2.968   2.660
 5592SOL    HW217676   1.436   2.829   2.709
 5593SOL     OW17677   2.277   4.197   4.785
 5593SOL    HW117678   2.177   4.203   4.784
 5593SOL    HW217679   2.305   4.120   4.842
 5594SOL     OW17680   2.544   1.250   6.372
 5594SOL    HW117681   2.608   1.325   6.357
 5594SOL    HW217682   2.584   1.164   6.340
 5595SOL     OW17683   0.866   3.182   6.795
 5595SOL    HW117684   0.843   3.105   6.735
 5595SOL    HW217685   0.849   3.268   6.746
 5596SOL     OW17686   4.865   3.624   4.062
 5596SOL    HW117687   4.902   3.573   3.985
 5596SOL    HW217688   4.819   3.561   4.125
 5597SOL     OW17689   0.113   1.852   6.735
 5597SOL    HW117690   0.025   1.868   6.689
 5597SOL    HW217691   0.106   1.883   6.830
 5598SOL     OW17692   6.049   0.904   3.952
 5598SOL    HW117693   5.966   0.946   3.914
 5598SOL    HW217694   6.022   0.838   4.023
 5599SOL     OW17695   5.531   3.248   3.037
 5599SOL    HW117696   5.544   3.176   3.105
 5599SOL    HW217697   5.594   3.323   3.055
 5600SOL     OW17698   1.781   2.852   1.778
 5600SOL    HW117699   1.730   2.785   1.832
 5600SOL    HW217700   1.822   2.920   1.839
 5601SOL     OW17701   5.716   2.614   6.563
 5601SOL    HW117702   5.722   2.526   6.611
 5601SOL    HW217703   5.620   2.636   6.547
 5602SOL     OW17704   6.546   1.786   3.228
 5602SOL    HW117705   6.467   1.734   3.198
 5602SOL    HW217706   6.583   1.747   3.312
 5603SOL     OW17707   3.704   2.067   6.277
 5603SOL    HW117708   3.713   2.150   6.223
 5603SOL    HW217709   3.709   1.987   6.217
 5604SOL     OW17710   1.069   5.406   3.051
 5604SOL    HW117711   0.974   5.436   3.042
 5604SOL    HW217712   1.112   5.453   3.128
 5605SOL     OW17713   3.606   6.745   4.471
 5605SOL    HW117714   3.694   6.720   4.513
 5605SOL    HW217715   3.612   6.733   4.372
 5606SOL     OW17716   4.332   3.396   1.050
 5606SOL    HW117717   4.421   3.417   1.090
 5606SOL    HW217718   4.272   3.475   1.056
 5607SOL     OW17719   0.550   2.368   2.967
 5607SOL    HW117720   0.640   2.331   2.990
 5607SOL    HW217721   0.530   2.349   2.871
 5608SOL     OW17722   6.372   0.296   3.890
 5608SOL    HW117723   6.429   0.295   3.808
 5608SOL    HW217724   6.294   0.357   3.876
 5609SOL     OW17725   6.503   0.682   6.942
 5609SOL    HW117726   6.547   0.600   6.980
 5609SOL    HW217727   6.567   0.759   6.945
 5610SOL     OW17728   5.795   6.268   6.081
 5610SOL    HW117729   5.779   6.306   5.990
 5610SOL    HW217730   5.719   6.209   6.107
 5611SOL     OW17731   6.757   3.954   1.315
 5611SOL    HW117732   6.811   3.880   1.276
 5611SOL    HW217733   6.675   3.969   1.259
 5612SOL     OW17734   4.408   2.191   1.559
 5612SOL    HW117735   4.403   2.226   1.652
 5612SOL    HW217736   4.319   2.154   1.532
 5613SOL     OW17737   6.619   5.216   5.310
 5613SOL    HW117738   6.633   5.124   5.348
 5613SOL    HW217739   6.521   5.236   5.310
 5614SOL     OW17740   5.258   2.140   4.861
 5614SOL    HW117741   5.229   2.046   4.877
 5614SOL    HW217742   5.357   2.142   4.843
 5615SOL     OW17743   0.610   3.231   2.831
 5615SOL    HW117744   0.661   3.232   2.745
 5615SOL    HW217745   0.667   3.270   2.904
 5616SOL     OW17746   1.599   3.258   1.865
 5616SOL    HW117747   1.616   3.353   1.890
 5616SOL    HW217748   1.686   3.213   1.844
 5617SOL     OW17749   0.681   5.079   5.787
 5617SOL    HW117750   0.631   5.143   5.845
 5617SOL    HW217751   0.752   5.034   5.841
 5618SOL     OW17752   4.788   0.177   2.832
 5618SOL    HW117753   4.819   0.196   2.925
 5618SOL    HW217754   4.822   0.248   2.770
 5619SOL     OW17755   2.937   3.719   3.330
 5619SOL    HW117756   3.027   3.679   3.315
 5619SOL    HW217757   2.932   3.756   3.423
 5620SOL     OW17758   5.065   4.987   5.390
 5620SOL    HW117759   5.126   4.996   5.469
 5620SOL    HW217760   5.088   5.057   5.322
 5621SOL     OW17761   1.332   3.217   6.366
 5621SOL    HW117762   1.331   3.129   6.412
 5621SOL    HW217763   1.334   3.203   6.267
 5622SOL     OW17764   5.925   5.593   3.368
 5622SOL    HW117765   5.934   5.517   3.304
 5622SOL    HW217766   6.002   5.656   3.356
 5623SOL     OW17767   4.680   4.758   3.917
 5623SOL    HW117768   4.605   4.693   3.929
 5623SOL    HW217769   4.767   4.709   3.909
 5624SOL     OW17770   5.237   4.020   3.728
 5624SOL    HW117771   5.205   4.050   3.637
 5624SOL    HW217772   5.166   3.964   3.771
 5625SOL     OW17773   2.834   6.688   6.339
 5625SOL    HW117774   2.803   6.759   6.276
 5625SOL    HW217775   2.755   6.641   6.379
 5626SOL     OW17776   1.843   5.133   6.613
 5626SOL    HW117777   1.877   5.106   6.703
 5626SOL    HW217778   1.810   5.227   6.616
 5627SOL     OW17779   1.143   5.398   0.685
 5627SOL    HW117780   1.199   5.353   0.616
 5627SOL    HW217781   1.198   5.411   0.768
 5628SOL     OW17782   1.860   3.012   0.130
 5628SOL    HW117783   1.780   2.958   0.158
 5628SOL    HW217784   1.919   2.957   0.072
 5629SOL     OW17785   0.024   3.501   4.340
 5629SOL    HW117786   0.085   3.549   4.404
 5629SOL    HW217787   6.960   3.474   4.388
 5630SOL     OW17788   1.527   4.457   0.315
 5630SOL    HW117789   1.428   4.473   0.311
 5630SOL    HW217790   1.556   4.447   0.410
 5631SOL     OW17791   3.963   0.445   2.669
 5631SOL    HW117792   4.061   0.439   2.647
 5631SOL    HW217793   3.918   0.504   2.602
 5632SOL     OW17794   3.567   6.604   6.760
 5632SOL    HW117795   3.607   6.678   6.814
 5632SOL    HW217796   3.467   6.612   6.761
 5633SOL     OW17797   1.576   5.183   5.376
 5633SOL    HW117798   1.568   5.084   5.387
 5633SOL    HW217799   1.672   5.210   5.381
 5634SOL     OW17800   2.782   0.450   2.022
 5634SOL    HW117801   2.748   0.486   1.936
 5634SOL    HW217802   2.882   0.451   2.021
 5635SOL     OW17803   3.693   0.370   2.452
 5635SOL    HW117804   3.663   0.322   2.534
 5635SOL    HW217805   3.761   0.439   2.477
 5636SOL     OW17806   5.157   0.152   4.908
 5636SOL    HW117807   5.087   0.173   4.977
 5636SOL    HW217808   5.160   0.227   4.842
 5637SOL     OW17809   5.178   6.892   5.179
 5637SOL    HW117810   5.249   6.842   5.130
 5637SOL    HW217811   5.212   6.984   5.201
 5638SOL     OW17812   0.163   5.741   0.201
 5638SOL    HW117813   0.156   5.740   0.301
 5638SOL    HW217814   0.074   5.720   0.161
 5639SOL     OW17815   3.033   6.911   2.446
 5639SOL    HW117816   3.037   6.997   2.394
 5639SOL    HW217817   2.947   6.864   2.428
 5640SOL     OW17818   3.631   0.238   3.917
 5640SOL    HW117819   3.702   0.251   3.847
 5640SOL    HW217820   3.629   0.142   3.945
 5641SOL     OW17821   6.426   4.555   3.748
 5641SOL    HW117822   6.385   4.482   3.693
 5641SOL    HW217823   6.372   4.639   3.737
 5642SOL     OW17824   2.457   2.543   6.245
 5642SOL    HW117825   2.367   2.578   6.219
 5642SOL    HW217826   2.516   2.539   6.164
 5643SOL     OW17827   5.704   2.938   3.884
 5643SOL    HW117828   5.748   2.940   3.794
 5643SOL    HW217829   5.677   2.844   3.905
 5644SOL     OW17830   3.368   0.667   6.038
 5644SOL    HW117831   3.445   0.729   6.023
 5644SOL    HW217832   3.401   0.579   6.071
 5645SOL     OW17833   5.998   6.907   2.803
 5645SOL    HW117834   5.945   6.987   2.834
 5645SOL    HW217835   5.935   6.837   2.769
 5646SOL     OW17836   6.498   0.315   3.652
 5646SOL    HW117837   6.580   0.367   3.626
 5646SOL    HW217838   6.501   0.225   3.608
 5647SOL     OW17839   5.936   3.695   6.624
 5647SOL    HW117840   5.900   3.780   6.585
 5647SOL    HW217841   5.897   3.617   6.575
 5648SOL     OW17842   2.360   1.667   4.131
 5648SOL    HW117843   2.419   1.598   4.091
 5648SOL    HW217844   2.278   1.679   4.074
 5649SOL     OW17845   0.744   0.364   5.158
 5649SOL    HW117846   0.806   0.297   5.116
 5649SOL    HW217847   0.717   0.332   5.249
 5650SOL     OW17848   6.984   4.727   5.068
 5650SOL    HW117849   6.915   4.732   5.140
 5650SOL    HW217850   0.038   4.791   5.087
 5651SOL     OW17851   6.088   0.512   2.376
 5651SOL    HW117852   6.104   0.518   2.475
 5651SOL    HW217853   5.994   0.539   2.356
 5652SOL     OW17854   5.226   4.434   6.938
 5652SOL    HW117855   5.303   4.490   6.906
 5652SOL    HW217856   5.250   4.393   0.006
 5653SOL     OW17857   1.900   6.137   6.926
 5653SOL    HW117858   1.944   6.106   6.842
 5653SOL    HW217859   1.866   6.058   6.977
 5654SOL     OW17860   1.716   0.169   0.126
 5654SOL    HW117861   1.760   0.190   0.213
 5654SOL    HW217862   1.618   0.187   0.132
 5655SOL     OW17863   6.387   5.060   3.144
 5655SOL    HW117864   6.304   5.108   3.172
 5655SOL    HW217865   6.398   5.067   3.045
 5656SOL     OW17866   3.826   5.403   6.396
 5656SOL    HW117867   3.731   5.404   6.430
 5656SOL    HW217868   3.858   5.497   6.384
 5657SOL     OW17869   4.653   4.926   1.901
 5657SOL    HW117870   4.675   5.004   1.959
 5657SOL    HW217871   4.573   4.948   1.845
 5658SOL     OW17872   4.510   6.627   5.865
 5658SOL    HW117873   4.425   6.588   5.830
 5658SOL    HW217874   4.494   6.721   5.895
 5659SOL     OW17875   3.712   4.107   3.256
 5659SOL    HW117876   3.668   4.048   3.189
 5659SOL    HW217877   3.809   4.117   3.234
 5660SOL     OW17878   6.862   5.563   1.568
 5660SOL    HW117879   6.823   5.641   1.619
 5660SOL    HW217880   6.927   5.597   1.501
 5661SOL     OW17881   6.200   5.878   4.833
 5661SOL    HW117882   6.234   5.938   4.906
 5661SOL    HW217883   6.265   5.879   4.757
 5662SOL     OW17884   1.604   4.784   4.391
 5662SOL    HW117885   1.702   4.797   4.373
 5662SOL    HW217886   1.593   4.713   4.461
 5663SOL     OW17887   2.420   3.705   1.030
 5663SOL    HW117888   2.330   3.663   1.028
 5663SOL    HW217889   2.459   3.705   0.938
 5664SOL     OW17890   6.313   6.066   1.826
 5664SOL    HW117891   6.367   6.088   1.745
 5664SOL    HW217892   6.231   6.122   1.828
 5665SOL     OW17893   1.358   1.106   5.743
 5665SOL    HW117894   1.452   1.083   5.717
 5665SOL    HW217895   1.294   1.050   5.690
 5666SOL     OW17896   5.835   5.299   6.825
 5666SOL    HW117897   5.765   5.319   6.756
 5666SOL    HW217898   5.866   5.385   6.866
 5667SOL     OW17899   5.578   4.266   2.473
 5667SOL    HW117900   5.533   4.216   2.547
 5667SOL    HW217901   5.573   4.364   2.491
 5668SOL     OW17902   6.326   2.311   6.888
 5668SOL    HW117903   6.325   2.249   6.809
 5668SOL    HW217904   6.291   2.263   6.968
 5669SOL     OW17905   0.324   3.059   4.733
 5669SOL    HW117906   0.298   3.129   4.799
 5669SOL    HW217907   0.369   3.102   4.654
 5670SOL     OW17908   1.705   3.561   2.254
 5670SOL    HW117909   1.638   3.603   2.316
 5670SOL    HW217910   1.729   3.470   2.288
 5671SOL     OW17911   1.061   0.806   5.019
 5671SOL    HW117912   1.018   0.715   5.021
 5671SOL    HW217913   1.002   0.870   4.970
 5672SOL     OW17914   4.838   4.171   5.854
 5672SOL    HW117915   4.780   4.098   5.819
 5672SOL    HW217916   4.859   4.155   5.950
 5673SOL     OW17917   1.495   6.902   0.675
 5673SOL    HW117918   1.423   6.850   0.721
 5673SOL    HW217919   1.567   6.924   0.741
 5674SOL     OW17920   0.122   2.878   1.426
 5674SOL    HW117921   0.128   2.928   1.512
 5674SOL    HW217922   0.135   2.780   1.442
 5675SOL     OW17923   3.844   1.112   5.735
 5675SOL    HW117924   3.923   1.160   5.775
 5675SOL    HW217925   3.815   1.160   5.652
 5676SOL     OW17926   2.541   7.011   2.148
 5676SOL    HW117927   2.492   6.937   2.103
 5676SOL    HW217928   2.555   0.066   2.083
 5677SOL     OW17929   6.238   0.295   2.933
 5677SOL    HW117930   6.325   0.318   2.976
 5677SOL    HW217931   6.184   0.239   2.996
 5678SOL     OW17932   1.005   5.232   2.803
 5678SOL    HW117933   0.986   5.202   2.709
 5678SOL    HW217934   0.962   5.320   2.819
 5679SOL     OW17935   4.009   5.900   5.593
 5679SOL    HW117936   3.972   5.872   5.681
 5679SOL    HW217937   4.089   5.844   5.571
 5680SOL     OW17938   1.712   6.913   6.997
 5680SOL    HW117939   1.690   6.827   0.022
 5680SOL    HW217940   1.740   6.981   0.045
 5681SOL     OW17941   2.880   4.216   6.439
 5681SOL    HW117942   2.947   4.289   6.440
 5681SOL    HW217943   2.869   4.182   6.346
 5682SOL     OW17944   2.105   2.943   3.947
 5682SOL    HW117945   2.140   2.973   4.036
 5682SOL    HW217946   2.010   2.974   3.937
 5683SOL     OW17947   4.098   3.487   5.180
 5683SOL    HW117948   4.115   3.389   5.188
 5683SOL    HW217949   4.123   3.518   5.088
 5684SOL     OW17950   3.013   3.912   3.150
 5684SOL    HW117951   2.958   3.863   3.218
 5684SOL    HW217952   3.089   3.958   3.196
 5685SOL     OW17953   0.331   5.991   1.176
 5685SOL    HW117954   0.405   6.017   1.238
 5685SOL    HW217955   0.298   5.900   1.199
 5686SOL     OW17956   3.505   4.581   0.079
 5686SOL    HW117957   3.445   4.509   0.042
 5686SOL    HW217958   3.574   4.605   0.011
 5687SOL     OW17959   4.366   5.812   6.514
 5687SOL    HW117960   4.342   5.799   6.610
 5687SOL    HW217961   4.331   5.900   6.482
 5688SOL     OW17962   5.081   1.570   1.921
 5688SOL    HW117963   5.160   1.611   1.967
 5688SOL    HW217964   5.036   1.506   1.983
 5689SOL     OW17965   4.512   3.770   5.760
 5689SOL    HW117966   4.416   3.777   5.731
 5689SOL    HW217967   4.553   3.689   5.720
 5690SOL     OW17968   3.675   6.982   3.356
 5690SOL    HW117969   3.698   7.015   3.265
 5690SOL    HW217970   3.642   6.888   3.351
 5691SOL     OW17971   3.531   0.165   4.472
 5691SOL    HW117972   3.573   0.253   4.494
 5691SOL    HW217973   3.602   0.095   4.470
 5692SOL     OW17974   5.482   2.606   6.323
 5692SOL    HW117975   5.516   2.690   6.281
 5692SOL    HW217976   5.469   2.620   6.421
 5693SOL     OW17977   5.101   2.466   2.583
 5693SOL    HW117978   5.134   2.555   2.617
 5693SOL    HW217979   5.010   2.477   2.544
 5694SOL     OW17980   1.779   2.047   4.418
 5694SOL    HW117981   1.696   2.051   4.362
 5694SOL    HW217982   1.784   2.130   4.475
 5695SOL     OW17983   2.256   4.003   3.272
 5695SOL    HW117984   2.236   4.064   3.195
 5695SOL    HW217985   2.330   4.041   3.326
 5696SOL     OW17986   2.836   0.569   6.098
 5696SOL    HW117987   2.879   0.637   6.158
 5696SOL    HW217988   2.878   0.574   6.008
 5697SOL     OW17989   6.133   3.701   0.243
 5697SOL    HW117990   6.110   3.674   0.150
 5697SOL    HW217991   6.131   3.801   0.250
 5698SOL     OW17992   1.715   4.577   3.751
 5698SOL    HW117993   1.649   4.578   3.826
 5698SOL    HW217994   1.790   4.641   3.772
 5699SOL     OW17995   0.228   2.645   5.146
 5699SOL    HW117996   0.245   2.635   5.244
 5699SOL    HW217997   0.238   2.556   5.101
 5700SOL     OW17998   1.120   5.420   3.685
 5700SOL    HW117999   1.196   5.370   3.644
 5700SOL    HW218000   1.034   5.384   3.650
 5701SOL     OW18001   4.876   4.002   2.756
 5701SOL    HW118002   4.972   4.024   2.738
 5701SOL    HW218003   4.866   3.905   2.777
 5702SOL     OW18004   3.202   0.381   6.905
 5702SOL    HW118005   3.182   0.477   6.926
 5702SOL    HW218006   3.221   0.331   6.990
 5703SOL     OW18007   4.702   4.260   1.699
 5703SOL    HW118008   4.609   4.264   1.736
 5703SOL    HW218009   4.756   4.336   1.735
 5704SOL     OW18010   5.030   4.318   3.521
 5704SOL    HW118011   5.068   4.229   3.498
 5704SOL    HW218012   5.033   4.377   3.440
 5705SOL     OW18013   6.304   1.571   3.805
 5705SOL    HW118014   6.280   1.655   3.853
 5705SOL    HW218015   6.377   1.524   3.854
 5706SOL     OW18016   2.086   1.270   6.598
 5706SOL    HW118017   2.026   1.286   6.520
 5706SOL    HW218018   2.036   1.222   6.670
 5707SOL     OW18019   3.567   1.405   0.060
 5707SOL    HW118020   3.469   1.422   0.062
 5707SOL    HW218021   3.615   1.485   0.025
 5708SOL     OW18022   6.868   6.958   0.903
 5708SOL    HW118023   6.964   6.974   0.882
 5708SOL    HW218024   6.847   6.992   0.995
 5709SOL     OW18025   1.238   2.641   0.866
 5709SOL    HW118026   1.182   2.722   0.880
 5709SOL    HW218027   1.318   2.664   0.811
 5710SOL     OW18028   3.571   4.467   0.310
 5710SOL    HW118029   3.547   4.512   0.223
 5710SOL    HW218030   3.488   4.428   0.350
 5711SOL     OW18031   5.353   1.754   5.132
 5711SOL    HW118032   5.307   1.790   5.051
 5711SOL    HW218033   5.372   1.828   5.196
 5712SOL     OW18034   6.311   6.516   6.846
 5712SOL    HW118035   6.236   6.526   6.911
 5712SOL    HW218036   6.375   6.592   6.857
 5713SOL     OW18037   0.081   2.519   2.729
 5713SOL    HW118038   0.110   2.562   2.815
 5713SOL    HW218039   0.160   2.507   2.669
 5714SOL     OW18040   1.968   0.580   6.487
 5714SOL    HW118041   1.996   0.646   6.418
 5714SOL    HW218042   1.916   0.627   6.559
 5715SOL     OW18043   1.806   0.197   3.278
 5715SOL    HW118044   1.853   0.282   3.300
 5715SOL    HW218045   1.768   0.202   3.185
 5716SOL     OW18046   1.924   2.127   5.299
 5716SOL    HW118047   1.901   2.095   5.208
 5716SOL    HW218048   2.018   2.162   5.300
 5717SOL     OW18049   0.498   3.228   5.793
 5717SOL    HW118050   0.586   3.264   5.762
 5717SOL    HW218051   0.454   3.294   5.853
 5718SOL     OW18052   2.651   4.933   6.240
 5718SOL    HW118053   2.738   4.972   6.272
 5718SOL    HW218054   2.592   5.007   6.207
 5719SOL     OW18055   2.270   0.814   0.764
 5719SOL    HW118056   2.299   0.901   0.804
 5719SOL    HW218057   2.314   0.801   0.676
 5720SOL     OW18058   1.558   5.926   3.854
 5720SOL    HW118059   1.608   6.002   3.894
 5720SOL    HW218060   1.622   5.854   3.828
 5721SOL     OW18061   6.625   3.887   0.170
 5721SOL    HW118062   6.624   3.805   0.228
 5721SOL    HW218063   6.550   3.947   0.197
 5722SOL     OW18064   5.464   1.296   4.070
 5722SOL    HW118065   5.384   1.242   4.099
 5722SOL    HW218066   5.535   1.234   4.037
 5723SOL     OW18067   0.550   4.566   1.420
 5723SOL    HW118068   0.481   4.510   1.376
 5723SOL    HW218069   0.568   4.647   1.364
 5724SOL     OW18070   4.833   2.762   5.830
 5724SOL    HW118071   4.769   2.742   5.905
 5724SOL    HW218072   4.784   2.811   5.758
 5725SOL     OW18073   5.458   6.523   5.484
 5725SOL    HW118074   5.552   6.502   5.511
 5725SOL    HW218075   5.460   6.575   5.398
 5726SOL     OW18076   4.152   4.819   5.482
 5726SOL    HW118077   4.236   4.800   5.532
 5726SOL    HW218078   4.169   4.892   5.416
 5727SOL     OW18079   5.593   2.578   4.258
 5727SOL    HW118080   5.509   2.614   4.299
 5727SOL    HW218081   5.672   2.610   4.310
 5728SOL     OW18082   4.454   0.602   5.465
 5728SOL    HW118083   4.445   0.513   5.421
 5728SOL    HW218084   4.550   0.619   5.487
 5729SOL     OW18085   1.282   2.890   3.845
 5729SOL    HW118086   1.183   2.900   3.856
 5729SOL    HW218087   1.323   2.980   3.828
 5730SOL     OW18088   4.175   4.824   0.323
 5730SOL    HW118089   4.123   4.754   0.372
 5730SOL    HW218090   4.234   4.873   0.387
 5731SOL     OW18091   4.514   1.230   4.871
 5731SOL    HW118092   4.506   1.322   4.909
 5731SOL    HW218093   4.470   1.226   4.781
 5732SOL     OW18094   5.461   4.512   4.739
 5732SOL    HW118095   5.457   4.415   4.714
 5732SOL    HW218096   5.471   4.568   4.657
 5733SOL     OW18097   2.588   0.244   1.981
 5733SOL    HW118098   2.509   0.251   2.041
 5733SOL    HW218099   2.643   0.328   1.987
 5734SOL     OW18100   1.775   6.841   5.820
 5734SOL    HW118101   1.800   6.745   5.811
 5734SOL    HW218102   1.713   6.853   5.897
 5735SOL     OW18103   5.527   0.981   0.979
 5735SOL    HW118104   5.590   1.019   0.911
 5735SOL    HW218105   5.492   1.055   1.036
 5736SOL     OW18106   5.511   3.679   6.419
 5736SOL    HW118107   5.558   3.722   6.342
 5736SOL    HW218108   5.438   3.739   6.452
 5737SOL     OW18109   5.361   5.883   2.488
 5737SOL    HW118110   5.336   5.850   2.397
 5737SOL    HW218111   5.458   5.865   2.504
 5738SOL     OW18112   2.431   0.828   1.314
 5738SOL    HW118113   2.372   0.905   1.337
 5738SOL    HW218114   2.458   0.834   1.218
 5739SOL     OW18115   2.288   0.793   5.096
 5739SOL    HW118116   2.301   0.812   4.999
 5739SOL    HW218117   2.376   0.792   5.143
 5740SOL     OW18118   4.891   3.337   2.264
 5740SOL    HW118119   4.890   3.390   2.179
 5740SOL    HW218120   4.884   3.399   2.342
 5741SOL     OW18121   1.485   3.343   4.310
 5741SOL    HW118122   1.525   3.435   4.310
 5741SOL    HW218123   1.403   3.343   4.253
 5742SOL     OW18124   6.005   5.778   2.308
 5742SOL    HW118125   6.088   5.725   2.292
 5742SOL    HW218126   5.929   5.716   2.325
 5743SOL     OW18127   3.573   5.594   0.359
 5743SOL    HW118128   3.586   5.668   0.425
 5743SOL    HW218129   3.649   5.529   0.366
 5744SOL     OW18130   5.206   5.989   3.392
 5744SOL    HW118131   5.215   5.901   3.440
 5744SOL    HW218132   5.121   6.033   3.419
 5745SOL     OW18133   1.248   3.333   2.635
 5745SOL    HW118134   1.242   3.234   2.644
 5745SOL    HW218135   1.203   3.376   2.714
 5746SOL     OW18136   5.290   0.464   3.047
 5746SOL    HW118137   5.389   0.450   3.052
 5746SOL    HW218138   5.244   0.378   3.070
 5747SOL     OW18139   1.886   6.857   1.308
 5747SOL    HW118140   1.815   6.924   1.285
 5747SOL    HW218141   1.847   6.765   1.307
 5748SOL     OW18142   5.816   6.355   6.916
 5748SOL    HW118143   5.855   6.442   6.947
 5748SOL    HW218144   5.873   6.280   6.949
 5749SOL     OW18145   2.007   6.145   6.190
 5749SOL    HW118146   1.992   6.063   6.246
 5749SOL    HW218147   1.946   6.142   6.111
 5750SOL     OW18148   6.466   2.554   4.250
 5750SOL    HW118149   6.496   2.470   4.204
 5750SOL    HW218150   6.542   2.619   4.255
 5751SOL     OW18151   0.496   3.669   4.395
 5751SOL    HW118152   0.439   3.738   4.440
 5751SOL    HW218153   0.464   3.655   4.302
 5752SOL     OW18154   5.556   0.856   0.561
 5752SOL    HW118155   5.644   0.875   0.605
 5752SOL    HW218156   5.512   0.780   0.609
 5753SOL     OW18157   3.673   3.879   4.552
 5753SOL    HW118158   3.700   3.874   4.648
 5753SOL    HW218159   3.665   3.787   4.515
 5754SOL     OW18160   6.399   6.048   0.949
 5754SOL    HW118161   6.351   6.123   0.994
 5754SOL    HW218162   6.454   5.998   1.016
 5755SOL     OW18163   1.452   2.934   6.874
 5755SOL    HW118164   1.472   2.983   6.958
 5755SOL    HW218165   1.500   2.846   6.875
 5756SOL     OW18166   6.453   6.354   1.757
 5756SOL    HW118167   6.380   6.322   1.698
 5756SOL    HW218168   6.531   6.291   1.751
 5757SOL     OW18169   0.312   1.364   3.680
 5757SOL    HW118170   0.239   1.432   3.694
 5757SOL    HW218171   0.290   1.280   3.729
 5758SOL     OW18172   6.248   6.827   2.905
 5758SOL    HW118173   6.236   6.754   2.972
 5758SOL    HW218174   6.164   6.881   2.897
 5759SOL     OW18175   2.373   6.973   2.411
 5759SOL    HW118176   2.299   6.946   2.350
 5759SOL    HW218177   2.450   7.006   2.357
 5760SOL     OW18178   0.654   1.927   6.557
 5760SOL    HW118179   0.727   1.977   6.605
 5760SOL    HW218180   0.679   1.830   6.551
 5761SOL     OW18181   6.683   6.381   4.577
 5761SOL    HW118182   6.722   6.407   4.666
 5761SOL    HW218183   6.605   6.440   4.557
 5762SOL     OW18184   1.060   5.592   5.632
 5762SOL    HW118185   1.114   5.645   5.567
 5762SOL    HW218186   1.116   5.517   5.668
 5763SOL     OW18187   5.298   0.428   0.623
 5763SOL    HW118188   5.315   0.338   0.663
 5763SOL    HW218189   5.202   0.452   0.638
 5764SOL     OW18190   4.687   6.288   4.213
 5764SOL    HW118191   4.696   6.218   4.284
 5764SOL    HW218192   4.626   6.360   4.244
 5765SOL     OW18193   6.711   5.180   2.209
 5765SOL    HW118194   6.725   5.081   2.211
 5765SOL    HW218195   6.788   5.223   2.160
 5766SOL     OW18196   0.786   1.557   3.983
 5766SOL    HW118197   0.774   1.484   3.915
 5766SOL    HW218198   0.726   1.633   3.960
 5767SOL     OW18199   4.319   6.625   0.475
 5767SOL    HW118200   4.244   6.648   0.413
 5767SOL    HW218201   4.357   6.709   0.514
 5768SOL     OW18202   1.345   0.799   5.142
 5768SOL    HW118203   1.332   0.710   5.185
 5768SOL    HW218204   1.257   0.836   5.113
 5769SOL     OW18205   0.850   3.080   5.635
 5769SOL    HW118206   0.763   3.036   5.658
 5769SOL    HW218207   0.925   3.020   5.662
 5770SOL     OW18208   1.857   4.543   2.300
 5770SOL    HW118209   1.877   4.467   2.237
 5770SOL    HW218210   1.758   4.554   2.308
 5771SOL     OW18211   2.891   5.118   3.708
 5771SOL    HW118212   2.904   5.019   3.698
 5771SOL    HW218213   2.819   5.148   3.645
 5772SOL     OW18214   3.060   0.079   3.129
 5772SOL    HW118215   3.021   0.052   3.217
 5772SOL    HW218216   3.060   0.179   3.123
 5773SOL     OW18217   5.648   1.110   3.537
 5773SOL    HW118218   5.572   1.152   3.586
 5773SOL    HW218219   5.656   1.150   3.446
 5774SOL     OW18220   1.421   0.033   3.204
 5774SOL    HW118221   1.352   0.014   3.135
 5774SOL    HW218222   1.416   6.985   3.277
 5775SOL     OW18223   5.921   5.077   2.333
 5775SOL    HW118224   5.826   5.075   2.303
 5775SOL    HW218225   5.976   5.129   2.267
 5776SOL     OW18226   2.902   1.239   4.352
 5776SOL    HW118227   2.962   1.163   4.379
 5776SOL    HW218228   2.927   1.270   4.261
 5777SOL     OW18229   1.304   0.385   1.572
 5777SOL    HW118230   1.245   0.329   1.629
 5777SOL    HW218231   1.398   0.382   1.607
 5778SOL     OW18232   6.915   0.470   0.674
 5778SOL    HW118233   6.942   0.564   0.656
 5778SOL    HW218234   6.963   0.436   0.755
 5779SOL     OW18235   5.938   1.426   0.097
 5779SOL    HW118236   5.924   1.501   0.162
 5779SOL    HW218237   5.881   1.348   0.124
 5780SOL     OW18238   5.119   4.796   4.138
 5780SOL    HW118239   5.173   4.781   4.056
 5780SOL    HW218240   5.087   4.891   4.140
 5781SOL     OW18241   1.675   5.363   5.902
 5781SOL    HW118242   1.625   5.276   5.898
 5781SOL    HW218243   1.772   5.345   5.919
 5782SOL     OW18244   0.082   0.792   6.957
 5782SOL    HW118245   0.147   0.716   6.962
 5782SOL    HW218246   0.009   0.779   0.004
 5783SOL     OW18247   2.377   2.560   7.011
 5783SOL    HW118248   2.350   2.610   0.074
 5783SOL    HW218249   2.345   2.609   6.930
 5784SOL     OW18250   0.043   6.546   6.400
 5784SOL    HW118251   6.983   6.559   6.458
 5784SOL    HW218252   0.100   6.628   6.403
 5785SOL     OW18253   1.213   1.407   0.855
 5785SOL    HW118254   1.182   1.409   0.759
 5785SOL    HW218255   1.311   1.423   0.858
 5786SOL     OW18256   6.318   5.413   1.326
 5786SOL    HW118257   6.343   5.473   1.250
 5786SOL    HW218258   6.337   5.318   1.301
 5787SOL     OW18259   2.245   2.933   5.637
 5787SOL    HW118260   2.343   2.917   5.628
 5787SOL    HW218261   2.221   2.940   5.734
 5788SOL     OW18262   3.333   0.520   4.046
 5788SOL    HW118263   3.244   0.510   4.091
 5788SOL    HW218264   3.351   0.616   4.029
 5789SOL     OW18265   3.845   5.210   6.201
 5789SOL    HW118266   3.848   5.288   6.264
 5789SOL    HW218267   3.931   5.205   6.150
 5790SOL     OW18268   1.108   3.825   3.720
 5790SOL    HW118269   1.019   3.857   3.688
 5790SOL    HW218270   1.174   3.900   3.714
 5791SOL     OW18271   1.858   0.643   3.135
 5791SOL    HW118272   1.897   0.724   3.091
 5791SOL    HW218273   1.831   0.577   3.065
 5792SOL     OW18274   6.946   2.285   2.618
 5792SOL    HW118275   7.011   2.210   2.602
 5792SOL    HW218276   6.994   2.363   2.658
 5793SOL     OW18277   6.548   0.633   4.723
 5793SOL    HW118278   6.466   0.621   4.668
 5793SOL    HW218279   6.584   0.543   4.749
 5794SOL     OW18280   5.931   4.694   6.148
 5794SOL    HW118281   5.860   4.634   6.111
 5794SOL    HW218282   5.989   4.726   6.074
 5795SOL     OW18283   5.729   4.114   6.712
 5795SOL    HW118284   5.633   4.085   6.720
 5795SOL    HW218285   5.773   4.063   6.638
 5796SOL     OW18286   3.058   2.180   0.542
 5796SOL    HW118287   3.136   2.233   0.576
 5796SOL    HW218288   2.986   2.243   0.512
 5797SOL     OW18289   2.959   2.416   5.433
 5797SOL    HW118290   2.936   2.378   5.343
 5797SOL    HW218291   2.876   2.442   5.481
 5798SOL     OW18292   6.581   5.362   4.623
 5798SOL    HW118293   6.559   5.439   4.563
 5798SOL    HW218294   6.521   5.285   4.600
 5799SOL     OW18295   5.027   0.895   4.147
 5799SOL    HW118296   4.983   0.984   4.140
 5799SOL    HW218297   5.082   0.878   4.065
 5800SOL     OW18298   5.965   5.886   6.854
 5800SOL    HW118299   5.962   5.932   6.766
 5800SOL    HW218300   6.060   5.884   6.887
 5801SOL     OW18301   1.862   0.907   2.755
 5801SOL    HW118302   1.920   0.835   2.791
 5801SOL    HW218303   1.915   0.992   2.749
 5802SOL     OW18304   1.005   2.811   4.872
 5802SOL    HW118305   0.933   2.880   4.858
 5802SOL    HW218306   1.047   2.789   4.784
 5803SOL     OW18307   1.598   4.592   0.918
 5803SOL    HW118308   1.626   4.617   1.011
 5803SOL    HW218309   1.602   4.672   0.859
 5804SOL     OW18310   6.650   2.856   6.019
 5804SOL    HW118311   6.597   2.783   6.063
 5804SOL    HW218312   6.672   2.926   6.087
 5805SOL     OW18313   5.932   3.281   6.766
 5805SOL    HW118314   6.006   3.219   6.795
 5805SOL    HW218315   5.895   3.250   6.679
 5806SOL     OW18316   0.097   6.814   6.640
 5806SOL    HW118317   0.051   6.899   6.667
 5806SOL    HW218318   0.125   6.821   6.544
 5807SOL     OW18319   2.307   3.699   1.738
 5807SOL    HW118320   2.306   3.606   1.775
 5807SOL    HW218321   2.384   3.710   1.676
 5808SOL     OW18322   6.148   1.756   3.469
 5808SOL    HW118323   6.095   1.741   3.553
 5808SOL    HW218324   6.240   1.718   3.481
 5809SOL     OW18325   0.421   3.044   4.265
 5809SOL    HW118326   0.470   3.080   4.186
 5809SOL    HW218327   0.345   2.987   4.234
 5810SOL     OW18328   2.131   2.182   2.496
 5810SOL    HW118329   2.216   2.225   2.466
 5810SOL    HW218330   2.095   2.231   2.576
 5811SOL     OW18331   2.983   0.742   2.248
 5811SOL    HW118332   3.064   0.800   2.251
 5811SOL    HW218333   2.917   0.772   2.317
 5812SOL     OW18334   4.429   0.471   4.465
 5812SOL    HW118335   4.443   0.473   4.564
 5812SOL    HW218336   4.459   0.557   4.425
 5813SOL     OW18337   1.631   1.147   5.037
 5813SOL    HW118338   1.637   1.052   5.067
 5813SOL    HW218339   1.560   1.195   5.090
 5814SOL     OW18340   6.949   5.090   0.714
 5814SOL    HW118341   6.905   5.094   0.624
 5814SOL    HW218342   6.879   5.104   0.785
 5815SOL     OW18343   3.757   1.388   3.671
 5815SOL    HW118344   3.693   1.427   3.605
 5815SOL    HW218345   3.824   1.456   3.698
 5816SOL     OW18346   4.973   6.964   1.277
 5816SOL    HW118347   4.881   6.976   1.315
 5816SOL    HW218348   4.986   0.009   1.202
 5817SOL     OW18349   5.849   1.971   6.008
 5817SOL    HW118350   5.922   2.039   6.001
 5817SOL    HW218351   5.880   1.885   5.967
 5818SOL     OW18352   6.142   6.458   5.564
 5818SOL    HW118353   6.181   6.422   5.479
 5818SOL    HW218354   6.180   6.549   5.583
 5819SOL     OW18355   5.530   0.447   1.075
 5819SOL    HW118356   5.533   0.450   1.175
 5819SOL    HW218357   5.442   0.482   1.043
 5820SOL     OW18358   5.585   5.422   2.391
 5820SOL    HW118359   5.543   5.428   2.481
 5820SOL    HW218360   5.594   5.326   2.365
 5821SOL     OW18361   3.227   6.749   2.375
 5821SOL    HW118362   3.270   6.714   2.459
 5821SOL    HW218363   3.146   6.802   2.400
 5822SOL     OW18364   0.838   1.303   2.049
 5822SOL    HW118365   0.931   1.274   2.068
 5822SOL    HW218366   0.821   1.392   2.090
 5823SOL     OW18367   2.303   2.903   4.448
 5823SOL    HW118368   2.287   2.994   4.487
 5823SOL    HW218369   2.319   2.837   4.521
 5824SOL     OW18370   4.084   0.648   3.338
 5824SOL    HW118371   3.998   0.699   3.335
 5824SOL    HW218372   4.066   0.550   3.348
 5825SOL     OW18373   3.051   0.990   1.250
 5825SOL    HW118374   3.115   1.001   1.325
 5825SOL    HW218375   2.957   0.996   1.285
 5826SOL     OW18376   6.624   6.704   4.321
 5826SOL    HW118377   6.597   6.684   4.227
 5826SOL    HW218378   6.575   6.644   4.384
 5827SOL     OW18379   1.955   4.821   5.416
 5827SOL    HW118380   1.923   4.911   5.445
 5827SOL    HW218381   1.967   4.820   5.317
 5828SOL     OW18382   6.473   2.170   1.745
 5828SOL    HW118383   6.543   2.142   1.811
 5828SOL    HW218384   6.514   2.180   1.654
 5829SOL     OW18385   1.527   1.754   1.891
 5829SOL    HW118386   1.503   1.692   1.965
 5829SOL    HW218387   1.579   1.705   1.821
 5830SOL     OW18388   2.164   1.144   5.319
 5830SOL    HW118389   2.138   1.110   5.229
 5830SOL    HW218390   2.260   1.123   5.337
 5831SOL     OW18391   5.836   6.105   3.000
 5831SOL    HW118392   5.789   6.021   3.029
 5831SOL    HW218393   5.871   6.093   2.907
 5832SOL     OW18394   3.451   3.430   4.564
 5832SOL    HW118395   3.379   3.387   4.619
 5832SOL    HW218396   3.504   3.492   4.621
 5833SOL     OW18397   3.412   3.294   4.987
 5833SOL    HW118398   3.474   3.367   5.015
 5833SOL    HW218399   3.440   3.208   5.028
 5834SOL     OW18400   6.431   0.818   0.166
 5834SOL    HW118401   6.374   0.894   0.195
 5834SOL    HW218402   6.417   0.800   0.069
 5835SOL     OW18403   5.404   2.757   4.389
 5835SOL    HW118404   5.473   2.735   4.458
 5835SOL    HW218405   5.327   2.803   4.433
 5836SOL     OW18406   3.256   6.806   2.854
 5836SOL    HW118407   3.216   6.739   2.916
 5836SOL    HW218408   3.291   6.884   2.906
 5837SOL     OW18409   4.589   4.785   6.709
 5837SOL    HW118410   4.557   4.863   6.655
 5837SOL    HW218411   4.643   4.725   6.650
 5838SOL     OW18412   0.410   1.372   5.373
 5838SOL    HW118413   0.377   1.466   5.368
 5838SOL    HW218414   0.334   1.309   5.361
 5839SOL     OW18415   0.058   2.511   2.275
 5839SOL    HW118416   0.150   2.534   2.304
 5839SOL    HW218417   0.046   2.536   2.179
 5840SOL     OW18418   2.693   5.493   0.298
 5840SOL    HW118419   2.789   5.495   0.325
 5840SOL    HW218420   2.681   5.431   0.220
 5841SOL     OW18421   6.159   2.333   2.613
 5841SOL    HW118422   6.211   2.299   2.535
 5841SOL    HW218423   6.149   2.261   2.682
 5842SOL     OW18424   4.001   3.309   0.092
 5842SOL    HW118425   3.946   3.369   0.034
 5842SOL    HW218426   4.060   3.364   0.150
 5843SOL     OW18427   1.145   3.026   1.201
 5843SOL    HW118428   1.163   2.989   1.110
 5843SOL    HW218429   1.185   2.966   1.270
 5844SOL     OW18430   1.633   5.920   6.809
 5844SOL    HW118431   1.614   5.889   6.902
 5844SOL    HW218432   1.573   5.996   6.786
 5845SOL     OW18433   1.062   2.452   4.648
 5845SOL    HW118434   1.104   2.543   4.643
 5845SOL    HW218435   0.969   2.460   4.685
 5846SOL     OW18436   0.947   3.294   6.352
 5846SOL    HW118437   1.020   3.248   6.302
 5846SOL    HW218438   0.895   3.352   6.288
 5847SOL     OW18439   1.470   2.136   3.758
 5847SOL    HW118440   1.376   2.135   3.793
 5847SOL    HW218441   1.478   2.207   3.687
 5848SOL     OW18442   1.244   5.155   3.671
 5848SOL    HW118443   1.269   5.080   3.609
 5848SOL    HW218444   1.168   5.126   3.730
 5849SOL     OW18445   3.240   6.766   5.618
 5849SOL    HW118446   3.287   6.838   5.568
 5849SOL    HW218447   3.243   6.785   5.716
 5850SOL     OW18448   0.695   4.510   3.349
 5850SOL    HW118449   0.733   4.437   3.293
 5850SOL    HW218450   0.704   4.486   3.445
 5851SOL     OW18451   5.303   3.022   2.173
 5851SOL    HW118452   5.262   2.958   2.109
 5851SOL    HW218453   5.377   3.073   2.128
 5852SOL     OW18454   3.997   5.867   2.744
 5852SOL    HW118455   3.988   5.785   2.800
 5852SOL    HW218456   4.062   5.930   2.786
 5853SOL     OW18457   4.721   4.474   5.520
 5853SOL    HW118458   4.641   4.416   5.535
 5853SOL    HW218459   4.699   4.568   5.548
 5854SOL     OW18460   0.976   0.955   6.712
 5854SOL    HW118461   0.944   0.916   6.799
 5854SOL    HW218462   0.968   1.055   6.716
 5855SOL     OW18463   1.958   1.240   4.953
 5855SOL    HW118464   1.948   1.143   4.934
 5855SOL    HW218465   2.038   1.276   4.904
 5856SOL     OW18466   2.306   5.183   3.043
 5856SOL    HW118467   2.301   5.204   3.140
 5856SOL    HW218468   2.221   5.210   2.998
 5857SOL     OW18469   0.203   2.325   5.396
 5857SOL    HW118470   0.212   2.228   5.421
 5857SOL    HW218471   0.180   2.332   5.299
 5858SOL     OW18472   3.637   6.711   3.373
 5858SOL    HW118473   3.655   6.714   3.471
 5858SOL    HW218474   3.693   6.640   3.331
 5859SOL     OW18475   6.648   5.724   1.594
 5859SOL    HW118476   6.595   5.767   1.521
 5859SOL    HW218477   6.591   5.716   1.676
 5860SOL     OW18478   0.631   3.495   0.865
 5860SOL    HW118479   0.578   3.559   0.809
 5860SOL    HW218480   0.697   3.546   0.919
 5861SOL     OW18481   5.982   2.078   4.247
 5861SOL    HW118482   5.969   2.065   4.346
 5861SOL    HW218483   5.893   2.090   4.204
 5862SOL     OW18484   4.593   4.419   3.734
 5862SOL    HW118485   4.686   4.445   3.762
 5862SOL    HW218486   4.562   4.343   3.791
 5863SOL     OW18487   1.735   1.618   1.370
 5863SOL    HW118488   1.724   1.662   1.281
 5863SOL    HW218489   1.815   1.656   1.416
 5864SOL     OW18490   4.095   5.273   0.679
 5864SOL    HW118491   4.045   5.292   0.764
 5864SOL    HW218492   4.162   5.345   0.663
 5865SOL     OW18493   4.574   0.821   3.660
 5865SOL    HW118494   4.599   0.747   3.597
 5865SOL    HW218495   4.565   0.785   3.752
 5866SOL     OW18496   3.007   1.953   6.898
 5866SOL    HW118497   3.046   1.973   6.988
 5866SOL    HW218498   3.064   1.886   6.851
 5867SOL     OW18499   0.334   2.876   1.165
 5867SOL    HW118500   0.298   2.863   1.257
 5867SOL    HW218501   0.434   2.867   1.166
 5868SOL     OW18502   1.445   6.837   4.369
 5868SOL    HW118503   1.481   6.867   4.458
 5868SOL    HW218504   1.366   6.777   4.383
 5869SOL     OW18505   3.425   4.880   4.048
 5869SOL    HW118506   3.410   4.782   4.037
 5869SOL    HW218507   3.437   4.922   3.959
 5870SOL     OW18508   5.315   5.183   4.171
 5870SOL    HW118509   5.368   5.098   4.173
 5870SOL    HW218510   5.313   5.219   4.078
 5871SOL     OW18511   2.569   3.676   0.203
 5871SOL    HW118512   2.584   3.654   0.299
 5871SOL    HW218513   2.477   3.650   0.177
 5872SOL     OW18514   3.828   5.817   4.350
 5872SOL    HW118515   3.892   5.740   4.352
 5872SOL    HW218516   3.848   5.875   4.271
 5873SOL     OW18517   1.777   3.283   0.091
 5873SOL    HW118518   1.823   3.197   0.111
 5873SOL    HW218519   1.726   3.274   0.005
 5874SOL     OW18520   1.176   4.165   6.583
 5874SOL    HW118521   1.085   4.156   6.542
 5874SOL    HW218522   1.211   4.074   6.607
 5875SOL     OW18523   4.550   2.169   0.665
 5875SOL    HW118524   4.573   2.072   0.677
 5875SOL    HW218525   4.459   2.187   0.701
 5876SOL     OW18526   3.947   4.071   6.174
 5876SOL    HW118527   3.950   4.061   6.075
 5876SOL    HW218528   4.038   4.052   6.212
 5877SOL     OW18529   6.056   0.242   2.418
 5877SOL    HW118530   6.064   0.339   2.394
 5877SOL    HW218531   6.124   0.220   2.488
 5878SOL     OW18532   5.062   4.149   2.136
 5878SOL    HW118533   4.974   4.125   2.179
 5878SOL    HW218534   5.057   4.243   2.103
 5879SOL     OW18535   3.124   3.924   5.074
 5879SOL    HW118536   3.063   3.911   5.152
 5879SOL    HW218537   3.147   3.835   5.034
 5880SOL     OW18538   5.681   2.347   0.016
 5880SOL    HW118539   5.728   2.431   7.010
 5880SOL    HW218540   5.682   2.337   0.115
 5881SOL     OW18541   1.713   6.510   2.794
 5881SOL    HW118542   1.795   6.464   2.759
 5881SOL    HW218543   1.726   6.533   2.891
 5882SOL     OW18544   1.351   4.788   5.506
 5882SOL    HW118545   1.389   4.698   5.530
 5882SOL    HW218546   1.292   4.820   5.581
 5883SOL     OW18547   6.883   5.436   0.383
 5883SOL    HW118548   6.896   5.532   0.404
 5883SOL    HW218549   6.914   5.417   0.290
 5884SOL     OW18550   6.899   0.932   2.323
 5884SOL    HW118551   6.843   0.985   2.387
 5884SOL    HW218552   6.929   0.848   2.368
 5885SOL     OW18553   0.258   5.281   0.892
 5885SOL    HW118554   0.345   5.328   0.875
 5885SOL    HW218555   0.189   5.314   0.828
 5886SOL     OW18556   1.920   4.958   3.526
 5886SOL    HW118557   1.960   5.049   3.517
 5886SOL    HW218558   1.934   4.908   3.441
 5887SOL     OW18559   3.018   2.899   0.433
 5887SOL    HW118560   3.094   2.964   0.434
 5887SOL    HW218561   3.045   2.815   0.480
 5888SOL     OW18562   2.807   6.165   1.213
 5888SOL    HW118563   2.835   6.122   1.299
 5888SOL    HW218564   2.707   6.173   1.211
 5889SOL     OW18565   5.812   1.055   2.417
 5889SOL    HW118566   5.852   1.125   2.357
 5889SOL    HW218567   5.843   1.071   2.511
 5890SOL     OW18568   2.683   5.230   3.578
 5890SOL    HW118569   2.704   5.321   3.613
 5890SOL    HW218570   2.586   5.209   3.595
 5891SOL     OW18571   2.475   3.547   6.631
 5891SOL    HW118572   2.467   3.646   6.617
 5891SOL    HW218573   2.512   3.529   6.722
 5892SOL     OW18574   1.492   2.790   0.566
 5892SOL    HW118575   1.428   2.732   0.516
 5892SOL    HW218576   1.440   2.859   0.618
 5893SOL     OW18577   0.752   6.312   1.451
 5893SOL    HW118578   0.846   6.286   1.429
 5893SOL    HW218579   0.742   6.319   1.550
 5894SOL     OW18580   2.022   5.808   6.880
 5894SOL    HW118581   2.005   5.774   6.972
 5894SOL    HW218582   2.002   5.736   6.814
 5895SOL     OW18583   5.813   4.029   3.172
 5895SOL    HW118584   5.738   4.014   3.107
 5895SOL    HW218585   5.782   4.089   3.245
 5896SOL     OW18586   5.628   2.022   2.291
 5896SOL    HW118587   5.610   1.951   2.359
 5896SOL    HW218588   5.547   2.080   2.281
 5897SOL     OW18589   3.463   2.115   0.631
 5897SOL    HW118590   3.453   2.026   0.586
 5897SOL    HW218591   3.554   2.152   0.612
 5898SOL     OW18592   2.068   0.883   6.810
 5898SOL    HW118593   2.064   0.980   6.834
 5898SOL    HW218594   2.023   0.829   6.881
 5899SOL     OW18595   0.082   6.779   0.035
 5899SOL    HW118596   0.039   6.765   0.125
 5899SOL    HW218597   0.117   6.873   0.030
 5900SOL     OW18598   6.098   6.428   2.256
 5900SOL    HW118599   6.170   6.479   2.301
 5900SOL    HW218600   6.009   6.469   2.278
 5901SOL     OW18601   2.461   0.345   5.009
 5901SOL    HW118602   2.505   0.309   4.927
 5901SOL    HW218603   2.491   0.439   5.026
 5902SOL     OW18604   4.156   4.255   5.631
 5902SOL    HW118605   4.147   4.334   5.571
 5902SOL    HW218606   4.110   4.176   5.589
 5903SOL     OW18607   6.552   2.009   5.304
 5903SOL    HW118608   6.527   1.933   5.244
 5903SOL    HW218609   6.592   2.082   5.250
 5904SOL     OW18610   0.229   4.865   1.302
 5904SOL    HW118611   0.168   4.789   1.325
 5904SOL    HW218612   0.243   4.867   1.203
 5905SOL     OW18613   5.967   2.376   5.047
 5905SOL    HW118614   5.892   2.323   5.007
 5905SOL    HW218615   5.970   2.467   5.005
 5906SOL     OW18616   4.453   1.298   5.936
 5906SOL    HW118617   4.404   1.219   5.972
 5906SOL    HW218618   4.506   1.271   5.856
 5907SOL     OW18619   1.418   2.974   5.784
 5907SOL    HW118620   1.473   2.893   5.764
 5907SOL    HW218621   1.386   3.014   5.698
 5908SOL     OW18622   4.380   4.250   6.510
 5908SOL    HW118623   4.354   4.247   6.413
 5908SOL    HW218624   4.341   4.330   6.553
 5909SOL     OW18625   6.184   5.042   4.028
 5909SOL    HW118626   6.235   5.074   4.108
 5909SOL    HW218627   6.100   4.996   4.059
 5910SOL     OW18628   3.139   4.698   0.927
 5910SOL    HW118629   3.168   4.743   0.842
 5910SOL    HW218630   3.082   4.619   0.904
 5911SOL     OW18631   6.297   0.158   6.720
 5911SOL    HW118632   6.366   0.209   6.669
 5911SOL    HW218633   6.274   0.207   6.804
 5912SOL     OW18634   0.682   3.401   5.339
 5912SOL    HW118635   0.617   3.329   5.364
 5912SOL    HW218636   0.729   3.375   5.254
 5913SOL     OW18637   1.792   2.574   4.317
 5913SOL    HW118638   1.771   2.528   4.231
 5913SOL    HW218639   1.786   2.673   4.304
 5914SOL     OW18640   1.428   5.923   1.053
 5914SOL    HW118641   1.373   5.989   1.003
 5914SOL    HW218642   1.475   5.969   1.128
 5915SOL     OW18643   5.720   3.442   4.598
 5915SOL    HW118644   5.621   3.456   4.597
 5915SOL    HW218645   5.740   3.350   4.631
 5916SOL     OW18646   3.007   0.135   6.266
 5916SOL    HW118647   3.100   0.126   6.231
 5916SOL    HW218648   3.003   0.211   6.330
 5917SOL     OW18649   3.885   3.876   2.596
 5917SOL    HW118650   3.939   3.852   2.515
 5917SOL    HW218651   3.945   3.882   2.676
 5918SOL     OW18652   2.442   2.155   4.166
 5918SOL    HW118653   2.407   2.173   4.259
 5918SOL    HW218654   2.541   2.144   4.169
 5919SOL     OW18655   1.362   2.190   6.652
 5919SOL    HW118656   1.449   2.209   6.697
 5919SOL    HW218657   1.371   2.109   6.594
 5920SOL     OW18658   2.663   5.317   0.089
 5920SOL    HW118659   2.722   5.250   0.135
 5920SOL    HW218660   2.686   5.319   7.011
 5921SOL     OW18661   4.069   5.507   5.654
 5921SOL    HW118662   4.109   5.475   5.740
 5921SOL    HW218663   4.120   5.586   5.620
 5922SOL     OW18664   5.900   4.885   1.389
 5922SOL    HW118665   5.828   4.826   1.425
 5922SOL    HW218666   5.953   4.834   1.320
 5923SOL     OW18667   0.222   0.792   3.612
 5923SOL    HW118668   0.303   0.734   3.617
 5923SOL    HW218669   0.161   0.759   3.539
 5924SOL     OW18670   6.111   1.985   4.843
 5924SOL    HW118671   6.131   1.912   4.778
 5924SOL    HW218672   6.153   2.070   4.811
 5925SOL     OW18673   6.369   6.256   0.475
 5925SOL    HW118674   6.450   6.310   0.494
 5925SOL    HW218675   6.353   6.191   0.549
 5926SOL     OW18676   3.214   5.528   2.095
 5926SOL    HW118677   3.288   5.520   2.161
 5926SOL    HW218678   3.209   5.446   2.039
 5927SOL     OW18679   2.162   5.142   1.977
 5927SOL    HW118680   2.107   5.131   2.060
 5927SOL    HW218681   2.135   5.226   1.930
 5928SOL     OW18682   1.067   5.881   1.152
 5928SOL    HW118683   1.134   5.818   1.191
 5928SOL    HW218684   1.042   5.850   1.061
 5929SOL     OW18685   0.609   6.591   5.328
 5929SOL    HW118686   0.621   6.644   5.244
 5929SOL    HW218687   0.554   6.510   5.309
 5930SOL     OW18688   6.314   1.311   4.905
 5930SOL    HW118689   6.352   1.298   4.997
 5930SOL    HW218690   6.282   1.223   4.870
 5931SOL     OW18691   5.637   4.995   0.636
 5931SOL    HW118692   5.667   4.989   0.540
 5931SOL    HW218693   5.689   5.066   0.683
 5932SOL     OW18694   2.289   0.383   0.122
 5932SOL    HW118695   2.193   0.405   0.143
 5932SOL    HW218696   2.318   0.306   0.178
 5933SOL     OW18697   6.201   3.523   2.995
 5933SOL    HW118698   6.247   3.496   3.079
 5933SOL    HW218699   6.118   3.575   3.017
 5934SOL     OW18700   4.019   3.889   2.333
 5934SOL    HW118701   3.987   3.839   2.253
 5934SOL    HW218702   4.104   3.937   2.312
 5935SOL     OW18703   3.930   3.062   2.818
 5935SOL    HW118704   3.975   2.988   2.768
 5935SOL    HW218705   3.856   3.024   2.873
 5936SOL     OW18706   6.467   6.188   6.630
 5936SOL    HW118707   6.473   6.216   6.534
 5936SOL    HW218708   6.371   6.176   6.655
 5937SOL     OW18709   1.266   4.456   0.425
 5937SOL    HW118710   1.263   4.555   0.437
 5937SOL    HW218711   1.185   4.415   0.468
 5938SOL     OW18712   2.065   4.471   0.703
 5938SOL    HW118713   2.152   4.458   0.655
 5938SOL    HW218714   2.053   4.568   0.725
 5939SOL     OW18715   1.648   1.474   2.495
 5939SOL    HW118716   1.658   1.550   2.430
 5939SOL    HW218717   1.734   1.424   2.501
 5940SOL     OW18718   3.962   5.068   3.322
 5940SOL    HW118719   4.049   5.078   3.370
 5940SOL    HW218720   3.889   5.105   3.379
 5941SOL     OW18721   6.873   3.122   2.932
 5941SOL    HW118722   6.792   3.180   2.942
 5941SOL    HW218723   6.877   3.057   3.008
 5942SOL     OW18724   6.900   1.984   4.586
 5942SOL    HW118725   6.889   1.937   4.674
 5942SOL    HW218726   6.827   2.051   4.575
 5943SOL     OW18727   1.364   4.941   0.672
 5943SOL    HW118728   1.313   4.972   0.592
 5943SOL    HW218729   1.316   4.864   0.714
 5944SOL     OW18730   4.931   2.280   3.279
 5944SOL    HW118731   4.926   2.307   3.183
 5944SOL    HW218732   4.918   2.181   3.287
 5945SOL     OW18733   6.609   5.221   6.106
 5945SOL    HW118734   6.591   5.122   6.107
 5945SOL    HW218735   6.634   5.250   6.198
 5946SOL     OW18736   3.675   2.663   5.340
 5946SOL    HW118737   3.600   2.601   5.319
 5946SOL    HW218738   3.673   2.740   5.276
 5947SOL     OW18739   4.724   3.970   1.758
 5947SOL    HW118740   4.681   4.060   1.752
 5947SOL    HW218741   4.796   3.972   1.827
 5948SOL     OW18742   3.280   5.190   3.671
 5948SOL    HW118743   3.314   5.152   3.585
 5948SOL    HW218744   3.305   5.286   3.678
 5949SOL     OW18745   4.582   4.446   2.574
 5949SOL    HW118746   4.598   4.463   2.477
 5949SOL    HW218747   4.484   4.453   2.593
 5950SOL     OW18748   5.711   2.617   3.892
 5950SOL    HW118749   5.667   2.576   3.972
 5950SOL    HW218750   5.810   2.620   3.907
 5951SOL     OW18751   2.091   6.823   4.300
 5951SOL    HW118752   2.006   6.791   4.341
 5951SOL    HW218753   2.128   6.898   4.355
 5952SOL     OW18754   0.223   5.527   4.897
 5952SOL    HW118755   0.214   5.463   4.973
 5952SOL    HW218756   0.145   5.590   4.896
 5953SOL     OW18757   1.354   3.155   6.106
 5953SOL    HW118758   1.391   3.181   6.016
 5953SOL    HW218759   1.255   3.163   6.105
 5954SOL     OW18760   0.978   5.013   6.436
 5954SOL    HW118761   0.983   4.989   6.533
 5954SOL    HW218762   1.003   5.109   6.424
 5955SOL     OW18763   4.778   5.073   3.124
 5955SOL    HW118764   4.823   5.037   3.042
 5955SOL    HW218765   4.809   5.167   3.141
 5956SOL     OW18766   0.039   2.372   6.704
 5956SOL    HW118767   0.008   2.326   6.620
 5956SOL    HW218768   0.011   2.318   6.783
 5957SOL     OW18769   4.735   6.544   5.459
 5957SOL    HW118770   4.833   6.521   5.467
 5957SOL    HW218771   4.681   6.474   5.505
 5958SOL     OW18772   0.897   5.184   2.557
 5958SOL    HW118773   0.839   5.135   2.492
 5958SOL    HW218774   0.885   5.283   2.544
 5959SOL     OW18775   1.694   0.908   6.571
 5959SOL    HW118776   1.753   0.954   6.504
 5959SOL    HW218777   1.736   0.822   6.599
 5960SOL     OW18778   3.593   6.293   5.245
 5960SOL    HW118779   3.502   6.328   5.222
 5960SOL    HW218780   3.624   6.231   5.174
 5961SOL     OW18781   2.419   0.807   5.684
 5961SOL    HW118782   2.518   0.793   5.688
 5961SOL    HW218783   2.378   0.778   5.770
 5962SOL     OW18784   5.186   4.130   2.498
 5962SOL    HW118785   5.091   4.158   2.485
 5962SOL    HW218786   5.200   4.105   2.594
 5963SOL     OW18787   4.082   3.858   1.831
 5963SOL    HW118788   4.040   3.935   1.879
 5963SOL    HW218789   4.144   3.892   1.761
 5964SOL     OW18790   2.040   3.697   5.761
 5964SOL    HW118791   1.972   3.745   5.705
 5964SOL    HW218792   2.130   3.707   5.718
 5965SOL     OW18793   2.308   1.681   3.756
 5965SOL    HW118794   2.269   1.618   3.823
 5965SOL    HW218795   2.279   1.654   3.664
 5966SOL     OW18796   2.182   5.749   3.859
 5966SOL    HW118797   2.139   5.781   3.944
 5966SOL    HW218798   2.184   5.823   3.792
 5967SOL     OW18799   4.542   6.242   2.284
 5967SOL    HW118800   4.613   6.231   2.353
 5967SOL    HW218801   4.463   6.288   2.325
 5968SOL     OW18802   0.191   2.053   4.055
 5968SOL    HW118803   0.103   2.006   4.046
 5968SOL    HW218804   0.248   2.033   3.976
 5969SOL     OW18805   5.794   2.830   2.673
 5969SOL    HW118806   5.817   2.885   2.753
 5969SOL    HW218807   5.767   2.738   2.703
 5970SOL     OW18808   1.990   3.404   3.580
 5970SOL    HW118809   1.894   3.382   3.597
 5970SOL    HW218810   2.011   3.495   3.616
 5971SOL     OW18811   2.930   6.536   2.961
 5971SOL    HW118812   2.912   6.458   2.901
 5971SOL    HW218813   3.004   6.513   3.025
 5972SOL     OW18814   5.016   0.236   1.816
 5972SOL    HW118815   4.991   0.167   1.748
 5972SOL    HW218816   4.945   0.307   1.818
 5973SOL     OW18817   1.381   4.191   2.928
 5973SOL    HW118818   1.289   4.230   2.931
 5973SOL    HW218819   1.417   4.181   3.021
 5974SOL     OW18820   1.285   3.638   6.451
 5974SOL    HW118821   1.359   3.597   6.398
 5974SOL    HW218822   1.218   3.567   6.475
 5975SOL     OW18823   2.300   2.737   6.814
 5975SOL    HW118824   2.251   2.678   6.750
 5975SOL    HW218825   2.370   2.788   6.765
 5976SOL     OW18826   3.238   3.040   4.735
 5976SOL    HW118827   3.184   3.048   4.652
 5976SOL    HW218828   3.332   3.014   4.712
 5977SOL     OW18829   0.705   3.853   3.112
 5977SOL    HW118830   0.685   3.768   3.063
 5977SOL    HW218831   0.658   3.929   3.068
 5978SOL     OW18832   5.038   5.145   2.537
 5978SOL    HW118833   4.954   5.199   2.546
 5978SOL    HW218834   5.118   5.205   2.543
 5979SOL     OW18835   1.090   1.465   1.788
 5979SOL    HW118836   1.034   1.543   1.817
 5979SOL    HW218837   1.045   1.380   1.814
 5980SOL     OW18838   6.532   3.282   6.011
 5980SOL    HW118839   6.540   3.202   5.952
 5980SOL    HW218840   6.590   3.356   5.976
 5981SOL     OW18841   4.073   1.891   0.846
 5981SOL    HW118842   4.088   1.918   0.751
 5981SOL    HW218843   4.004   1.951   0.887
 5982SOL     OW18844   5.751   2.086   0.076
 5982SOL    HW118845   5.732   2.165   0.018
 5982SOL    HW218846   5.776   2.008   0.018
 5983SOL     OW18847   0.779   0.704   4.856
 5983SOL    HW118848   0.867   0.700   4.808
 5983SOL    HW218849   0.714   0.643   4.811
 5984SOL     OW18850   0.678   6.849   5.876
 5984SOL    HW118851   0.639   6.806   5.957
 5984SOL    HW218852   0.628   6.820   5.795
 5985SOL     OW18853   5.171   3.119   4.239
 5985SOL    HW118854   5.127   3.174   4.168
 5985SOL    HW218855   5.155   3.022   4.219
 5986SOL     OW18856   3.343   2.926   2.640
 5986SOL    HW118857   3.307   2.885   2.556
 5986SOL    HW218858   3.441   2.911   2.644
 5987SOL     OW18859   4.691   6.936   5.825
 5987SOL    HW118860   4.616   7.001   5.818
 5987SOL    HW218861   4.703   6.890   5.737
 5988SOL     OW18862   3.575   0.369   5.253
 5988SOL    HW118863   3.642   0.443   5.258
 5988SOL    HW218864   3.506   0.382   5.324
 5989SOL     OW18865   2.843   1.773   6.591
 5989SOL    HW118866   2.772   1.757   6.523
 5989SOL    HW218867   2.802   1.802   6.677
 5990SOL     OW18868   3.484   4.939   2.377
 5990SOL    HW118869   3.413   4.933   2.308
 5990SOL    HW218870   3.455   4.890   2.460
 5991SOL     OW18871   2.839   5.290   3.951
 5991SOL    HW118872   2.850   5.221   3.879
 5991SOL    HW218873   2.893   5.263   4.031
 5992SOL     OW18874   4.219   2.219   4.216
 5992SOL    HW118875   4.238   2.268   4.301
 5992SOL    HW218876   4.120   2.219   4.200
 5993SOL     OW18877   3.470   5.696   3.974
 5993SOL    HW118878   3.532   5.755   3.923
 5993SOL    HW218879   3.396   5.750   4.014
 5994SOL     OW18880   6.016   2.477   1.273
 5994SOL    HW118881   6.110   2.468   1.305
 5994SOL    HW218882   6.000   2.413   1.198
 5995SOL     OW18883   0.771   4.544   1.621
 5995SOL    HW118884   0.681   4.547   1.576
 5995SOL    HW218885   0.768   4.476   1.694
 5996SOL     OW18886   0.666   5.537   5.385
 5996SOL    HW118887   0.757   5.498   5.375
 5996SOL    HW218888   0.666   5.632   5.352
 5997SOL     OW18889   0.892   0.529   1.282
 5997SOL    HW118890   0.845   0.611   1.251
 5997SOL    HW218891   0.841   0.487   1.357
 5998SOL     OW18892   4.273   2.345   3.628
 5998SOL    HW118893   4.269   2.344   3.528
 5998SOL    HW218894   4.359   2.386   3.658
 5999SOL     OW18895   2.332   2.794   3.288
 5999SOL    HW118896   2.410   2.758   3.340
 5999SOL    HW218897   2.308   2.885   3.323
 6000SOL     OW18898   4.772   0.399   3.472
 6000SOL    HW118899   4.809   0.307   3.456
 6000SOL    HW218900   4.793   0.457   3.394
 6001SOL     OW18901   6.358   1.938   6.835
 6001SOL    HW118902   6.379   2.007   6.766
 6001SOL    HW218903   6.259   1.925   6.839
 6002SOL     OW18904   1.646   0.645   1.874
 6002SOL    HW118905   1.677   0.649   1.779
 6002SOL    HW218906   1.546   0.648   1.876
 6003SOL     OW18907   5.565   4.341   3.777
 6003SOL    HW118908   5.505   4.275   3.822
 6003SOL    HW218909   5.515   4.425   3.759
 6004SOL     OW18910   0.074   3.357   1.634
 6004SOL    HW118911   0.110   3.342   1.726
 6004SOL    HW218912   0.143   3.329   1.566
 6005SOL     OW18913   2.185   6.053   2.193
 6005SOL    HW118914   2.178   5.956   2.215
 6005SOL    HW218915   2.188   6.065   2.094
 6006SOL     OW18916   1.718   5.708   0.212
 6006SOL    HW118917   1.718   5.635   0.144
 6006SOL    HW218918   1.715   5.669   0.304
 6007SOL     OW18919   5.207   3.085   4.981
 6007SOL    HW118920   5.276   3.077   4.909
 6007SOL    HW218921   5.136   3.150   4.953
 6008SOL     OW18922   4.702   3.921   1.312
 6008SOL    HW118923   4.739   3.900   1.221
 6008SOL    HW218924   4.771   3.971   1.364
 6009SOL     OW18925   4.115   1.571   4.643
 6009SOL    HW118926   4.044   1.584   4.712
 6009SOL    HW218927   4.204   1.597   4.681
 6010SOL     OW18928   1.254   3.786   3.167
 6010SOL    HW118929   1.288   3.839   3.245
 6010SOL    HW218930   1.192   3.715   3.199
 6011SOL     OW18931   6.742   2.729   1.770
 6011SOL    HW118932   6.821   2.682   1.731
 6011SOL    HW218933   6.663   2.719   1.709
 6012SOL     OW18934   0.405   2.955   1.589
 6012SOL    HW118935   0.409   2.855   1.581
 6012SOL    HW218936   0.310   2.983   1.603
 6013SOL     OW18937   5.839   0.604   2.312
 6013SOL    HW118938   5.797   0.546   2.243
 6013SOL    HW218939   5.839   0.699   2.281
 6014SOL     OW18940   5.901   0.559   1.075
 6014SOL    HW118941   5.849   0.644   1.086
 6014SOL    HW218942   5.950   0.540   1.160
 6015SOL     OW18943   5.641   0.524   4.460
 6015SOL    HW118944   5.728   0.573   4.455
 6015SOL    HW218945   5.644   0.457   4.534
 6016SOL     OW18946   2.092   6.862   5.204
 6016SOL    HW118947   2.130   6.805   5.131
 6016SOL    HW218948   2.012   6.817   5.243
 6017SOL     OW18949   6.975   3.334   2.519
 6017SOL    HW118950   0.054   3.331   2.502
 6017SOL    HW218951   6.958   3.354   2.615
 6018SOL     OW18952   2.540   5.238   1.251
 6018SOL    HW118953   2.516   5.153   1.205
 6018SOL    HW218954   2.458   5.294   1.262
 6019SOL     OW18955   5.705   6.404   3.083
 6019SOL    HW118956   5.794   6.372   3.118
 6019SOL    HW218957   5.688   6.497   3.115
 6020SOL     OW18958   2.833   6.916   2.885
 6020SOL    HW118959   2.891   6.960   2.817
 6020SOL    HW218960   2.738   6.945   2.873
 6021SOL     OW18961   4.211   1.046   3.968
 6021SOL    HW118962   4.295   1.038   3.915
 6021SOL    HW218963   4.227   1.107   4.046
 6022SOL     OW18964   4.969   0.935   6.035
 6022SOL    HW118965   5.010   0.905   5.949
 6022SOL    HW218966   4.878   0.897   6.045
 6023SOL     OW18967   0.670   2.051   2.692
 6023SOL    HW118968   0.666   2.116   2.769
 6023SOL    HW218969   0.615   2.086   2.616
 6024SOL     OW18970   0.026   5.756   2.634
 6024SOL    HW118971   0.006   5.671   2.682
 6024SOL    HW218972   0.042   5.737   2.537
 6025SOL     OW18973   4.082   1.959   2.539
 6025SOL    HW118974   4.086   1.951   2.439
 6025SOL    HW218975   3.997   1.918   2.572
 6026SOL     OW18976   0.627   4.096   5.617
 6026SOL    HW118977   0.589   4.051   5.536
 6026SOL    HW218978   0.556   4.104   5.687
 6027SOL     OW18979   3.472   3.105   0.051
 6027SOL    HW118980   3.507   3.069   6.984
 6027SOL    HW218981   3.510   3.052   0.127
 6028SOL     OW18982   0.989   4.436   0.281
 6028SOL    HW118983   1.021   4.367   0.216
 6028SOL    HW218984   1.037   4.425   0.368
 6029SOL     OW18985   0.505   4.575   2.187
 6029SOL    HW118986   0.418   4.621   2.171
 6029SOL    HW218987   0.546   4.551   2.099
 6030SOL     OW18988   1.900   6.804   0.934
 6030SOL    HW118989   1.875   6.732   0.999
 6030SOL    HW218990   1.986   6.846   0.961
 6031SOL     OW18991   5.143   0.613   4.093
 6031SOL    HW118992   5.069   0.666   4.053
 6031SOL    HW218993   5.203   0.673   4.146
 6032SOL     OW18994   0.273   3.535   2.752
 6032SOL    HW118995   0.185   3.582   2.764
 6032SOL    HW218996   0.257   3.437   2.742
 6033SOL     OW18997   0.175   6.811   4.670
 6033SOL    HW118998   0.102   6.753   4.633
 6033SOL    HW218999   0.184   6.794   4.768
 6034SOL     OW19000   2.354   4.318   5.226
 6034SOL    HW119001   2.328   4.227   5.193
 6034SOL    HW219002   2.290   4.347   5.297
 6035SOL     OW19003   5.479   6.807   3.783
 6035SOL    HW119004   5.510   6.727   3.731
 6035SOL    HW219005   5.411   6.857   3.731
 6036SOL     OW19006   0.385   0.856   4.288
 6036SOL    HW119007   0.454   0.804   4.338
 6036SOL    HW219008   0.362   0.939   4.338
 6037SOL     OW19009   0.452   5.389   4.772
 6037SOL    HW119010   0.372   5.449   4.777
 6037SOL    HW219011   0.489   5.391   4.679
 6038SOL     OW19012   5.844   4.016   6.470
 6038SOL    HW119013   5.942   4.002   6.481
 6038SOL    HW219014   5.827   4.083   6.398
 6039SOL     OW19015   3.982   3.077   4.466
 6039SOL    HW119016   4.039   3.159   4.456
 6039SOL    HW219017   3.957   3.043   4.375
 6040SOL     OW19018   1.228   1.160   0.441
 6040SOL    HW119019   1.183   1.108   0.368
 6040SOL    HW219020   1.279   1.236   0.401
 6041SOL     OW19021   0.716   2.476   0.598
 6041SOL    HW119022   0.776   2.480   0.518
 6041SOL    HW219023   0.704   2.568   0.635
 6042SOL     OW19024   5.613   5.733   4.965
 6042SOL    HW119025   5.542   5.787   4.921
 6042SOL    HW219026   5.575   5.684   5.044
 6043SOL     OW19027   6.914   4.506   3.998
 6043SOL    HW119028   6.884   4.410   3.997
 6043SOL    HW219029   6.916   4.541   3.905
 6044SOL     OW19030   1.280   0.575   1.373
 6044SOL    HW119031   1.377   0.587   1.354
 6044SOL    HW219032   1.268   0.517   1.454
 6045SOL     OW19033   6.802   4.033   0.966
 6045SOL    HW119034   6.724   3.973   0.946
 6045SOL    HW219035   6.771   4.115   1.012
 6046SOL     OW19036   2.475   3.396   0.508
 6046SOL    HW119037   2.466   3.399   0.607
 6046SOL    HW219038   2.528   3.475   0.477
 6047SOL     OW19039   0.410   6.340   4.657
 6047SOL    HW119040   0.324   6.376   4.693
 6047SOL    HW219041   0.486   6.369   4.716
 6048SOL     OW19042   5.134   5.934   4.716
 6048SOL    HW119043   5.099   5.861   4.657
 6048SOL    HW219044   5.101   6.022   4.684
 6049SOL     OW19045   6.331   6.020   0.271
 6049SOL    HW119046   6.408   5.956   0.262
 6049SOL    HW219047   6.360   6.099   0.325
 6050SOL     OW19048   5.879   4.123   5.667
 6050SOL    HW119049   5.827   4.074   5.596
 6050SOL    HW219050   5.926   4.201   5.625
 6051SOL     OW19051   2.878   1.821   2.999
 6051SOL    HW119052   2.843   1.802   2.907
 6051SOL    HW219053   2.802   1.836   3.062
 6052SOL     OW19054   6.698   1.457   0.423
 6052SOL    HW119055   6.691   1.360   0.447
 6052SOL    HW219056   6.616   1.485   0.374
 6053SOL     OW19057   1.995   0.311   6.265
 6053SOL    HW119058   1.970   0.222   6.303
 6053SOL    HW219059   2.002   0.377   6.339
 6054SOL     OW19060   1.942   4.515   6.600
 6054SOL    HW119061   1.987   4.555   6.520
 6054SOL    HW219062   1.844   4.509   6.583
 6055SOL     OW19063   5.004   0.323   3.892
 6055SOL    HW119064   5.054   0.292   3.812
 6055SOL    HW219065   5.066   0.329   3.970
 6056SOL     OW19066   5.099   3.780   6.143
 6056SOL    HW119067   5.191   3.815   6.124
 6056SOL    HW219068   5.059   3.744   6.059
 6057SOL     OW19069   3.567   0.919   6.308
 6057SOL    HW119070   3.500   0.853   6.342
 6057SOL    HW219071   3.548   1.009   6.348
 6058SOL     OW19072   5.331   1.628   4.643
 6058SOL    HW119073   5.270   1.707   4.647
 6058SOL    HW219074   5.333   1.582   4.732
 6059SOL     OW19075   6.439   6.563   5.993
 6059SOL    HW119076   6.534   6.592   5.986
 6059SOL    HW219077   6.436   6.471   6.033
 6060SOL     OW19078   3.115   6.418   6.570
 6060SOL    HW119079   3.123   6.511   6.535
 6060SOL    HW219080   3.134   6.418   6.668
 6061SOL     OW19081   1.893   1.661   6.865
 6061SOL    HW119082   1.796   1.666   6.840
 6061SOL    HW219083   1.914   1.734   6.930
 6062SOL     OW19084   1.250   0.213   4.054
 6062SOL    HW119085   1.230   0.184   3.960
 6062SOL    HW219086   1.299   0.140   4.102
 6063SOL     OW19087   5.423   6.036   0.276
 6063SOL    HW119088   5.509   6.080   0.251
 6063SOL    HW219089   5.349   6.103   0.273
 6064SOL     OW19090   0.730   5.184   3.025
 6064SOL    HW119091   0.802   5.115   3.027
 6064SOL    HW219092   0.769   5.272   2.999
 6065SOL     OW19093   5.747   6.601   1.713
 6065SOL    HW119094   5.847   6.595   1.717
 6065SOL    HW219095   5.721   6.691   1.678
 6066SOL     OW19096   4.713   2.080   6.204
 6066SOL    HW119097   4.628   2.103   6.157
 6066SOL    HW219098   4.751   1.996   6.166
 6067SOL     OW19099   5.015   2.264   6.627
 6067SOL    HW119100   5.060   2.349   6.600
 6067SOL    HW219101   5.010   2.202   6.549
 6068SOL     OW19102   5.083   1.756   5.695
 6068SOL    HW119103   4.993   1.798   5.704
 6068SOL    HW219104   5.150   1.826   5.673
 6069SOL     OW19105   5.925   4.152   4.593
 6069SOL    HW119106   5.841   4.124   4.547
 6069SOL    HW219107   5.960   4.236   4.552
 6070SOL     OW19108   4.417   2.804   6.383
 6070SOL    HW119109   4.390   2.877   6.445
 6070SOL    HW219110   4.422   2.718   6.434
 6071SOL     OW19111   4.999   6.506   5.495
 6071SOL    HW119112   5.098   6.507   5.486
 6071SOL    HW219113   4.973   6.527   5.589
 6072SOL     OW19114   7.016   1.578   0.813
 6072SOL    HW119115   6.918   1.564   0.829
 6072SOL    HW219116   0.011   1.597   0.716
 6073SOL     OW19117   6.514   1.548   1.277
 6073SOL    HW119118   6.451   1.557   1.200
 6073SOL    HW219119   6.563   1.634   1.291
 6074SOL     OW19120   0.955   6.961   5.254
 6074SOL    HW119121   0.986   0.007   5.322
 6074SOL    HW219122   0.883   6.904   5.294
 6075SOL     OW19123   5.103   4.489   6.392
 6075SOL    HW119124   5.151   4.403   6.408
 6075SOL    HW219125   5.138   4.531   6.308
 6076SOL     OW19126   2.840   0.405   4.187
 6076SOL    HW119127   2.801   0.337   4.125
 6076SOL    HW219128   2.778   0.420   4.264
 6077SOL     OW19129   5.417   4.961   2.909
 6077SOL    HW119130   5.491   4.966   2.976
 6077SOL    HW219131   5.436   5.025   2.834
 6078SOL     OW19132   2.059   4.700   3.583
 6078SOL    HW119133   2.005   4.670   3.505
 6078SOL    HW219134   2.116   4.778   3.557
 6079SOL     OW19135   2.652   1.563   0.828
 6079SOL    HW119136   2.565   1.584   0.784
 6079SOL    HW219137   2.676   1.637   0.891
 6080SOL     OW19138   5.716   2.647   2.941
 6080SOL    HW119139   5.728   2.561   2.893
 6080SOL    HW219140   5.654   2.634   3.019
 6081SOL     OW19141   0.994   4.035   2.687
 6081SOL    HW119142   1.020   4.129   2.709
 6081SOL    HW219143   1.073   3.974   2.698
 6082SOL     OW19144   3.266   1.899   4.341
 6082SOL    HW119145   3.278   1.976   4.404
 6082SOL    HW219146   3.321   1.822   4.372
 6083SOL     OW19147   1.805   0.196   0.590
 6083SOL    HW119148   1.740   0.142   0.536
 6083SOL    HW219149   1.774   0.199   0.685
 6084SOL     OW19150   0.259   5.039   5.853
 6084SOL    HW119151   0.258   5.057   5.755
 6084SOL    HW219152   0.191   5.097   5.898
 6085SOL     OW19153   5.251   5.594   1.612
 6085SOL    HW119154   5.321   5.568   1.679
 6085SOL    HW219155   5.250   5.527   1.538
 6086SOL     OW19156   2.840   1.793   2.738
 6086SOL    HW119157   2.936   1.767   2.737
 6086SOL    HW219158   2.783   1.714   2.715
 6087SOL     OW19159   3.591   0.458   1.081
 6087SOL    HW119160   3.581   0.391   1.007
 6087SOL    HW219161   3.543   0.425   1.163
 6088SOL     OW19162   0.230   6.767   5.701
 6088SOL    HW119163   0.322   6.727   5.693
 6088SOL    HW219164   0.174   6.708   5.760
 6089SOL     OW19165   6.365   3.640   0.390
 6089SOL    HW119166   6.286   3.636   0.329
 6089SOL    HW219167   6.342   3.693   0.472
 6090SOL     OW19168   0.304   5.734   4.076
 6090SOL    HW119169   0.267   5.827   4.076
 6090SOL    HW219170   0.386   5.732   4.132
 6091SOL     OW19171   6.435   2.080   1.401
 6091SOL    HW119172   6.463   1.992   1.440
 6091SOL    HW219173   6.345   2.105   1.435
 6092SOL     OW19174   1.534   3.115   0.914
 6092SOL    HW119175   1.609   3.052   0.892
 6092SOL    HW219176   1.505   3.099   1.008
 6093SOL     OW19177   1.208   3.788   0.644
 6093SOL    HW119178   1.124   3.771   0.696
 6093SOL    HW219179   1.183   3.818   0.551
 6094SOL     OW19180   0.804   1.089   0.821
 6094SOL    HW119181   0.713   1.106   0.783
 6094SOL    HW219182   0.868   1.068   0.747
 6095SOL     OW19183   6.847   3.794   5.223
 6095SOL    HW119184   6.805   3.751   5.303
 6095SOL    HW219185   6.775   3.832   5.165
 6096SOL     OW19186   4.281   1.595   2.817
 6096SOL    HW119187   4.378   1.619   2.819
 6096SOL    HW219188   4.228   1.675   2.790
 6097SOL     OW19189   3.159   1.981   2.141
 6097SOL    HW119190   3.084   2.031   2.100
 6097SOL    HW219191   3.126   1.891   2.171
 6098SOL     OW19192   1.501   0.841   6.347
 6098SOL    HW119193   1.563   0.762   6.339
 6098SOL    HW219194   1.518   0.888   6.433
 6099SOL     OW19195   5.940   4.320   5.320
 6099SOL    HW119196   5.846   4.287   5.309
 6099SOL    HW219197   5.970   4.303   5.413
 6100SOL     OW19198   6.806   2.325   0.029
 6100SOL    HW119199   6.814   2.419   0.064
 6100SOL    HW219200   6.726   2.318   6.990
 6101SOL     OW19201   6.000   0.048   3.695
 6101SOL    HW119202   6.014   0.136   3.650
 6101SOL    HW219203   6.075   7.006   3.670
 6102SOL     OW19204   3.234   0.142   5.039
 6102SOL    HW119205   3.220   0.130   5.137
 6102SOL    HW219206   3.325   0.180   5.022
 6103SOL     OW19207   6.050   1.289   5.460
 6103SOL    HW119208   5.998   1.205   5.480
 6103SOL    HW219209   5.987   1.367   5.456
 6104SOL     OW19210   1.384   3.356   0.884
 6104SOL    HW119211   1.455   3.294   0.920
 6104SOL    HW219212   1.299   3.305   0.871
 6105SOL     OW19213   3.522   5.050   4.726
 6105SOL    HW119214   3.470   4.997   4.659
 6105SOL    HW219215   3.589   5.107   4.679
 6106SOL     OW19216   3.195   5.012   4.193
 6106SOL    HW119217   3.129   4.952   4.239
 6106SOL    HW219218   3.261   4.957   4.142
 6107SOL     OW19219   2.245   4.855   5.437
 6107SOL    HW119220   2.308   4.838   5.513
 6107SOL    HW219221   2.157   4.812   5.457
 6108SOL     OW19222   5.825   1.452   4.218
 6108SOL    HW119223   5.742   1.464   4.272
 6108SOL    HW219224   5.864   1.362   4.237
 6109SOL     OW19225   7.008   4.132   2.082
 6109SOL    HW119226   6.984   4.186   2.002
 6109SOL    HW219227   7.008   4.035   2.059
 6110SOL     OW19228   3.243   2.145   3.426
 6110SOL    HW119229   3.234   2.060   3.374
 6110SOL    HW219230   3.322   2.197   3.393
 6111SOL     OW19231   0.384   4.509   3.455
 6111SOL    HW119232   0.472   4.495   3.501
 6111SOL    HW219233   0.314   4.529   3.523
 6112SOL     OW19234   0.959   2.256   1.149
 6112SOL    HW119235   0.923   2.275   1.057
 6112SOL    HW219236   0.977   2.158   1.158
 6113SOL     OW19237   1.879   5.071   5.449
 6113SOL    HW119238   1.975   5.088   5.425
 6113SOL    HW219239   1.854   5.126   5.528
 6114SOL     OW19240   5.522   5.137   0.998
 6114SOL    HW119241   5.571   5.051   1.012
 6114SOL    HW219242   5.433   5.133   1.042
 6115SOL     OW19243   6.434   4.499   2.220
 6115SOL    HW119244   6.471   4.442   2.294
 6115SOL    HW219245   6.338   4.519   2.238
 6116SOL     OW19246   3.429   1.910   0.947
 6116SOL    HW119247   3.499   1.897   1.017
 6116SOL    HW219248   3.347   1.948   0.989
 6117SOL     OW19249   5.749   6.429   3.892
 6117SOL    HW119250   5.776   6.333   3.890
 6117SOL    HW219251   5.661   6.440   3.846
 6118SOL     OW19252   6.299   0.428   3.499
 6118SOL    HW119253   6.212   0.400   3.539
 6118SOL    HW219254   6.374   0.379   3.544
 6119SOL     OW19255   6.035   5.928   4.286
 6119SOL    HW119256   5.977   5.903   4.364
 6119SOL    HW219257   6.059   5.845   4.235
 6120SOL     OW19258   2.464   1.494   3.404
 6120SOL    HW119259   2.561   1.517   3.396
 6120SOL    HW219260   2.445   1.464   3.498
 6121SOL     OW19261   6.626   1.870   4.483
 6121SOL    HW119262   6.618   1.774   4.512
 6121SOL    HW219263   6.722   1.892   4.467
 6122SOL     OW19264   4.181   6.511   4.182
 6122SOL    HW119265   4.097   6.467   4.152
 6122SOL    HW219266   4.205   6.584   4.118
 6123SOL     OW19267   6.220   1.656   2.899
 6123SOL    HW119268   6.128   1.696   2.901
 6123SOL    HW219269   6.277   1.705   2.833
 6124SOL     OW19270   3.032   0.330   4.961
 6124SOL    HW119271   3.112   0.285   5.002
 6124SOL    HW219272   2.958   0.264   4.952
 6125SOL     OW19273   0.779   4.604   2.303
 6125SOL    HW119274   0.781   4.504   2.313
 6125SOL    HW219275   0.691   4.631   2.264
 6126SOL     OW19276   3.995   6.025   2.364
 6126SOL    HW119277   4.006   6.112   2.316
 6126SOL    HW219278   3.898   6.006   2.378
 6127SOL     OW19279   1.968   4.819   1.864
 6127SOL    HW119280   1.969   4.722   1.842
 6127SOL    HW219281   2.059   4.849   1.891
 6128SOL     OW19282   5.055   2.961   1.213
 6128SOL    HW119283   5.077   2.894   1.142
 6128SOL    HW219284   5.076   2.922   1.303
 6129SOL     OW19285   6.307   3.790   3.498
 6129SOL    HW119286   6.366   3.770   3.420
 6129SOL    HW219287   6.278   3.885   3.494
 6130SOL     OW19288   5.178   4.545   2.082
 6130SOL    HW119289   5.250   4.550   2.150
 6130SOL    HW219290   5.212   4.578   1.994
 6131SOL     OW19291   6.440   1.536   5.222
 6131SOL    HW119292   6.415   1.451   5.268
 6131SOL    HW219293   6.539   1.550   5.231
 6132SOL     OW19294   6.866   2.843   0.554
 6132SOL    HW119295   6.815   2.890   0.482
 6132SOL    HW219296   6.950   2.805   0.517
 6133SOL     OW19297   1.078   4.408   0.938
 6133SOL    HW119298   1.166   4.438   0.904
 6133SOL    HW219299   1.070   4.309   0.928
 6134SOL     OW19300   4.327   3.597   7.002
 6134SOL    HW119301   4.293   3.508   6.972
 6134SOL    HW219302   4.419   3.587   0.019
 6135SOL     OW19303   5.477   0.222   2.777
 6135SOL    HW119304   5.484   0.172   2.864
 6135SOL    HW219305   5.473   0.320   2.796
 6136SOL     OW19306   0.695   1.417   2.372
 6136SOL    HW119307   0.714   1.488   2.304
 6136SOL    HW219308   0.780   1.373   2.399
 6137SOL     OW19309   3.047   6.972   6.510
 6137SOL    HW119310   3.116   7.012   6.572
 6137SOL    HW219311   3.048   0.001   6.423
 6138SOL     OW19312   5.292   0.181   3.140
 6138SOL    HW119313   5.221   0.120   3.107
 6138SOL    HW219314   5.380   0.157   3.098
 6139SOL     OW19315   2.560   5.778   3.521
 6139SOL    HW119316   2.647   5.820   3.495
 6139SOL    HW219317   2.563   5.753   3.618
 6140SOL     OW19318   1.180   5.195   1.181
 6140SOL    HW119319   1.170   5.158   1.089
 6140SOL    HW219320   1.128   5.139   1.245
 6141SOL     OW19321   6.650   5.787   5.637
 6141SOL    HW119322   6.609   5.850   5.703
 6141SOL    HW219323   6.739   5.756   5.671
 6142SOL     OW19324   0.903   4.343   3.268
 6142SOL    HW119325   0.946   4.253   3.280
 6142SOL    HW219326   0.968   4.405   3.223
 6143SOL     OW19327   6.476   4.288   6.661
 6143SOL    HW119328   6.435   4.316   6.574
 6143SOL    HW219329   6.531   4.205   6.648
 6144SOL     OW19330   0.012   4.591   4.442
 6144SOL    HW119331   6.987   4.666   4.490
 6144SOL    HW219332   0.111   4.601   4.449
 6145SOL     OW19333   5.922   5.377   3.194
 6145SOL    HW119334   6.002   5.319   3.184
 6145SOL    HW219335   5.848   5.324   3.236
 6146SOL     OW19336   5.822   2.704   3.315
 6146SOL    HW119337   5.891   2.641   3.280
 6146SOL    HW219338   5.754   2.653   3.369
 6147SOL     OW19339   1.112   3.756   2.915
 6147SOL    HW119340   1.180   3.806   2.969
 6147SOL    HW219341   1.115   3.790   2.821
 6148SOL     OW19342   6.247   5.660   3.136
 6148SOL    HW119343   6.243   5.717   3.218
 6148SOL    HW219344   6.160   5.665   3.087
 6149SOL     OW19345   2.031   6.291   4.854
 6149SOL    HW119346   2.126   6.259   4.854
 6149SOL    HW219347   2.008   6.325   4.763
 6150SOL     OW19348   4.510   6.070   6.098
 6150SOL    HW119349   4.541   5.984   6.058
 6150SOL    HW219350   4.588   6.127   6.121
 6151SOL     OW19351   4.933   0.401   5.567
 6151SOL    HW119352   4.970   0.310   5.549
 6151SOL    HW219353   4.856   0.395   5.630
 6152SOL     OW19354   6.790   4.781   5.298
 6152SOL    HW119355   6.766   4.838   5.377
 6152SOL    HW219356   6.775   4.685   5.321
 6153SOL     OW19357   4.483   5.057   6.611
 6153SOL    HW119358   4.554   5.116   6.651
 6153SOL    HW219359   4.393   5.097   6.628
 6154SOL     OW19360   5.255   2.982   3.679
 6154SOL    HW119361   5.325   2.969   3.609
 6154SOL    HW219362   5.296   2.972   3.770
 6155SOL     OW19363   2.338   4.720   4.529
 6155SOL    HW119364   2.353   4.733   4.627
 6155SOL    HW219365   2.368   4.629   4.503
 6156SOL     OW19366   5.852   0.706   4.449
 6156SOL    HW119367   5.810   0.779   4.503
 6156SOL    HW219368   5.951   0.708   4.464
 6157SOL     OW19369   1.004   1.684   3.865
 6157SOL    HW119370   1.033   1.634   3.783
 6157SOL    HW219371   0.946   1.624   3.921
 6158SOL     OW19372   5.317   6.886   0.334
 6158SOL    HW119373   5.331   6.949   0.257
 6158SOL    HW219374   5.266   6.931   0.406
 6159SOL     OW19375   5.397   3.168   6.676
 6159SOL    HW119376   5.327   3.233   6.648
 6159SOL    HW219377   5.444   3.133   6.595
 6160SOL     OW19378   6.198   4.519   0.909
 6160SOL    HW119379   6.174   4.614   0.892
 6160SOL    HW219380   6.251   4.483   0.832
 6161SOL     OW19381   5.874   0.297   6.391
 6161SOL    HW119382   5.934   0.221   6.368
 6161SOL    HW219383   5.914   0.351   6.465
 6162SOL     OW19384   5.670   5.089   4.254
 6162SOL    HW119385   5.654   5.087   4.353
 6162SOL    HW219386   5.765   5.112   4.237
 6163SOL     OW19387   6.740   4.089   2.334
 6163SOL    HW119388   6.757   4.096   2.236
 6163SOL    HW219389   6.736   3.992   2.360
 6164SOL     OW19390   4.875   2.666   0.676
 6164SOL    HW119391   4.826   2.754   0.683
 6164SOL    HW219392   4.928   2.651   0.759
 6165SOL     OW19393   4.009   0.398   1.680
 6165SOL    HW119394   4.035   0.335   1.754
 6165SOL    HW219395   3.920   0.439   1.702
 6166SOL     OW19396   4.094   1.360   0.701
 6166SOL    HW119397   4.084   1.436   0.765
 6166SOL    HW219398   4.025   1.367   0.629
 6167SOL     OW19399   0.044   5.282   3.820
 6167SOL    HW119400   0.116   5.321   3.763
 6167SOL    HW219401   7.009   5.219   3.766
 6168SOL     OW19402   0.844   2.923   1.233
 6168SOL    HW119403   0.892   3.004   1.268
 6168SOL    HW219404   0.833   2.932   1.134
 6169SOL     OW19405   2.092   4.554   1.504
 6169SOL    HW119406   1.994   4.556   1.526
 6169SOL    HW219407   2.138   4.489   1.565
 6170SOL     OW19408   6.659   1.812   3.738
 6170SOL    HW119409   6.649   1.791   3.640
 6170SOL    HW219410   6.602   1.890   3.761
 6171SOL     OW19411   6.023   1.082   5.778
 6171SOL    HW119412   5.930   1.066   5.745
 6171SOL    HW219413   6.060   0.997   5.816
 6172SOL     OW19414   1.179   4.558   4.284
 6172SOL    HW119415   1.177   4.526   4.378
 6172SOL    HW219416   1.215   4.652   4.281
 6173SOL     OW19417   5.545   6.184   2.999
 6173SOL    HW119418   5.596   6.136   2.928
 6173SOL    HW219419   5.597   6.263   3.030
 6174SOL     OW19420   6.497   2.227   2.772
 6174SOL    HW119421   6.497   2.326   2.757
 6174SOL    HW219422   6.592   2.194   2.776
 6175SOL     OW19423   3.950   1.773   6.957
 6175SOL    HW119424   3.877   1.820   7.005
 6175SOL    HW219425   3.989   1.833   6.887
 6176SOL     OW19426   2.993   3.752   6.259
 6176SOL    HW119427   3.038   3.674   6.303
 6176SOL    HW219428   2.896   3.732   6.248
 6177SOL     OW19429   5.902   5.608   1.559
 6177SOL    HW119430   5.864   5.699   1.545
 6177SOL    HW219431   5.947   5.578   1.475
 6178SOL     OW19432   4.117   4.796   2.106
 6178SOL    HW119433   4.021   4.768   2.113
 6178SOL    HW219434   4.148   4.786   2.011
 6179SOL     OW19435   5.599   5.119   5.199
 6179SOL    HW119436   5.649   5.205   5.192
 6179SOL    HW219437   5.580   5.084   5.107
 6180SOL     OW19438   2.257   4.043   6.426
 6180SOL    HW119439   2.164   4.009   6.428
 6180SOL    HW219440   2.257   4.142   6.441
 6181SOL     OW19441   6.164   6.241   0.209
 6181SOL    HW119442   6.217   6.157   0.221
 6181SOL    HW219443   6.160   6.265   0.112
 6182SOL     OW19444   2.839   2.443   6.503
 6182SOL    HW119445   2.869   2.415   6.595
 6182SOL    HW219446   2.771   2.378   6.469
 6183SOL     OW19447   0.320   0.717   0.716
 6183SOL    HW119448   0.280   0.778   0.648
 6183SOL    HW219449   0.404   0.677   0.679
 6184SOL     OW19450   3.250   6.758   5.254
 6184SOL    HW119451   3.248   6.733   5.157
 6184SOL    HW219452   3.345   6.775   5.281
 6185SOL     OW19453   3.299   3.249   5.383
 6185SOL    HW119454   3.272   3.295   5.299
 6185SOL    HW219455   3.391   3.279   5.409
 6186SOL     OW19456   1.368   2.004   2.780
 6186SOL    HW119457   1.382   1.914   2.739
 6186SOL    HW219458   1.358   1.995   2.879
 6187SOL     OW19459   3.110   1.766   6.296
 6187SOL    HW119460   3.144   1.845   6.346
 6187SOL    HW219461   3.111   1.785   6.198
 6188SOL     OW19462   2.201   1.500   5.811
 6188SOL    HW119463   2.175   1.457   5.724
 6188SOL    HW219464   2.282   1.557   5.797
 6189SOL     OW19465   6.608   5.239   0.359
 6189SOL    HW119466   6.594   5.332   0.327
 6189SOL    HW219467   6.525   5.185   0.343
 6190SOL     OW19468   0.352   3.288   3.555
 6190SOL    HW119469   0.410   3.287   3.473
 6190SOL    HW219470   0.409   3.297   3.636
 6191SOL     OW19471   2.283   4.151   0.891
 6191SOL    HW119472   2.341   4.194   0.822
 6191SOL    HW219473   2.214   4.095   0.846
 6192SOL     OW19474   3.017   1.950   1.340
 6192SOL    HW119475   2.961   1.976   1.261
 6192SOL    HW219476   3.113   1.972   1.322
 6193SOL     OW19477   4.152   6.046   6.790
 6193SOL    HW119478   4.160   6.019   6.694
 6193SOL    HW219479   4.134   6.144   6.796
 6194SOL     OW19480   5.532   6.972   6.269
 6194SOL    HW119481   5.583   6.973   6.183
 6194SOL    HW219482   5.456   6.907   6.262
 6195SOL     OW19483   4.983   6.205   6.056
 6195SOL    HW119484   4.894   6.193   6.099
 6195SOL    HW219485   4.972   6.245   5.966
 6196SOL     OW19486   6.134   3.464   3.459
 6196SOL    HW119487   6.209   3.461   3.393
 6196SOL    HW219488   6.127   3.376   3.505
 6197SOL     OW19489   1.155   5.094   0.946
 6197SOL    HW119490   1.203   5.098   0.858
 6197SOL    HW219491   1.062   5.061   0.931
 6198SOL     OW19492   5.948   1.418   6.551
 6198SOL    HW119493   5.996   1.487   6.497
 6198SOL    HW219494   6.005   1.392   6.629
 6199SOL     OW19495   2.365   6.832   6.396
 6199SOL    HW119496   2.278   6.808   6.438
 6199SOL    HW219497   2.418   6.749   6.379
 6200SOL     OW19498   1.109   0.204   0.570
 6200SOL    HW119499   1.084   0.108   0.570
 6200SOL    HW219500   1.155   0.227   0.484
 6201SOL     OW19501   0.352   5.074   3.362
 6201SOL    HW119502   0.268   5.020   3.362
 6201SOL    HW219503   0.360   5.121   3.274
 6202SOL     OW19504   5.644   0.514   2.087
 6202SOL    HW119505   5.622   0.548   1.996
 6202SOL    HW219506   5.561   0.505   2.141
 6203SOL     OW19507   6.509   0.490   1.825
 6203SOL    HW119508   6.581   0.558   1.838
 6203SOL    HW219509   6.422   0.536   1.810
 6204SOL     OW19510   1.097   5.484   4.706
 6204SOL    HW119511   1.020   5.485   4.642
 6204SOL    HW219512   1.080   5.415   4.777
 6205SOL     OW19513   5.928   4.855   3.552
 6205SOL    HW119514   6.002   4.797   3.518
 6205SOL    HW219515   5.947   4.880   3.647
 6206SOL     OW19516   5.536   2.279   3.556
 6206SOL    HW119517   5.521   2.335   3.637
 6206SOL    HW219518   5.512   2.184   3.576
 6207SOL     OW19519   1.776   5.859   3.435
 6207SOL    HW119520   1.775   5.778   3.494
 6207SOL    HW219521   1.798   5.831   3.341
 6208SOL     OW19522   4.000   4.450   6.332
 6208SOL    HW119523   4.087   4.486   6.297
 6208SOL    HW219524   3.927   4.473   6.268
 6209SOL     OW19525   3.783   1.356   1.951
 6209SOL    HW119526   3.844   1.407   2.011
 6209SOL    HW219527   3.761   1.411   1.871
 6210SOL     OW19528   5.663   1.164   3.934
 6210SOL    HW119529   5.738   1.111   3.894
 6210SOL    HW219530   5.690   1.260   3.941
 6211SOL     OW19531   5.378   3.359   5.095
 6211SOL    HW119532   5.289   3.316   5.114
 6211SOL    HW219533   5.450   3.311   5.145
 6212SOL     OW19534   5.216   4.226   4.962
 6212SOL    HW119535   5.205   4.140   5.011
 6212SOL    HW219536   5.201   4.211   4.864
 6213SOL     OW19537   4.981   6.229   0.525
 6213SOL    HW119538   4.904   6.201   0.582
 6213SOL    HW219539   4.948   6.253   0.434
 6214SOL     OW19540   6.081   0.159   6.599
 6214SOL    HW119541   6.099   0.121   6.508
 6214SOL    HW219542   6.165   0.157   6.653
 6215SOL     OW19543   5.561   1.819   5.418
 6215SOL    HW119544   5.627   1.777   5.355
 6215SOL    HW219545   5.473   1.829   5.371
 6216SOL     OW19546   4.837   1.863   5.263
 6216SOL    HW119547   4.785   1.812   5.194
 6216SOL    HW219548   4.780   1.937   5.300
 6217SOL     OW19549   0.252   4.083   2.516
 6217SOL    HW119550   0.220   4.112   2.606
 6217SOL    HW219551   0.204   4.134   2.446
 6218SOL     OW19552   4.506   6.502   1.029
 6218SOL    HW119553   4.517   6.510   0.930
 6218SOL    HW219554   4.421   6.545   1.057
 6219SOL     OW19555   2.078   0.208   6.837
 6219SOL    HW119556   2.025   0.275   6.888
 6219SOL    HW219557   2.066   0.224   6.739
 6220SOL     OW19558   3.282   6.895   1.973
 6220SOL    HW119559   3.239   6.805   1.985
 6220SOL    HW219560   3.218   6.966   2.002
 6221SOL     OW19561   4.668   5.224   5.716
 6221SOL    HW119562   4.754   5.258   5.754
 6221SOL    HW219563   4.670   5.232   5.617
 6222SOL     OW19564   6.717   1.093   2.462
 6222SOL    HW119565   6.640   1.035   2.490
 6222SOL    HW219566   6.699   1.188   2.489
 6223SOL     OW19567   6.581   4.720   4.630
 6223SOL    HW119568   6.540   4.686   4.546
 6223SOL    HW219569   6.680   4.728   4.618
 6224SOL     OW19570   4.091   6.588   0.111
 6224SOL    HW119571   4.110   6.618   0.204
 6224SOL    HW219572   4.033   6.656   0.065
 6225SOL     OW19573   5.100   6.441   6.217
 6225SOL    HW119574   5.177   6.378   6.226
 6225SOL    HW219575   5.014   6.389   6.216
 6226SOL     OW19576   0.651   0.904   3.828
 6226SOL    HW119577   0.570   0.857   3.864
 6226SOL    HW219578   0.655   0.996   3.865
 6227SOL     OW19579   2.599   5.136   5.923
 6227SOL    HW119580   2.573   5.111   6.016
 6227SOL    HW219581   2.638   5.228   5.923
 6228SOL     OW19582   0.960   3.374   3.534
 6228SOL    HW119583   0.870   3.411   3.559
 6228SOL    HW219584   0.999   3.427   3.459
 6229SOL     OW19585   0.519   3.992   4.204
 6229SOL    HW119586   0.532   4.091   4.211
 6229SOL    HW219587   0.478   3.969   4.116
 6230SOL     OW19588   0.807   0.725   1.572
 6230SOL    HW119589   0.708   0.713   1.577
 6230SOL    HW219590   0.853   0.644   1.608
 6231SOL     OW19591   2.378   5.413   5.781
 6231SOL    HW119592   2.343   5.471   5.707
 6231SOL    HW219593   2.402   5.324   5.744
 6232SOL     OW19594   4.423   0.211   6.956
 6232SOL    HW119595   4.464   0.121   6.974
 6232SOL    HW219596   4.492   0.272   6.918
 6233SOL     OW19597   0.125   3.615   1.160
 6233SOL    HW119598   0.211   3.573   1.129
 6233SOL    HW219599   0.097   3.571   1.246
 6234SOL     OW19600   5.065   5.468   4.062
 6234SOL    HW119601   5.087   5.557   4.103
 6234SOL    HW219602   5.060   5.399   4.134
 6235SOL     OW19603   0.617   0.891   2.098
 6235SOL    HW119604   0.682   0.951   2.052
 6235SOL    HW219605   0.605   0.807   2.045
 6236SOL     OW19606   6.855   5.888   1.368
 6236SOL    HW119607   6.775   5.829   1.372
 6236SOL    HW219608   6.828   5.982   1.347
 6237SOL     OW19609   3.413   1.040   2.466
 6237SOL    HW119610   3.397   0.942   2.478
 6237SOL    HW219611   3.478   1.072   2.535
 6238SOL     OW19612   2.634   0.956   3.423
 6238SOL    HW119613   2.569   1.018   3.467
 6238SOL    HW219614   2.640   0.871   3.475
 6239SOL     OW19615   4.529   1.502   4.574
 6239SOL    HW119616   4.576   1.542   4.652
 6239SOL    HW219617   4.594   1.488   4.499
 6240SOL     OW19618   3.990   3.306   4.133
 6240SOL    HW119619   3.915   3.351   4.086
 6240SOL    HW219620   3.962   3.215   4.162
 6241SOL     OW19621   3.583   0.104   3.597
 6241SOL    HW119622   3.591   0.075   3.502
 6241SOL    HW219623   3.658   0.166   3.619
 6242SOL     OW19624   3.089   2.199   4.219
 6242SOL    HW119625   3.153   2.197   4.142
 6242SOL    HW219626   2.998   2.225   4.186
 6243SOL     OW19627   4.120   1.360   0.071
 6243SOL    HW119628   4.202   1.322   0.029
 6243SOL    HW219629   4.039   1.332   0.019
 6244SOL     OW19630   4.515   2.426   2.099
 6244SOL    HW119631   4.494   2.387   2.189
 6244SOL    HW219632   4.578   2.503   2.110
 6245SOL     OW19633   6.847   4.909   2.102
 6245SOL    HW119634   6.804   4.846   2.037
 6245SOL    HW219635   6.801   4.902   2.191
 6246SOL     OW19636   0.662   6.613   5.044
 6246SOL    HW119637   0.723   6.533   5.041
 6246SOL    HW219638   0.716   6.696   5.055
 6247SOL     OW19639   5.558   5.309   3.006
 6247SOL    HW119640   5.589   5.257   3.085
 6247SOL    HW219641   5.634   5.322   2.942
 6248SOL     OW19642   4.301   2.532   5.607
 6248SOL    HW119643   4.382   2.528   5.548
 6248SOL    HW219644   4.221   2.553   5.551
 6249SOL     OW19645   5.724   3.881   3.514
 6249SOL    HW119646   5.739   3.950   3.443
 6249SOL    HW219647   5.665   3.920   3.586
 6250SOL     OW19648   5.716   6.908   6.059
 6250SOL    HW119649   5.796   6.876   6.110
 6250SOL    HW219650   5.744   6.933   5.966
 6251SOL     OW19651   2.801   0.678   4.401
 6251SOL    HW119652   2.767   0.757   4.452
 6251SOL    HW219653   2.813   0.703   4.305
 6252SOL     OW19654   2.989   5.645   0.776
 6252SOL    HW119655   2.979   5.546   0.772
 6252SOL    HW219656   2.932   5.688   0.706
 6253SOL     OW19657   4.878   6.275   4.003
 6253SOL    HW119658   4.843   6.236   3.918
 6253SOL    HW219659   4.808   6.269   4.074
 6254SOL     OW19660   0.579   0.089   1.638
 6254SOL    HW119661   0.482   0.067   1.646
 6254SOL    HW219662   0.596   0.180   1.675
 6255SOL     OW19663   1.687   1.506   0.853
 6255SOL    HW119664   1.785   1.500   0.869
 6255SOL    HW219665   1.667   1.487   0.757
 6256SOL     OW19666   6.152   5.459   2.385
 6256SOL    HW119667   6.067   5.430   2.430
 6256SOL    HW219668   6.197   5.379   2.345
 6257SOL     OW19669   3.503   3.556   0.687
 6257SOL    HW119670   3.499   3.601   0.777
 6257SOL    HW219671   3.571   3.482   0.690
 6258SOL     OW19672   4.267   5.099   4.944
 6258SOL    HW119673   4.275   5.197   4.963
 6258SOL    HW219674   4.178   5.066   4.977
 6259SOL     OW19675   4.451   0.774   5.225
 6259SOL    HW119676   4.397   0.692   5.239
 6259SOL    HW219677   4.430   0.841   5.296
 6260SOL     OW19678   3.120   1.837   0.793
 6260SOL    HW119679   3.052   1.897   0.752
 6260SOL    HW219680   3.198   1.891   0.825
 6261SOL     OW19681   3.954   7.010   0.781
 6261SOL    HW119682   3.876   6.997   0.720
 6261SOL    HW219683   3.926   6.993   0.875
 6262SOL     OW19684   6.061   0.845   2.599
 6262SOL    HW119685   5.969   0.838   2.636
 6262SOL    HW219686   6.119   0.898   2.661
 6263SOL     OW19687   6.161   6.078   6.232
 6263SOL    HW119688   6.078   6.031   6.263
 6263SOL    HW219689   6.228   6.011   6.201
 6264SOL     OW19690   1.236   6.063   0.526
 6264SOL    HW119691   1.212   6.028   0.436
 6264SOL    HW219692   1.261   5.987   0.586
 6265SOL     OW19693   3.524   0.209   6.862
 6265SOL    HW119694   3.458   0.143   6.825
 6265SOL    HW219695   3.609   0.205   6.809
 6266SOL     OW19696   3.446   5.284   3.001
 6266SOL    HW119697   3.454   5.381   3.022
 6266SOL    HW219698   3.511   5.231   3.057
 6267SOL     OW19699   0.673   6.160   4.419
 6267SOL    HW119700   0.671   6.063   4.444
 6267SOL    HW219701   0.582   6.199   4.430
 6268SOL     OW19702   3.742   1.681   1.344
 6268SOL    HW119703   3.725   1.588   1.376
 6268SOL    HW219704   3.714   1.689   1.249
 6269SOL     OW19705   6.594   6.286   6.880
 6269SOL    HW119706   6.535   6.278   6.800
 6269SOL    HW219707   6.687   6.310   6.852
 6270SOL     OW19708   1.351   6.197   0.973
 6270SOL    HW119709   1.348   6.267   1.044
 6270SOL    HW219710   1.444   6.188   0.939
 6271SOL     OW19711   6.745   3.064   6.175
 6271SOL    HW119712   6.832   3.112   6.164
 6271SOL    HW219713   6.681   3.120   6.226
 6272SOL     OW19714   0.600   1.468   6.887
 6272SOL    HW119715   0.687   1.467   6.937
 6272SOL    HW219716   0.586   1.558   6.846
 6273SOL     OW19717   0.218   6.309   2.936
 6273SOL    HW119718   0.280   6.259   2.876
 6273SOL    HW219719   0.229   6.407   2.923
 6274SOL     OW19720   2.880   6.381   3.878
 6274SOL    HW119721   2.964   6.379   3.932
 6274SOL    HW219722   2.879   6.303   3.815
 6275SOL     OW19723   2.578   5.782   0.451
 6275SOL    HW119724   2.660   5.810   0.401
 6275SOL    HW219725   2.503   5.764   0.387
 6276SOL     OW19726   2.081   5.409   2.730
 6276SOL    HW119727   2.082   5.380   2.634
 6276SOL    HW219728   2.118   5.502   2.737
 6277SOL     OW19729   5.320   2.361   1.036
 6277SOL    HW119730   5.337   2.311   1.121
 6277SOL    HW219731   5.241   2.420   1.048
 6278SOL     OW19732   3.940   2.439   0.608
 6278SOL    HW119733   3.961   2.495   0.687
 6278SOL    HW219734   3.972   2.484   0.525
 6279SOL     OW19735   2.039   6.595   1.776
 6279SOL    HW119736   2.118   6.567   1.722
 6279SOL    HW219737   2.068   6.655   1.850
 6280SOL     OW19738   4.992   1.254   6.416
 6280SOL    HW119739   5.016   1.351   6.420
 6280SOL    HW219740   4.985   1.225   6.320
 6281SOL     OW19741   5.161   4.109   6.073
 6281SOL    HW119742   5.179   4.207   6.086
 6281SOL    HW219743   5.208   4.076   5.992
 6282SOL     OW19744   0.750   3.421   5.818
 6282SOL    HW119745   0.839   3.376   5.824
 6282SOL    HW219746   0.759   3.505   5.764
 6283SOL     OW19747   2.758   0.252   4.491
 6283SOL    HW119748   2.672   0.203   4.478
 6283SOL    HW219749   2.742   0.350   4.484
 6284SOL     OW19750   1.886   3.262   5.618
 6284SOL    HW119751   1.959   3.316   5.660
 6284SOL    HW219752   1.862   3.187   5.680
 6285SOL     OW19753   1.216   3.876   2.695
 6285SOL    HW119754   1.255   3.784   2.698
 6285SOL    HW219755   1.266   3.932   2.630
 6286SOL     OW19756   0.812   2.395   6.857
 6286SOL    HW119757   0.862   2.325   6.807
 6286SOL    HW219758   0.716   2.368   6.867
 6287SOL     OW19759   4.607   4.733   4.588
 6287SOL    HW119760   4.519   4.704   4.624
 6287SOL    HW219761   4.593   4.797   4.512
 6288SOL     OW19762   2.954   3.329   6.185
 6288SOL    HW119763   3.042   3.372   6.164
 6288SOL    HW219764   2.959   3.231   6.164
 6289SOL     OW19765   2.352   4.734   4.819
 6289SOL    HW119766   2.440   4.711   4.863
 6289SOL    HW219767   2.308   4.807   4.871
 6290SOL     OW19768   6.611   0.121   3.880
 6290SOL    HW119769   6.582   0.213   3.855
 6290SOL    HW219770   6.656   0.077   3.803
 6291SOL     OW19771   3.538   3.690   1.940
 6291SOL    HW119772   3.630   3.670   1.972
 6291SOL    HW219773   3.508   3.620   1.876
 6292SOL     OW19774   1.425   4.607   4.722
 6292SOL    HW119775   1.513   4.615   4.769
 6292SOL    HW219776   1.394   4.697   4.693
 6293SOL     OW19777   2.843   1.285   6.528
 6293SOL    HW119778   2.794   1.221   6.587
 6293SOL    HW219779   2.777   1.333   6.470
 6294SOL     OW19780   1.867   1.317   2.456
 6294SOL    HW119781   1.918   1.285   2.535
 6294SOL    HW219782   1.873   1.249   2.383
 6295SOL     OW19783   4.402   3.509   6.448
 6295SOL    HW119784   4.361   3.498   6.539
 6295SOL    HW219785   4.499   3.527   6.458
 6296SOL     OW19786   0.715   2.967   0.003
 6296SOL    HW119787   0.637   3.029   7.016
 6296SOL    HW219788   0.793   3.016   0.043
 6297SOL     OW19789   6.559   1.220   4.073
 6297SOL    HW119790   6.510   1.176   4.148
 6297SOL    HW219791   6.646   1.173   4.058
 6298SOL     OW19792   6.995   6.623   0.335
 6298SOL    HW119793   0.023   6.544   0.297
 6298SOL    HW219794   0.027   6.707   0.316
 6299SOL     OW19795   3.544   2.142   3.977
 6299SOL    HW119796   3.560   2.108   3.884
 6299SOL    HW219797   3.447   2.165   3.987
 6300SOL     OW19798   2.883   2.002   1.109
 6300SOL    HW119799   2.896   2.098   1.088
 6300SOL    HW219800   2.802   1.967   1.062
 6301SOL     OW19801   3.849   6.291   0.117
 6301SOL    HW119802   3.908   6.275   0.196
 6301SOL    HW219803   3.821   6.204   0.078
 6302SOL     OW19804   1.675   3.454   0.268
 6302SOL    HW119805   1.628   3.376   0.310
 6302SOL    HW219806   1.742   3.421   0.201
 6303SOL     OW19807   6.851   4.793   4.587
 6303SOL    HW119808   6.829   4.856   4.513
 6303SOL    HW219809   6.920   4.834   4.647
 6304SOL     OW19810   2.735   1.020   4.211
 6304SOL    HW119811   2.664   0.973   4.264
 6304SOL    HW219812   2.816   0.961   4.204
 6305SOL     OW19813   0.871   5.543   5.826
 6305SOL    HW119814   0.784   5.535   5.778
 6305SOL    HW219815   0.946   5.547   5.760
 6306SOL     OW19816   0.889   4.509   4.262
 6306SOL    HW119817   0.864   4.434   4.324
 6306SOL    HW219818   0.985   4.500   4.236
 6307SOL     OW19819   3.252   3.209   2.593
 6307SOL    HW119820   3.282   3.115   2.609
 6307SOL    HW219821   3.236   3.254   2.680
 6308SOL     OW19822   1.216   1.990   0.945
 6308SOL    HW119823   1.121   1.993   0.913
 6308SOL    HW219824   1.255   2.082   0.943
 6309SOL     OW19825   1.716   5.973   4.713
 6309SOL    HW119826   1.804   5.995   4.671
 6309SOL    HW219827   1.730   5.956   4.811
 6310SOL     OW19828   0.150   0.024   3.452
 6310SOL    HW119829   0.069   0.008   3.509
 6310SOL    HW219830   0.121   0.035   3.356
 6311SOL     OW19831   6.652   1.132   6.391
 6311SOL    HW119832   6.574   1.178   6.348
 6311SOL    HW219833   6.649   1.146   6.490
 6312SOL     OW19834   3.191   5.443   1.047
 6312SOL    HW119835   3.275   5.392   1.067
 6312SOL    HW219836   3.215   5.531   1.008
 6313SOL     OW19837   5.662   4.873   3.950
 6313SOL    HW119838   5.656   4.901   3.854
 6313SOL    HW219839   5.740   4.812   3.963
 6314SOL     OW19840   2.202   6.924   3.108
 6314SOL    HW119841   2.136   6.939   3.181
 6314SOL    HW219842   2.266   6.853   3.135
 6315SOL     OW19843   2.476   2.225   3.569
 6315SOL    HW119844   2.383   2.188   3.567
 6315SOL    HW219845   2.492   2.278   3.487
 6316SOL     OW19846   4.614   0.404   5.237
 6316SOL    HW119847   4.632   0.319   5.286
 6316SOL    HW219848   4.699   0.439   5.198
 6317SOL     OW19849   4.663   4.828   2.669
 6317SOL    HW119850   4.752   4.782   2.667
 6317SOL    HW219851   4.638   4.847   2.763
 6318SOL     OW19852   6.519   6.841   0.146
 6318SOL    HW119853   6.449   6.871   0.081
 6318SOL    HW219854   6.594   6.798   0.096
 6319SOL     OW19855   4.681   2.325   4.431
 6319SOL    HW119856   4.596   2.332   4.378
 6319SOL    HW219857   4.758   2.357   4.375
 6320SOL     OW19858   6.741   1.613   6.081
 6320SOL    HW119859   6.837   1.639   6.069
 6320SOL    HW219860   6.683   1.694   6.072
 6321SOL     OW19861   0.782   3.134   0.402
 6321SOL    HW119862   0.832   3.064   0.351
 6321SOL    HW219863   0.815   3.224   0.375
 6322SOL     OW19864   1.482   1.693   2.889
 6322SOL    HW119865   1.389   1.675   2.920
 6322SOL    HW219866   1.547   1.641   2.946
 6323SOL     OW19867   1.918   5.521   1.235
 6323SOL    HW119868   1.861   5.603   1.232
 6323SOL    HW219869   1.951   5.499   1.143
 6324SOL     OW19870   4.607   2.877   1.298
 6324SOL    HW119871   4.639   2.805   1.359
 6324SOL    HW219872   4.507   2.881   1.300
 6325SOL     OW19873   1.371   3.569   3.387
 6325SOL    HW119874   1.449   3.513   3.416
 6325SOL    HW219875   1.398   3.665   3.382
 6326SOL     OW19876   4.846   5.199   5.335
 6326SOL    HW119877   4.747   5.212   5.335
 6326SOL    HW219878   4.867   5.108   5.373
 6327SOL     OW19879   0.549   0.849   2.850
 6327SOL    HW119880   0.640   0.880   2.825
 6327SOL    HW219881   0.497   0.926   2.889
 6328SOL     OW19882   4.433   3.420   5.331
 6328SOL    HW119883   4.452   3.515   5.303
 6328SOL    HW219884   4.518   3.367   5.327
 6329SOL     OW19885   0.753   2.955   4.921
 6329SOL    HW119886   0.733   2.865   4.882
 6329SOL    HW219887   0.736   3.026   4.853
 6330SOL     OW19888   4.306   2.075   3.803
 6330SOL    HW119889   4.366   2.029   3.738
 6330SOL    HW219890   4.322   2.039   3.895
 6331SOL     OW19891   1.518   3.745   3.950
 6331SOL    HW119892   1.581   3.714   3.879
 6331SOL    HW219893   1.492   3.840   3.932
 6332SOL     OW19894   4.293   1.459   0.429
 6332SOL    HW119895   4.299   1.360   0.439
 6332SOL    HW219896   4.347   1.503   0.500
 6333SOL     OW19897   5.482   0.633   0.682
 6333SOL    HW119898   5.425   0.555   0.654
 6333SOL    HW219899   5.577   0.604   0.689
 6334SOL     OW19900   2.292   1.007   1.851
 6334SOL    HW119901   2.286   0.928   1.790
 6334SOL    HW219902   2.249   1.086   1.808
 6335SOL     OW19903   6.753   3.438   5.835
 6335SOL    HW119904   6.847   3.458   5.809
 6335SOL    HW219905   6.717   3.365   5.777
 6336SOL     OW19906   1.270   4.445   5.379
 6336SOL    HW119907   1.255   4.353   5.344
 6336SOL    HW219908   1.281   4.508   5.302
 6337SOL     OW19909   6.100   0.031   4.786
 6337SOL    HW119910   6.009   7.008   4.788
 6337SOL    HW219911   6.091   0.127   4.762
 6338SOL     OW19912   0.822   0.720   3.012
 6338SOL    HW119913   0.801   0.817   3.016
 6338SOL    HW219914   0.914   0.707   2.974
 6339SOL     OW19915   0.377   3.489   3.185
 6339SOL    HW119916   0.416   3.559   3.244
 6339SOL    HW219917   0.292   3.523   3.145
 6340SOL     OW19918   2.840   5.467   6.570
 6340SOL    HW119919   2.771   5.534   6.541
 6340SOL    HW219920   2.845   5.394   6.502
 6341SOL     OW19921   0.241   4.535   2.807
 6341SOL    HW119922   0.307   4.500   2.873
 6341SOL    HW219923   0.285   4.600   2.746
 6342SOL     OW19924   2.078   0.500   1.672
 6342SOL    HW119925   2.178   0.495   1.679
 6342SOL    HW219926   2.049   0.596   1.672
 6343SOL     OW19927   1.246   5.653   0.074
 6343SOL    HW119928   1.183   5.576   0.075
 6343SOL    HW219929   1.248   5.694   7.003
 6344SOL     OW19930   1.212   1.461   4.613
 6344SOL    HW119931   1.156   1.539   4.583
 6344SOL    HW219932   1.200   1.448   4.711
 6345SOL     OW19933   6.192   2.868   2.906
 6345SOL    HW119934   6.261   2.808   2.866
 6345SOL    HW219935   6.106   2.818   2.917
 6346SOL     OW19936   0.553   4.613   5.097
 6346SOL    HW119937   0.546   4.595   4.999
 6346SOL    HW219938   0.471   4.661   5.128
 6347SOL     OW19939   1.970   2.354   3.695
 6347SOL    HW119940   2.050   2.381   3.748
 6347SOL    HW219941   1.900   2.319   3.757
 6348SOL     OW19942   0.885   2.626   6.721
 6348SOL    HW119943   0.916   2.585   6.635
 6348SOL    HW219944   0.836   2.557   6.775
 6349SOL     OW19945   5.944   0.834   0.902
 6349SOL    HW119946   5.869   0.778   0.867
 6349SOL    HW219947   6.025   0.778   0.913
 6350SOL     OW19948   0.645   6.042   1.129
 6350SOL    HW119949   0.650   5.991   1.043
 6350SOL    HW219950   0.703   6.123   1.123
 6351SOL     OW19951   5.933   2.938   2.016
 6351SOL    HW119952   5.944   2.877   2.094
 6351SOL    HW219953   6.022   2.977   1.991
 6352SOL     OW19954   4.528   0.736   4.385
 6352SOL    HW119955   4.534   0.803   4.458
 6352SOL    HW219956   4.461   0.766   4.317
 6353SOL     OW19957   3.179   6.804   5.874
 6353SOL    HW119958   3.248   6.821   5.944
 6353SOL    HW219959   3.088   6.813   5.914
 6354SOL     OW19960   5.220   4.800   2.506
 6354SOL    HW119961   5.158   4.864   2.552
 6354SOL    HW219962   5.191   4.788   2.411
 6355SOL     OW19963   4.393   5.921   0.596
 6355SOL    HW119964   4.333   5.994   0.629
 6355SOL    HW219965   4.378   5.907   0.498
 6356SOL     OW19966   6.687   6.645   6.017
 6356SOL    HW119967   6.647   6.734   6.041
 6356SOL    HW219968   6.736   6.609   6.096
 6357SOL     OW19969   4.921   1.804   3.029
 6357SOL    HW119970   4.999   1.750   2.999
 6357SOL    HW219971   4.930   1.897   2.994
 6358SOL     OW19972   1.215   1.685   4.311
 6358SOL    HW119973   1.179   1.713   4.400
 6358SOL    HW219974   1.161   1.726   4.238
 6359SOL     OW19975   6.037   5.067   0.781
 6359SOL    HW119976   6.040   4.968   0.774
 6359SOL    HW219977   5.957   5.095   0.835
 6360SOL     OW19978   2.142   2.939   1.017
 6360SOL    HW119979   2.209   2.867   1.037
 6360SOL    HW219980   2.136   3.002   1.095
 6361SOL     OW19981   0.460   2.016   2.016
 6361SOL    HW119982   0.442   1.917   2.014
 6361SOL    HW219983   0.390   2.061   2.070
 6362SOL     OW19984   1.413   5.203   0.035
 6362SOL    HW119985   1.421   5.115   0.082
 6362SOL    HW219986   1.473   5.270   0.078
 6363SOL     OW19987   1.022   2.479   2.125
 6363SOL    HW119988   0.954   2.451   2.193
 6363SOL    HW219989   1.101   2.518   2.173
 6364SOL     OW19990   3.132   1.660   4.232
 6364SOL    HW119991   3.052   1.605   4.252
 6364SOL    HW219992   3.116   1.754   4.262
 6365SOL     OW19993   6.547   6.789   2.929
 6365SOL    HW119994   6.565   6.788   3.027
 6365SOL    HW219995   6.448   6.795   2.914
 6366SOL     OW19996   5.884   1.508   5.487
 6366SOL    HW119997   5.830   1.563   5.423
 6366SOL    HW219998   5.828   1.481   5.564
 6367SOL     OW19999   1.000   2.341   4.385
 6367SOL    HW120000   1.029   2.400   4.461
 6367SOL    HW220001   0.940   2.269   4.419
 6368SOL     OW20002   4.853   3.300   5.066
 6368SOL    HW120003   4.876   3.241   4.988
 6368SOL    HW220004   4.865   3.395   5.041
 6369SOL     OW20005   3.635   4.224   0.827
 6369SOL    HW120006   3.586   4.277   0.757
 6369SOL    HW220007   3.623   4.269   0.916
 6370SOL     OW20008   5.840   3.994   4.946
 6370SOL    HW120009   5.827   4.090   4.922
 6370SOL    HW220010   5.931   3.964   4.916
 6371SOL     OW20011   5.316   4.037   0.916
 6371SOL    HW120012   5.324   4.121   0.969
 6371SOL    HW220013   5.295   4.060   0.820
 6372SOL     OW20014   6.802   1.344   0.921
 6372SOL    HW120015   6.849   1.339   1.009
 6372SOL    HW220016   6.761   1.434   0.910
 6373SOL     OW20017   5.326   2.710   1.609
 6373SOL    HW120018   5.362   2.731   1.700
 6373SOL    HW220019   5.249   2.648   1.617
 6374SOL     OW20020   4.165   3.898   6.304
 6374SOL    HW120021   4.228   3.924   6.377
 6374SOL    HW220022   4.168   3.799   6.291
 6375SOL     OW20023   4.883   1.028   1.713
 6375SOL    HW120024   4.862   0.932   1.693
 6375SOL    HW220025   4.939   1.066   1.639
 6376SOL     OW20026   2.711   6.632   0.049
 6376SOL    HW120027   2.655   6.598   0.124
 6376SOL    HW220028   2.808   6.614   0.068
 6377SOL     OW20029   0.222   0.560   0.010
 6377SOL    HW120030   0.185   0.500   0.081
 6377SOL    HW220031   0.258   0.504   6.955
 6378SOL     OW20032   5.839   3.986   2.614
 6378SOL    HW120033   5.818   4.037   2.531
 6378SOL    HW220034   5.810   3.891   2.602
 6379SOL     OW20035   2.680   5.718   6.920
 6379SOL    HW120036   2.608   5.665   6.966
 6379SOL    HW220037   2.743   5.755   6.988
 6380SOL     OW20038   1.982   2.933   4.910
 6380SOL    HW120039   2.076   2.914   4.882
 6380SOL    HW220040   1.978   3.024   4.953
 6381SOL     OW20041   3.752   3.819   0.631
 6381SOL    HW120042   3.725   3.845   0.724
 6381SOL    HW220043   3.799   3.731   0.633
 6382SOL     OW20044   1.471   1.091   1.083
 6382SOL    HW120045   1.516   1.178   1.102
 6382SOL    HW220046   1.376   1.107   1.057
 6383SOL     OW20047   2.411   2.208   2.510
 6383SOL    HW120048   2.455   2.228   2.422
 6383SOL    HW220049   2.477   2.219   2.584
 6384SOL     OW20050   6.368   2.061   2.087
 6384SOL    HW120051   6.454   2.079   2.040
 6384SOL    HW220052   6.351   2.133   2.155
 6385SOL     OW20053   6.932   3.561   0.895
 6385SOL    HW120054   6.998   3.600   0.831
 6385SOL    HW220055   6.977   3.492   0.951
 6386SOL     OW20056   3.360   3.508   0.240
 6386SOL    HW120057   3.428   3.467   0.180
 6386SOL    HW220058   3.358   3.458   0.326
 6387SOL     OW20059   6.553   0.701   6.030
 6387SOL    HW120060   6.464   0.669   5.999
 6387SOL    HW220061   6.542   0.779   6.091
 6388SOL     OW20062   6.011   5.515   1.315
 6388SOL    HW120063   6.062   5.430   1.303
 6388SOL    HW220064   6.049   5.586   1.255
 6389SOL     OW20065   6.689   6.656   0.777
 6389SOL    HW120066   6.657   6.750   0.793
 6389SOL    HW220067   6.745   6.627   0.854
 6390SOL     OW20068   5.135   6.656   6.628
 6390SOL    HW120069   5.046   6.623   6.597
 6390SOL    HW220070   5.157   6.614   6.716
 6391SOL     OW20071   1.785   2.227   4.644
 6391SOL    HW120072   1.796   2.311   4.590
 6391SOL    HW220073   1.857   2.222   4.714
 6392SOL     OW20074   5.010   6.861   4.172
 6392SOL    HW120075   5.010   6.763   4.150
 6392SOL    HW220076   4.959   6.911   4.103
 6393SOL     OW20077   1.960   5.365   0.718
 6393SOL    HW120078   1.979   5.273   0.753
 6393SOL    HW220079   1.925   5.358   0.624
 6394SOL     OW20080   1.724   5.335   2.245
 6394SOL    HW120081   1.692   5.427   2.269
 6394SOL    HW220082   1.654   5.269   2.269
 6395SOL     OW20083   1.449   4.347   4.697
 6395SOL    HW120084   1.454   4.446   4.707
 6395SOL    HW220085   1.453   4.323   4.600
 6396SOL     OW20086   1.764   3.304   4.869
 6396SOL    HW120087   1.825   3.303   4.949
 6396SOL    HW220088   1.677   3.261   4.893
 6397SOL     OW20089   6.545   3.043   5.090
 6397SOL    HW120090   6.505   2.978   5.155
 6397SOL    HW220091   6.618   2.998   5.039
 6398SOL     OW20092   1.574   6.999   2.758
 6398SOL    HW120093   1.648   0.046   2.763
 6398SOL    HW220094   1.607   6.917   2.711
 6399SOL     OW20095   2.529   0.039   0.062
 6399SOL    HW120096   2.515   6.966   0.098
 6399SOL    HW220097   2.441   0.082   0.044
 6400SOL     OW20098   0.722   6.626   2.701
 6400SOL    HW120099   0.809   6.581   2.721
 6400SOL    HW220100   0.740   6.716   2.661
 6401SOL     OW20101   3.898   5.140   1.959
 6401SOL    HW120102   3.898   5.147   2.059
 6401SOL    HW220103   3.898   5.044   1.932
 6402SOL     OW20104   3.689   4.110   6.177
 6402SOL    HW120105   3.658   4.030   6.124
 6402SOL    HW220106   3.786   4.101   6.198
 6403SOL     OW20107   4.711   5.564   5.802
 6403SOL    HW120108   4.772   5.500   5.849
 6403SOL    HW220109   4.684   5.526   5.713
 6404SOL     OW20110   4.691   5.637   6.668
 6404SOL    HW120111   4.661   5.683   6.752
 6404SOL    HW220112   4.787   5.611   6.676
 6405SOL     OW20113   4.452   1.079   2.524
 6405SOL    HW120114   4.518   1.028   2.469
 6405SOL    HW220115   4.390   1.015   2.570
 6406SOL     OW20116   0.423   3.396   2.144
 6406SOL    HW120117   0.441   3.476   2.201
 6406SOL    HW220118   0.329   3.400   2.111
 6407SOL     OW20119   0.413   0.091   2.049
 6407SOL    HW120120   0.468   0.034   1.988
 6407SOL    HW220121   0.472   0.157   2.095
 6408SOL     OW20122   0.565   1.499   1.842
 6408SOL    HW120123   0.554   1.421   1.904
 6408SOL    HW220124   0.496   1.568   1.864
 6409SOL     OW20125   6.009   4.205   3.485
 6409SOL    HW120126   5.940   4.205   3.557
 6409SOL    HW220127   6.073   4.130   3.501
 6410SOL     OW20128   1.806   0.896   0.614
 6410SOL    HW120129   1.814   0.981   0.665
 6410SOL    HW220130   1.716   0.855   0.631
 6411SOL     OW20131   0.741   2.554   3.542
 6411SOL    HW120132   0.792   2.639   3.555
 6411SOL    HW220133   0.772   2.510   3.457
 6412SOL     OW20134   3.599   0.293   0.087
 6412SOL    HW120135   3.694   0.269   0.068
 6412SOL    HW220136   3.549   0.302   0.001
 6413SOL     OW20137   4.571   5.805   2.843
 6413SOL    HW120138   4.584   5.782   2.940
 6413SOL    HW220139   4.633   5.880   2.818
 6414SOL     OW20140   2.930   0.212   6.901
 6414SOL    HW120141   2.845   0.226   6.851
 6414SOL    HW220142   2.970   0.300   6.924
 6415SOL     OW20143   0.619   1.879   3.367
 6415SOL    HW120144   0.585   1.895   3.274
 6415SOL    HW220145   0.599   1.784   3.394
 6416SOL     OW20146   3.123   4.806   0.401
 6416SOL    HW120147   3.193   4.811   0.472
 6416SOL    HW220148   3.159   4.754   0.323
 6417SOL     OW20149   4.378   3.488   6.730
 6417SOL    HW120150   4.331   3.575   6.741
 6417SOL    HW220151   4.329   3.417   6.782
 6418SOL     OW20152   5.020   5.517   0.574
 6418SOL    HW120153   5.098   5.477   0.622
 6418SOL    HW220154   4.995   5.460   0.497
 6419SOL     OW20155   0.698   6.768   6.522
 6419SOL    HW120156   0.692   6.673   6.493
 6419SOL    HW220157   0.784   6.808   6.489
 6420SOL     OW20158   2.549   4.774   3.537
 6420SOL    HW120159   2.470   4.816   3.582
 6420SOL    HW220160   2.523   4.685   3.499
 6421SOL     OW20161   5.380   6.645   1.970
 6421SOL    HW120162   5.325   6.673   2.048
 6421SOL    HW220163   5.430   6.724   1.934
 6422SOL     OW20164   0.621   1.841   4.964
 6422SOL    HW120165   0.556   1.911   4.933
 6422SOL    HW220166   0.696   1.835   4.898
 6423SOL     OW20167   1.135   4.479   4.573
 6423SOL    HW120168   1.145   4.385   4.606
 6423SOL    HW220169   1.207   4.536   4.614
 6424SOL     OW20170   6.612   4.182   6.081
 6424SOL    HW120171   6.699   4.176   6.032
 6424SOL    HW220172   6.565   4.267   6.055
 6425SOL     OW20173   0.641   6.615   4.653
 6425SOL    HW120174   0.553   6.615   4.605
 6425SOL    HW220175   0.642   6.543   4.721
 6426SOL     OW20176   4.204   5.445   4.197
 6426SOL    HW120177   4.192   5.429   4.099
 6426SOL    HW220178   4.301   5.447   4.219
 6427SOL     OW20179   3.911   3.016   3.835
 6427SOL    HW120180   3.987   3.081   3.831
 6427SOL    HW220181   3.850   3.031   3.758
 6428SOL     OW20182   6.017   2.602   0.473
 6428SOL    HW120183   5.952   2.675   0.450
 6428SOL    HW220184   5.995   2.521   0.419
 6429SOL     OW20185   2.368   1.597   5.022
 6429SOL    HW120186   2.426   1.515   5.021
 6429SOL    HW220187   2.276   1.574   4.991
 6430SOL     OW20188   5.690   1.563   4.953
 6430SOL    HW120189   5.667   1.543   5.049
 6430SOL    HW220190   5.787   1.584   4.946
 6431SOL     OW20191   3.342   5.278   2.759
 6431SOL    HW120192   3.373   5.309   2.849
 6431SOL    HW220193   3.408   5.306   2.689
 6432SOL     OW20194   4.254   3.592   6.224
 6432SOL    HW120195   4.321   3.657   6.186
 6432SOL    HW220196   4.299   3.535   6.293
 6433SOL     OW20197   3.518   5.209   6.042
 6433SOL    HW120198   3.555   5.125   6.080
 6433SOL    HW220199   3.509   5.277   6.115
 6434SOL     OW20200   6.349   5.221   6.019
 6434SOL    HW120201   6.348   5.295   5.952
 6434SOL    HW220202   6.441   5.212   6.058
 6435SOL     OW20203   4.544   1.212   0.860
 6435SOL    HW120204   4.520   1.119   0.833
 6435SOL    HW220205   4.540   1.273   0.781
 6436SOL     OW20206   0.587   3.501   3.614
 6436SOL    HW120207   0.665   3.532   3.667
 6436SOL    HW220208   0.536   3.432   3.665
 6437SOL     OW20209   1.657   2.629   5.844
 6437SOL    HW120210   1.682   2.533   5.850
 6437SOL    HW220211   1.631   2.663   5.934
 6438SOL     OW20212   0.246   4.994   0.808
 6438SOL    HW120213   0.181   5.069   0.802
 6438SOL    HW220214   0.223   4.935   0.885
 6439SOL     OW20215   5.448   6.648   2.892
 6439SOL    HW120216   5.470   6.578   2.824
 6439SOL    HW220217   5.410   6.604   2.973
 6440SOL     OW20218   2.472   1.655   6.048
 6440SOL    HW120219   2.420   1.626   6.128
 6440SOL    HW220220   2.520   1.576   6.010
 6441SOL     OW20221   0.510   2.500   1.853
 6441SOL    HW120222   0.505   2.589   1.898
 6441SOL    HW220223   0.432   2.444   1.881
 6442SOL     OW20224   2.345   1.884   4.396
 6442SOL    HW120225   2.434   1.912   4.359
 6442SOL    HW220226   2.274   1.946   4.364
 6443SOL     OW20227   2.968   2.685   6.361
 6443SOL    HW120228   2.949   2.588   6.374
 6443SOL    HW220229   2.912   2.720   6.286
 6444SOL     OW20230   7.019   3.590   5.180
 6444SOL    HW120231   6.970   3.509   5.210
 6444SOL    HW220232   6.956   3.668   5.175
 6445SOL     OW20233   3.092   3.147   3.416
 6445SOL    HW120234   3.025   3.195   3.358
 6445SOL    HW220235   3.060   3.148   3.511
 6446SOL     OW20236   1.016   1.306   1.333
 6446SOL    HW120237   1.107   1.275   1.361
 6446SOL    HW220238   1.015   1.319   1.234
 6447SOL     OW20239   6.265   3.678   1.366
 6447SOL    HW120240   6.340   3.613   1.351
 6447SOL    HW220241   6.179   3.629   1.377
 6448SOL     OW20242   4.206   4.526   1.377
 6448SOL    HW120243   4.296   4.487   1.357
 6448SOL    HW220244   4.169   4.483   1.459
 6449SOL     OW20245   4.193   5.088   0.455
 6449SOL    HW120246   4.096   5.063   0.459
 6449SOL    HW220247   4.218   5.138   0.538
 6450SOL     OW20248   5.205   3.708   6.805
 6450SOL    HW120249   5.261   3.636   6.846
 6450SOL    HW220250   5.125   3.667   6.761
 6451SOL     OW20251   4.310   2.593   1.685
 6451SOL    HW120252   4.260   2.518   1.642
 6451SOL    HW220253   4.259   2.678   1.673
 6452SOL     OW20254   4.136   1.937   4.875
 6452SOL    HW120255   4.220   1.951   4.928
 6452SOL    HW220256   4.108   2.024   4.834
 6453SOL     OW20257   2.444   0.761   2.968
 6453SOL    HW120258   2.355   0.716   2.975
 6453SOL    HW220259   2.467   0.802   3.057
 6454SOL     OW20260   5.234   3.487   4.477
 6454SOL    HW120261   5.275   3.485   4.386
 6454SOL    HW220262   5.154   3.548   4.476
 6455SOL     OW20263   0.442   2.813   4.432
 6455SOL    HW120264   0.440   2.906   4.396
 6455SOL    HW220265   0.395   2.752   4.368
 6456SOL     OW20266   6.446   1.842   2.833
 6456SOL    HW120267   6.432   1.883   2.743
 6456SOL    HW220268   6.543   1.848   2.858
 6457SOL     OW20269   2.314   6.480   2.568
 6457SOL    HW120270   2.401   6.506   2.526
 6457SOL    HW220271   2.292   6.385   2.543
 6458SOL     OW20272   0.798   0.090   4.298
 6458SOL    HW120273   0.707   0.128   4.280
 6458SOL    HW220274   0.855   0.101   4.217
 6459SOL     OW20275   0.491   3.048   3.060
 6459SOL    HW120276   0.535   3.112   2.998
 6459SOL    HW220277   0.394   3.071   3.069
 6460SOL     OW20278   1.582   5.146   6.169
 6460SOL    HW120279   1.640   5.073   6.205
 6460SOL    HW220280   1.612   5.234   6.206
 6461SOL     OW20281   0.467   6.397   1.209
 6461SOL    HW120282   0.460   6.298   1.218
 6461SOL    HW220283   0.502   6.436   1.295
 6462SOL     OW20284   2.088   4.078   5.133
 6462SOL    HW120285   2.093   4.038   5.224
 6462SOL    HW220286   2.169   4.052   5.081
 6463SOL     OW20287   4.449   2.582   1.280
 6463SOL    HW120288   4.409   2.673   1.292
 6463SOL    HW220289   4.515   2.585   1.206
 6464SOL     OW20290   0.700   3.591   2.987
 6464SOL    HW120291   0.608   3.554   2.978
 6464SOL    HW220292   0.767   3.517   2.982
 6465SOL     OW20293   2.854   0.883   3.766
 6465SOL    HW120294   2.760   0.866   3.797
 6465SOL    HW220295   2.864   0.979   3.740
 6466SOL     OW20296   6.462   4.936   6.458
 6466SOL    HW120297   6.377   4.895   6.489
 6466SOL    HW220298   6.496   4.999   6.529
 6467SOL     OW20299   2.781   2.959   5.925
 6467SOL    HW120300   2.850   2.928   5.860
 6467SOL    HW220301   2.723   3.028   5.882
 6468SOL     OW20302   1.103   0.783   1.329
 6468SOL    HW120303   1.038   0.754   1.258
 6468SOL    HW220304   1.144   0.702   1.371
 6469SOL     OW20305   1.823   1.138   1.234
 6469SOL    HW120306   1.774   1.060   1.274
 6469SOL    HW220307   1.893   1.103   1.171
 6470SOL     OW20308   6.040   1.599   6.375
 6470SOL    HW120309   6.049   1.696   6.398
 6470SOL    HW220310   6.131   1.561   6.357
 6471SOL     OW20311   0.315   6.137   6.244
 6471SOL    HW120312   0.296   6.234   6.255
 6471SOL    HW220313   0.322   6.114   6.147
 6472SOL     OW20314   0.375   6.159   1.833
 6472SOL    HW120315   0.390   6.255   1.809
 6472SOL    HW220316   0.285   6.148   1.873
 6473SOL     OW20317   2.712   1.635   3.357
 6473SOL    HW120318   2.660   1.696   3.297
 6473SOL    HW220319   2.779   1.689   3.409
 6474SOL     OW20320   4.071   6.952   4.484
 6474SOL    HW120321   4.030   6.939   4.394
 6474SOL    HW220322   4.168   6.926   4.480
 6475SOL     OW20323   5.228   5.833   3.138
 6475SOL    HW120324   5.284   5.909   3.170
 6475SOL    HW220325   5.132   5.860   3.138
 6476SOL     OW20326   4.708   4.269   6.183
 6476SOL    HW120327   4.769   4.197   6.148
 6476SOL    HW220328   4.744   4.302   6.270
 6477SOL     OW20329   0.816   6.265   1.135
 6477SOL    HW120330   0.803   6.216   1.221
 6477SOL    HW220331   0.902   6.315   1.137
 6478SOL     OW20332   1.494   6.389   0.789
 6478SOL    HW120333   1.557   6.461   0.819
 6478SOL    HW220334   1.425   6.427   0.728
 6479SOL     OW20335   4.776   5.295   3.392
 6479SOL    HW120336   4.698   5.236   3.412
 6479SOL    HW220337   4.847   5.282   3.461
 6480SOL     OW20338   3.442   1.323   5.565
 6480SOL    HW120339   3.393   1.315   5.651
 6480SOL    HW220340   3.403   1.259   5.498
 6481SOL     OW20341   4.324   3.087   1.749
 6481SOL    HW120342   4.415   3.089   1.791
 6481SOL    HW220343   4.255   3.107   1.819
 6482SOL     OW20344   4.857   3.134   5.266
 6482SOL    HW120345   4.825   3.056   5.213
 6482SOL    HW220346   4.856   3.217   5.210
 6483SOL     OW20347   1.863   5.728   5.568
 6483SOL    HW120348   1.806   5.763   5.642
 6483SOL    HW220349   1.959   5.729   5.596
 6484SOL     OW20350   3.607   1.504   2.606
 6484SOL    HW120351   3.558   1.453   2.677
 6484SOL    HW220352   3.705   1.502   2.626
 6485SOL     OW20353   2.605   4.936   4.781
 6485SOL    HW120354   2.515   4.980   4.784
 6485SOL    HW220355   2.661   4.980   4.710
 6486SOL     OW20356   0.178   3.926   2.170
 6486SOL    HW120357   0.119   3.922   2.089
 6486SOL    HW220358   0.198   4.021   2.193
 6487SOL     OW20359   6.244   5.080   4.504
 6487SOL    HW120360   6.235   5.159   4.565
 6487SOL    HW220361   6.265   4.998   4.557
 6488SOL     OW20362   3.817   5.183   3.851
 6488SOL    HW120363   3.913   5.181   3.823
 6488SOL    HW220364   3.782   5.277   3.843
 6489SOL     OW20365   6.368   2.916   5.267
 6489SOL    HW120366   6.334   2.996   5.316
 6489SOL    HW220367   6.297   2.845   5.265
 6490SOL     OW20368   1.872   2.641   0.688
 6490SOL    HW120369   1.929   2.673   0.763
 6490SOL    HW220370   1.923   2.647   0.602
 6491SOL     OW20371   1.524   0.686   1.615
 6491SOL    HW120372   1.564   0.778   1.608
 6491SOL    HW220373   1.427   0.693   1.634
 6492SOL     OW20374   4.066   3.833   3.959
 6492SOL    HW120375   4.008   3.869   4.032
 6492SOL    HW220376   4.134   3.771   3.998
 6493SOL     OW20377   1.070   5.051   3.855
 6493SOL    HW120378   1.106   5.060   3.947
 6493SOL    HW220379   0.973   5.074   3.854
 6494SOL     OW20380   6.455   0.891   1.583
 6494SOL    HW120381   6.517   0.895   1.662
 6494SOL    HW220382   6.377   0.950   1.599
 6495SOL     OW20383   6.811   6.579   3.114
 6495SOL    HW120384   6.717   6.598   3.142
 6495SOL    HW220385   6.862   6.544   3.193
 6496SOL     OW20386   3.020   2.286   1.664
 6496SOL    HW120387   3.080   2.212   1.693
 6496SOL    HW220388   3.007   2.350   1.740
 6497SOL     OW20389   0.599   2.055   0.863
 6497SOL    HW120390   0.552   2.051   0.775
 6497SOL    HW220391   0.577   2.142   0.907
 6498SOL     OW20392   1.877   4.776   4.355
 6498SOL    HW120393   1.866   4.707   4.284
 6498SOL    HW220394   1.906   4.863   4.313
 6499SOL     OW20395   4.931   2.360   3.004
 6499SOL    HW120396   4.863   2.320   2.943
 6499SOL    HW220397   5.013   2.382   2.951
 6500SOL     OW20398   1.647   3.747   3.076
 6500SOL    HW120399   1.716   3.681   3.105
 6500SOL    HW220400   1.566   3.697   3.044
 6501SOL     OW20401   6.590   0.562   2.758
 6501SOL    HW120402   6.635   0.611   2.832
 6501SOL    HW220403   6.629   0.471   2.749
 6502SOL     OW20404   0.836   3.021   2.082
 6502SOL    HW120405   0.802   2.942   2.134
 6502SOL    HW220406   0.935   3.028   2.094
 6503SOL     OW20407   0.142   2.848   6.060
 6503SOL    HW120408   0.056   2.818   6.020
 6503SOL    HW220409   0.214   2.846   5.990
 6504SOL     OW20410   4.019   6.972   6.258
 6504SOL    HW120411   3.988   6.961   6.164
 6504SOL    HW220412   4.035   0.050   6.276
 6505SOL     OW20413   0.408   6.563   0.670
 6505SOL    HW120414   0.424   6.543   0.573
 6505SOL    HW220415   0.445   6.488   0.725
 6506SOL     OW20416   6.758   3.758   1.829
 6506SOL    HW120417   6.772   3.797   1.738
 6506SOL    HW220418   6.843   3.714   1.859
 6507SOL     OW20419   3.700   5.572   1.402
 6507SOL    HW120420   3.741   5.631   1.471
 6507SOL    HW220421   3.733   5.478   1.415
 6508SOL     OW20422   6.780   0.467   4.073
 6508SOL    HW120423   6.762   0.513   3.986
 6508SOL    HW220424   6.868   0.498   4.109
 6509SOL     OW20425   1.890   1.351   0.127
 6509SOL    HW120426   1.808   1.295   0.109
 6509SOL    HW220427   1.872   1.412   0.204
 6510SOL     OW20428   3.564   4.963   4.327
 6510SOL    HW120429   3.654   4.921   4.337
 6510SOL    HW220430   3.557   5.006   4.237
 6511SOL     OW20431   3.140   2.634   0.192
 6511SOL    HW120432   3.109   2.541   0.173
 6511SOL    HW220433   3.146   2.685   0.106
 6512SOL     OW20434   4.844   0.786   0.863
 6512SOL    HW120435   4.766   0.776   0.926
 6512SOL    HW220436   4.898   0.702   0.866
 6513SOL     OW20437   3.210   4.914   2.958
 6513SOL    HW120438   3.191   5.008   2.930
 6513SOL    HW220439   3.291   4.880   2.909
 6514SOL     OW20440   5.309   5.679   5.523
 6514SOL    HW120441   5.352   5.763   5.489
 6514SOL    HW220442   5.374   5.628   5.579
 6515SOL     OW20443   0.536   4.869   2.287
 6515SOL    HW120444   0.596   4.863   2.367
 6515SOL    HW220445   0.471   4.794   2.289
 6516SOL     OW20446   6.099   1.486   3.616
 6516SOL    HW120447   6.167   1.517   3.683
 6516SOL    HW220448   6.062   1.398   3.644
 6517SOL     OW20449   6.645   3.854   0.819
 6517SOL    HW120450   6.583   3.922   0.778
 6517SOL    HW220451   6.725   3.843   0.760
 6518SOL     OW20452   0.796   1.563   2.123
 6518SOL    HW120453   0.870   1.603   2.069
 6518SOL    HW220454   0.733   1.635   2.151
 6519SOL     OW20455   1.280   1.536   3.251
 6519SOL    HW120456   1.269   1.455   3.308
 6519SOL    HW220457   1.289   1.509   3.156
 6520SOL     OW20458   6.228   5.570   0.256
 6520SOL    HW120459   6.237   5.559   0.355
 6520SOL    HW220460   6.304   5.624   0.221
 6521SOL     OW20461   1.719   4.602   4.627
 6521SOL    HW120462   1.813   4.567   4.631
 6521SOL    HW220463   1.684   4.613   4.720
 6522SOL     OW20464   2.177   3.171   5.046
 6522SOL    HW120465   2.185   3.191   5.144
 6522SOL    HW220466   2.222   3.083   5.027
 6523SOL     OW20467   5.694   6.739   0.492
 6523SOL    HW120468   5.760   6.729   0.417
 6523SOL    HW220469   5.719   6.816   0.549
 6524SOL     OW20470   3.413   2.833   1.301
 6524SOL    HW120471   3.472   2.828   1.381
 6524SOL    HW220472   3.318   2.813   1.327
 6525SOL     OW20473   2.021   4.967   3.781
 6525SOL    HW120474   2.041   4.874   3.811
 6525SOL    HW220475   1.977   4.965   3.691
 6526SOL     OW20476   6.369   6.806   0.748
 6526SOL    HW120477   6.445   6.866   0.728
 6526SOL    HW220478   6.286   6.860   0.763
 6527SOL     OW20479   5.300   1.390   1.027
 6527SOL    HW120480   5.240   1.444   0.968
 6527SOL    HW220481   5.319   1.443   1.111
 6528SOL     OW20482   4.479   6.623   0.249
 6528SOL    HW120483   4.436   6.670   0.172
 6528SOL    HW220484   4.416   6.622   0.327
 6529SOL     OW20485   4.259   0.175   1.868
 6529SOL    HW120486   4.172   0.177   1.917
 6529SOL    HW220487   4.251   0.119   1.786
 6530SOL     OW20488   6.797   2.842   3.926
 6530SOL    HW120489   6.760   2.907   3.993
 6530SOL    HW220490   6.805   2.887   3.837
 6531SOL     OW20491   3.797   3.412   3.650
 6531SOL    HW120492   3.870   3.424   3.583
 6531SOL    HW220493   3.785   3.497   3.703
 6532SOL     OW20494   0.616   5.853   0.148
 6532SOL    HW120495   0.532   5.834   0.098
 6532SOL    HW220496   0.651   5.943   0.122
 6533SOL     OW20497   5.264   5.399   1.407
 6533SOL    HW120498   5.235   5.398   1.312
 6533SOL    HW220499   5.317   5.317   1.427
 6534SOL     OW20500   6.894   3.491   3.803
 6534SOL    HW120501   6.945   3.487   3.889
 6534SOL    HW220502   6.860   3.400   3.780
 6535SOL     OW20503   5.388   3.813   5.746
 6535SOL    HW120504   5.416   3.770   5.660
 6535SOL    HW220505   5.316   3.880   5.728
 6536SOL     OW20506   0.439   4.867   5.507
 6536SOL    HW120507   0.467   4.771   5.519
 6536SOL    HW220508   0.521   4.925   5.509
 6537SOL     OW20509   6.919   5.563   4.219
 6537SOL    HW120510   7.015   5.572   4.247
 6537SOL    HW220511   6.915   5.538   4.123
 6538SOL     OW20512   1.447   3.363   3.561
 6538SOL    HW120513   1.358   3.401   3.585
 6538SOL    HW220514   1.435   3.274   3.516
 6539SOL     OW20515   4.657   6.927   6.604
 6539SOL    HW120516   4.621   6.835   6.621
 6539SOL    HW220517   4.756   6.924   6.595
 6540SOL     OW20518   0.589   2.570   5.000
 6540SOL    HW120519   0.669   2.513   5.021
 6540SOL    HW220520   0.608   2.624   4.918
 6541SOL     OW20521   4.219   1.694   5.267
 6541SOL    HW120522   4.142   1.751   5.238
 6541SOL    HW220523   4.304   1.732   5.229
 6542SOL     OW20524   1.590   4.571   2.349
 6542SOL    HW120525   1.590   4.477   2.314
 6542SOL    HW220526   1.539   4.630   2.288
 6543SOL     OW20527   4.615   1.324   4.215
 6543SOL    HW120528   4.671   1.398   4.178
 6543SOL    HW220529   4.665   1.275   4.286
 6544SOL     OW20530   0.855   0.478   0.799
 6544SOL    HW120531   0.858   0.577   0.813
 6544SOL    HW220532   0.828   0.433   0.885
 6545SOL     OW20533   5.571   6.225   0.710
 6545SOL    HW120534   5.626   6.145   0.687
 6545SOL    HW220535   5.487   6.225   0.656
 6546SOL     OW20536   4.409   5.076   5.457
 6546SOL    HW120537   4.321   5.119   5.479
 6546SOL    HW220538   4.446   5.033   5.539
 6547SOL     OW20539   0.795   6.187   5.469
 6547SOL    HW120540   0.763   6.169   5.562
 6547SOL    HW220541   0.807   6.285   5.457
 6548SOL     OW20542   1.385   1.644   6.113
 6548SOL    HW120543   1.359   1.738   6.092
 6548SOL    HW220544   1.376   1.587   6.031
 6549SOL     OW20545   3.864   1.349   2.657
 6549SOL    HW120546   3.882   1.294   2.739
 6549SOL    HW220547   3.863   1.289   2.577
 6550SOL     OW20548   6.022   6.573   1.713
 6550SOL    HW120549   6.094   6.569   1.644
 6550SOL    HW220550   6.058   6.541   1.801
 6551SOL     OW20551   2.479   4.929   0.726
 6551SOL    HW120552   2.536   4.865   0.674
 6551SOL    HW220553   2.402   4.959   0.669
 6552SOL     OW20554   2.028   4.272   0.040
 6552SOL    HW120555   2.043   4.359   0.086
 6552SOL    HW220556   1.932   4.245   0.048
 6553SOL     OW20557   6.957   1.934   4.006
 6553SOL    HW120558   6.948   1.908   3.910
 6553SOL    HW220559   6.877   1.900   4.057
 6554SOL     OW20560   1.223   2.385   3.686
 6554SOL    HW120561   1.156   2.325   3.642
 6554SOL    HW220562   1.315   2.350   3.669
 6555SOL     OW20563   1.643   3.996   3.238
 6555SOL    HW120564   1.651   3.936   3.159
 6555SOL    HW220565   1.660   3.944   3.322
 6556SOL     OW20566   4.920   3.501   2.985
 6556SOL    HW120567   4.919   3.407   2.953
 6556SOL    HW220568   5.007   3.520   3.032
 6557SOL     OW20569   2.282   0.615   2.702
 6557SOL    HW120570   2.222   0.607   2.622
 6557SOL    HW220571   2.315   0.709   2.709
 6558SOL     OW20572   5.576   5.896   0.798
 6558SOL    HW120573   5.536   5.882   0.707
 6558SOL    HW220574   5.518   5.957   0.851
 6559SOL     OW20575   0.392   1.994   6.002
 6559SOL    HW120576   0.385   2.026   6.096
 6559SOL    HW220577   0.310   1.941   5.979
 6560SOL     OW20578   6.595   5.028   6.724
 6560SOL    HW120579   6.579   5.047   6.821
 6560SOL    HW220580   6.590   4.930   6.707
 6561SOL     OW20581   2.289   5.288   0.690
 6561SOL    HW120582   2.269   5.372   0.640
 6561SOL    HW220583   2.353   5.232   0.637
 6562SOL     OW20584   4.864   2.474   1.882
 6562SOL    HW120585   4.919   2.461   1.964
 6562SOL    HW220586   4.825   2.566   1.881
 6563SOL     OW20587   6.205   5.262   5.455
 6563SOL    HW120588   6.145   5.330   5.412
 6563SOL    HW220589   6.274   5.232   5.389
 6564SOL     OW20590   5.092   2.911   2.353
 6564SOL    HW120591   5.034   2.988   2.379
 6564SOL    HW220592   5.180   2.945   2.321
 6565SOL     OW20593   5.002   6.092   2.513
 6565SOL    HW120594   5.053   6.096   2.427
 6565SOL    HW220595   5.065   6.104   2.590
 6566SOL     OW20596   5.587   5.245   3.795
 6566SOL    HW120597   5.510   5.297   3.757
 6566SOL    HW220598   5.599   5.269   3.891
 6567SOL     OW20599   3.416   0.841   2.943
 6567SOL    HW120600   3.330   0.805   2.906
 6567SOL    HW220601   3.406   0.939   2.960
 6568SOL     OW20602   5.301   0.594   0.970
 6568SOL    HW120603   5.295   0.627   0.876
 6568SOL    HW220604   5.327   0.669   1.030
 6569SOL     OW20605   1.330   4.904   3.507
 6569SOL    HW120606   1.293   4.955   3.430
 6569SOL    HW220607   1.428   4.889   3.494
 6570SOL     OW20608   4.244   0.136   2.295
 6570SOL    HW120609   4.169   0.171   2.351
 6570SOL    HW220610   4.258   0.039   2.314
 6571SOL     OW20611   2.589   6.415   2.830
 6571SOL    HW120612   2.504   6.363   2.824
 6571SOL    HW220613   2.571   6.511   2.812
 6572SOL     OW20614   2.140   5.903   3.649
 6572SOL    HW120615   2.049   5.942   3.642
 6572SOL    HW220616   2.169   5.870   3.559
 6573SOL     OW20617   6.975   2.231   3.625
 6573SOL    HW120618   6.974   2.239   3.724
 6573SOL    HW220619   0.042   2.192   3.595
 6574SOL     OW20620   0.273   5.224   1.954
 6574SOL    HW120621   0.192   5.274   1.925
 6574SOL    HW220622   0.263   5.127   1.930
 6575SOL     OW20623   0.120   1.603   3.665
 6575SOL    HW120624   0.144   1.665   3.740
 6575SOL    HW220625   0.096   1.657   3.584
 6576SOL     OW20626   3.988   6.732   1.720
 6576SOL    HW120627   3.989   6.707   1.623
 6576SOL    HW220628   3.906   6.696   1.763
 6577SOL     OW20629   3.739   1.037   4.876
 6577SOL    HW120630   3.702   1.004   4.789
 6577SOL    HW220631   3.814   0.978   4.905
 6578SOL     OW20632   0.837   5.499   0.206
 6578SOL    HW120633   0.804   5.440   0.133
 6578SOL    HW220634   0.929   5.469   0.233
 6579SOL     OW20635   1.481   1.725   3.750
 6579SOL    HW120636   1.456   1.707   3.845
 6579SOL    HW220637   1.578   1.747   3.745
 6580SOL     OW20638   3.021   2.345   0.237
 6580SOL    HW120639   3.111   2.306   0.257
 6580SOL    HW220640   2.952   2.272   0.238
 6581SOL     OW20641   0.740   2.667   2.371
 6581SOL    HW120642   0.690   2.741   2.327
 6581SOL    HW220643   0.819   2.704   2.420
 6582SOL     OW20644   4.878   0.666   2.978
 6582SOL    HW120645   4.781   0.645   2.964
 6582SOL    HW220646   4.910   0.722   2.901
 6583SOL     OW20647   2.595   4.705   0.990
 6583SOL    HW120648   2.628   4.713   1.084
 6583SOL    HW220649   2.672   4.710   0.927
 6584SOL     OW20650   4.047   3.273   6.021
 6584SOL    HW120651   4.144   3.263   6.040
 6584SOL    HW220652   3.996   3.200   6.068
 6585SOL     OW20653   5.182   6.772   1.603
 6585SOL    HW120654   5.211   6.852   1.655
 6585SOL    HW220655   5.154   6.799   1.511
 6586SOL     OW20656   6.990   1.280   6.600
 6586SOL    HW120657   6.901   1.304   6.640
 6586SOL    HW220658   0.032   1.358   6.607
 6587SOL     OW20659   3.554   4.933   4.973
 6587SOL    HW120660   3.459   4.930   5.004
 6587SOL    HW220661   3.557   4.962   4.877
 6588SOL     OW20662   1.046   1.485   0.277
 6588SOL    HW120663   0.988   1.420   0.228
 6588SOL    HW220664   1.005   1.509   0.364
 6589SOL     OW20665   6.102   6.900   1.583
 6589SOL    HW120666   6.132   6.995   1.584
 6589SOL    HW220667   6.146   6.851   1.658
 6590SOL     OW20668   1.424   6.189   4.781
 6590SOL    HW120669   1.491   6.224   4.716
 6590SOL    HW220670   1.358   6.260   4.803
 6591SOL     OW20671   6.502   3.148   3.813
 6591SOL    HW120672   6.595   3.180   3.831
 6591SOL    HW220673   6.503   3.086   3.734
 6592SOL     OW20674   6.878   0.759   4.099
 6592SOL    HW120675   6.932   0.836   4.133
 6592SOL    HW220676   6.831   0.715   4.175
 6593SOL     OW20677   1.773   0.529   2.894
 6593SOL    HW120678   1.676   0.551   2.886
 6593SOL    HW220679   1.816   0.531   2.804
 6594SOL     OW20680   5.525   0.283   0.007
 6594SOL    HW120681   5.493   0.376   0.027
 6594SOL    HW220682   5.505   0.262   6.931
 6595SOL     OW20683   1.204   1.686   4.919
 6595SOL    HW120684   1.294   1.722   4.943
 6595SOL    HW220685   1.151   1.757   4.872
 6596SOL     OW20686   5.763   0.633   2.939
 6596SOL    HW120687   5.809   0.589   2.862
 6596SOL    HW220688   5.806   0.604   3.024
 6597SOL     OW20689   0.904   4.741   0.946
 6597SOL    HW120690   0.848   4.659   0.936
 6597SOL    HW220691   0.969   4.727   1.021
 6598SOL     OW20692   0.744   5.032   2.397
 6598SOL    HW120693   0.734   5.088   2.314
 6598SOL    HW220694   0.807   4.956   2.378
 6599SOL     OW20695   0.850   5.352   6.328
 6599SOL    HW120696   0.874   5.438   6.282
 6599SOL    HW220697   0.787   5.372   6.403
 6600SOL     OW20698   4.443   6.162   4.944
 6600SOL    HW120699   4.428   6.253   4.984
 6600SOL    HW220700   4.540   6.139   4.949
 6601SOL     OW20701   1.104   3.003   2.115
 6601SOL    HW120702   1.136   2.929   2.056
 6601SOL    HW220703   1.144   3.089   2.085
 6602SOL     OW20704   6.611   5.590   0.732
 6602SOL    HW120705   6.608   5.650   0.652
 6602SOL    HW220706   6.529   5.605   0.788
 6603SOL     OW20707   0.078   4.219   2.347
 6603SOL    HW120708   0.024   4.293   2.387
 6603SOL    HW220709   0.049   4.204   2.252
 6604SOL     OW20710   0.951   5.459   2.545
 6604SOL    HW120711   0.950   5.528   2.617
 6604SOL    HW220712   0.874   5.474   2.482
 6605SOL     OW20713   6.936   4.820   1.137
 6605SOL    HW120714   6.918   4.917   1.125
 6605SOL    HW220715   6.923   4.795   1.233
 6606SOL     OW20716   1.940   4.246   2.630
 6606SOL    HW120717   1.852   4.272   2.591
 6606SOL    HW220718   1.983   4.326   2.672
 6607SOL     OW20719   6.568   3.662   4.189
 6607SOL    HW120720   6.526   3.601   4.122
 6607SOL    HW220721   6.530   3.642   4.280
 6608SOL     OW20722   0.950   0.406   5.470
 6608SOL    HW120723   0.858   0.378   5.442
 6608SOL    HW220724   0.972   0.493   5.426
 6609SOL     OW20725   3.051   2.415   6.980
 6609SOL    HW120726   3.005   2.333   7.015
 6609SOL    HW220727   3.149   2.411   7.003
 6610SOL     OW20728   2.894   6.847   1.256
 6610SOL    HW120729   2.841   6.843   1.341
 6610SOL    HW220730   2.841   6.806   1.182
 6611SOL     OW20731   3.432   1.325   4.745
 6611SOL    HW120732   3.407   1.230   4.725
 6611SOL    HW220733   3.518   1.327   4.796
 6612SOL     OW20734   0.328   6.938   0.175
 6612SOL    HW120735   0.255   6.934   0.244
 6612SOL    HW220736   0.295   6.986   0.094
 6613SOL     OW20737   3.861   6.543   1.467
 6613SOL    HW120738   3.913   6.623   1.439
 6613SOL    HW220739   3.923   6.469   1.492
 6614SOL     OW20740   3.645   4.725   0.860
 6614SOL    HW120741   3.573   4.787   0.830
 6614SOL    HW220742   3.615   4.675   0.941
 6615SOL     OW20743   3.200   5.623   6.033
 6615SOL    HW120744   3.255   5.543   6.011
 6615SOL    HW220745   3.220   5.652   6.127
 6616SOL     OW20746   4.265   1.627   6.840
 6616SOL    HW120747   4.264   1.654   6.743
 6616SOL    HW220748   4.173   1.603   6.870
 6617SOL     OW20749   3.198   1.528   3.959
 6617SOL    HW120750   3.297   1.528   3.946
 6617SOL    HW220751   3.173   1.596   4.028
 6618SOL     OW20752   5.764   3.077   4.288
 6618SOL    HW120753   5.847   3.063   4.233
 6618SOL    HW220754   5.733   3.171   4.279
 6619SOL     OW20755   5.026   5.085   4.061
 6619SOL    HW120756   4.980   5.139   4.131
 6619SOL    HW220757   5.102   5.138   4.022
 6620SOL     OW20758   1.138   2.809   3.387
 6620SOL    HW120759   1.191   2.727   3.410
 6620SOL    HW220760   1.170   2.886   3.441
 6621SOL     OW20761   3.477   3.569   3.627
 6621SOL    HW120762   3.466   3.669   3.626
 6621SOL    HW220763   3.497   3.537   3.534
 6622SOL     OW20764   0.176   4.832   1.051
 6622SOL    HW120765   0.200   4.735   1.054
 6622SOL    HW220766   0.081   4.843   1.079
 6623SOL     OW20767   3.510   3.829   3.306
 6623SOL    HW120768   3.602   3.802   3.280
 6623SOL    HW220769   3.447   3.808   3.231
 6624SOL     OW20770   2.320   2.188   3.018
 6624SOL    HW120771   2.408   2.149   2.993
 6624SOL    HW220772   2.330   2.287   3.031
 6625SOL     OW20773   0.194   4.070   5.133
 6625SOL    HW120774   0.159   4.162   5.153
 6625SOL    HW220775   0.168   4.008   5.207
 6626SOL     OW20776   3.225   5.762   5.310
 6626SOL    HW120777   3.197   5.766   5.406
 6626SOL    HW220778   3.285   5.839   5.290
 6627SOL     OW20779   2.736   6.668   4.190
 6627SOL    HW120780   2.685   6.604   4.134
 6627SOL    HW220781   2.777   6.620   4.268
 6628SOL     OW20782   3.520   0.623   3.079
 6628SOL    HW120783   3.493   0.697   3.018
 6628SOL    HW220784   3.595   0.654   3.137
 6629SOL     OW20785   4.575   5.509   5.196
 6629SOL    HW120786   4.538   5.594   5.160
 6629SOL    HW220787   4.671   5.523   5.223
 6630SOL     OW20788   1.492   0.404   0.297
 6630SOL    HW120789   1.584   0.438   0.317
 6630SOL    HW220790   1.496   0.305   0.284
 6631SOL     OW20791   1.818   2.400   5.814
 6631SOL    HW120792   1.773   2.348   5.742
 6631SOL    HW220793   1.900   2.445   5.777
 6632SOL     OW20794   1.302   0.281   6.651
 6632SOL    HW120795   1.324   0.296   6.554
 6632SOL    HW220796   1.211   0.319   6.670
 6633SOL     OW20797   4.355   6.430   6.110
 6633SOL    HW120798   4.449   6.462   6.096
 6633SOL    HW220799   4.326   6.378   6.029
 6634SOL     OW20800   2.842   1.883   3.370
 6634SOL    HW120801   2.742   1.889   3.363
 6634SOL    HW220802   2.882   1.889   3.279
 6635SOL     OW20803   5.292   5.636   5.965
 6635SOL    HW120804   5.239   5.686   5.897
 6635SOL    HW220805   5.363   5.696   6.003
 6636SOL     OW20806   4.236   0.959   0.901
 6636SOL    HW120807   4.266   0.880   0.847
 6636SOL    HW220808   4.145   0.987   0.870
 6637SOL     OW20809   0.340   1.920   6.984
 6637SOL    HW120810   0.384   2.010   6.990
 6637SOL    HW220811   0.389   1.863   6.919
 6638SOL     OW20812   3.166   3.454   3.469
 6638SOL    HW120813   3.075   3.440   3.508
 6638SOL    HW220814   3.214   3.367   3.464
 6639SOL     OW20815   4.668   2.662   1.497
 6639SOL    HW120816   4.630   2.713   1.574
 6639SOL    HW220817   4.628   2.570   1.495
 6640SOL     OW20818   1.227   4.192   4.677
 6640SOL    HW120819   1.293   4.261   4.707
 6640SOL    HW220820   1.215   4.124   4.749
 6641SOL     OW20821   6.272   2.752   0.005
 6641SOL    HW120822   6.365   2.790   0.005
 6641SOL    HW220823   6.205   2.826   0.010
 6642SOL     OW20824   1.123   5.066   5.968
 6642SOL    HW120825   1.028   5.060   5.999
 6642SOL    HW220826   1.125   5.081   5.869
 6643SOL     OW20827   3.767   5.611   6.024
 6643SOL    HW120828   3.691   5.556   5.991
 6643SOL    HW220829   3.739   5.707   6.029
 6644SOL     OW20830   2.381   0.188   3.930
 6644SOL    HW120831   2.431   0.261   3.884
 6644SOL    HW220832   2.445   0.122   3.969
 6645SOL     OW20833   4.227   2.099   5.946
 6645SOL    HW120834   4.236   2.130   5.851
 6645SOL    HW220835   4.181   2.168   6.000
 6646SOL     OW20836   4.474   0.100   5.833
 6646SOL    HW120837   4.462   0.176   5.897
 6646SOL    HW220838   4.385   0.078   5.791
 6647SOL     OW20839   4.119   4.352   1.103
 6647SOL    HW120840   4.194   4.329   1.042
 6647SOL    HW220841   4.147   4.339   1.198
 6648SOL     OW20842   3.430   5.755   5.705
 6648SOL    HW120843   3.470   5.838   5.667
 6648SOL    HW220844   3.473   5.675   5.662
 6649SOL     OW20845   4.624   2.723   6.001
 6649SOL    HW120846   4.607   2.799   6.063
 6649SOL    HW220847   4.548   2.714   5.938
 6650SOL     OW20848   2.754   1.310   5.591
 6650SOL    HW120849   2.755   1.404   5.559
 6650SOL    HW220850   2.817   1.300   5.669
 6651SOL     OW20851   6.970   1.431   4.785
 6651SOL    HW120852   0.045   1.408   4.762
 6651SOL    HW220853   6.932   1.489   4.712
 6652SOL     OW20854   0.094   4.495   6.679
 6652SOL    HW120855   0.017   4.555   6.659
 6652SOL    HW220856   0.080   4.450   6.767
 6653SOL     OW20857   5.612   4.345   7.001
 6653SOL    HW120858   5.621   4.413   0.054
 6653SOL    HW220859   5.557   4.383   6.927
 6654SOL     OW20860   6.744   1.958   3.115
 6654SOL    HW120861   6.652   1.969   3.153
 6654SOL    HW220862   6.802   2.032   3.149
 6655SOL     OW20863   6.682   5.889   1.018
 6655SOL    HW120864   6.638   5.862   1.104
 6655SOL    HW220865   6.777   5.858   1.019
 6656SOL     OW20866   4.296   0.939   2.679
 6656SOL    HW120867   4.299   0.839   2.676
 6656SOL    HW220868   4.204   0.969   2.654
 6657SOL     OW20869   4.780   1.907   4.708
 6657SOL    HW120870   4.694   1.897   4.758
 6657SOL    HW220871   4.764   1.887   4.611
 6658SOL     OW20872   6.957   5.807   4.621
 6658SOL    HW120873   6.925   5.898   4.649
 6658SOL    HW220874   6.990   5.812   4.526
 6659SOL     OW20875   0.486   5.421   0.884
 6659SOL    HW120876   0.579   5.400   0.856
 6659SOL    HW220877   0.482   5.515   0.920
 6660SOL     OW20878   0.828   0.415   4.264
 6660SOL    HW120879   0.747   0.366   4.295
 6660SOL    HW220880   0.835   0.501   4.315
 6661SOL     OW20881   4.172   6.117   3.736
 6661SOL    HW120882   4.228   6.193   3.702
 6661SOL    HW220883   4.143   6.060   3.660
 6662SOL     OW20884   3.351   0.074   2.557
 6662SOL    HW120885   3.349   7.011   2.612
 6662SOL    HW220886   3.272   0.132   2.580
 6663SOL     OW20887   1.957   4.024   5.420
 6663SOL    HW120888   1.942   4.117   5.452
 6663SOL    HW220889   2.050   4.016   5.385
 6664SOL     OW20890   3.416   7.003   1.755
 6664SOL    HW120891   3.363   6.966   1.832
 6664SOL    HW220892   3.428   6.933   1.685
 6665SOL     OW20893   2.845   0.733   0.149
 6665SOL    HW120894   2.924   0.671   0.145
 6665SOL    HW220895   2.872   0.825   0.121
 6666SOL     OW20896   2.974   6.450   5.471
 6666SOL    HW120897   2.979   6.372   5.534
 6666SOL    HW220898   3.066   6.484   5.454
 6667SOL     OW20899   1.559   5.860   0.044
 6667SOL    HW120900   1.556   5.808   0.130
 6667SOL    HW220901   1.511   5.946   0.055
 6668SOL     OW20902   6.790   4.204   6.790
 6668SOL    HW120903   6.877   4.210   6.741
 6668SOL    HW220904   6.726   4.146   6.739
 6669SOL     OW20905   1.248   2.553   3.451
 6669SOL    HW120906   1.208   2.527   3.539
 6669SOL    HW220907   1.346   2.532   3.451
 6670SOL     OW20908   3.380   3.381   0.482
 6670SOL    HW120909   3.376   3.462   0.540
 6670SOL    HW220910   3.299   3.324   0.499
 6671SOL     OW20911   4.608   4.925   0.564
 6671SOL    HW120912   4.541   4.981   0.515
 6671SOL    HW220913   4.688   4.910   0.506
 6672SOL     OW20914   1.685   2.913   1.241
 6672SOL    HW120915   1.699   2.900   1.339
 6672SOL    HW220916   1.691   2.825   1.194
 6673SOL     OW20917   5.712   3.335   4.337
 6673SOL    HW120918   5.717   3.408   4.405
 6673SOL    HW220919   5.622   3.338   4.292
 6674SOL     OW20920   6.943   0.066   0.318
 6674SOL    HW120921   6.868   0.088   0.255
 6674SOL    HW220922   6.907   0.058   0.411
 6675SOL     OW20923   4.876   1.084   0.127
 6675SOL    HW120924   4.858   1.176   0.160
 6675SOL    HW220925   4.789   1.040   0.104
 6676SOL     OW20926   0.873   3.967   5.066
 6676SOL    HW120927   0.805   4.013   5.008
 6676SOL    HW220928   0.887   3.873   5.033
 6677SOL     OW20929   0.254   2.132   6.542
 6677SOL    HW120930   0.257   2.231   6.527
 6677SOL    HW220931   0.318   2.108   6.615
 6678SOL     OW20932   3.225   4.188   6.707
 6678SOL    HW120933   3.222   4.287   6.716
 6678SOL    HW220934   3.137   4.149   6.737
 6679SOL     OW20935   1.481   0.697   4.130
 6679SOL    HW120936   1.526   0.778   4.092
 6679SOL    HW220937   1.466   0.711   4.228
 6680SOL     OW20938   6.108   4.711   1.614
 6680SOL    HW120939   6.023   4.705   1.562
 6680SOL    HW220940   6.150   4.801   1.599
 6681SOL     OW20941   2.504   5.841   1.399
 6681SOL    HW120942   2.547   5.752   1.415
 6681SOL    HW220943   2.528   5.904   1.473
 6682SOL     OW20944   2.279   5.649   6.169
 6682SOL    HW120945   2.248   5.558   6.194
 6682SOL    HW220946   2.345   5.644   6.094
 6683SOL     OW20947   6.746   5.396   5.668
 6683SOL    HW120948   6.670   5.459   5.652
 6683SOL    HW220949   6.783   5.411   5.759
 6684SOL     OW20950   2.873   5.698   6.304
 6684SOL    HW120951   2.799   5.635   6.326
 6684SOL    HW220952   2.917   5.670   6.218
 6685SOL     OW20953   4.284   2.827   0.905
 6685SOL    HW120954   4.312   2.742   0.949
 6685SOL    HW220955   4.364   2.875   0.868
 6686SOL     OW20956   5.013   4.485   5.385
 6686SOL    HW120957   5.022   4.554   5.313
 6686SOL    HW220958   4.943   4.418   5.359
 6687SOL     OW20959   0.352   2.017   1.034
 6687SOL    HW120960   0.340   2.052   1.127
 6687SOL    HW220961   0.300   2.073   0.970
 6688SOL     OW20962   4.605   5.909   0.763
 6688SOL    HW120963   4.564   5.935   0.850
 6688SOL    HW220964   4.541   5.929   0.689
 6689SOL     OW20965   3.583   4.785   6.109
 6689SOL    HW120966   3.641   4.727   6.167
 6689SOL    HW220967   3.619   4.878   6.108
 6690SOL     OW20968   0.782   0.763   0.204
 6690SOL    HW120969   0.800   0.690   0.270
 6690SOL    HW220970   0.768   0.723   0.113
 6691SOL     OW20971   2.538   1.552   2.004
 6691SOL    HW120972   2.626   1.572   1.961
 6691SOL    HW220973   2.554   1.506   2.092
 6692SOL     OW20974   4.335   6.391   2.371
 6692SOL    HW120975   4.344   6.447   2.289
 6692SOL    HW220976   4.245   6.348   2.372
 6693SOL     OW20977   3.275   1.267   5.832
 6693SOL    HW120978   3.182   1.296   5.810
 6693SOL    HW220979   3.274   1.173   5.866
 6694SOL     OW20980   4.499   3.854   1.698
 6694SOL    HW120981   4.591   3.891   1.716
 6694SOL    HW220982   4.434   3.930   1.694
 6695SOL     OW20983   2.882   2.545   0.392
 6695SOL    HW120984   2.947   2.479   0.356
 6695SOL    HW220985   2.853   2.606   0.318
 6696SOL     OW20986   3.830   3.011   4.864
 6696SOL    HW120987   3.891   3.086   4.888
 6696SOL    HW220988   3.818   2.951   4.944
 6697SOL     OW20989   4.515   1.800   2.297
 6697SOL    HW120990   4.540   1.851   2.215
 6697SOL    HW220991   4.534   1.856   2.378
 6698SOL     OW20992   2.905   3.830   1.362
 6698SOL    HW120993   2.949   3.814   1.274
 6698SOL    HW220994   2.807   3.811   1.354
 6699SOL     OW20995   1.566   3.171   5.906
 6699SOL    HW120996   1.515   3.097   5.862
 6699SOL    HW220997   1.658   3.176   5.868
 6700SOL     OW20998   5.668   0.621   1.350
 6700SOL    HW120999   5.644   0.525   1.331
 6700SOL    HW221000   5.584   0.674   1.359
 6701SOL     OW21001   5.884   0.040   1.698
 6701SOL    HW121002   5.843   0.129   1.679
 6701SOL    HW221003   5.899   7.011   1.613
 6702SOL     OW21004   3.761   3.158   0.466
 6702SOL    HW121005   3.853   3.145   0.503
 6702SOL    HW221006   3.761   3.237   0.404
 6703SOL     OW21007   0.431   1.256   0.511
 6703SOL    HW121008   0.341   1.289   0.484
 6703SOL    HW221009   0.499   1.326   0.493
 6704SOL     OW21010   3.323   7.013   5.524
 6704SOL    HW121011   3.251   0.063   5.528
 6704SOL    HW221012   3.384   0.006   5.602
 6705SOL     OW21013   6.859   4.337   2.424
 6705SOL    HW121014   6.790   4.272   2.393
 6705SOL    HW221015   6.837   4.429   2.389
 6706SOL     OW21016   6.872   6.801   0.582
 6706SOL    HW121017   6.780   6.784   0.547
 6706SOL    HW221018   6.939   6.748   0.529
 6707SOL     OW21019   4.280   0.931   3.098
 6707SOL    HW121020   4.261   0.834   3.107
 6707SOL    HW221021   4.375   0.950   3.126
 6708SOL     OW21022   0.700   2.957   0.594
 6708SOL    HW121023   0.743   3.036   0.550
 6708SOL    HW221024   0.614   2.984   0.636
 6709SOL     OW21025   2.337   4.235   2.366
 6709SOL    HW121026   2.360   4.141   2.388
 6709SOL    HW221027   2.239   4.250   2.381
 6710SOL     OW21028   4.836   1.358   0.503
 6710SOL    HW121029   4.775   1.287   0.467
 6710SOL    HW221030   4.825   1.442   0.451
 6711SOL     OW21031   3.710   5.890   6.009
 6711SOL    HW121032   3.617   5.921   5.991
 6711SOL    HW221033   3.745   5.936   6.091
 6712SOL     OW21034   4.885   4.081   1.473
 6712SOL    HW121035   4.932   4.168   1.482
 6712SOL    HW221036   4.820   4.069   1.548
 6713SOL     OW21037   1.520   4.316   4.214
 6713SOL    HW121038   1.474   4.405   4.220
 6713SOL    HW221039   1.538   4.281   4.306
 6714SOL     OW21040   5.475   1.459   1.581
 6714SOL    HW121041   5.502   1.391   1.513
 6714SOL    HW221042   5.554   1.517   1.603
 6715SOL     OW21043   1.064   0.077   6.345
 6715SOL    HW121044   1.155   0.036   6.354
 6715SOL    HW221045   1.027   0.056   6.254
 6716SOL     OW21046   1.087   5.540   1.524
 6716SOL    HW121047   1.018   5.581   1.584
 6716SOL    HW221048   1.042   5.503   1.442
 6717SOL     OW21049   5.944   1.680   5.753
 6717SOL    HW121050   5.854   1.724   5.752
 6717SOL    HW221051   5.980   1.675   5.660
 6718SOL     OW21052   4.955   1.736   1.086
 6718SOL    HW121053   5.033   1.760   1.143
 6718SOL    HW221054   4.901   1.665   1.130
 6719SOL     OW21055   1.466   1.620   0.435
 6719SOL    HW121056   1.513   1.706   0.451
 6719SOL    HW221057   1.367   1.637   0.428
 6720SOL     OW21058   1.600   1.071   5.613
 6720SOL    HW121059   1.664   1.146   5.594
 6720SOL    HW221060   1.640   0.985   5.581
 6721SOL     OW21061   6.164   6.849   0.450
 6721SOL    HW121062   6.144   6.932   0.502
 6721SOL    HW221063   6.127   6.770   0.499
 6722SOL     OW21064   5.697   4.432   0.595
 6722SOL    HW121065   5.613   4.456   0.547
 6722SOL    HW221066   5.701   4.480   0.682
 6723SOL     OW21067   1.675   3.129   4.397
 6723SOL    HW121068   1.644   3.213   4.352
 6723SOL    HW221069   1.709   3.151   4.489
 6724SOL     OW21070   2.269   4.121   4.187
 6724SOL    HW121071   2.199   4.103   4.118
 6724SOL    HW221072   2.344   4.173   4.146
 6725SOL     OW21073   4.851   3.266   4.022
 6725SOL    HW121074   4.828   3.177   3.982
 6725SOL    HW221075   4.942   3.294   3.993
 6726SOL     OW21076   0.508   1.322   6.512
 6726SOL    HW121077   0.479   1.415   6.490
 6726SOL    HW221078   0.505   1.309   6.612
 6727SOL     OW21079   1.001   4.615   5.342
 6727SOL    HW121080   0.917   4.634   5.292
 6727SOL    HW221081   1.077   4.609   5.278
 6728SOL     OW21082   3.635   1.647   4.260
 6728SOL    HW121083   3.700   1.653   4.335
 6728SOL    HW221084   3.543   1.634   4.297
 6729SOL     OW21085   4.024   1.037   2.165
 6729SOL    HW121086   4.012   0.937   2.165
 6729SOL    HW221087   4.067   1.065   2.251
 6730SOL     OW21088   6.918   2.004   0.672
 6730SOL    HW121089   6.949   1.959   0.756
 6730SOL    HW221090   6.863   1.939   0.618
 6731SOL     OW21091   4.144   0.210   6.276
 6731SOL    HW121092   4.182   0.182   6.365
 6731SOL    HW221093   4.191   0.292   6.244
 6732SOL     OW21094   6.769   4.984   5.495
 6732SOL    HW121095   6.786   4.944   5.585
 6732SOL    HW221096   6.824   5.067   5.485
 6733SOL     OW21097   4.837   4.963   5.067
 6733SOL    HW121098   4.930   4.931   5.055
 6733SOL    HW221099   4.828   5.056   5.030
 6734SOL     OW21100   5.789   2.124   5.274
 6734SOL    HW121101   5.886   2.146   5.282
 6734SOL    HW221102   5.754   2.090   5.361
 6735SOL     OW21103   5.671   2.370   4.029
 6735SOL    HW121104   5.580   2.394   4.064
 6735SOL    HW221105   5.740   2.424   4.077
 6736SOL     OW21106   3.424   4.001   0.845
 6736SOL    HW121107   3.422   4.050   0.758
 6736SOL    HW221108   3.503   4.032   0.898
 6737SOL     OW21109   6.691   3.689   1.017
 6737SOL    HW121110   6.667   3.760   0.951
 6737SOL    HW221111   6.743   3.616   0.971
 6738SOL     OW21112   2.074   6.721   4.556
 6738SOL    HW121113   2.114   6.629   4.562
 6738SOL    HW221114   2.146   6.786   4.529
 6739SOL     OW21115   6.873   6.945   5.604
 6739SOL    HW121116   6.944   6.876   5.586
 6739SOL    HW221117   6.848   6.943   5.701
 6740SOL     OW21118   0.153   6.758   1.914
 6740SOL    HW121119   0.161   6.852   1.949
 6740SOL    HW221120   0.128   6.697   1.989
 6741SOL     OW21121   3.251   1.471   0.140
 6741SOL    HW121122   3.225   1.560   0.102
 6741SOL    HW221123   3.218   1.464   0.234
 6742SOL     OW21124   6.320   4.271   2.978
 6742SOL    HW121125   6.409   4.269   2.933
 6742SOL    HW221126   6.297   4.180   3.012
 6743SOL     OW21127   3.845   3.461   6.608
 6743SOL    HW121128   3.915   3.503   6.665
 6743SOL    HW221129   3.761   3.515   6.613
 6744SOL     OW21130   6.646   6.786   5.547
 6744SOL    HW121131   6.728   6.842   5.552
 6744SOL    HW221132   6.651   6.727   5.466
 6745SOL     OW21133   6.793   4.099   5.585
 6745SOL    HW121134   6.724   4.029   5.571
 6745SOL    HW221135   6.756   4.172   5.642
 6746SOL     OW21136   1.041   2.275   3.101
 6746SOL    HW121137   1.063   2.368   3.130
 6746SOL    HW221138   1.072   2.260   3.007
 6747SOL     OW21139   0.846   6.397   4.999
 6747SOL    HW121140   0.931   6.437   5.031
 6747SOL    HW221141   0.849   6.298   5.010
 6748SOL     OW21142   2.085   0.465   4.896
 6748SOL    HW121143   1.992   0.429   4.890
 6748SOL    HW221144   2.096   0.541   4.831
 6749SOL     OW21145   4.233   5.103   2.250
 6749SOL    HW121146   4.249   5.201   2.261
 6749SOL    HW221147   4.137   5.087   2.228
 6750SOL     OW21148   3.337   1.035   6.003
 6750SOL    HW121149   3.385   1.077   6.080
 6750SOL    HW221150   3.401   1.019   5.928
 6751SOL     OW21151   4.205   0.730   4.393
 6751SOL    HW121152   4.260   0.752   4.313
 6751SOL    HW221153   4.171   0.814   4.435
 6752SOL     OW21154   2.211   4.779   2.745
 6752SOL    HW121155   2.290   4.756   2.688
 6752SOL    HW221156   2.139   4.817   2.687
 6753SOL     OW21157   3.965   3.237   6.507
 6753SOL    HW121158   3.919   3.311   6.557
 6753SOL    HW221159   3.932   3.235   6.413
 6754SOL     OW21160   6.487   0.951   0.482
 6754SOL    HW121161   6.571   0.920   0.437
 6754SOL    HW221162   6.500   0.953   0.581
 6755SOL     OW21163   2.967   5.915   5.720
 6755SOL    HW121164   2.890   5.903   5.783
 6755SOL    HW221165   3.029   5.985   5.757
 6756SOL     OW21166   3.472   3.228   6.702
 6756SOL    HW121167   3.378   3.194   6.711
 6756SOL    HW221168   3.487   3.261   6.609
 6757SOL     OW21169   3.967   6.996   1.694
 6757SOL    HW121170   3.955   6.903   1.728
 6757SOL    HW221171   3.886   0.003   1.641
 6758SOL     OW21172   5.174   3.277   3.254
 6758SOL    HW121173   5.154   3.197   3.196
 6758SOL    HW221174   5.089   3.325   3.275
 6759SOL     OW21175   0.974   1.771   2.731
 6759SOL    HW121176   1.001   1.775   2.827
 6759SOL    HW221177   0.925   1.686   2.713
 6760SOL     OW21178   5.224   2.026   5.645
 6760SOL    HW121179   5.190   2.085   5.719
 6760SOL    HW221180   5.183   2.055   5.558
 6761SOL     OW21181   3.602   1.537   5.034
 6761SOL    HW121182   3.624   1.454   4.983
 6761SOL    HW221183   3.625   1.617   4.978
 6762SOL     OW21184   5.911   5.052   4.833
 6762SOL    HW121185   5.919   5.033   4.735
 6762SOL    HW221186   5.978   4.997   4.883
 6763SOL     OW21187   5.552   6.968   4.244
 6763SOL    HW121188   5.505   6.899   4.188
 6763SOL    HW221189   5.631   6.926   4.288
 6764SOL     OW21190   0.289   4.950   1.872
 6764SOL    HW121191   0.316   4.917   1.781
 6764SOL    HW221192   0.190   4.948   1.880
 6765SOL     OW21193   0.129   3.496   2.173
 6765SOL    HW121194   0.053   3.450   2.127
 6765SOL    HW221195   0.093   3.563   2.238
 6766SOL     OW21196   5.894   0.076   1.398
 6766SOL    HW121197   5.981   0.109   1.363
 6766SOL    HW221198   5.822   0.095   1.332
 6767SOL     OW21199   3.348   0.164   1.070
 6767SOL    HW121200   3.348   0.117   1.158
 6767SOL    HW221201   3.255   0.192   1.046
 6768SOL     OW21202   1.834   6.906   0.291
 6768SOL    HW121203   1.779   6.940   0.367
 6768SOL    HW221204   1.916   6.861   0.326
 6769SOL     OW21205   4.902   2.911   1.568
 6769SOL    HW121206   4.840   2.833   1.554
 6769SOL    HW221207   4.847   2.994   1.582
 6770SOL     OW21208   0.441   1.738   1.757
 6770SOL    HW121209   0.446   1.767   1.853
 6770SOL    HW221210   0.507   1.789   1.703
 6771SOL     OW21211   4.659   1.677   3.077
 6771SOL    HW121212   4.614   1.701   3.163
 6771SOL    HW221213   4.754   1.708   3.080
 6772SOL     OW21214   3.972   1.786   3.989
 6772SOL    HW121215   3.955   1.874   3.944
 6772SOL    HW221216   4.020   1.801   4.076
 6773SOL     OW21217   0.469   3.649   1.523
 6773SOL    HW121218   0.514   3.564   1.551
 6773SOL    HW221219   0.461   3.651   1.423
 6774SOL     OW21220   0.816   2.606   6.420
 6774SOL    HW121221   0.886   2.674   6.442
 6774SOL    HW221222   0.726   2.642   6.445
 6775SOL     OW21223   1.207   4.319   6.803
 6775SOL    HW121224   1.295   4.365   6.788
 6775SOL    HW221225   1.188   4.257   6.728
 6776SOL     OW21226   5.976   5.532   6.818
 6776SOL    HW121227   5.961   5.629   6.838
 6776SOL    HW221228   6.075   5.513   6.815
 6777SOL     OW21229   4.748   5.660   0.088
 6777SOL    HW121230   4.821   5.706   0.138
 6777SOL    HW221231   4.714   5.583   0.142
 6778SOL     OW21232   6.514   5.464   3.492
 6778SOL    HW121233   6.572   5.544   3.483
 6778SOL    HW221234   6.469   5.445   3.404
 6779SOL     OW21235   6.295   3.412   6.599
 6779SOL    HW121236   6.249   3.408   6.510
 6779SOL    HW221237   6.372   3.349   6.599
 6780SOL     OW21238   1.143   2.883   2.360
 6780SOL    HW121239   1.143   2.919   2.267
 6780SOL    HW221240   1.228   2.833   2.377
 6781SOL     OW21241   5.775   4.983   5.637
 6781SOL    HW121242   5.871   4.998   5.612
 6781SOL    HW221243   5.765   4.891   5.675
 6782SOL     OW21244   6.074   0.845   3.068
 6782SOL    HW121245   6.164   0.802   3.075
 6782SOL    HW221246   6.010   0.799   3.130
 6783SOL     OW21247   0.364   5.898   6.396
 6783SOL    HW121248   0.441   5.903   6.460
 6783SOL    HW221249   0.353   5.986   6.350
 6784SOL     OW21250   3.919   3.037   7.016
 6784SOL    HW121251   3.960   3.123   0.027
 6784SOL    HW221252   3.892   2.983   0.076
 6785SOL     OW21253   6.298   5.650   1.955
 6785SOL    HW121254   6.235   5.723   1.984
 6785SOL    HW221255   6.245   5.568   1.931
 6786SOL     OW21256   1.648   3.496   5.821
 6786SOL    HW121257   1.626   3.593   5.821
 6786SOL    HW221258   1.742   3.483   5.852
 6787SOL     OW21259   1.126   3.415   1.548
 6787SOL    HW121260   1.116   3.326   1.504
 6787SOL    HW221261   1.221   3.428   1.575
 6788SOL     OW21262   2.868   4.919   0.822
 6788SOL    HW121263   2.887   4.962   0.910
 6788SOL    HW221264   2.865   4.820   0.833
 6789SOL     OW21265   0.545   5.720   3.294
 6789SOL    HW121266   0.598   5.668   3.361
 6789SOL    HW221267   0.456   5.745   3.334
 6790SOL     OW21268   1.587   2.611   0.724
 6790SOL    HW121269   1.687   2.611   0.717
 6790SOL    HW221270   1.549   2.687   0.670
 6791SOL     OW21271   3.411   4.124   6.218
 6791SOL    HW121272   3.361   4.087   6.296
 6791SOL    HW221273   3.509   4.117   6.235
 6792SOL     OW21274   0.317   4.667   7.019
 6792SOL    HW121275   0.225   4.693   0.027
 6792SOL    HW221276   0.332   4.695   6.924
 6793SOL     OW21277   5.923   1.468   1.581
 6793SOL    HW121278   5.930   1.451   1.483
 6793SOL    HW221279   5.832   1.502   1.603
 6794SOL     OW21280   4.280   1.371   4.563
 6794SOL    HW121281   4.211   1.433   4.601
 6794SOL    HW221282   4.371   1.408   4.582
 6795SOL     OW21283   3.353   5.992   6.871
 6795SOL    HW121284   3.326   5.960   6.780
 6795SOL    HW221285   3.377   6.089   6.867
 6796SOL     OW21286   3.905   2.180   2.955
 6796SOL    HW121287   3.882   2.094   3.000
 6796SOL    HW221288   3.828   2.212   2.901
 6797SOL     OW21289   6.971   2.617   2.041
 6797SOL    HW121290   6.927   2.673   2.111
 6797SOL    HW221291   6.917   2.536   2.023
 6798SOL     OW21292   6.406   0.237   2.508
 6798SOL    HW121293   6.424   0.158   2.450
 6798SOL    HW221294   6.343   0.211   2.581
 6799SOL     OW21295   4.959   5.687   2.002
 6799SOL    HW121296   4.993   5.599   1.968
 6799SOL    HW221297   5.027   5.758   1.986
 6800SOL     OW21298   3.473   3.758   6.884
 6800SOL    HW121299   3.467   3.659   6.890
 6800SOL    HW221300   3.568   3.786   6.872
 6801SOL     OW21301   1.148   2.218   2.809
 6801SOL    HW121302   1.237   2.172   2.816
 6801SOL    HW221303   1.081   2.156   2.768
 6802SOL     OW21304   2.505   4.962   2.643
 6802SOL    HW121305   2.457   5.020   2.709
 6802SOL    HW221306   2.560   4.895   2.693
 6803SOL     OW21307   4.535   2.329   0.440
 6803SOL    HW121308   4.541   2.283   0.529
 6803SOL    HW221309   4.603   2.402   0.436
 6804SOL     OW21310   0.971   0.104   3.619
 6804SOL    HW121311   1.022   0.033   3.666
 6804SOL    HW221312   0.988   0.098   3.521
 6805SOL     OW21313   5.178   0.954   4.796
 6805SOL    HW121314   5.101   1.009   4.762
 6805SOL    HW221315   5.261   1.010   4.796
 6806SOL     OW21316   5.475   6.221   5.384
 6806SOL    HW121317   5.547   6.164   5.424
 6806SOL    HW221318   5.387   6.194   5.422
 6807SOL     OW21319   3.190   3.119   0.006
 6807SOL    HW121320   3.181   3.150   6.930
 6807SOL    HW221321   3.286   3.109   0.028
 6808SOL     OW21322   2.175   3.302   3.855
 6808SOL    HW121323   2.184   3.298   3.954
 6808SOL    HW221324   2.184   3.209   3.817
 6809SOL     OW21325   2.159   3.907   6.689
 6809SOL    HW121326   2.085   3.904   6.622
 6809SOL    HW221327   2.241   3.863   6.652
 6810SOL     OW21328   5.628   1.775   3.059
 6810SOL    HW121329   5.637   1.773   2.959
 6810SOL    HW221330   5.545   1.825   3.084
 6811SOL     OW21331   4.700   5.694   1.811
 6811SOL    HW121332   4.610   5.679   1.851
 6811SOL    HW221333   4.770   5.672   1.879
 6812SOL     OW21334   3.575   2.896   2.381
 6812SOL    HW121335   3.656   2.871   2.328
 6812SOL    HW221336   3.550   2.990   2.360
 6813SOL     OW21337   5.154   3.351   1.179
 6813SOL    HW121338   5.078   3.303   1.222
 6813SOL    HW221339   5.159   3.328   1.082
 6814SOL     OW21340   2.723   3.258   0.490
 6814SOL    HW121341   2.755   3.166   0.465
 6814SOL    HW221342   2.623   3.260   0.487
 6815SOL     OW21343   1.618   6.764   1.498
 6815SOL    HW121344   1.619   6.699   1.574
 6815SOL    HW221345   1.666   6.848   1.524
 6816SOL     OW21346   6.342   3.788   1.643
 6816SOL    HW121347   6.415   3.719   1.639
 6816SOL    HW221348   6.284   3.780   1.562
 6817SOL     OW21349   0.804   2.338   6.436
 6817SOL    HW121350   0.888   2.291   6.409
 6817SOL    HW221351   0.815   2.437   6.421
 6818SOL     OW21352   3.464   5.443   1.763
 6818SOL    HW121353   3.376   5.430   1.717
 6818SOL    HW221354   3.460   5.525   1.820
 6819SOL     OW21355   3.021   1.357   3.882
 6819SOL    HW121356   3.080   1.281   3.853
 6819SOL    HW221357   3.077   1.436   3.904
 6820SOL     OW21358   1.598   5.075   4.005
 6820SOL    HW121359   1.618   5.159   4.057
 6820SOL    HW221360   1.537   5.097   3.929
 6821SOL     OW21361   2.580   2.503   4.251
 6821SOL    HW121362   2.621   2.501   4.160
 6821SOL    HW221363   2.628   2.439   4.311
 6822SOL     OW21364   4.872   1.914   5.639
 6822SOL    HW121365   4.865   1.972   5.558
 6822SOL    HW221366   4.867   1.972   5.721
 6823SOL     OW21367   3.833   3.613   2.642
 6823SOL    HW121368   3.817   3.708   2.614
 6823SOL    HW221369   3.928   3.603   2.672
 6824SOL     OW21370   1.490   4.788   6.035
 6824SOL    HW121371   1.401   4.831   6.049
 6824SOL    HW221372   1.542   4.791   6.121
 6825SOL     OW21373   5.405   6.835   4.040
 6825SOL    HW121374   5.447   6.808   3.954
 6825SOL    HW221375   5.386   6.933   4.039
 6826SOL     OW21376   0.871   2.858   2.861
 6826SOL    HW121377   0.801   2.825   2.924
 6826SOL    HW221378   0.949   2.795   2.862
 6827SOL     OW21379   5.997   6.297   4.964
 6827SOL    HW121380   5.954   6.291   5.055
 6827SOL    HW221381   5.931   6.335   4.899
 6828SOL     OW21382   1.946   1.806   1.467
 6828SOL    HW121383   1.871   1.872   1.468
 6828SOL    HW221384   2.034   1.855   1.465
 6829SOL     OW21385   5.360   4.747   3.589
 6829SOL    HW121386   5.411   4.691   3.654
 6829SOL    HW221387   5.413   4.830   3.568
 6830SOL     OW21388   5.056   2.370   4.549
 6830SOL    HW121389   4.997   2.401   4.474
 6830SOL    HW221390   5.014   2.290   4.592
 6831SOL     OW21391   0.022   1.166   5.786
 6831SOL    HW121392   6.987   1.125   5.713
 6831SOL    HW221393   0.039   1.098   5.857
 6832SOL     OW21394   2.993   5.094   1.880
 6832SOL    HW121395   2.946   5.028   1.938
 6832SOL    HW221396   2.935   5.117   1.802
 6833SOL     OW21397   4.129   5.761   0.236
 6833SOL    HW121398   4.058   5.742   0.304
 6833SOL    HW221399   4.118   5.698   0.158
 6834SOL     OW21400   4.008   5.418   2.300
 6834SOL    HW121401   4.054   5.439   2.213
 6834SOL    HW221402   3.939   5.488   2.318
 6835SOL     OW21403   3.853   6.972   4.757
 6835SOL    HW121404   3.947   6.943   4.776
 6835SOL    HW221405   3.795   6.951   4.835
 6836SOL     OW21406   3.753   6.012   6.293
 6836SOL    HW121407   3.801   6.083   6.345
 6836SOL    HW221408   3.677   5.976   6.348
 6837SOL     OW21409   0.783   2.707   2.663
 6837SOL    HW121410   0.804   2.756   2.748
 6837SOL    HW221411   0.845   2.736   2.591
 6838SOL     OW21412   2.355   1.807   0.521
 6838SOL    HW121413   2.358   1.711   0.496
 6838SOL    HW221414   2.411   1.860   0.458
 6839SOL     OW21415   4.532   0.922   1.577
 6839SOL    HW121416   4.585   0.984   1.635
 6839SOL    HW221417   4.555   0.939   1.481
 6840SOL     OW21418   0.916   1.218   6.534
 6840SOL    HW121419   0.824   1.227   6.497
 6840SOL    HW221420   0.972   1.164   6.471
 6841SOL     OW21421   0.269   3.244   6.020
 6841SOL    HW121422   0.188   3.192   5.996
 6841SOL    HW221423   0.282   3.319   5.954
 6842SOL     OW21424   2.570   4.676   3.035
 6842SOL    HW121425   2.667   4.667   3.057
 6842SOL    HW221426   2.560   4.717   2.945
 6843SOL     OW21427   4.179   7.003   0.950
 6843SOL    HW121428   4.108   0.031   0.898
 6843SOL    HW221429   4.218   6.930   0.894
 6844SOL     OW21430   5.327   0.475   6.158
 6844SOL    HW121431   5.336   0.548   6.226
 6844SOL    HW221432   5.371   0.503   6.073
 6845SOL     OW21433   5.009   1.962   2.679
 6845SOL    HW121434   4.975   2.026   2.748
 6845SOL    HW221435   5.045   1.881   2.725
 6846SOL     OW21436   2.317   3.553   0.083
 6846SOL    HW121437   2.259   3.479   0.050
 6846SOL    HW221438   2.275   3.641   0.063
 6847SOL     OW21439   0.155   2.877   4.621
 6847SOL    HW121440   0.193   2.966   4.645
 6847SOL    HW221441   0.217   2.805   4.650
 6848SOL     OW21442   6.933   5.042   3.417
 6848SOL    HW121443   7.010   4.979   3.403
 6848SOL    HW221444   6.963   5.136   3.401
 6849SOL     OW21445   3.131   4.235   5.892
 6849SOL    HW121446   3.070   4.274   5.961
 6849SOL    HW221447   3.178   4.156   5.931
 6850SOL     OW21448   4.762   0.222   3.773
 6850SOL    HW121449   4.707   0.305   3.778
 6850SOL    HW221450   4.856   0.243   3.798
 6851SOL     OW21451   1.918   3.674   3.229
 6851SOL    HW121452   1.982   3.722   3.289
 6851SOL    HW221453   1.918   3.717   3.138
 6852SOL     OW21454   4.286   4.698   0.098
 6852SOL    HW121455   4.284   4.733   0.191
 6852SOL    HW221456   4.361   4.741   0.047
 6853SOL     OW21457   3.911   4.674   6.469
 6853SOL    HW121458   3.958   4.608   6.410
 6853SOL    HW221459   3.861   4.626   6.541
 6854SOL     OW21460   5.152   5.598   6.277
 6854SOL    HW121461   5.107   5.518   6.318
 6854SOL    HW221462   5.237   5.569   6.234
 6855SOL     OW21463   4.248   5.009   3.147
 6855SOL    HW121464   4.222   5.028   3.241
 6855SOL    HW221465   4.336   4.961   3.146
 6856SOL     OW21466   0.294   2.395   6.568
 6856SOL    HW121467   0.218   2.402   6.633
 6856SOL    HW221468   0.373   2.445   6.604
 6857SOL     OW21469   1.154   4.261   5.682
 6857SOL    HW121470   1.084   4.195   5.654
 6857SOL    HW221471   1.225   4.265   5.612
 6858SOL     OW21472   1.939   3.988   2.046
 6858SOL    HW121473   2.035   3.986   2.016
 6858SOL    HW221474   1.908   3.895   2.062
 6859SOL     OW21475   2.061   1.708   1.893
 6859SOL    HW121476   2.157   1.688   1.871
 6859SOL    HW221477   2.004   1.682   1.815
 6860SOL     OW21478   0.533   6.423   0.907
 6860SOL    HW121479   0.615   6.368   0.889
 6860SOL    HW221480   0.482   6.383   0.983
 6861SOL     OW21481   6.189   3.297   6.376
 6861SOL    HW121482   6.242   3.274   6.295
 6861SOL    HW221483   6.162   3.213   6.424
 6862SOL     OW21484   0.901   4.426   3.870
 6862SOL    HW121485   0.877   4.506   3.815
 6862SOL    HW221486   0.995   4.436   3.904
 6863SOL     OW21487   5.522   1.278   5.281
 6863SOL    HW121488   5.487   1.267   5.374
 6863SOL    HW221489   5.619   1.258   5.280
 6864SOL     OW21490   1.479   3.514   6.302
 6864SOL    HW121491   1.473   3.460   6.218
 6864SOL    HW221492   1.505   3.455   6.378
 6865SOL     OW21493   2.428   0.514   4.222
 6865SOL    HW121494   2.484   0.555   4.150
 6865SOL    HW221495   2.332   0.516   4.196
 6866SOL     OW21496   1.157   4.695   0.456
 6866SOL    HW121497   1.131   4.753   0.379
 6866SOL    HW221498   1.104   4.721   0.537
 6867SOL     OW21499   2.204   3.578   6.566
 6867SOL    HW121500   2.295   3.544   6.591
 6867SOL    HW221501   2.135   3.512   6.594
 6868SOL     OW21502   3.124   5.109   3.870
 6868SOL    HW121503   3.181   5.133   3.792
 6868SOL    HW221504   3.029   5.098   3.841
 6869SOL     OW21505   2.674   0.831   5.991
 6869SOL    HW121506   2.624   0.915   5.966
 6869SOL    HW221507   2.616   0.775   6.051
 6870SOL     OW21508   5.484   2.043   0.111
 6870SOL    HW121509   5.459   2.030   0.207
 6870SOL    HW221510   5.581   2.067   0.105
 6871SOL     OW21511   6.706   3.158   2.458
 6871SOL    HW121512   6.779   3.198   2.403
 6871SOL    HW221513   6.735   3.155   2.554
 6872SOL     OW21514   1.966   4.161   0.974
 6872SOL    HW121515   2.000   4.070   1.000
 6872SOL    HW221516   1.943   4.161   0.877
 6873SOL     OW21517   0.800   4.346   2.888
 6873SOL    HW121518   0.880   4.325   2.832
 6873SOL    HW221519   0.727   4.282   2.867
 6874SOL     OW21520   4.722   6.353   2.968
 6874SOL    HW121521   4.716   6.283   3.039
 6874SOL    HW221522   4.741   6.309   2.880
 6875SOL     OW21523   2.604   1.042   0.749
 6875SOL    HW121524   2.576   0.989   0.669
 6875SOL    HW221525   2.673   0.991   0.800
 6876SOL     OW21526   5.428   5.434   3.391
 6876SOL    HW121527   5.508   5.488   3.416
 6876SOL    HW221528   5.385   5.473   3.310
 6877SOL     OW21529   0.666   3.656   1.816
 6877SOL    HW121530   0.746   3.658   1.756
 6877SOL    HW221531   0.605   3.582   1.787
 6878SOL     OW21532   1.838   0.785   4.646
 6878SOL    HW121533   1.771   0.711   4.660
 6878SOL    HW221534   1.790   0.869   4.621
 6879SOL     OW21535   1.302   1.523   1.142
 6879SOL    HW121536   1.384   1.506   1.196
 6879SOL    HW221537   1.326   1.574   1.059
 6880SOL     OW21538   1.458   5.803   0.381
 6880SOL    HW121539   1.534   5.855   0.422
 6880SOL    HW221540   1.385   5.866   0.356
 6881SOL     OW21541   0.222   3.380   0.482
 6881SOL    HW121542   0.190   3.469   0.450
 6881SOL    HW221543   0.143   3.327   0.514
 6882SOL     OW21544   3.380   6.216   0.408
 6882SOL    HW121545   3.281   6.222   0.417
 6882SOL    HW221546   3.415   6.145   0.469
 6883SOL     OW21547   5.150   0.596   1.358
 6883SOL    HW121548   5.211   0.517   1.372
 6883SOL    HW221549   5.133   0.640   1.446
 6884SOL     OW21550   1.941   4.587   3.373
 6884SOL    HW121551   1.958   4.596   3.275
 6884SOL    HW221552   1.849   4.622   3.394
 6885SOL     OW21553   6.102   4.259   5.104
 6885SOL    HW121554   6.046   4.278   5.184
 6885SOL    HW221555   6.046   4.263   5.021
 6886SOL     OW21556   5.266   3.066   7.019
 6886SOL    HW121557   5.361   3.047   0.024
 6886SOL    HW221558   5.206   2.999   0.043
 6887SOL     OW21559   5.774   5.985   5.864
 6887SOL    HW121560   5.824   5.960   5.947
 6887SOL    HW221561   5.795   5.920   5.791
 6888SOL     OW21562   6.466   4.096   0.261
 6888SOL    HW121563   6.368   4.090   0.240
 6888SOL    HW221564   6.478   4.121   0.357
 6889SOL     OW21565   0.203   2.055   5.437
 6889SOL    HW121566   0.130   1.989   5.418
 6889SOL    HW221567   0.292   2.008   5.433
 6890SOL     OW21568   4.891   4.595   3.904
 6890SOL    HW121569   4.926   4.593   3.997
 6890SOL    HW221570   4.907   4.506   3.861
 6891SOL     OW21571   1.541   1.421   1.279
 6891SOL    HW121572   1.606   1.487   1.316
 6891SOL    HW221573   1.567   1.397   1.185
 6892SOL     OW21574   3.062   0.846   5.096
 6892SOL    HW121575   3.154   0.885   5.108
 6892SOL    HW221576   3.043   0.836   4.999
 6893SOL     OW21577   6.229   3.164   0.351
 6893SOL    HW121578   6.233   3.184   0.253
 6893SOL    HW221579   6.153   3.215   0.392
 6894SOL     OW21580   5.915   4.848   0.290
 6894SOL    HW121581   5.881   4.764   0.332
 6894SOL    HW221582   5.950   4.828   0.199
 6895SOL     OW21583   1.019   6.111   2.300
 6895SOL    HW121584   0.936   6.071   2.337
 6895SOL    HW221585   1.043   6.193   2.352
 6896SOL     OW21586   4.837   1.395   5.668
 6896SOL    HW121587   4.837   1.441   5.756
 6896SOL    HW221588   4.857   1.461   5.595
 6897SOL     OW21589   4.340   2.746   5.297
 6897SOL    HW121590   4.264   2.689   5.268
 6897SOL    HW221591   4.417   2.734   5.234
 6898SOL     OW21592   1.651   6.584   1.144
 6898SOL    HW121593   1.606   6.672   1.154
 6898SOL    HW221594   1.595   6.512   1.186
 6899SOL     OW21595   5.802   6.209   2.455
 6899SOL    HW121596   5.827   6.259   2.538
 6899SOL    HW221597   5.722   6.252   2.414
 6900SOL     OW21598   6.512   3.475   4.926
 6900SOL    HW121599   6.541   3.382   4.906
 6900SOL    HW221600   6.461   3.477   5.013
 6901SOL     OW21601   5.632   5.210   6.120
 6901SOL    HW121602   5.656   5.282   6.055
 6901SOL    HW221603   5.532   5.204   6.128
 6902SOL     OW21604   0.627   5.585   5.661
 6902SOL    HW121605   0.632   5.525   5.581
 6902SOL    HW221606   0.596   5.675   5.633
 6903SOL     OW21607   1.463   6.076   5.034
 6903SOL    HW121608   1.511   6.144   5.090
 6903SOL    HW221609   1.458   6.107   4.939
 6904SOL     OW21610   0.184   0.344   5.733
 6904SOL    HW121611   0.114   0.282   5.768
 6904SOL    HW221612   0.157   0.376   5.642
 6905SOL     OW21613   4.941   6.244   5.773
 6905SOL    HW121614   4.968   6.339   5.757
 6905SOL    HW221615   4.950   6.192   5.688
 6906SOL     OW21616   2.737   0.711   3.548
 6906SOL    HW121617   2.655   0.675   3.593
 6906SOL    HW221618   2.808   0.729   3.616
 6907SOL     OW21619   5.992   1.677   0.815
 6907SOL    HW121620   5.937   1.702   0.895
 6907SOL    HW221621   5.942   1.702   0.732
 6908SOL     OW21622   3.401   5.321   0.587
 6908SOL    HW121623   3.438   5.260   0.658
 6908SOL    HW221624   3.425   5.416   0.609
 6909SOL     OW21625   5.480   4.818   2.389
 6909SOL    HW121626   5.553   4.801   2.455
 6909SOL    HW221627   5.392   4.798   2.431
 6910SOL     OW21628   0.858   2.250   2.552
 6910SOL    HW121629   0.830   2.326   2.611
 6910SOL    HW221630   0.900   2.179   2.608
 6911SOL     OW21631   2.480   6.489   5.710
 6911SOL    HW121632   2.510   6.426   5.782
 6911SOL    HW221633   2.554   6.500   5.643
 6912SOL     OW21634   2.788   3.872   6.835
 6912SOL    HW121635   2.776   3.804   6.762
 6912SOL    HW221636   2.805   3.825   6.922
 6913SOL     OW21637   4.481   5.730   5.699
 6913SOL    HW121638   4.559   5.671   5.722
 6913SOL    HW221639   4.511   5.804   5.640
 6914SOL     OW21640   5.718   2.213   2.096
 6914SOL    HW121641   5.722   2.300   2.145
 6914SOL    HW221642   5.687   2.141   2.159
 6915SOL     OW21643   6.997   3.515   3.339
 6915SOL    HW121644   0.019   3.427   3.359
 6915SOL    HW221645   6.897   3.506   3.338
 6916SOL     OW21646   4.578   6.420   5.630
 6916SOL    HW121647   4.588   6.353   5.704
 6916SOL    HW221648   4.512   6.491   5.657
 6917SOL     OW21649   3.449   6.168   2.221
 6917SOL    HW121650   3.424   6.130   2.310
 6917SOL    HW221651   3.514   6.107   2.176
 6918SOL     OW21652   2.316   3.584   0.340
 6918SOL    HW121653   2.305   3.543   0.250
 6918SOL    HW221654   2.296   3.516   0.411
 6919SOL     OW21655   6.200   6.121   3.298
 6919SOL    HW121656   6.283   6.073   3.328
 6919SOL    HW221657   6.222   6.180   3.221
 6920SOL     OW21658   6.593   1.929   5.551
 6920SOL    HW121659   6.606   1.953   5.455
 6920SOL    HW221660   6.566   1.833   5.558
 6921SOL     OW21661   4.386   0.130   4.122
 6921SOL    HW121662   4.420   0.207   4.175
 6921SOL    HW221663   4.461   0.089   4.070
 6922SOL     OW21664   2.784   5.337   6.829
 6922SOL    HW121665   2.767   5.416   6.770
 6922SOL    HW221666   2.724   5.262   6.801
 6923SOL     OW21667   5.302   0.090   2.629
 6923SOL    HW121668   5.352   0.013   2.589
 6923SOL    HW221669   5.367   0.148   2.679
 6924SOL     OW21670   3.254   5.751   1.936
 6924SOL    HW121671   3.203   5.756   1.850
 6924SOL    HW221672   3.223   5.671   1.988
 6925SOL     OW21673   6.064   6.632   4.690
 6925SOL    HW121674   6.086   6.714   4.639
 6925SOL    HW221675   6.047   6.656   4.786
 6926SOL     OW21676   3.103   1.967   0.383
 6926SOL    HW121677   3.101   2.052   0.437
 6926SOL    HW221678   3.184   1.914   0.407
 6927SOL     OW21679   3.685   0.454   0.295
 6927SOL    HW121680   3.634   0.381   0.249
 6927SOL    HW221681   3.719   0.421   0.383
 6928SOL     OW21682   3.451   5.303   6.772
 6928SOL    HW121683   3.357   5.310   6.805
 6928SOL    HW221684   3.493   5.220   6.809
 6929SOL     OW21685   4.959   4.918   2.641
 6929SOL    HW121686   4.953   4.924   2.740
 6929SOL    HW221687   4.982   5.008   2.603
 6930SOL     OW21688   0.984   6.598   1.758
 6930SOL    HW121689   0.892   6.634   1.774
 6930SOL    HW221690   0.977   6.501   1.733
 6931SOL     OW21691   3.066   3.557   0.991
 6931SOL    HW121692   3.014   3.541   1.075
 6931SOL    HW221693   3.148   3.500   0.990
 6932SOL     OW21694   3.823   0.102   6.101
 6932SOL    HW121695   3.844   0.149   6.015
 6932SOL    HW221696   3.763   0.159   6.156
 6933SOL     OW21697   2.947   5.660   6.014
 6933SOL    HW121698   2.920   5.640   5.920
 6933SOL    HW221699   3.043   5.637   6.028
 6934SOL     OW21700   4.969   5.154   0.032
 6934SOL    HW121701   5.036   5.216   7.011
 6934SOL    HW221702   5.017   5.088   0.090
 6935SOL     OW21703   3.955   6.254   1.822
 6935SOL    HW121704   3.868   6.287   1.787
 6935SOL    HW221705   4.030   6.289   1.766
 6936SOL     OW21706   0.850   1.838   6.021
 6936SOL    HW121707   0.902   1.892   5.954
 6936SOL    HW221708   0.905   1.762   6.053
 6937SOL     OW21709   5.871   5.198   0.597
 6937SOL    HW121710   5.939   5.132   0.629
 6937SOL    HW221711   5.840   5.172   0.505
 6938SOL     OW21712   2.907   1.040   4.853
 6938SOL    HW121713   2.871   1.101   4.924
 6938SOL    HW221714   2.905   1.087   4.765
 6939SOL     OW21715   5.851   3.834   3.837
 6939SOL    HW121716   5.898   3.820   3.924
 6939SOL    HW221717   5.767   3.887   3.852
 6940SOL     OW21718   2.545   6.712   0.877
 6940SOL    HW121719   2.547   6.754   0.786
 6940SOL    HW221720   2.453   6.676   0.895
 6941SOL     OW21721   3.833   3.370   2.596
 6941SOL    HW121722   3.919   3.328   2.624
 6941SOL    HW221723   3.841   3.470   2.605
 6942SOL     OW21724   6.583   5.157   2.896
 6942SOL    HW121725   6.614   5.074   2.943
 6942SOL    HW221726   6.503   5.135   2.840
 6943SOL     OW21727   4.612   5.008   6.353
 6943SOL    HW121728   4.571   5.006   6.444
 6943SOL    HW221729   4.710   4.985   6.360
 6944SOL     OW21730   1.274   4.677   5.228
 6944SOL    HW121731   1.275   4.743   5.153
 6944SOL    HW221732   1.283   4.726   5.315
 6945SOL     OW21733   5.434   1.868   1.168
 6945SOL    HW121734   5.383   1.798   1.118
 6945SOL    HW221735   5.513   1.897   1.114
 6946SOL     OW21736   5.182   6.152   2.703
 6946SOL    HW121737   5.281   6.162   2.692
 6946SOL    HW221738   5.143   6.240   2.730
 6947SOL     OW21739   6.456   4.256   5.288
 6947SOL    HW121740   6.525   4.190   5.316
 6947SOL    HW221741   6.485   4.302   5.205
 6948SOL     OW21742   6.880   4.627   6.615
 6948SOL    HW121743   6.845   4.554   6.555
 6948SOL    HW221744   6.824   4.631   6.698
 6949SOL     OW21745   2.894   1.532   2.955
 6949SOL    HW121746   2.936   1.445   2.979
 6949SOL    HW221747   2.892   1.591   3.036
 6950SOL     OW21748   1.315   0.968   3.883
 6950SOL    HW121749   1.271   0.915   3.956
 6950SOL    HW221750   1.322   1.064   3.912
 6951SOL     OW21751   1.409   3.775   6.751
 6951SOL    HW121752   1.487   3.836   6.738
 6951SOL    HW221753   1.328   3.816   6.708
 6952SOL     OW21754   5.053   5.529   3.499
 6952SOL    HW121755   5.105   5.445   3.485
 6952SOL    HW221756   5.108   5.608   3.473
 6953SOL     OW21757   6.354   1.226   1.542
 6953SOL    HW121758   6.320   1.166   1.615
 6953SOL    HW221759   6.445   1.260   1.566
 6954SOL     OW21760   6.792   4.396   6.426
 6954SOL    HW121761   6.717   4.418   6.363
 6954SOL    HW221762   6.801   4.297   6.434
 6955SOL     OW21763   4.749   5.492   2.930
 6955SOL    HW121764   4.684   5.497   2.854
 6955SOL    HW221765   4.814   5.567   2.923
 6956SOL     OW21766   5.371   5.305   2.036
 6956SOL    HW121767   5.345   5.223   1.984
 6956SOL    HW221768   5.293   5.337   2.089
 6957SOL     OW21769   6.359   5.235   5.232
 6957SOL    HW121770   6.338   5.168   5.161
 6957SOL    HW221771   6.370   5.325   5.190
 6958SOL     OW21772   3.581   3.229   2.666
 6958SOL    HW121773   3.664   3.283   2.680
 6958SOL    HW221774   3.508   3.264   2.725
 6959SOL     OW21775   1.754   3.914   2.855
 6959SOL    HW121776   1.760   3.858   2.938
 6959SOL    HW221777   1.767   4.010   2.879
 6960SOL     OW21778   5.098   4.830   0.662
 6960SOL    HW121779   5.119   4.732   0.668
 6960SOL    HW221780   5.076   4.865   0.753
 6961SOL     OW21781   4.578   2.689   5.477
 6961SOL    HW121782   4.640   2.747   5.530
 6961SOL    HW221783   4.501   2.745   5.444
 6962SOL     OW21784   2.708   6.049   6.889
 6962SOL    HW121785   2.786   6.035   6.829
 6962SOL    HW221786   2.737   6.097   6.971
 6963SOL     OW21787   6.952   6.145   6.732
 6963SOL    HW121788   0.013   6.188   6.691
 6963SOL    HW221789   6.971   6.121   6.827
 6964SOL     OW21790   2.097   1.514   4.989
 6964SOL    HW121791   2.101   1.506   4.889
 6964SOL    HW221792   2.021   1.459   5.024
 6965SOL     OW21793   1.619   1.598   6.984
 6965SOL    HW121794   1.519   1.600   6.978
 6965SOL    HW221795   1.646   1.580   0.059
 6966SOL     OW21796   1.248   6.477   1.348
 6966SOL    HW121797   1.293   6.562   1.322
 6966SOL    HW221798   1.150   6.485   1.332
 6967SOL     OW21799   3.673   0.748   6.860
 6967SOL    HW121800   3.656   0.783   6.952
 6967SOL    HW221801   3.669   0.823   6.794
 6968SOL     OW21802   3.352   0.531   2.852
 6968SOL    HW121803   3.278   0.599   2.846
 6968SOL    HW221804   3.435   0.570   2.813
 6969SOL     OW21805   2.015   2.709   1.636
 6969SOL    HW121806   1.961   2.763   1.700
 6969SOL    HW221807   1.960   2.633   1.601
 6970SOL     OW21808   3.605   5.588   5.560
 6970SOL    HW121809   3.679   5.548   5.613
 6970SOL    HW221810   3.641   5.662   5.503
 6971SOL     OW21811   5.908   3.942   0.132
 6971SOL    HW121812   5.899   3.985   0.042
 6971SOL    HW221813   5.899   3.843   0.123
 6972SOL     OW21814   6.068   3.719   1.697
 6972SOL    HW121815   6.058   3.772   1.613
 6972SOL    HW221816   6.077   3.781   1.775
 6973SOL     OW21817   1.048   1.376   2.919
 6973SOL    HW121818   1.054   1.286   2.877
 6973SOL    HW221819   1.016   1.367   3.013
 6974SOL     OW21820   4.094   3.278   3.139
 6974SOL    HW121821   4.056   3.318   3.221
 6974SOL    HW221822   4.072   3.180   3.135
 6975SOL     OW21823   2.952   5.625   4.485
 6975SOL    HW121824   2.970   5.572   4.568
 6975SOL    HW221825   2.978   5.572   4.405
 6976SOL     OW21826   4.337   5.056   6.035
 6976SOL    HW121827   4.388   5.137   6.066
 6976SOL    HW221828   4.314   5.066   5.939
 6977SOL     OW21829   4.958   4.667   2.188
 6977SOL    HW121830   4.966   4.767   2.196
 6977SOL    HW221831   5.047   4.629   2.163
 6978SOL     OW21832   0.807   3.498   0.515
 6978SOL    HW121833   0.810   3.430   0.442
 6978SOL    HW221834   0.770   3.457   0.598
 6979SOL     OW21835   1.305   3.636   2.684
 6979SOL    HW121836   1.320   3.600   2.592
 6979SOL    HW221837   1.245   3.574   2.735
 6980SOL     OW21838   2.509   5.034   3.330
 6980SOL    HW121839   2.410   5.039   3.341
 6980SOL    HW221840   2.545   4.959   3.385
 6981SOL     OW21841   4.552   3.204   6.573
 6981SOL    HW121842   4.587   3.260   6.498
 6981SOL    HW221843   4.622   3.138   6.600
 6982SOL     OW21844   0.518   0.618   1.920
 6982SOL    HW121845   0.449   0.685   1.891
 6982SOL    HW221846   0.473   0.531   1.938
 6983SOL     OW21847   6.339   6.918   4.377
 6983SOL    HW121848   6.391   6.993   4.337
 6983SOL    HW221849   6.333   6.842   4.312
 6984SOL     OW21850   1.264   3.398   3.156
 6984SOL    HW121851   1.315   3.435   3.234
 6984SOL    HW221852   1.309   3.314   3.124
 6985SOL     OW21853   5.029   2.870   0.313
 6985SOL    HW121854   5.017   2.773   0.331
 6985SOL    HW221855   5.006   2.890   0.218
 6986SOL     OW21856   4.467   5.028   5.735
 6986SOL    HW121857   4.549   5.085   5.740
 6986SOL    HW221858   4.486   4.939   5.776
 6987SOL     OW21859   7.006   0.980   6.531
 6987SOL    HW121860   6.972   1.008   6.442
 6987SOL    HW221861   6.971   1.042   6.602
 6988SOL     OW21862   2.485   1.583   6.719
 6988SOL    HW121863   2.542   1.511   6.679
 6988SOL    HW221864   2.389   1.560   6.708
 6989SOL     OW21865   0.766   3.841   2.223
 6989SOL    HW121866   0.815   3.865   2.307
 6989SOL    HW221867   0.669   3.864   2.234
 6990SOL     OW21868   3.565   3.755   6.328
 6990SOL    HW121869   3.601   3.842   6.362
 6990SOL    HW221870   3.585   3.747   6.230
 6991SOL     OW21871   5.702   3.582   2.745
 6991SOL    HW121872   5.767   3.512   2.774
 6991SOL    HW221873   5.610   3.544   2.745
 6992SOL     OW21874   1.452   4.960   6.855
 6992SOL    HW121875   1.494   5.051   6.864
 6992SOL    HW221876   1.369   4.967   6.799
 6993SOL     OW21877   3.691   2.209   1.643
 6993SOL    HW121878   3.695   2.265   1.725
 6993SOL    HW221879   3.682   2.268   1.563
 6994SOL     OW21880   2.783   1.356   3.256
 6994SOL    HW121881   2.819   1.446   3.281
 6994SOL    HW221882   2.849   1.286   3.284
 6995SOL     OW21883   0.260   3.975   0.755
 6995SOL    HW121884   0.170   3.979   0.798
 6995SOL    HW221885   0.322   4.039   0.801
 6996SOL     OW21886   1.030   1.103   6.286
 6996SOL    HW121887   0.943   1.090   6.239
 6996SOL    HW221888   1.092   1.027   6.264
 6997SOL     OW21889   6.456   6.309   6.136
 6997SOL    HW121890   6.390   6.260   6.079
 6997SOL    HW221891   6.433   6.297   6.233
 6998SOL     OW21892   7.009   0.359   0.441
 6998SOL    HW121893   6.968   0.393   0.525
 6998SOL    HW221894   0.008   0.261   0.450
 6999SOL     OW21895   6.752   3.074   6.930
 6999SOL    HW121896   6.843   3.110   6.909
 6999SOL    HW221897   6.705   3.050   6.845
 7000SOL     OW21898   0.341   5.825   3.445
 7000SOL    HW121899   0.300   5.818   3.536
 7000SOL    HW221900   0.296   5.897   3.393
 7001SOL     OW21901   6.832   1.574   4.590
 7001SOL    HW121902   6.734   1.559   4.580
 7001SOL    HW221903   6.860   1.651   4.532
 7002SOL     OW21904   0.919   4.905   2.720
 7002SOL    HW121905   0.955   4.823   2.676
 7002SOL    HW221906   0.914   4.980   2.654
 7003SOL     OW21907   0.671   4.864   6.718
 7003SOL    HW121908   0.650   4.876   6.815
 7003SOL    HW221909   0.667   4.766   6.696
 7004SOL     OW21910   1.886   6.749   6.574
 7004SOL    HW121911   1.930   6.826   6.621
 7004SOL    HW221912   1.789   6.749   6.596
 7005SOL     OW21913   1.205   5.601   0.366
 7005SOL    HW121914   1.143   5.657   0.421
 7005SOL    HW221915   1.190   5.622   0.269
 7006SOL     OW21916   0.325   0.167   3.635
 7006SOL    HW121917   0.252   0.126   3.581
 7006SOL    HW221918   0.405   0.183   3.577
 7007SOL     OW21919   2.109   0.449   6.067
 7007SOL    HW121920   2.083   0.386   6.140
 7007SOL    HW221921   2.200   0.487   6.087
 7008SOL     OW21922   5.139   3.318   3.780
 7008SOL    HW121923   5.187   3.233   3.759
 7008SOL    HW221924   5.092   3.350   3.697
 7009SOL     OW21925   4.834   5.426   2.401
 7009SOL    HW121926   4.850   5.384   2.489
 7009SOL    HW221927   4.779   5.510   2.413
 7010SOL     OW21928   4.844   2.992   2.672
 7010SOL    HW121929   4.760   2.942   2.696
 7010SOL    HW221930   4.904   2.996   2.752
 7011SOL     OW21931   2.484   6.517   6.072
 7011SOL    HW121932   2.442   6.448   6.131
 7011SOL    HW221933   2.418   6.549   6.004
 7012SOL     OW21934   0.032   3.200   0.544
 7012SOL    HW121935   0.060   3.174   0.637
 7012SOL    HW221936   6.954   3.220   0.544
 7013SOL     OW21937   3.483   2.694   0.333
 7013SOL    HW121938   3.480   2.594   0.330
 7013SOL    HW221939   3.435   2.726   0.415
 7014SOL     OW21940   6.040   3.327   0.443
 7014SOL    HW121941   6.044   3.386   0.523
 7014SOL    HW221942   5.973   3.363   0.378
 7015SOL     OW21943   6.276   6.182   1.344
 7015SOL    HW121944   6.211   6.228   1.284
 7015SOL    HW221945   6.269   6.221   1.436
 7016SOL     OW21946   2.968   5.016   1.063
 7016SOL    HW121947   2.989   5.104   1.105
 7016SOL    HW221948   2.987   4.942   1.127
 7017SOL     OW21949   6.095   4.783   5.923
 7017SOL    HW121950   6.186   4.746   5.937
 7017SOL    HW221951   6.101   4.877   5.887
 7018SOL     OW21952   5.068   3.526   5.141
 7018SOL    HW121953   5.022   3.437   5.147
 7018SOL    HW221954   5.009   3.591   5.093
 7019SOL     OW21955   4.093   5.446   2.051
 7019SOL    HW121956   4.169   5.402   2.003
 7019SOL    HW221957   4.058   5.522   1.995
 7020SOL     OW21958   0.837   1.890   6.290
 7020SOL    HW121959   0.817   1.980   6.329
 7020SOL    HW221960   0.803   1.886   6.196
 7021SOL     OW21961   0.818   1.782   4.756
 7021SOL    HW121962   0.905   1.819   4.790
 7021SOL    HW221963   0.796   1.825   4.668
 7022SOL     OW21964   2.396   3.818   0.497
 7022SOL    HW121965   2.311   3.859   0.531
 7022SOL    HW221966   2.375   3.760   0.418
 7023SOL     OW21967   0.392   1.479   0.780
 7023SOL    HW121968   0.468   1.490   0.844
 7023SOL    HW221969   0.401   1.545   0.705
 7024SOL     OW21970   3.275   4.134   5.119
 7024SOL    HW121971   3.205   4.065   5.104
 7024SOL    HW221972   3.246   4.197   5.190
 7025SOL     OW21973   2.750   0.627   1.292
 7025SOL    HW121974   2.797   0.683   1.224
 7025SOL    HW221975   2.672   0.582   1.250
 7026SOL     OW21976   3.200   2.006   1.022
 7026SOL    HW121977   3.125   1.947   1.052
 7026SOL    HW221978   3.178   2.101   1.044
 7027SOL     OW21979   3.155   4.789   1.924
 7027SOL    HW121980   3.190   4.696   1.912
 7027SOL    HW221981   3.056   4.790   1.908
 7028SOL     OW21982   3.547   0.500   3.524
 7028SOL    HW121983   3.505   0.587   3.502
 7028SOL    HW221984   3.520   0.471   3.616
 7029SOL     OW21985   3.444   3.848   3.572
 7029SOL    HW121986   3.411   3.940   3.596
 7029SOL    HW221987   3.461   3.844   3.474
 7030SOL     OW21988   6.327   6.909   4.850
 7030SOL    HW121989   6.253   6.970   4.821
 7030SOL    HW221990   6.414   6.958   4.847
 7031SOL     OW21991   4.670   5.715   0.557
 7031SOL    HW121992   4.652   5.625   0.598
 7031SOL    HW221993   4.649   5.786   0.624
 7032SOL     OW21994   4.485   5.003   4.463
 7032SOL    HW121995   4.580   5.027   4.485
 7032SOL    HW221996   4.439   4.972   4.546
 7033SOL     OW21997   1.740   1.563   5.657
 7033SOL    HW121998   1.758   1.642   5.715
 7033SOL    HW221999   1.700   1.490   5.713
 7034SOL     OW22000   6.326   1.289   2.460
 7034SOL    HW122001   6.342   1.376   2.505
 7034SOL    HW222002   6.405   1.264   2.404
 7035SOL     OW22003   2.783   1.742   1.728
 7035SOL    HW122004   2.757   1.838   1.724
 7035SOL    HW222005   2.783   1.711   1.823
 7036SOL     OW22006   5.958   1.482   1.861
 7036SOL    HW122007   5.964   1.495   1.762
 7036SOL    HW222008   6.022   1.544   1.907
 7037SOL     OW22009   1.615   0.321   6.304
 7037SOL    HW122010   1.658   0.306   6.215
 7037SOL    HW222011   1.669   0.275   6.375
 7038SOL     OW22012   0.680   4.545   0.693
 7038SOL    HW122013   0.626   4.593   0.624
 7038SOL    HW222014   0.777   4.548   0.669
 7039SOL     OW22015   6.949   0.140   1.596
 7039SOL    HW122016   6.914   0.129   1.503
 7039SOL    HW222017   6.985   0.053   1.628
 7040SOL     OW22018   5.748   2.200   5.001
 7040SOL    HW122019   5.781   2.118   4.956
 7040SOL    HW222020   5.752   2.188   5.100
 7041SOL     OW22021   1.241   0.364   3.777
 7041SOL    HW122022   1.279   0.387   3.867
 7041SOL    HW222023   1.313   0.325   3.720
 7042SOL     OW22024   5.930   6.270   5.550
 7042SOL    HW122025   5.969   6.185   5.515
 7042SOL    HW222026   6.002   6.339   5.557
 7043SOL     OW22027   1.867   5.838   1.183
 7043SOL    HW122028   1.911   5.916   1.226
 7043SOL    HW222029   1.831   5.864   1.093
 7044SOL     OW22030   4.621   5.828   5.063
 7044SOL    HW122031   4.641   5.753   5.000
 7044SOL    HW222032   4.534   5.811   5.109
 7045SOL     OW22033   5.927   5.958   1.782
 7045SOL    HW122034   5.969   5.872   1.811
 7045SOL    HW222035   5.828   5.947   1.779
 7046SOL     OW22036   2.228   1.781   3.391
 7046SOL    HW122037   2.322   1.797   3.420
 7046SOL    HW222038   2.220   1.795   3.292
 7047SOL     OW22039   1.038   6.832   0.871
 7047SOL    HW122040   0.962   6.897   0.873
 7047SOL    HW222041   1.076   6.822   0.963
 7048SOL     OW22042   0.623   6.419   3.726
 7048SOL    HW122043   0.569   6.481   3.784
 7048SOL    HW222044   0.703   6.467   3.690
 7049SOL     OW22045   3.657   1.836   4.523
 7049SOL    HW122046   3.582   1.834   4.590
 7049SOL    HW222047   3.663   1.928   4.483
 7050SOL     OW22048   3.943   4.162   0.480
 7050SOL    HW122049   3.947   4.064   0.463
 7050SOL    HW222050   3.986   4.211   0.404
 7051SOL     OW22051   1.214   2.103   1.786
 7051SOL    HW122052   1.307   2.067   1.786
 7051SOL    HW222053   1.156   2.046   1.728
 7052SOL     OW22054   4.489   2.242   2.814
 7052SOL    HW122055   4.445   2.212   2.729
 7052SOL    HW222056   4.421   2.240   2.888
 7053SOL     OW22057   1.296   4.632   3.484
 7053SOL    HW122058   1.329   4.721   3.514
 7053SOL    HW222059   1.269   4.578   3.564
 7054SOL     OW22060   4.902   6.798   6.737
 7054SOL    HW122061   4.948   6.750   6.811
 7054SOL    HW222062   4.946   6.887   6.722
 7055SOL     OW22063   2.451   0.419   0.577
 7055SOL    HW122064   2.529   0.381   0.526
 7055SOL    HW222065   2.470   0.514   0.599
 7056SOL     OW22066   6.999   5.335   1.013
 7056SOL    HW122067   6.911   5.369   0.978
 7056SOL    HW222068   0.032   5.412   1.050
 7057SOL     OW22069   3.208   5.695   4.799
 7057SOL    HW122070   3.290   5.717   4.746
 7057SOL    HW222071   3.233   5.633   4.873
 7058SOL     OW22072   6.494   1.792   6.298
 7058SOL    HW122073   6.456   1.718   6.242
 7058SOL    HW222074   6.424   1.863   6.310
 7059SOL     OW22075   2.140   0.135   5.207
 7059SOL    HW122076   2.091   0.158   5.291
 7059SOL    HW222077   2.140   0.036   5.195
 7060SOL     OW22078   3.334   2.443   1.713
 7060SOL    HW122079   3.409   2.446   1.647
 7060SOL    HW222080   3.318   2.535   1.749
 7061SOL     OW22081   1.700   0.887   1.594
 7061SOL    HW122082   1.722   0.878   1.497
 7061SOL    HW222083   1.723   0.979   1.625
 7062SOL     OW22084   3.204   0.765   4.611
 7062SOL    HW122085   3.137   0.692   4.600
 7062SOL    HW222086   3.240   0.792   4.521
 7063SOL     OW22087   0.300   1.568   1.599
 7063SOL    HW122088   0.360   1.599   1.672
 7063SOL    HW222089   0.205   1.586   1.624
 7064SOL     OW22090   3.044   1.366   5.480
 7064SOL    HW122091   2.995   1.446   5.445
 7064SOL    HW222092   3.103   1.330   5.408
 7065SOL     OW22093   3.676   6.153   5.021
 7065SOL    HW122094   3.716   6.066   4.991
 7065SOL    HW222095   3.704   6.226   4.958
 7066SOL     OW22096   3.506   0.366   1.305
 7066SOL    HW122097   3.451   0.284   1.290
 7066SOL    HW222098   3.448   0.439   1.341
 7067SOL     OW22099   2.377   4.076   6.186
 7067SOL    HW122100   2.334   4.047   6.272
 7067SOL    HW222101   2.438   4.005   6.153
 7068SOL     OW22102   5.137   4.336   4.510
 7068SOL    HW122103   5.053   4.282   4.515
 7068SOL    HW222104   5.212   4.279   4.479
 7069SOL     OW22105   5.082   0.802   5.794
 7069SOL    HW122106   5.020   0.834   5.723
 7069SOL    HW222107   5.154   0.746   5.753
 7070SOL     OW22108   0.510   0.748   5.677
 7070SOL    HW122109   0.435   0.695   5.718
 7070SOL    HW222110   0.524   0.831   5.731
 7071SOL     OW22111   4.447   6.267   6.839
 7071SOL    HW122112   4.440   6.336   6.911
 7071SOL    HW222113   4.398   6.299   6.758
 7072SOL     OW22114   0.903   3.772   6.361
 7072SOL    HW122115   0.843   3.848   6.335
 7072SOL    HW222116   0.995   3.789   6.325
 7073SOL     OW22117   4.698   1.097   3.570
 7073SOL    HW122118   4.620   1.070   3.513
 7073SOL    HW222119   4.769   1.136   3.512
 7074SOL     OW22120   5.815   4.177   2.357
 7074SOL    HW122121   5.900   4.223   2.383
 7074SOL    HW222122   5.737   4.231   2.389
 7075SOL     OW22123   2.479   5.412   2.820
 7075SOL    HW122124   2.414   5.452   2.883
 7075SOL    HW222125   2.571   5.447   2.839
 7076SOL     OW22126   5.643   1.620   1.279
 7076SOL    HW122127   5.706   1.576   1.215
 7076SOL    HW222128   5.660   1.719   1.280
 7077SOL     OW22129   3.487   6.253   1.325
 7077SOL    HW122130   3.517   6.205   1.242
 7077SOL    HW222131   3.516   6.349   1.320
 7078SOL     OW22132   6.900   1.049   6.288
 7078SOL    HW122133   6.895   1.023   6.192
 7078SOL    HW222134   6.823   1.109   6.311
 7079SOL     OW22135   1.982   5.576   4.581
 7079SOL    HW122136   1.984   5.585   4.681
 7079SOL    HW222137   2.010   5.483   4.556
 7080SOL     OW22138   4.202   1.427   6.275
 7080SOL    HW122139   4.241   1.367   6.345
 7080SOL    HW222140   4.273   1.488   6.239
 7081SOL     OW22141   2.021   6.523   0.354
 7081SOL    HW122142   2.057   6.529   0.261
 7081SOL    HW222143   2.019   6.614   0.395
 7082SOL     OW22144   0.718   3.530   2.099
 7082SOL    HW122145   0.665   3.570   2.174
 7082SOL    HW222146   0.698   3.579   2.014
 7083SOL     OW22147   5.022   3.026   3.138
 7083SOL    HW122148   4.967   3.020   3.221
 7083SOL    HW222149   5.083   2.947   3.133
 7084SOL     OW22150   0.974   5.114   0.601
 7084SOL    HW122151   0.930   5.169   0.530
 7084SOL    HW222152   0.903   5.071   0.658
 7085SOL     OW22153   0.466   3.952   2.449
 7085SOL    HW122154   0.387   4.012   2.465
 7085SOL    HW222155   0.464   3.919   2.354
 7086SOL     OW22156   5.053   0.745   3.418
 7086SOL    HW122157   5.049   0.845   3.420
 7086SOL    HW222158   5.141   0.716   3.379
 7087SOL     OW22159   5.103   2.265   3.687
 7087SOL    HW122160   5.133   2.310   3.602
 7087SOL    HW222161   5.184   2.242   3.742
 7088SOL     OW22162   5.669   2.574   5.114
 7088SOL    HW122163   5.617   2.512   5.055
 7088SOL    HW222164   5.606   2.635   5.162
 7089SOL     OW22165   2.692   5.535   0.862
 7089SOL    HW122166   2.753   5.554   0.786
 7089SOL    HW222167   2.668   5.438   0.863
 7090SOL     OW22168   4.710   2.797   1.050
 7090SOL    HW122169   4.672   2.842   1.131
 7090SOL    HW222170   4.695   2.699   1.055
 7091SOL     OW22171   6.122   6.689   0.215
 7091SOL    HW122172   6.170   6.608   0.250
 7091SOL    HW222173   6.139   6.766   0.277
 7092SOL     OW22174   4.070   0.247   6.678
 7092SOL    HW122175   4.090   0.338   6.715
 7092SOL    HW222176   4.153   0.207   6.640
 7093SOL     OW22177   3.668   3.526   0.437
 7093SOL    HW122178   3.573   3.517   0.466
 7093SOL    HW222179   3.674   3.523   0.337
 7094SOL     OW22180   4.814   1.198   5.480
 7094SOL    HW122181   4.825   1.287   5.525
 7094SOL    HW222182   4.891   1.180   5.420
 7095SOL     OW22183   2.642   4.910   4.132
 7095SOL    HW122184   2.653   4.917   4.033
 7095SOL    HW222185   2.732   4.897   4.174
 7096SOL     OW22186   6.563   6.444   0.640
 7096SOL    HW122187   6.622   6.521   0.665
 7096SOL    HW222188   6.611   6.358   0.657
 7097SOL     OW22189   5.180   1.551   2.466
 7097SOL    HW122190   5.190   1.457   2.499
 7097SOL    HW222191   5.202   1.555   2.369
 7098SOL     OW22192   0.699   1.202   2.869
 7098SOL    HW122193   0.635   1.206   2.792
 7098SOL    HW222194   0.681   1.278   2.931
 7099SOL     OW22195   3.458   2.082   4.474
 7099SOL    HW122196   3.529   2.151   4.488
 7099SOL    HW222197   3.368   2.126   4.477
 7100SOL     OW22198   0.218   4.305   1.331
 7100SOL    HW122199   0.151   4.339   1.397
 7100SOL    HW222200   0.233   4.375   1.261
 7101SOL     OW22201   2.708   5.833   4.365
 7101SOL    HW122202   2.682   5.742   4.333
 7101SOL    HW222203   2.785   5.826   4.428
 7102SOL     OW22204   5.661   1.368   3.069
 7102SOL    HW122205   5.568   1.402   3.053
 7102SOL    HW222206   5.725   1.416   3.009
 7103SOL     OW22207   5.371   3.852   4.023
 7103SOL    HW122208   5.431   3.785   4.067
 7103SOL    HW222209   5.382   3.941   4.066
 7104SOL     OW22210   5.189   2.864   4.512
 7104SOL    HW122211   5.124   2.940   4.516
 7104SOL    HW222212   5.194   2.821   4.602
 7105SOL     OW22213   3.676   4.027   2.702
 7105SOL    HW122214   3.769   3.993   2.691
 7105SOL    HW222215   3.644   4.006   2.795
 7106SOL     OW22216   2.806   1.917   2.145
 7106SOL    HW122217   2.850   1.967   2.071
 7106SOL    HW222218   2.707   1.928   2.138
 7107SOL     OW22219   3.802   1.442   6.626
 7107SOL    HW122220   3.727   1.399   6.676
 7107SOL    HW222221   3.863   1.371   6.591
 7108SOL     OW22222   3.441   0.402   1.859
 7108SOL    HW122223   3.379   0.363   1.928
 7108SOL    HW222224   3.533   0.412   1.898
 7109SOL     OW22225   3.293   5.873   5.910
 7109SOL    HW122226   3.222   5.812   5.943
 7109SOL    HW222227   3.348   5.826   5.842
 7110SOL     OW22228   2.517   6.020   5.175
 7110SOL    HW122229   2.571   6.059   5.100
 7110SOL    HW222230   2.428   6.065   5.179
 7111SOL     OW22231   6.768   1.142   4.883
 7111SOL    HW122232   6.833   1.083   4.836
 7111SOL    HW222233   6.701   1.086   4.932
 7112SOL     OW22234   0.293   5.163   5.337
 7112SOL    HW122235   0.330   5.113   5.416
 7112SOL    HW222236   0.296   5.261   5.355
 7113SOL     OW22237   3.577   6.736   5.021
 7113SOL    HW122238   3.560   6.829   4.990
 7113SOL    HW222239   3.490   6.691   5.041
 7114SOL     OW22240   5.982   3.874   1.466
 7114SOL    HW122241   5.928   3.806   1.416
 7114SOL    HW222242   5.940   3.964   1.455
 7115SOL     OW22243   4.806   3.070   6.291
 7115SOL    HW122244   4.904   3.065   6.269
 7115SOL    HW222245   4.760   2.988   6.257
 7116SOL     OW22246   6.573   4.317   5.030
 7116SOL    HW122247   6.650   4.294   4.970
 7116SOL    HW222248   6.557   4.416   5.026
 7117SOL     OW22249   4.831   6.919   2.940
 7117SOL    HW122250   4.732   6.927   2.927
 7117SOL    HW222251   4.877   6.988   2.885
 7118SOL     OW22252   4.568   4.439   5.999
 7118SOL    HW122253   4.641   4.416   6.062
 7118SOL    HW222254   4.590   4.404   5.908
 7119SOL     OW22255   3.013   6.507   4.915
 7119SOL    HW122256   2.983   6.416   4.888
 7119SOL    HW222257   2.982   6.526   5.009
 7120SOL     OW22258   4.197   1.416   1.109
 7120SOL    HW122259   4.099   1.438   1.100
 7120SOL    HW222260   4.211   1.318   1.097
 7121SOL     OW22261   0.977   6.256   2.072
 7121SOL    HW122262   1.038   6.220   2.002
 7121SOL    HW222263   0.965   6.188   2.144
 7122SOL     OW22264   4.060   1.944   6.765
 7122SOL    HW122265   4.038   1.931   6.668
 7122SOL    HW222266   4.094   2.037   6.779
 7123SOL     OW22267   5.089   4.783   5.975
 7123SOL    HW122268   5.073   4.697   5.925
 7123SOL    HW222269   5.135   4.848   5.915
 7124SOL     OW22270   2.789   3.006   0.559
 7124SOL    HW122271   2.848   2.982   0.482
 7124SOL    HW222272   2.756   2.922   0.603
 7125SOL     OW22273   1.042   6.523   2.020
 7125SOL    HW122274   1.028   6.427   2.041
 7125SOL    HW222275   1.031   6.538   1.922
 7126SOL     OW22276   4.196   4.623   1.076
 7126SOL    HW122277   4.100   4.609   1.052
 7126SOL    HW222278   4.231   4.542   1.124
 7127SOL     OW22279   2.750   5.871   6.080
 7127SOL    HW122280   2.798   5.784   6.073
 7127SOL    HW222281   2.810   5.939   6.123
 7128SOL     OW22282   3.486   4.193   0.056
 7128SOL    HW122283   3.450   4.107   0.092
 7128SOL    HW222284   3.581   4.204   0.085
 7129SOL     OW22285   0.038   0.293   6.845
 7129SOL    HW122286   7.005   0.364   6.891
 7129SOL    HW222287   0.135   0.306   6.865
 7130SOL     OW22288   3.826   0.542   4.085
 7130SOL    HW122289   3.729   0.548   4.110
 7130SOL    HW222290   3.878   0.612   4.133
 7131SOL     OW22291   2.094   1.400   2.052
 7131SOL    HW122292   2.169   1.389   1.986
 7131SOL    HW222293   2.010   1.422   2.003
 7132SOL     OW22294   4.765   4.423   1.938
 7132SOL    HW122295   4.704   4.355   1.980
 7132SOL    HW222296   4.750   4.512   1.980
 7133SOL     OW22297   4.753   6.255   2.724
 7133SOL    HW122298   4.824   6.205   2.674
 7133SOL    HW222299   4.663   6.226   2.691
 7134SOL     OW22300   4.498   5.362   6.913
 7134SOL    HW122301   4.594   5.379   6.890
 7134SOL    HW222302   4.465   5.433   6.975
 7135SOL     OW22303   2.060   4.308   1.347
 7135SOL    HW122304   1.987   4.297   1.281
 7135SOL    HW222305   2.095   4.402   1.344
 7136SOL     OW22306   1.202   2.710   1.816
 7136SOL    HW122307   1.215   2.743   1.910
 7136SOL    HW222308   1.290   2.686   1.777
 7137SOL     OW22309   2.922   1.228   2.492
 7137SOL    HW122310   2.949   1.292   2.564
 7137SOL    HW222311   2.990   1.230   2.419
 7138SOL     OW22312   0.282   3.292   6.888
 7138SOL    HW122313   0.361   3.354   6.881
 7138SOL    HW222314   0.233   3.310   6.973
 7139SOL     OW22315   5.786   5.905   1.235
 7139SOL    HW122316   5.752   5.835   1.172
 7139SOL    HW222317   5.837   5.861   1.309
 7140SOL     OW22318   6.904   4.941   0.232
 7140SOL    HW122319   6.942   4.872   0.293
 7140SOL    HW222320   6.814   4.911   0.199
 7141SOL     OW22321   3.577   1.174   1.291
 7141SOL    HW122322   3.504   1.170   1.222
 7141SOL    HW222323   3.545   1.228   1.369
 7142SOL     OW22324   4.918   0.125   5.300
 7142SOL    HW122325   4.871   0.065   5.236
 7142SOL    HW222326   5.003   0.157   5.259
 7143SOL     OW22327   3.303   2.543   5.939
 7143SOL    HW122328   3.226   2.589   5.983
 7143SOL    HW222329   3.377   2.609   5.924
 7144SOL     OW22330   6.935   1.046   5.561
 7144SOL    HW122331   6.867   0.979   5.593
 7144SOL    HW222332   7.009   0.998   5.514
 7145SOL     OW22333   5.924   2.337   6.268
 7145SOL    HW122334   5.979   2.346   6.351
 7145SOL    HW222335   5.936   2.418   6.210
 7146SOL     OW22336   0.397   2.072   4.777
 7146SOL    HW122337   0.344   2.156   4.765
 7146SOL    HW222338   0.344   2.007   4.831
 7147SOL     OW22339   6.804   0.298   1.095
 7147SOL    HW122340   6.874   0.355   1.051
 7147SOL    HW222341   6.714   0.336   1.078
 7148SOL     OW22342   5.862   0.052   0.852
 7148SOL    HW122343   5.773   0.098   0.861
 7148SOL    HW222344   5.878   7.015   0.933
 7149SOL     OW22345   5.392   4.146   5.860
 7149SOL    HW122346   5.425   4.190   5.777
 7149SOL    HW222347   5.468   4.099   5.906
 7150SOL     OW22348   2.916   2.362   6.763
 7150SOL    HW122349   2.990   2.308   6.722
 7150SOL    HW222350   2.949   2.406   6.846
 7151SOL     OW22351   5.290   1.405   6.991
 7151SOL    HW122352   5.301   1.322   6.937
 7151SOL    HW222353   5.356   1.474   6.960
 7152SOL     OW22354   4.684   0.210   5.428
 7152SOL    HW122355   4.713   0.243   5.518
 7152SOL    HW222356   4.764   0.187   5.374
 7153SOL     OW22357   3.509   5.806   0.808
 7153SOL    HW122358   3.514   5.763   0.899
 7153SOL    HW222359   3.479   5.901   0.818
 7154SOL     OW22360   5.123   0.829   1.829
 7154SOL    HW122361   5.049   0.889   1.801
 7154SOL    HW222362   5.091   0.767   1.900
 7155SOL     OW22363   1.879   0.274   1.227
 7155SOL    HW122364   1.907   0.327   1.147
 7155SOL    HW222365   1.926   0.308   1.308
 7156SOL     OW22366   6.436   3.747   5.987
 7156SOL    HW122367   6.380   3.682   6.039
 7156SOL    HW222368   6.521   3.702   5.959
 7157SOL     OW22369   0.302   3.828   5.783
 7157SOL    HW122370   0.288   3.908   5.725
 7157SOL    HW222371   0.344   3.755   5.729
 7158SOL     OW22372   5.273   0.112   3.726
 7158SOL    HW122373   5.173   0.110   3.730
 7158SOL    HW222374   5.305   0.054   3.651
 7159SOL     OW22375   0.562   6.504   2.878
 7159SOL    HW122376   0.600   6.550   2.799
 7159SOL    HW222377   0.546   6.408   2.857
 7160SOL     OW22378   6.140   6.814   2.460
 7160SOL    HW122379   6.153   6.837   2.556
 7160SOL    HW222380   6.058   6.860   2.424
 7161SOL     OW22381   4.121   3.464   2.197
 7161SOL    HW122382   4.201   3.524   2.203
 7161SOL    HW222383   4.053   3.505   2.136
 7162SOL     OW22384   0.141   6.214   0.782
 7162SOL    HW122385   0.211   6.171   0.839
 7162SOL    HW222386   0.110   6.299   0.824
 7163SOL     OW22387   6.545   0.398   1.051
 7163SOL    HW122388   6.477   0.327   1.068
 7163SOL    HW222389   6.516   0.484   1.093
 7164SOL     OW22390   1.475   0.726   0.080
 7164SOL    HW122391   1.494   0.786   0.002
 7164SOL    HW222392   1.433   0.642   0.048
 7165SOL     OW22393   5.087   2.053   6.807
 7165SOL    HW122394   5.030   2.092   6.735
 7165SOL    HW222395   5.039   1.977   6.850
 7166SOL     OW22396   6.990   5.546   5.216
 7166SOL    HW122397   6.920   5.475   5.223
 7166SOL    HW222398   6.953   5.633   5.246
 7167SOL     OW22399   0.277   3.116   5.633
 7167SOL    HW122400   0.347   3.183   5.659
 7167SOL    HW222401   0.186   3.154   5.653
 7168SOL     OW22402   1.312   1.194   2.439
 7168SOL    HW122403   1.325   1.228   2.532
 7168SOL    HW222404   1.394   1.213   2.385
 7169SOL     OW22405   1.673   4.463   5.771
 7169SOL    HW122406   1.702   4.393   5.705
 7169SOL    HW222407   1.585   4.502   5.742
 7170SOL     OW22408   3.894   1.476   1.160
 7170SOL    HW122409   3.864   1.475   1.256
 7170SOL    HW222410   3.897   1.382   1.126
 7171SOL     OW22411   6.800   4.420   0.918
 7171SOL    HW122412   6.740   4.389   0.992
 7171SOL    HW222413   6.782   4.367   0.836
 7172SOL     OW22414   0.491   2.295   3.543
 7172SOL    HW122415   0.586   2.304   3.573
 7172SOL    HW222416   0.482   2.332   3.450
 7173SOL     OW22417   3.886   5.259   5.070
 7173SOL    HW122418   3.793   5.236   5.101
 7173SOL    HW222419   3.938   5.297   5.147
 7174SOL     OW22420   6.430   3.986   2.181
 7174SOL    HW122421   6.496   3.918   2.147
 7174SOL    HW222422   6.418   4.058   2.113
 7175SOL     OW22423   6.294   3.278   6.116
 7175SOL    HW122424   6.390   3.304   6.107
 7175SOL    HW222425   6.257   3.253   6.026
 7176SOL     OW22426   0.477   1.032   6.528
 7176SOL    HW122427   0.492   1.131   6.531
 7176SOL    HW222428   0.504   0.997   6.439
 7177SOL     OW22429   1.351   5.906   3.303
 7177SOL    HW122430   1.425   5.973   3.312
 7177SOL    HW222431   1.288   5.915   3.380
 7178SOL     OW22432   1.420   6.323   5.411
 7178SOL    HW122433   1.449   6.406   5.458
 7178SOL    HW222434   1.350   6.277   5.465
 7179SOL     OW22435   4.514   4.798   5.902
 7179SOL    HW122436   4.594   4.783   5.959
 7179SOL    HW222437   4.439   4.832   5.958
 7180SOL     OW22438   1.492   2.939   2.075
 7180SOL    HW122439   1.591   2.947   2.066
 7180SOL    HW222440   1.452   3.030   2.086
 7181SOL     OW22441   2.589   0.779   0.196
 7181SOL    HW122442   2.551   0.849   0.137
 7181SOL    HW222443   2.689   0.776   0.185
 7182SOL     OW22444   1.790   1.582   3.236
 7182SOL    HW122445   1.818   1.668   3.193
 7182SOL    HW222446   1.727   1.533   3.175
 7183SOL     OW22447   1.364   6.983   1.571
 7183SOL    HW122448   1.292   6.922   1.604
 7183SOL    HW222449   1.380   6.968   1.474
 7184SOL     OW22450   6.713   0.592   3.827
 7184SOL    HW122451   6.766   0.672   3.798
 7184SOL    HW222452   6.631   0.623   3.876
 7185SOL     OW22453   3.950   0.381   3.899
 7185SOL    HW122454   3.987   0.442   3.829
 7185SOL    HW222455   3.897   0.434   3.965
 7186SOL     OW22456   6.524   0.903   6.218
 7186SOL    HW122457   6.570   0.978   6.266
 7186SOL    HW222458   6.501   0.831   6.283
 7187SOL     OW22459   3.804   3.293   3.933
 7187SOL    HW122460   3.769   3.329   3.846
 7187SOL    HW222461   3.893   3.248   3.917
 7188SOL     OW22462   4.543   4.511   0.604
 7188SOL    HW122463   4.508   4.429   0.558
 7188SOL    HW222464   4.578   4.575   0.536
 7189SOL     OW22465   0.006   2.230   5.868
 7189SOL    HW122466   6.952   2.224   5.935
 7189SOL    HW222467   0.068   2.304   5.893
 7190SOL     OW22468   6.253   5.510   6.802
 7190SOL    HW122469   6.341   5.499   6.848
 7190SOL    HW222470   6.261   5.582   6.733
 7191SOL     OW22471   6.586   4.730   2.181
 7191SOL    HW122472   6.540   4.650   2.219
 7191SOL    HW222473   6.655   4.702   2.115
 7192SOL     OW22474   2.564   4.017   5.360
 7192SOL    HW122475   2.510   3.981   5.285
 7192SOL    HW222476   2.574   4.116   5.350
 7193SOL     OW22477   3.651   1.778   4.016
 7193SOL    HW122478   3.655   1.761   4.114
 7193SOL    HW222479   3.732   1.828   3.987
 7194SOL     OW22480   2.901   2.388   5.931
 7194SOL    HW122481   2.964   2.316   5.903
 7194SOL    HW222482   2.908   2.466   5.869
 7195SOL     OW22483   1.119   3.440   5.886
 7195SOL    HW122484   1.192   3.413   5.948
 7195SOL    HW222485   1.121   3.382   5.804
 7196SOL     OW22486   3.179   3.881   1.497
 7196SOL    HW122487   3.229   3.957   1.457
 7196SOL    HW222488   3.122   3.838   1.427
 7197SOL     OW22489   3.498   5.030   0.043
 7197SOL    HW122490   3.422   5.095   0.035
 7197SOL    HW222491   3.581   5.072   0.006
 7198SOL     OW22492   0.956   0.515   1.659
 7198SOL    HW122493   1.010   0.467   1.590
 7198SOL    HW222494   0.950   0.459   1.741
 7199SOL     OW22495   6.235   1.090   3.135
 7199SOL    HW122496   6.172   1.014   3.152
 7199SOL    HW222497   6.311   1.058   3.078
 7200SOL     OW22498   1.075   2.810   6.876
 7200SOL    HW122499   1.087   2.902   6.840
 7200SOL    HW222500   0.980   2.780   6.862
 7201SOL     OW22501   6.035   6.016   3.888
 7201SOL    HW122502   6.022   5.922   3.858
 7201SOL    HW222503   6.132   6.035   3.897
 7202SOL     OW22504   4.716   6.801   6.077
 7202SOL    HW122505   4.800   6.755   6.049
 7202SOL    HW222506   4.678   6.852   5.999
 7203SOL     OW22507   0.616   1.986   1.162
 7203SOL    HW122508   0.535   1.954   1.210
 7203SOL    HW222509   0.592   2.008   1.067
 7204SOL     OW22510   6.156   0.888   2.333
 7204SOL    HW122511   6.124   0.862   2.424
 7204SOL    HW222512   6.114   0.974   2.306
 7205SOL     OW22513   3.360   1.661   4.404
 7205SOL    HW122514   3.290   1.652   4.333
 7205SOL    HW222515   3.330   1.614   4.487
 7206SOL     OW22516   2.062   3.396   6.704
 7206SOL    HW122517   2.100   3.343   6.779
 7206SOL    HW222518   1.992   3.342   6.657
 7207SOL     OW22519   2.056   1.460   2.998
 7207SOL    HW122520   2.093   1.473   3.090
 7207SOL    HW222521   1.959   1.485   2.997
 7208SOL     OW22522   4.117   0.793   4.014
 7208SOL    HW122523   4.141   0.887   3.992
 7208SOL    HW222524   4.042   0.763   3.955
 7209SOL     OW22525   3.571   1.072   1.916
 7209SOL    HW122526   3.671   1.069   1.920
 7209SOL    HW222527   3.540   1.167   1.919
 7210SOL     OW22528   3.624   1.301   3.934
 7210SOL    HW122529   3.635   1.320   3.836
 7210SOL    HW222530   3.689   1.356   3.986
 7211SOL     OW22531   4.095   6.309   5.879
 7211SOL    HW122532   4.175   6.269   5.836
 7211SOL    HW222533   4.069   6.255   5.960
 7212SOL     OW22534   0.954   5.499   5.382
 7212SOL    HW122535   0.970   5.518   5.478
 7212SOL    HW222536   1.041   5.478   5.337
 7213SOL     OW22537   4.203   2.655   0.187
 7213SOL    HW122538   4.279   2.602   0.152
 7213SOL    HW222539   4.217   2.752   0.166
 7214SOL     OW22540   6.078   0.898   5.959
 7214SOL    HW122541   6.028   0.911   6.045
 7214SOL    HW222542   6.174   0.920   5.973
 7215SOL     OW22543   6.728   1.634   2.374
 7215SOL    HW122544   6.698   1.632   2.278
 7215SOL    HW222545   6.825   1.609   2.378
 7216SOL     OW22546   5.175   6.763   3.658
 7216SOL    HW122547   5.172   6.796   3.564
 7216SOL    HW222548   5.115   6.818   3.715
 7217SOL     OW22549   1.377   3.136   3.428
 7217SOL    HW122550   1.305   3.113   3.493
 7217SOL    HW222551   1.393   3.059   3.366
 7218SOL     OW22552   6.409   2.361   5.222
 7218SOL    HW122553   6.496   2.314   5.206
 7218SOL    HW222554   6.372   2.395   5.136
 7219SOL     OW22555   2.922   6.139   1.901
 7219SOL    HW122556   2.956   6.112   1.810
 7219SOL    HW222557   2.823   6.148   1.898
 7220SOL     OW22558   6.285   4.074   3.485
 7220SOL    HW122559   6.342   4.085   3.566
 7220SOL    HW222560   6.295   4.154   3.426
 7221SOL     OW22561   4.197   5.121   3.399
 7221SOL    HW122562   4.224   5.211   3.363
 7221SOL    HW222563   4.186   5.127   3.498
 7222SOL     OW22564   6.958   6.337   3.977
 7222SOL    HW122565   6.982   6.394   3.898
 7222SOL    HW222566   6.859   6.332   3.985
 7223SOL     OW22567   0.018   4.743   1.700
 7223SOL    HW122568   0.004   4.828   1.752
 7223SOL    HW222569   6.963   4.680   1.718
 7224SOL     OW22570   4.366   2.165   2.595
 7224SOL    HW122571   4.418   2.107   2.533
 7224SOL    HW222572   4.290   2.207   2.546
 7225SOL     OW22573   0.964   6.166   0.252
 7225SOL    HW122574   0.889   6.124   0.201
 7225SOL    HW222575   0.931   6.199   0.340
 7226SOL     OW22576   6.254   6.471   0.322
 7226SOL    HW122577   6.212   6.380   0.314
 7226SOL    HW222578   6.301   6.478   0.410
 7227SOL     OW22579   1.805   1.552   2.783
 7227SOL    HW122580   1.802   1.618   2.707
 7227SOL    HW222581   1.853   1.469   2.754
 7228SOL     OW22582   5.583   3.045   2.603
 7228SOL    HW122583   5.640   3.123   2.579
 7228SOL    HW222584   5.642   2.966   2.623
 7229SOL     OW22585   5.719   0.709   4.899
 7229SOL    HW122586   5.679   0.799   4.884
 7229SOL    HW222587   5.805   0.702   4.848
 7230SOL     OW22588   2.368   5.429   4.591
 7230SOL    HW122589   2.389   5.334   4.567
 7230SOL    HW222590   2.306   5.467   4.522
 7231SOL     OW22591   3.984   3.403   5.725
 7231SOL    HW122592   4.057   3.336   5.709
 7231SOL    HW222593   3.974   3.461   5.645
 7232SOL     OW22594   4.679   6.047   3.581
 7232SOL    HW122595   4.684   5.948   3.593
 7232SOL    HW222596   4.589   6.072   3.547
 7233SOL     OW22597   0.751   1.130   5.645
 7233SOL    HW122598   0.695   1.147   5.564
 7233SOL    HW222599   0.842   1.168   5.631
 7234SOL     OW22600   5.875   4.632   3.948
 7234SOL    HW122601   5.816   4.636   3.867
 7234SOL    HW222602   5.859   4.547   3.998
 7235SOL     OW22603   6.237   0.209   1.853
 7235SOL    HW122604   6.171   0.282   1.870
 7235SOL    HW222605   6.222   0.172   1.761
 7236SOL     OW22606   1.626   4.007   2.562
 7236SOL    HW122607   1.636   3.933   2.629
 7236SOL    HW222608   1.693   3.994   2.489
 7237SOL     OW22609   5.784   1.047   0.460
 7237SOL    HW122610   5.872   1.042   0.412
 7237SOL    HW222611   5.717   1.094   0.402
 7238SOL     OW22612   3.911   3.740   0.223
 7238SOL    HW122613   3.972   3.699   0.156
 7238SOL    HW222614   3.825   3.689   0.226
 7239SOL     OW22615   5.636   2.473   2.252
 7239SOL    HW122616   5.632   2.535   2.331
 7239SOL    HW222617   5.568   2.401   2.264
 7240SOL     OW22618   0.055   1.656   0.539
 7240SOL    HW122619   0.136   1.642   0.483
 7240SOL    HW222620   6.994   1.621   0.491
 7241SOL     OW22621   2.170   0.638   2.452
 7241SOL    HW122622   2.235   0.682   2.390
 7241SOL    HW222623   2.078   0.668   2.431
 7242SOL     OW22624   6.715   4.525   5.317
 7242SOL    HW122625   6.674   4.530   5.226
 7242SOL    HW222626   6.781   4.450   5.320
 7243SOL     OW22627   5.448   4.621   5.954
 7243SOL    HW122628   5.430   4.677   6.035
 7243SOL    HW222629   5.451   4.525   5.981
 7244SOL     OW22630   0.337   5.834   0.038
 7244SOL    HW122631   0.269   5.809   0.107
 7244SOL    HW222632   0.299   5.820   6.967
 7245SOL     OW22633   1.625   2.893   0.235
 7245SOL    HW122634   1.606   2.922   0.329
 7245SOL    HW222635   1.675   2.807   0.236
 7246SOL     OW22636   4.014   0.140   3.161
 7246SOL    HW122637   4.099   0.109   3.203
 7246SOL    HW222638   4.022   0.136   3.062
 7247SOL     OW22639   2.919   3.751   4.106
 7247SOL    HW122640   2.866   3.667   4.118
 7247SOL    HW222641   3.000   3.731   4.050
 7248SOL     OW22642   2.843   1.441   5.926
 7248SOL    HW122643   2.748   1.411   5.930
 7248SOL    HW222644   2.897   1.373   5.877
 7249SOL     OW22645   4.117   5.107   2.557
 7249SOL    HW122646   4.051   5.035   2.537
 7249SOL    HW222647   4.208   5.080   2.525
 7250SOL     OW22648   5.855   5.323   5.378
 7250SOL    HW122649   5.929   5.273   5.332
 7250SOL    HW222650   5.772   5.320   5.323
 7251SOL     OW22651   0.765   5.125   4.913
 7251SOL    HW122652   0.785   5.220   4.937
 7251SOL    HW222653   0.677   5.098   4.952
 7252SOL     OW22654   4.136   3.481   2.489
 7252SOL    HW122655   4.140   3.381   2.484
 7252SOL    HW222656   4.127   3.519   2.397
 7253SOL     OW22657   2.775   5.182   4.432
 7253SOL    HW122658   2.786   5.268   4.482
 7253SOL    HW222659   2.821   5.108   4.481
 7254SOL     OW22660   6.254   3.365   4.119
 7254SOL    HW122661   6.242   3.266   4.126
 7254SOL    HW222662   6.284   3.402   4.207
 7255SOL     OW22663   4.729   3.845   0.190
 7255SOL    HW122664   4.718   3.934   0.235
 7255SOL    HW222665   4.747   3.860   0.093
 7256SOL     OW22666   3.199   0.306   4.729
 7256SOL    HW122667   3.140   0.354   4.793
 7256SOL    HW222668   3.294   0.314   4.758
 7257SOL     OW22669   1.006   1.650   4.567
 7257SOL    HW122670   0.952   1.572   4.535
 7257SOL    HW222671   0.947   1.730   4.579
 7258SOL     OW22672   5.757   3.213   2.450
 7258SOL    HW122673   5.854   3.223   2.473
 7258SOL    HW222674   5.721   3.301   2.418
 7259SOL     OW22675   1.261   4.210   2.647
 7259SOL    HW122676   1.309   4.198   2.734
 7259SOL    HW222677   1.326   4.199   2.571
 7260SOL     OW22678   5.624   3.222   0.757
 7260SOL    HW122679   5.548   3.267   0.805
 7260SOL    HW222680   5.599   3.209   0.661
 7261SOL     OW22681   6.740   4.581   6.864
 7261SOL    HW122682   6.701   4.495   6.896
 7261SOL    HW222683   6.826   4.599   6.911
 7262SOL     OW22684   5.300   1.348   5.131
 7262SOL    HW122685   5.373   1.301   5.181
 7262SOL    HW222686   5.252   1.283   5.072
 7263SOL     OW22687   6.865   5.489   5.901
 7263SOL    HW122688   6.924   5.454   5.975
 7263SOL    HW222689   6.897   5.579   5.873
 7264SOL     OW22690   5.534   1.235   1.418
 7264SOL    HW122691   5.609   1.208   1.478
 7264SOL    HW222692   5.455   1.177   1.436
 7265SOL     OW22693   4.153   0.697   5.861
 7265SOL    HW122694   4.075   0.636   5.876
 7265SOL    HW222695   4.164   0.714   5.763
 7266SOL     OW22696   0.431   0.946   3.138
 7266SOL    HW122697   0.526   0.965   3.162
 7266SOL    HW222698   0.415   0.848   3.134
 7267SOL     OW22699   6.406   4.140   4.508
 7267SOL    HW122700   6.372   4.107   4.420
 7267SOL    HW222701   6.496   4.182   4.496
 7268SOL     OW22702   6.198   6.521   4.485
 7268SOL    HW122703   6.144   6.591   4.533
 7268SOL    HW222704   6.139   6.443   4.462
 7269SOL     OW22705   2.484   4.484   4.558
 7269SOL    HW122706   2.552   4.531   4.613
 7269SOL    HW222707   2.432   4.420   4.615
 7270SOL     OW22708   0.617   0.829   5.016
 7270SOL    HW122709   0.558   0.889   4.961
 7270SOL    HW222710   0.679   0.778   4.955
 7271SOL     OW22711   0.545   4.621   3.144
 7271SOL    HW122712   0.464   4.661   3.188
 7271SOL    HW222713   0.598   4.571   3.212
 7272SOL     OW22714   6.297   4.074   1.646
 7272SOL    HW122715   6.323   3.977   1.642
 7272SOL    HW222716   6.311   4.109   1.739
 7273SOL     OW22717   0.702   2.081   5.663
 7273SOL    HW122718   0.785   2.131   5.639
 7273SOL    HW222719   0.663   2.121   5.746
 7274SOL     OW22720   0.508   4.777   6.158
 7274SOL    HW122721   0.520   4.875   6.173
 7274SOL    HW222722   0.495   4.760   6.060
 7275SOL     OW22723   0.760   6.089   3.471
 7275SOL    HW122724   0.675   6.066   3.424
 7275SOL    HW222725   0.835   6.096   3.405
 7276SOL     OW22726   5.182   6.106   3.659
 7276SOL    HW122727   5.249   6.081   3.729
 7276SOL    HW222728   5.103   6.045   3.666
 7277SOL     OW22729   4.652   0.263   0.125
 7277SOL    HW122730   4.670   0.175   0.081
 7277SOL    HW222731   4.658   0.336   0.057
 7278SOL     OW22732   3.231   2.944   2.332
 7278SOL    HW122733   3.253   3.042   2.328
 7278SOL    HW222734   3.292   2.894   2.272
 7279SOL     OW22735   3.078   6.652   6.460
 7279SOL    HW122736   2.984   6.641   6.427
 7279SOL    HW222737   3.094   6.747   6.484
 7280SOL     OW22738   4.575   1.678   5.836
 7280SOL    HW122739   4.591   1.662   5.739
 7280SOL    HW222740   4.485   1.642   5.861
 7281SOL     OW22741   5.102   0.844   6.251
 7281SOL    HW122742   5.171   0.784   6.210
 7281SOL    HW222743   5.049   0.888   6.178
 7282SOL     OW22744   5.282   5.615   2.080
 7282SOL    HW122745   5.248   5.689   2.022
 7282SOL    HW222746   5.336   5.653   2.155
 7283SOL     OW22747   2.040   0.773   4.235
 7283SOL    HW122748   2.064   0.690   4.185
 7283SOL    HW222749   2.068   0.853   4.182
 7284SOL     OW22750   0.765   2.398   5.091
 7284SOL    HW122751   0.821   2.452   5.154
 7284SOL    HW222752   0.823   2.329   5.047
 7285SOL     OW22753   5.525   4.960   1.338
 7285SOL    HW122754   5.589   4.893   1.376
 7285SOL    HW222755   5.522   4.950   1.238
 7286SOL     OW22756   2.263   4.378   1.078
 7286SOL    HW122757   2.230   4.289   1.046
 7286SOL    HW222758   2.291   4.371   1.173
 7287SOL     OW22759   5.760   1.463   5.935
 7287SOL    HW122760   5.738   1.382   5.990
 7287SOL    HW222761   5.831   1.516   5.982
 7288SOL     OW22762   2.826   6.781   6.669
 7288SOL    HW122763   2.744   6.831   6.699
 7288SOL    HW222764   2.892   6.845   6.631
 7289SOL     OW22765   5.572   2.055   3.910
 7289SOL    HW122766   5.510   2.026   3.984
 7289SOL    HW222767   5.652   1.995   3.909
 7290SOL     OW22768   2.918   4.788   4.229
 7290SOL    HW122769   2.876   4.700   4.205
 7290SOL    HW222770   2.871   4.828   4.307
 7291SOL     OW22771   3.219   5.295   1.918
 7291SOL    HW122772   3.144   5.234   1.895
 7291SOL    HW222773   3.292   5.243   1.962
 7292SOL     OW22774   3.413   6.858   4.747
 7292SOL    HW122775   3.468   6.797   4.689
 7292SOL    HW222776   3.380   6.935   4.692
 7293SOL     OW22777   1.872   2.253   6.227
 7293SOL    HW122778   1.873   2.291   6.319
 7293SOL    HW222779   1.839   2.158   6.231
 7294SOL     OW22780   3.944   5.857   0.652
 7294SOL    HW122781   4.025   5.802   0.673
 7294SOL    HW222782   3.968   5.926   0.584
 7295SOL     OW22783   5.668   0.266   1.572
 7295SOL    HW122784   5.601   0.194   1.557
 7295SOL    HW222785   5.673   0.287   1.670
 7296SOL     OW22786   4.309   5.131   1.968
 7296SOL    HW122787   4.280   5.125   1.872
 7296SOL    HW222788   4.364   5.213   1.981
 7297SOL     OW22789   5.143   6.701   2.380
 7297SOL    HW122790   5.175   6.656   2.464
 7297SOL    HW222791   5.222   6.719   2.321
 7298SOL     OW22792   6.570   3.809   3.933
 7298SOL    HW122793   6.471   3.809   3.945
 7298SOL    HW222794   6.601   3.717   3.910
 7299SOL     OW22795   5.279   3.409   6.492
 7299SOL    HW122796   5.342   3.486   6.478
 7299SOL    HW222797   5.258   3.367   6.404
 7300SOL     OW22798   4.718   5.128   1.178
 7300SOL    HW122799   4.652   5.053   1.174
 7300SOL    HW222800   4.668   5.215   1.180
 7301SOL     OW22801   6.871   0.926   6.035
 7301SOL    HW122802   6.968   0.934   6.013
 7301SOL    HW222803   6.842   0.831   6.023
 7302SOL     OW22804   5.302   0.681   6.341
 7302SOL    HW122805   5.217   0.681   6.394
 7302SOL    HW222806   5.351   0.767   6.355
 7303SOL     OW22807   3.351   1.250   0.695
 7303SOL    HW122808   3.438   1.215   0.730
 7303SOL    HW222809   3.277   1.190   0.723
 7304SOL     OW22810   3.693   3.967   5.000
 7304SOL    HW122811   3.632   3.900   5.043
 7304SOL    HW222812   3.769   3.987   5.062
 7305SOL     OW22813   5.726   1.275   0.189
 7305SOL    HW122814   5.681   1.363   0.177
 7305SOL    HW222815   5.665   1.201   0.159
 7306SOL     OW22816   4.933   5.081   1.569
 7306SOL    HW122817   4.870   5.004   1.574
 7306SOL    HW222818   5.009   5.058   1.509
 7307SOL     OW22819   4.169   6.595   2.713
 7307SOL    HW122820   4.084   6.543   2.705
 7307SOL    HW222821   4.175   6.661   2.639
 7308SOL     OW22822   6.315   1.761   4.767
 7308SOL    HW122823   6.296   1.727   4.675
 7308SOL    HW222824   6.303   1.686   4.833
 7309SOL     OW22825   4.436   5.640   2.308
 7309SOL    HW122826   4.423   5.556   2.361
 7309SOL    HW222827   4.352   5.695   2.310
 7310SOL     OW22828   1.611   5.436   1.558
 7310SOL    HW122829   1.576   5.404   1.646
 7310SOL    HW222830   1.699   5.392   1.540
 7311SOL     OW22831   2.780   2.284   2.246
 7311SOL    HW122832   2.856   2.290   2.180
 7311SOL    HW222833   2.817   2.265   2.337
 7312SOL     OW22834   6.884   1.775   5.740
 7312SOL    HW122835   6.867   1.728   5.654
 7312SOL    HW222836   6.927   1.864   5.722
 7313SOL     OW22837   3.816   2.477   6.996
 7313SOL    HW122838   3.745   2.530   0.024
 7313SOL    HW222839   3.789   2.381   6.995
 7314SOL     OW22840   0.766   2.921   4.275
 7314SOL    HW122841   0.803   2.830   4.259
 7314SOL    HW222842   0.728   2.957   4.190
 7315SOL     OW22843   0.031   0.460   5.490
 7315SOL    HW122844   0.054   0.558   5.484
 7315SOL    HW222845   6.977   0.447   5.556
 7316SOL     OW22846   3.742   4.087   5.583
 7316SOL    HW122847   3.709   3.993   5.590
 7316SOL    HW222848   3.689   4.147   5.643
 7317SOL     OW22849   2.886   1.382   3.632
 7317SOL    HW122850   2.937   1.382   3.718
 7317SOL    HW222851   2.868   1.476   3.603
 7318SOL     OW22852   1.416   2.056   1.482
 7318SOL    HW122853   1.433   2.068   1.579
 7318SOL    HW222854   1.317   2.054   1.465
 7319SOL     OW22855   6.850   4.132   6.401
 7319SOL    HW122856   6.877   4.136   6.497
 7319SOL    HW222857   6.779   4.063   6.389
 7320SOL     OW22858   6.529   2.485   2.066
 7320SOL    HW122859   6.555   2.462   2.160
 7320SOL    HW222860   6.548   2.582   2.049
 7321SOL     OW22861   2.986   1.565   4.527
 7321SOL    HW122862   3.083   1.542   4.530
 7321SOL    HW222863   2.936   1.505   4.589
 7322SOL     OW22864   0.293   3.316   1.814
 7322SOL    HW122865   0.277   3.231   1.865
 7322SOL    HW222866   0.390   3.339   1.819
 7323SOL     OW22867   2.203   3.817   3.037
 7323SOL    HW122868   2.263   3.859   2.970
 7323SOL    HW222869   2.238   3.835   3.129
 7324SOL     OW22870   5.262   6.002   2.130
 7324SOL    HW122871   5.186   6.032   2.187
 7324SOL    HW222872   5.347   6.045   2.162
 7325SOL     OW22873   3.137   6.493   0.353
 7325SOL    HW122874   3.157   6.448   0.266
 7325SOL    HW222875   3.222   6.507   0.404
 7326SOL     OW22876   2.961   0.072   4.464
 7326SOL    HW122877   2.950   0.034   4.372
 7326SOL    HW222878   2.890   0.140   4.481
 7327SOL     OW22879   1.521   2.520   5.154
 7327SOL    HW122880   1.603   2.529   5.097
 7327SOL    HW222881   1.457   2.457   5.110
 7328SOL     OW22882   2.484   6.645   6.932
 7328SOL    HW122883   2.455   6.728   6.980
 7328SOL    HW222884   2.580   6.625   6.953
 7329SOL     OW22885   4.319   3.422   1.353
 7329SOL    HW122886   4.378   3.374   1.418
 7329SOL    HW222887   4.318   3.373   1.266
 7330SOL     OW22888   4.694   1.945   0.727
 7330SOL    HW122889   4.678   1.900   0.639
 7330SOL    HW222890   4.760   2.019   0.715
 7331SOL     OW22891   5.376   1.329   1.999
 7331SOL    HW122892   5.280   1.328   2.026
 7331SOL    HW222893   5.433   1.349   2.080
 7332SOL     OW22894   3.561   5.278   1.410
 7332SOL    HW122895   3.659   5.292   1.399
 7332SOL    HW222896   3.541   5.257   1.505
 7333SOL     OW22897   0.296   4.914   2.601
 7333SOL    HW122898   0.287   4.983   2.529
 7333SOL    HW222899   0.327   4.958   2.686
 7334SOL     OW22900   3.857   6.729   4.532
 7334SOL    HW122901   3.818   6.692   4.617
 7334SOL    HW222902   3.932   6.791   4.554
 7335SOL     OW22903   1.767   2.821   2.757
 7335SOL    HW122904   1.822   2.768   2.693
 7335SOL    HW222905   1.797   2.800   2.850
 7336SOL     OW22906   1.895   6.035   4.152
 7336SOL    HW122907   1.840   6.064   4.074
 7336SOL    HW222908   1.890   5.936   4.162
 7337SOL     OW22909   5.036   2.522   2.082
 7337SOL    HW122910   5.022   2.590   2.154
 7337SOL    HW222911   5.084   2.443   2.120
 7338SOL     OW22912   6.335   3.448   0.093
 7338SOL    HW122913   6.373   3.534   0.060
 7338SOL    HW222914   6.385   3.419   0.175
 7339SOL     OW22915   1.322   5.633   4.628
 7339SOL    HW122916   1.327   5.611   4.530
 7339SOL    HW222917   1.239   5.593   4.667
 7340SOL     OW22918   1.974   0.019   6.350
 7340SOL    HW122919   2.016   0.017   6.260
 7340SOL    HW222920   2.030   6.986   6.414
 7341SOL     OW22921   6.548   2.229   0.195
 7341SOL    HW122922   6.590   2.214   0.284
 7341SOL    HW222923   6.536   2.328   0.180
 7342SOL     OW22924   0.119   6.614   2.138
 7342SOL    HW122925   0.061   6.576   2.210
 7342SOL    HW222926   0.202   6.558   2.130
 7343SOL     OW22927   5.478   3.229   0.523
 7343SOL    HW122928   5.425   3.252   0.442
 7343SOL    HW222929   5.420   3.180   0.588
 7344SOL     OW22930   1.600   6.269   6.402
 7344SOL    HW122931   1.599   6.368   6.384
 7344SOL    HW222932   1.688   6.243   6.441
 7345SOL     OW22933   3.607   5.113   6.393
 7345SOL    HW122934   3.663   5.157   6.323
 7345SOL    HW222935   3.515   5.153   6.390
 7346SOL     OW22936   4.363   4.719   2.610
 7346SOL    HW122937   4.312   4.715   2.696
 7346SOL    HW222938   4.461   4.726   2.629
 7347SOL     OW22939   6.083   1.942   6.775
 7347SOL    HW122940   6.128   1.948   6.686
 7347SOL    HW222941   6.003   1.882   6.768
 7348SOL     OW22942   6.144   4.211   0.582
 7348SOL    HW122943   6.109   4.137   0.524
 7348SOL    HW222944   6.113   4.197   0.676
 7349SOL     OW22945   3.680   1.722   2.045
 7349SOL    HW122946   3.589   1.690   2.071
 7349SOL    HW222947   3.676   1.819   2.024
 7350SOL     OW22948   3.621   0.946   4.227
 7350SOL    HW122949   3.711   0.904   4.237
 7350SOL    HW222950   3.600   1.001   4.308
 7351SOL     OW22951   2.544   4.572   3.958
 7351SOL    HW122952   2.521   4.482   3.996
 7351SOL    HW222953   2.501   4.582   3.868
 7352SOL     OW22954   5.965   3.411   4.410
 7352SOL    HW122955   6.046   3.353   4.410
 7352SOL    HW222956   5.892   3.368   4.357
 7353SOL     OW22957   6.529   0.780   5.742
 7353SOL    HW122958   6.545   0.814   5.835
 7353SOL    HW222959   6.490   0.688   5.747
 7354SOL     OW22960   0.232   1.315   3.391
 7354SOL    HW122961   0.283   1.341   3.473
 7354SOL    HW222962   0.182   1.394   3.357
 7355SOL     OW22963   2.966   1.377   0.158
 7355SOL    HW122964   2.983   1.335   0.069
 7355SOL    HW222965   2.949   1.475   0.147
 7356SOL     OW22966   4.266   4.020   6.047
 7356SOL    HW122967   4.258   3.997   6.144
 7356SOL    HW222968   4.188   3.981   5.998
 7357SOL     OW22969   4.789   5.808   2.203
 7357SOL    HW122970   4.811   5.817   2.300
 7357SOL    HW222971   4.860   5.753   2.158
 7358SOL     OW22972   5.886   0.990   3.205
 7358SOL    HW122973   5.928   0.962   3.119
 7358SOL    HW222974   5.850   0.910   3.253
 7359SOL     OW22975   4.769   0.250   1.644
 7359SOL    HW122976   4.764   0.152   1.624
 7359SOL    HW222977   4.684   0.279   1.688
 7360SOL     OW22978   3.001   3.490   4.769
 7360SOL    HW122979   3.072   3.421   4.755
 7360SOL    HW222980   3.016   3.567   4.708
 7361SOL     OW22981   6.920   0.201   3.234
 7361SOL    HW122982   6.898   0.292   3.271
 7361SOL    HW222983   7.014   0.200   3.202
 7362SOL     OW22984   3.222   5.572   0.430
 7362SOL    HW122985   3.291   5.530   0.371
 7362SOL    HW222986   3.260   5.582   0.522
 7363SOL     OW22987   3.828   0.875   0.396
 7363SOL    HW122988   3.812   0.811   0.471
 7363SOL    HW222989   3.746   0.932   0.382
 7364SOL     OW22990   5.601   6.404   1.606
 7364SOL    HW122991   5.578   6.324   1.661
 7364SOL    HW222992   5.663   6.464   1.657
 7365SOL     OW22993   5.169   3.921   2.240
 7365SOL    HW122994   5.097   3.853   2.228
 7365SOL    HW222995   5.141   4.007   2.200
 7366SOL     OW22996   1.725   0.521   3.864
 7366SOL    HW122997   1.737   0.503   3.961
 7366SOL    HW222998   1.638   0.567   3.849
 7367SOL     OW22999   3.735   1.278   0.236
 7367SOL    HW123000   3.772   1.198   0.188
 7367SOL    HW223001   3.679   1.332   0.174
 7368SOL     OW23002   3.614   3.233   3.553
 7368SOL    HW123003   3.675   3.303   3.590
 7368SOL    HW223004   3.573   3.265   3.468
 7369SOL     OW23005   4.970   2.623   0.432
 7369SOL    HW123006   5.051   2.566   0.448
 7369SOL    HW223007   4.929   2.647   0.520
 7370SOL     OW23008   1.955   1.015   4.417
 7370SOL    HW123009   2.000   0.964   4.344
 7370SOL    HW223010   2.016   1.089   4.449
 7371SOL     OW23011   4.117   1.375   3.818
 7371SOL    HW123012   4.142   1.399   3.912
 7371SOL    HW223013   4.174   1.300   3.786
 7372SOL     OW23014   5.804   1.240   5.217
 7372SOL    HW123015   5.850   1.190   5.291
 7372SOL    HW223016   5.863   1.240   5.136
 7373SOL     OW23017   6.288   3.169   4.744
 7373SOL    HW123018   6.368   3.178   4.803
 7373SOL    HW223019   6.293   3.083   4.693
 7374SOL     OW23020   6.530   2.244   5.839
 7374SOL    HW123021   6.537   2.278   5.745
 7374SOL    HW223022   6.607   2.182   5.858
 7375SOL     OW23023   1.581   3.947   1.522
 7375SOL    HW123024   1.656   3.942   1.456
 7375SOL    HW223025   1.599   4.021   1.587
 7376SOL     OW23026   0.067   3.659   0.699
 7376SOL    HW123027   0.104   3.637   0.609
 7376SOL    HW223028   0.130   3.627   0.770
 7377SOL     OW23029   2.210   6.004   1.085
 7377SOL    HW123030   2.241   6.067   1.157
 7377SOL    HW223031   2.111   5.991   1.094
 7378SOL     OW23032   1.764   5.394   4.292
 7378SOL    HW123033   1.816   5.468   4.250
 7378SOL    HW223034   1.729   5.424   4.381
 7379SOL     OW23035   4.179   1.084   2.395
 7379SOL    HW123036   4.159   1.071   2.492
 7379SOL    HW223037   4.277   1.070   2.379
 7380SOL     OW23038   5.221   3.983   1.678
 7380SOL    HW123039   5.305   3.949   1.720
 7380SOL    HW223040   5.155   3.908   1.669
 7381SOL     OW23041   3.669   0.081   1.758
 7381SOL    HW123042   3.575   0.047   1.762
 7381SOL    HW223043   3.695   0.094   1.662
 7382SOL     OW23044   6.528   1.545   5.873
 7382SOL    HW123045   6.496   1.620   5.815
 7382SOL    HW223046   6.586   1.581   5.946
 7383SOL     OW23047   1.952   0.408   0.990
 7383SOL    HW123048   1.885   0.462   0.940
 7383SOL    HW223049   2.030   0.465   1.016
 7384SOL     OW23050   6.607   6.925   0.847
 7384SOL    HW123051   6.703   6.952   0.851
 7384SOL    HW223052   6.575   6.903   0.939
 7385SOL     OW23053   6.383   4.231   2.626
 7385SOL    HW123054   6.321   4.273   2.692
 7385SOL    HW223055   6.391   4.134   2.644
 7386SOL     OW23056   5.283   3.762   0.208
 7386SOL    HW123057   5.342   3.682   0.197
 7386SOL    HW223058   5.204   3.754   0.147
 7387SOL     OW23059   6.636   5.734   4.605
 7387SOL    HW123060   6.673   5.658   4.658
 7387SOL    HW223061   6.657   5.721   4.508
 7388SOL     OW23062   2.331   4.486   2.700
 7388SOL    HW123063   2.360   4.483   2.604
 7388SOL    HW223064   2.238   4.450   2.707
 7389SOL     OW23065   6.385   2.812   0.295
 7389SOL    HW123066   6.444   2.848   0.223
 7389SOL    HW223067   6.294   2.853   0.287
 7390SOL     OW23068   2.452   2.563   3.826
 7390SOL    HW123069   2.416   2.621   3.900
 7390SOL    HW223070   2.532   2.513   3.860
 7391SOL     OW23071   3.656   3.913   2.979
 7391SOL    HW123072   3.621   3.822   2.955
 7391SOL    HW223073   3.749   3.904   3.016
 7392SOL     OW23074   2.992   6.801   6.885
 7392SOL    HW123075   3.036   6.725   6.934
 7392SOL    HW223076   2.926   6.765   6.820
 7393SOL     OW23077   5.201   5.231   3.929
 7393SOL    HW123078   5.144   5.313   3.929
 7393SOL    HW223079   5.197   5.188   3.839
 7394SOL     OW23080   2.237   1.750   5.439
 7394SOL    HW123081   2.312   1.777   5.378
 7394SOL    HW223082   2.150   1.776   5.397
 7395SOL     OW23083   2.776   6.102   0.693
 7395SOL    HW123084   2.848   6.093   0.624
 7395SOL    HW223085   2.780   6.024   0.755
 7396SOL     OW23086   1.950   5.304   2.444
 7396SOL    HW123087   1.930   5.232   2.510
 7396SOL    HW223088   1.873   5.315   2.381
 7397SOL     OW23089   6.136   4.526   4.036
 7397SOL    HW123090   6.201   4.590   4.077
 7397SOL    HW223091   6.059   4.577   3.998
 7398SOL     OW23092   3.119   4.909   2.620
 7398SOL    HW123093   3.057   4.844   2.666
 7398SOL    HW223094   3.095   4.915   2.523
 7399SOL     OW23095   5.232   1.514   6.187
 7399SOL    HW123096   5.194   1.573   6.117
 7399SOL    HW223097   5.327   1.492   6.164
 7400SOL     OW23098   4.881   3.330   6.092
 7400SOL    HW123099   4.821   3.253   6.069
 7400SOL    HW223100   4.870   3.402   6.023
 7401SOL     OW23101   1.282   2.542   4.439
 7401SOL    HW123102   1.328   2.478   4.378
 7401SOL    HW223103   1.248   2.620   4.386
 7402SOL     OW23104   3.659   5.478   4.577
 7402SOL    HW123105   3.596   5.533   4.522
 7402SOL    HW223106   3.678   5.525   4.663
 7403SOL     OW23107   1.690   4.459   4.411
 7403SOL    HW123108   1.663   4.521   4.484
 7403SOL    HW223109   1.785   4.430   4.425
 7404SOL     OW23110   3.422   3.806   0.608
 7404SOL    HW123111   3.449   3.867   0.683
 7404SOL    HW223112   3.439   3.711   0.635
 7405SOL     OW23113   3.983   6.723   5.313
 7405SOL    HW123114   4.005   6.625   5.312
 7405SOL    HW223115   3.901   6.739   5.258
 7406SOL     OW23116   0.823   2.140   4.443
 7406SOL    HW123117   0.787   2.087   4.520
 7406SOL    HW223118   0.766   2.125   4.363
 7407SOL     OW23119   0.903   5.946   5.351
 7407SOL    HW123120   0.862   6.022   5.401
 7407SOL    HW223121   0.972   5.982   5.288
 7408SOL     OW23122   4.583   5.188   5.046
 7408SOL    HW123123   4.529   5.268   5.022
 7408SOL    HW223124   4.526   5.122   5.095
 7409SOL     OW23125   0.036   3.889   1.498
 7409SOL    HW123126   0.094   3.948   1.441
 7409SOL    HW223127   6.995   3.836   1.439
 7410SOL     OW23128   6.941   0.735   0.516
 7410SOL    HW123129   6.945   0.826   0.556
 7410SOL    HW223130   6.940   0.742   0.416
 7411SOL     OW23131   2.986   1.632   5.146
 7411SOL    HW123132   3.050   1.614   5.221
 7411SOL    HW223133   2.925   1.707   5.171
 7412SOL     OW23134   3.858   7.014   0.258
 7412SOL    HW123135   3.800   0.067   0.221
 7412SOL    HW223136   3.801   6.942   0.297
 7413SOL     OW23137   4.620   0.770   3.050
 7413SOL    HW123138   4.594   0.792   2.956
 7413SOL    HW223139   4.601   0.848   3.110
 7414SOL     OW23140   2.804   1.145   3.697
 7414SOL    HW123141   2.829   1.241   3.687
 7414SOL    HW223142   2.724   1.125   3.639
 7415SOL     OW23143   3.860   6.719   6.656
 7415SOL    HW123144   3.859   6.797   6.593
 7415SOL    HW223145   3.804   6.739   6.736
 7416SOL     OW23146   1.667   0.966   1.983
 7416SOL    HW123147   1.761   0.997   1.965
 7416SOL    HW223148   1.665   0.915   2.070
 7417SOL     OW23149   0.725   0.705   2.570
 7417SOL    HW123150   0.749   0.780   2.631
 7417SOL    HW223151   0.653   0.649   2.612
 7418SOL     OW23152   1.166   3.994   6.086
 7418SOL    HW123153   1.072   3.991   6.119
 7418SOL    HW223154   1.228   3.962   6.158
 7419SOL     OW23155   7.009   3.569   4.041
 7419SOL    HW123156   0.026   3.662   4.041
 7419SOL    HW223157   0.013   3.525   4.128
 7420SOL     OW23158   6.975   6.585   0.756
 7420SOL    HW123159   6.917   6.506   0.776
 7420SOL    HW223160   6.918   6.660   0.720
 7421SOL     OW23161   5.948   3.785   1.088
 7421SOL    HW123162   5.942   3.738   1.176
 7421SOL    HW223163   6.041   3.777   1.052
 7422SOL     OW23164   5.587   2.812   2.067
 7422SOL    HW123165   5.604   2.908   2.088
 7422SOL    HW223166   5.672   2.760   2.078
 7423SOL     OW23167   4.857   2.289   5.993
 7423SOL    HW123168   4.821   2.328   6.078
 7423SOL    HW223169   4.856   2.360   5.922
 7424SOL     OW23170   6.989   2.578   3.310
 7424SOL    HW123171   6.929   2.598   3.232
 7424SOL    HW223172   0.050   2.635   3.305
 7425SOL     OW23173   5.752   1.025   0.715
 7425SOL    HW123174   5.762   1.032   0.615
 7425SOL    HW223175   5.839   1.048   0.758
 7426SOL     OW23176   3.179   2.522   5.665
 7426SOL    HW123177   3.208   2.435   5.626
 7426SOL    HW223178   3.217   2.532   5.757
 7427SOL     OW23179   3.100   0.820   3.458
 7427SOL    HW123180   3.052   0.748   3.407
 7427SOL    HW223181   3.128   0.784   3.547
 7428SOL     OW23182   3.771   6.560   4.987
 7428SOL    HW123183   3.751   6.464   4.971
 7428SOL    HW223184   3.686   6.610   5.001
 7429SOL     OW23185   0.833   0.107   1.907
 7429SOL    HW123186   0.745   0.061   1.912
 7429SOL    HW223187   0.903   0.051   1.951
 7430SOL     OW23188   6.355   4.570   3.220
 7430SOL    HW123189   6.281   4.621   3.178
 7430SOL    HW223190   6.429   4.632   3.245
 7431SOL     OW23191   0.736   1.635   3.559
 7431SOL    HW123192   0.815   1.589   3.602
 7431SOL    HW223193   0.665   1.567   3.541
 7432SOL     OW23194   1.981   1.179   3.052
 7432SOL    HW123195   1.938   1.199   3.140
 7432SOL    HW223196   2.026   1.261   3.017
 7433SOL     OW23197   2.793   6.512   6.588
 7433SOL    HW123198   2.869   6.447   6.601
 7433SOL    HW223199   2.814   6.598   6.634
 7434SOL     OW23200   4.562   0.068   3.683
 7434SOL    HW123201   4.629   0.141   3.693
 7434SOL    HW223202   4.576   7.019   3.755
 7435SOL     OW23203   4.818   4.216   3.145
 7435SOL    HW123204   4.754   4.225   3.222
 7435SOL    HW223205   4.766   4.209   3.060
 7436SOL     OW23206   5.441   3.103   5.945
 7436SOL    HW123207   5.479   3.140   5.860
 7436SOL    HW223208   5.507   3.116   6.019
 7437SOL     OW23209   3.495   0.332   0.872
 7437SOL    HW123210   3.440   0.265   0.921
 7437SOL    HW223211   3.510   0.299   0.778
 7438SOL     OW23212   1.937   0.050   0.017
 7438SOL    HW123213   1.980   0.074   6.950
 7438SOL    HW223214   1.852   0.102   0.027
 7439SOL     OW23215   0.771   4.758   5.904
 7439SOL    HW123216   0.858   4.708   5.910
 7439SOL    HW223217   0.695   4.693   5.906
 7440SOL     OW23218   5.659   4.040   3.831
 7440SOL    HW123219   5.579   4.067   3.883
 7440SOL    HW223220   5.695   4.119   3.781
 7441SOL     OW23221   5.019   6.037   0.825
 7441SOL    HW123222   5.088   5.995   0.884
 7441SOL    HW223223   5.041   6.017   0.729
 7442SOL     OW23224   5.339   0.498   6.720
 7442SOL    HW123225   5.245   0.478   6.692
 7442SOL    HW223226   5.350   0.478   6.817
 7443SOL     OW23227   0.267   0.765   1.224
 7443SOL    HW123228   0.352   0.818   1.228
 7443SOL    HW223229   0.189   0.828   1.228
 7444SOL     OW23230   1.301   6.599   0.117
 7444SOL    HW123231   1.371   6.617   0.048
 7444SOL    HW223232   1.238   6.529   0.083
 7445SOL     OW23233   4.081   5.696   1.947
 7445SOL    HW123234   4.113   5.783   1.984
 7445SOL    HW223235   4.015   5.713   1.874
 7446SOL     OW23236   5.914   4.309   6.850
 7446SOL    HW123237   5.845   4.249   6.890
 7446SOL    HW223238   5.960   4.360   6.923
 7447SOL     OW23239   0.533   4.677   0.518
 7447SOL    HW123240   0.446   4.682   0.468
 7447SOL    HW223241   0.595   4.747   0.483
 7448SOL     OW23242   4.750   5.462   6.929
 7448SOL    HW123243   4.820   5.462   6.857
 7448SOL    HW223244   4.748   5.552   6.973
 7449SOL     OW23245   6.644   4.547   5.836
 7449SOL    HW123246   6.662   4.645   5.845
 7449SOL    HW223247   6.596   4.515   5.918
 7450SOL     OW23248   5.232   2.521   6.242
 7450SOL    HW123249   5.330   2.502   6.251
 7450SOL    HW223250   5.205   2.506   6.147
 7451SOL     OW23251   4.412   4.551   2.858
 7451SOL    HW123252   4.477   4.557   2.933
 7451SOL    HW223253   4.341   4.621   2.870
 7452SOL     OW23254   6.397   5.415   5.833
 7452SOL    HW123255   6.437   5.477   5.765
 7452SOL    HW223256   6.303   5.395   5.806
 7453SOL     OW23257   3.890   5.818   5.811
 7453SOL    HW123258   3.823   5.823   5.886
 7453SOL    HW223259   3.978   5.787   5.847
 7454SOL     OW23260   3.689   2.378   1.420
 7454SOL    HW123261   3.636   2.342   1.343
 7454SOL    HW223262   3.787   2.369   1.400
 7455SOL     OW23263   6.562   1.270   3.304
 7455SOL    HW123264   6.486   1.293   3.243
 7455SOL    HW223265   6.635   1.225   3.252
 7456SOL     OW23266   3.158   2.005   6.105
 7456SOL    HW123267   3.108   2.053   6.178
 7456SOL    HW223268   3.248   2.046   6.094
 7457SOL     OW23269   1.111   1.616   2.394
 7457SOL    HW123270   1.207   1.643   2.406
 7457SOL    HW223271   1.052   1.695   2.411
 7458SOL     OW23272   1.663   5.570   5.477
 7458SOL    HW123273   1.740   5.632   5.492
 7458SOL    HW223274   1.696   5.476   5.479
 7459SOL     OW23275   5.955   0.296   3.316
 7459SOL    HW123276   5.864   0.256   3.324
 7459SOL    HW223277   5.948   0.385   3.270
 7460SOL     OW23278   1.274   0.185   1.314
 7460SOL    HW123279   1.355   0.214   1.263
 7460SOL    HW223280   1.272   0.231   1.403
 7461SOL     OW23281   2.381   4.638   5.285
 7461SOL    HW123282   2.433   4.637   5.200
 7461SOL    HW223283   2.340   4.728   5.299
 7462SOL     OW23284   1.370   3.916   1.176
 7462SOL    HW123285   1.415   3.860   1.106
 7462SOL    HW223286   1.367   3.866   1.262
 7463SOL     OW23287   4.142   5.047   1.063
 7463SOL    HW123288   4.068   5.032   1.128
 7463SOL    HW223289   4.220   4.988   1.086
 7464SOL     OW23290   6.386   6.113   5.131
 7464SOL    HW123291   6.342   6.024   5.144
 7464SOL    HW223292   6.485   6.102   5.127
 7465SOL     OW23293   1.511   4.645   0.022
 7465SOL    HW123294   1.600   4.607   0.050
 7465SOL    HW223295   1.441   4.617   0.088
 7466SOL     OW23296   0.395   0.185   5.199
 7466SOL    HW123297   0.367   0.227   5.112
 7466SOL    HW223298   0.354   0.235   5.275
 7467SOL     OW23299   0.935   3.826   4.613
 7467SOL    HW123300   0.999   3.750   4.626
 7467SOL    HW223301   0.930   3.880   4.698
 7468SOL     OW23302   5.068   2.997   6.215
 7468SOL    HW123303   5.107   3.038   6.298
 7468SOL    HW223304   5.133   2.930   6.178
 7469SOL     OW23305   0.437   2.285   0.362
 7469SOL    HW123306   0.350   2.248   0.329
 7469SOL    HW223307   0.469   2.355   0.298
 7470SOL     OW23308   5.628   2.502   3.417
 7470SOL    HW123309   5.635   2.411   3.460
 7470SOL    HW223310   5.643   2.572   3.487
 7471SOL     OW23311   3.639   0.217   6.490
 7471SOL    HW123312   3.572   0.142   6.485
 7471SOL    HW223313   3.691   0.209   6.576
 7472SOL     OW23314   6.662   0.053   5.793
 7472SOL    HW123315   6.631   0.129   5.850
 7472SOL    HW223316   6.585   7.012   5.773
 7473SOL     OW23317   3.737   5.898   3.647
 7473SOL    HW123318   3.701   5.862   3.561
 7473SOL    HW223319   3.804   5.834   3.685
 7474SOL     OW23320   5.962   2.001   0.542
 7474SOL    HW123321   5.929   2.041   0.456
 7474SOL    HW223322   6.002   2.073   0.599
 7475SOL     OW23323   5.070   2.575   0.861
 7475SOL    HW123324   5.090   2.607   0.954
 7475SOL    HW223325   5.073   2.475   0.859
 7476SOL     OW23326   2.201   0.965   3.241
 7476SOL    HW123327   2.202   1.026   3.320
 7476SOL    HW223328   2.107   0.948   3.213
 7477SOL     OW23329   2.048   3.039   5.465
 7477SOL    HW123330   1.994   3.085   5.535
 7477SOL    HW223331   2.106   2.970   5.508
 7478SOL     OW23332   0.286   1.315   5.938
 7478SOL    HW123333   0.213   1.255   5.903
 7478SOL    HW223334   0.360   1.319   5.871
 7479SOL     OW23335   4.977   2.664   1.230
 7479SOL    HW123336   4.923   2.582   1.248
 7479SOL    HW223337   4.915   2.743   1.221
 7480SOL     OW23338   3.793   5.616   2.352
 7480SOL    HW123339   3.820   5.672   2.430
 7480SOL    HW223340   3.693   5.612   2.346
 7481SOL     OW23341   0.005   4.169   6.627
 7481SOL    HW123342   0.066   4.091   6.615
 7481SOL    HW223343   0.059   4.254   6.629
 7482SOL     OW23344   5.374   2.242   3.796
 7482SOL    HW123345   5.458   2.202   3.832
 7482SOL    HW223346   5.386   2.341   3.784
 7483SOL     OW23347   4.420   1.649   6.242
 7483SOL    HW123348   4.404   1.727   6.302
 7483SOL    HW223349   4.519   1.638   6.227
 7484SOL     OW23350   3.267   0.326   3.549
 7484SOL    HW123351   3.317   0.345   3.633
 7484SOL    HW223352   3.287   0.396   3.481
 7485SOL     OW23353   3.542   6.966   6.477
 7485SOL    HW123354   3.474   6.961   6.550
 7485SOL    HW223355   3.537   6.883   6.421
 7486SOL     OW23356   3.479   0.049   0.724
 7486SOL    HW123357   3.381   0.033   0.708
 7486SOL    HW223358   3.502   0.022   0.818
 7487SOL     OW23359   3.405   6.428   4.375
 7487SOL    HW123360   3.477   6.494   4.398
 7487SOL    HW223361   3.435   6.369   4.301
 7488SOL     OW23362   1.030   5.831   3.872
 7488SOL    HW123363   1.124   5.832   3.905
 7488SOL    HW223364   0.969   5.807   3.948
 7489SOL     OW23365   5.452   2.711   0.132
 7489SOL    HW123366   5.419   2.751   0.217
 7489SOL    HW223367   5.378   2.707   0.066
 7490SOL     OW23368   1.445   3.099   2.372
 7490SOL    HW123369   1.484   3.131   2.285
 7490SOL    HW223370   1.518   3.062   2.430
 7491SOL     OW23371   4.351   4.092   6.957
 7491SOL    HW123372   4.333   4.008   6.905
 7491SOL    HW223373   4.441   4.128   6.931
 7492SOL     OW23374   1.423   0.483   3.986
 7492SOL    HW123375   1.415   0.399   4.038
 7492SOL    HW223376   1.444   0.559   4.047
 7493SOL     OW23377   6.248   4.496   5.138
 7493SOL    HW123378   6.215   4.408   5.104
 7493SOL    HW223379   6.210   4.513   5.229
 7494SOL     OW23380   6.473   1.195   2.713
 7494SOL    HW123381   6.488   1.118   2.651
 7494SOL    HW223382   6.403   1.255   2.675
 7495SOL     OW23383   1.352   3.190   4.892
 7495SOL    HW123384   1.354   3.126   4.815
 7495SOL    HW223385   1.390   3.145   4.973
 7496SOL     OW23386   6.257   4.003   2.902
 7496SOL    HW123387   6.196   4.063   2.851
 7496SOL    HW223388   6.315   3.952   2.839
 7497SOL     OW23389   6.530   6.283   1.218
 7497SOL    HW123390   6.572   6.335   1.144
 7497SOL    HW223391   6.438   6.256   1.192
 7498SOL     OW23392   3.294   6.186   3.274
 7498SOL    HW123393   3.235   6.245   3.220
 7498SOL    HW223394   3.375   6.238   3.304
 7499SOL     OW23395   3.190   1.426   3.441
 7499SOL    HW123396   3.150   1.495   3.502
 7499SOL    HW223397   3.220   1.469   3.356
 7500SOL     OW23398   3.929   0.838   3.571
 7500SOL    HW123399   3.900   0.886   3.487
 7500SOL    HW223400   3.855   0.780   3.604
 7501SOL     OW23401   6.592   2.092   4.970
 7501SOL    HW123402   6.553   2.000   4.960
 7501SOL    HW223403   6.680   2.096   4.922
 7502SOL     OW23404   4.566   0.685   3.900
 7502SOL    HW123405   4.636   0.697   3.970
 7502SOL    HW223406   4.482   0.651   3.942
 7503SOL     OW23407   1.957   5.842   2.012
 7503SOL    HW123408   1.975   5.853   1.914
 7503SOL    HW223409   1.918   5.927   2.048
 7504SOL     OW23410   5.923   6.382   4.386
 7504SOL    HW123411   5.880   6.301   4.426
 7504SOL    HW223412   5.865   6.462   4.400
 7505SOL     OW23413   0.260   6.404   4.891
 7505SOL    HW123414   0.267   6.304   4.895
 7505SOL    HW223415   0.163   6.431   4.891
 7506SOL     OW23416   2.977   1.857   3.640
 7506SOL    HW123417   3.031   1.867   3.724
 7506SOL    HW223418   2.965   1.947   3.597
 7507SOL     OW23419   6.244   4.254   6.419
 7507SOL    HW123420   6.295   4.169   6.408
 7507SOL    HW223421   6.165   4.239   6.478
 7508SOL     OW23422   3.120   6.222   0.506
 7508SOL    HW123423   3.070   6.292   0.558
 7508SOL    HW223424   3.059   6.145   0.488
 7509SOL     OW23425   5.913   4.645   2.039
 7509SOL    HW123426   5.911   4.691   2.128
 7509SOL    HW223427   5.991   4.582   2.035
 7510SOL     OW23428   3.707   4.095   2.411
 7510SOL    HW123429   3.673   4.082   2.504
 7510SOL    HW223430   3.804   4.119   2.414
 7511SOL     OW23431   4.349   5.931   4.201
 7511SOL    HW123432   4.306   6.012   4.241
 7511SOL    HW223433   4.405   5.886   4.271
 7512SOL     OW23434   3.901   1.202   1.099
 7512SOL    HW123435   3.847   1.141   1.157
 7512SOL    HW223436   3.999   1.183   1.112
 7513SOL     OW23437   1.445   1.577   2.073
 7513SOL    HW123438   1.508   1.520   2.125
 7513SOL    HW223439   1.351   1.552   2.096
 7514SOL     OW23440   0.407   6.444   1.791
 7514SOL    HW123441   0.418   6.477   1.697
 7514SOL    HW223442   0.357   6.512   1.844
 7515SOL     OW23443   0.232   4.017   5.587
 7515SOL    HW123444   0.255   4.075   5.510
 7515SOL    HW223445   0.141   3.979   5.575
 7516SOL     OW23446   1.738   6.467   5.404
 7516SOL    HW123447   1.690   6.380   5.400
 7516SOL    HW223448   1.671   6.542   5.409
 7517SOL     OW23449   0.768   1.357   5.845
 7517SOL    HW123450   0.770   1.291   5.770
 7517SOL    HW223451   0.861   1.390   5.863
 7518SOL     OW23452   4.650   1.787   4.483
 7518SOL    HW123453   4.673   1.694   4.454
 7518SOL    HW223454   4.556   1.790   4.515
 7519SOL     OW23455   4.023   6.875   4.092
 7519SOL    HW123456   3.977   6.904   4.177
 7519SOL    HW223457   4.053   6.956   4.041
 7520SOL     OW23458   1.639   1.434   0.594
 7520SOL    HW123459   1.663   1.341   0.562
 7520SOL    HW223460   1.553   1.462   0.552
 7521SOL     OW23461   4.213   1.638   4.360
 7521SOL    HW123462   4.140   1.624   4.427
 7521SOL    HW223463   4.300   1.605   4.398
 7522SOL     OW23464   2.159   0.041   3.628
 7522SOL    HW123465   2.218   0.038   3.709
 7522SOL    HW223466   2.197   0.106   3.562
 7523SOL     OW23467   6.166   0.612   0.746
 7523SOL    HW123468   6.120   0.624   0.658
 7523SOL    HW223469   6.242   0.677   0.753
 7524SOL     OW23470   0.571   4.318   4.236
 7524SOL    HW123471   0.648   4.332   4.299
 7524SOL    HW223472   0.603   4.324   4.142
 7525SOL     OW23473   3.554   4.561   6.342
 7525SOL    HW123474   3.589   4.468   6.355
 7525SOL    HW223475   3.468   4.558   6.291
 7526SOL     OW23476   2.451   3.980   1.023
 7526SOL    HW123477   2.376   4.023   0.972
 7526SOL    HW223478   2.437   3.881   1.026
 7527SOL     OW23479   3.608   5.165   3.194
 7527SOL    HW123480   3.643   5.086   3.143
 7527SOL    HW223481   3.644   5.163   3.287
 7528SOL     OW23482   6.419   2.436   5.978
 7528SOL    HW123483   6.361   2.492   5.919
 7528SOL    HW223484   6.447   2.354   5.928
 7529SOL     OW23485   6.626   3.568   3.803
 7529SOL    HW123486   6.720   3.535   3.798
 7529SOL    HW223487   6.580   3.526   3.881
 7530SOL     OW23488   1.164   2.867   3.027
 7530SOL    HW123489   1.128   2.827   2.943
 7530SOL    HW223490   1.201   2.795   3.085
 7531SOL     OW23491   3.615   2.058   4.229
 7531SOL    HW123492   3.538   2.060   4.293
 7531SOL    HW223493   3.582   2.079   4.137
 7532SOL     OW23494   4.496   5.630   6.365
 7532SOL    HW123495   4.515   5.557   6.431
 7532SOL    HW223496   4.445   5.703   6.410
 7533SOL     OW23497   4.321   4.261   1.649
 7533SOL    HW123498   4.242   4.314   1.678
 7533SOL    HW223499   4.386   4.254   1.725
 7534SOL     OW23500   4.635   6.165   5.276
 7534SOL    HW123501   4.624   6.258   5.242
 7534SOL    HW223502   4.700   6.116   5.219
 7535SOL     OW23503   0.879   6.591   3.728
 7535SOL    HW123504   0.878   6.614   3.631
 7535SOL    HW223505   0.867   6.674   3.783
 7536SOL     OW23506   6.333   6.096   3.835
 7536SOL    HW123507   6.311   6.124   3.741
 7536SOL    HW223508   6.432   6.090   3.845
 7537SOL     OW23509   2.166   6.591   2.748
 7537SOL    HW123510   2.228   6.665   2.778
 7537SOL    HW223511   2.214   6.532   2.683
 7538SOL     OW23512   0.914   3.959   0.431
 7538SOL    HW123513   0.925   3.914   0.343
 7538SOL    HW223514   0.999   4.008   0.454
 7539SOL     OW23515   6.787   0.076   4.676
 7539SOL    HW123516   6.810   0.149   4.612
 7539SOL    HW223517   6.751   7.017   4.625
 7540SOL     OW23518   5.724   4.622   3.079
 7540SOL    HW123519   5.726   4.596   3.176
 7540SOL    HW223520   5.729   4.540   3.022
 7541SOL     OW23521   2.778   3.893   5.493
 7541SOL    HW123522   2.815   3.968   5.548
 7541SOL    HW223523   2.687   3.917   5.460
 7542SOL     OW23524   6.418   5.879   4.641
 7542SOL    HW123525   6.425   5.964   4.588
 7542SOL    HW223526   6.505   5.830   4.636
 7543SOL     OW23527   2.700   1.211   0.239
 7543SOL    HW123528   2.714   1.215   0.338
 7543SOL    HW223529   2.641   1.287   0.212
 7544SOL     OW23530   6.579   1.629   4.608
 7544SOL    HW123531   6.513   1.564   4.570
 7544SOL    HW223532   6.558   1.645   4.705
 7545SOL     OW23533   2.182   5.261   5.577
 7545SOL    HW123534   2.162   5.202   5.499
 7545SOL    HW223535   2.204   5.205   5.657
 7546SOL     OW23536   2.451   2.618   2.213
 7546SOL    HW123537   2.498   2.550   2.157
 7546SOL    HW223538   2.467   2.597   2.310
 7547SOL     OW23539   3.803   0.417   2.013
 7547SOL    HW123540   3.788   0.462   1.925
 7547SOL    HW223541   3.716   0.403   2.060
 7548SOL     OW23542   3.055   2.423   6.170
 7548SOL    HW123543   3.101   2.511   6.161
 7548SOL    HW223544   2.978   2.419   6.106
 7549SOL     OW23545   5.428   0.616   4.815
 7549SOL    HW123546   5.465   0.616   4.908
 7549SOL    HW223547   5.473   0.545   4.761
 7550SOL     OW23548   2.193   5.606   4.382
 7550SOL    HW123549   2.161   5.532   4.323
 7550SOL    HW223550   2.126   5.621   4.455
 7551SOL     OW23551   6.306   2.010   6.343
 7551SOL    HW123552   6.302   2.034   6.246
 7551SOL    HW223553   6.305   2.094   6.398
 7552SOL     OW23554   2.786   6.697   4.767
 7552SOL    HW123555   2.795   6.746   4.680
 7552SOL    HW223556   2.738   6.611   4.751
 7553SOL     OW23557   6.134   6.609   6.005
 7553SOL    HW123558   6.226   6.593   5.969
 7553SOL    HW223559   6.072   6.538   5.970
 7554SOL     OW23560   4.505   1.583   0.574
 7554SOL    HW123561   4.584   1.617   0.523
 7554SOL    HW223562   4.530   1.571   0.670
 7555SOL     OW23563   4.793   4.976   4.460
 7555SOL    HW123564   4.871   4.917   4.485
 7555SOL    HW223565   4.745   4.936   4.382
 7556SOL     OW23566   1.293   6.413   1.610
 7556SOL    HW123567   1.332   6.492   1.656
 7556SOL    HW223568   1.267   6.437   1.517
 7557SOL     OW23569   4.315   6.780   1.388
 7557SOL    HW123570   4.355   6.842   1.320
 7557SOL    HW223571   4.336   6.815   1.480
 7558SOL     OW23572   0.393   1.603   3.421
 7558SOL    HW123573   0.364   1.636   3.331
 7558SOL    HW223574   0.471   1.541   3.410
 7559SOL     OW23575   2.764   1.519   5.024
 7559SOL    HW123576   2.819   1.544   5.103
 7559SOL    HW223577   2.726   1.601   4.982
 7560SOL     OW23578   1.533   1.377   5.664
 7560SOL    HW123579   1.509   1.286   5.698
 7560SOL    HW223580   1.449   1.428   5.645
 7561SOL     OW23581   5.713   1.398   5.672
 7561SOL    HW123582   5.617   1.423   5.660
 7561SOL    HW223583   5.739   1.415   5.767
 7562SOL     OW23584   2.323   5.501   3.031
 7562SOL    HW123585   2.390   5.519   3.104
 7562SOL    HW223586   2.231   5.514   3.066
 7563SOL     OW23587   3.508   5.968   2.706
 7563SOL    HW123588   3.599   5.930   2.687
 7563SOL    HW223589   3.507   6.010   2.796
 7564SOL     OW23590   3.767   1.614   5.285
 7564SOL    HW123591   3.726   1.562   5.211
 7564SOL    HW223592   3.721   1.593   5.371
 7565SOL     OW23593   6.257   3.401   5.633
 7565SOL    HW123594   6.194   3.368   5.704
 7565SOL    HW223595   6.307   3.480   5.667
 7566SOL     OW23596   4.795   4.858   1.605
 7566SOL    HW123597   4.794   4.836   1.703
 7566SOL    HW223598   4.705   4.839   1.566
 7567SOL     OW23599   1.237   6.651   4.374
 7567SOL    HW123600   1.202   6.558   4.367
 7567SOL    HW223601   1.163   6.714   4.397
 7568SOL     OW23602   5.699   5.147   1.561
 7568SOL    HW123603   5.727   5.052   1.570
 7568SOL    HW223604   5.731   5.199   1.641
 7569SOL     OW23605   4.737   3.555   0.554
 7569SOL    HW123606   4.832   3.522   0.552
 7569SOL    HW223607   4.736   3.654   0.538
 7570SOL     OW23608   0.946   3.365   2.083
 7570SOL    HW123609   1.027   3.420   2.100
 7570SOL    HW223610   0.866   3.410   2.122
 7571SOL     OW23611   4.173   1.899   3.114
 7571SOL    HW123612   4.120   1.978   3.145
 7571SOL    HW223613   4.217   1.920   3.027
 7572SOL     OW23614   4.675   6.900   3.886
 7572SOL    HW123615   4.684   6.958   3.967
 7572SOL    HW223616   4.765   6.884   3.847
 7573SOL     OW23617   4.183   6.675   6.098
 7573SOL    HW123618   4.217   6.581   6.097
 7573SOL    HW223619   4.180   6.709   6.192
 7574SOL     OW23620   0.273   2.442   4.091
 7574SOL    HW123621   0.199   2.375   4.099
 7574SOL    HW223622   0.295   2.456   3.994
 7575SOL     OW23623   0.157   6.286   2.277
 7575SOL    HW123624   0.088   6.356   2.296
 7575SOL    HW223625   0.212   6.270   2.359
 7576SOL     OW23626   4.690   2.562   6.897
 7576SOL    HW123627   4.656   2.475   6.932
 7576SOL    HW223628   4.739   2.546   6.811
 7577SOL     OW23629   0.719   0.585   7.000
 7577SOL    HW123630   0.694   0.561   6.906
 7577SOL    HW223631   0.640   0.573   0.040
 7578SOL     OW23632   6.271   6.182   3.595
 7578SOL    HW123633   6.216   6.142   3.522
 7578SOL    HW223634   6.330   6.253   3.556
 7579SOL     OW23635   0.896   1.863   6.674
 7579SOL    HW123636   0.886   1.823   6.766
 7579SOL    HW223637   0.947   1.800   6.616
 7580SOL     OW23638   2.516   5.328   3.196
 7580SOL    HW123639   2.505   5.257   3.265
 7580SOL    HW223640   2.525   5.285   3.106
 7581SOL     OW23641   0.074   0.572   2.136
 7581SOL    HW123642   0.013   0.516   2.192
 7581SOL    HW223643   0.156   0.594   2.190
 7582SOL     OW23644   2.660   1.741   6.393
 7582SOL    HW123645   2.585   1.807   6.384
 7582SOL    HW223646   2.720   1.749   6.313
 7583SOL     OW23647   5.649   3.460   2.351
 7583SOL    HW123648   5.620   3.535   2.410
 7583SOL    HW223649   5.569   3.409   2.319
 7584SOL     OW23650   0.674   1.226   3.391
 7584SOL    HW123651   0.763   1.244   3.433
 7584SOL    HW223652   0.676   1.137   3.346
 7585SOL     OW23653   1.006   1.476   5.895
 7585SOL    HW123654   1.076   1.404   5.893
 7585SOL    HW223655   1.029   1.545   5.826
 7586SOL     OW23656   2.065   6.692   3.353
 7586SOL    HW123657   2.038   6.689   3.449
 7586SOL    HW223658   2.021   6.769   3.308
 7587SOL     OW23659   4.203   0.078   1.630
 7587SOL    HW123660   4.112   0.037   1.637
 7587SOL    HW223661   4.201   0.153   1.564
 7588SOL     OW23662   2.315   2.712   4.633
 7588SOL    HW123663   2.245   2.660   4.682
 7588SOL    HW223664   2.398   2.656   4.623
 7589SOL     OW23665   6.695   0.309   2.811
 7589SOL    HW123666   6.747   0.245   2.869
 7589SOL    HW223667   6.738   0.314   2.721
 7590SOL     OW23668   6.328   1.032   0.296
 7590SOL    HW123669   6.363   1.103   0.235
 7590SOL    HW223670   6.394   1.014   0.368
 7591SOL     OW23671   3.242   3.334   4.771
 7591SOL    HW123672   3.224   3.240   4.741
 7591SOL    HW223673   3.301   3.332   4.851
 7592SOL     OW23674   0.217   6.516   3.780
 7592SOL    HW123675   0.164   6.565   3.849
 7592SOL    HW223676   0.221   6.571   3.696
 7593SOL     OW23677   0.219   0.989   5.513
 7593SOL    HW123678   0.271   1.047   5.576
 7593SOL    HW223679   0.283   0.938   5.455
 7594SOL     OW23680   6.894   3.740   6.122
 7594SOL    HW123681   6.924   3.796   6.044
 7594SOL    HW223682   6.968   3.734   6.189
 7595SOL     OW23683   1.269   3.342   7.005
 7595SOL    HW123684   1.285   3.370   6.911
 7595SOL    HW223685   1.195   3.275   7.008
 7596SOL     OW23686   3.166   1.246   6.936
 7596SOL    HW123687   3.141   1.324   6.878
 7596SOL    HW223688   3.204   1.173   6.879
 7597SOL     OW23689   1.937   4.835   1.220
 7597SOL    HW123690   1.959   4.916   1.165
 7597SOL    HW223691   1.957   4.753   1.167
 7598SOL     OW23692   6.195   0.773   2.083
 7598SOL    HW123693   6.160   0.807   2.171
 7598SOL    HW223694   6.215   0.676   2.091
 7599SOL     OW23695   3.266   3.806   0.983
 7599SOL    HW123696   3.304   3.891   0.946
 7599SOL    HW223697   3.166   3.808   0.973
 7600SOL     OW23698   1.365   0.001   3.867
 7600SOL    HW123699   1.433   7.015   3.794
 7600SOL    HW223700   1.388   6.955   3.939
 7601SOL     OW23701   2.824   0.085   1.937
 7601SOL    HW123702   2.747   0.149   1.941
 7601SOL    HW223703   2.855   0.076   1.842
 7602SOL     OW23704   0.584   1.242   1.198
 7602SOL    HW123705   0.639   1.193   1.265
 7602SOL    HW223706   0.593   1.340   1.212
 7603SOL     OW23707   4.076   0.886   6.127
 7603SOL    HW123708   4.110   0.860   6.218
 7603SOL    HW223709   3.993   0.834   6.107
 7604SOL     OW23710   1.440   2.606   4.810
 7604SOL    HW123711   1.398   2.697   4.816
 7604SOL    HW223712   1.539   2.614   4.823
 7605SOL     OW23713   2.285   5.989   0.191
 7605SOL    HW123714   2.282   5.999   0.092
 7605SOL    HW223715   2.192   5.989   0.227
 7606SOL     OW23716   6.844   0.671   3.274
 7606SOL    HW123717   6.750   0.667   3.308
 7606SOL    HW223718   6.905   0.697   3.349
 7607SOL     OW23719   1.848   6.123   5.552
 7607SOL    HW123720   1.898   6.201   5.514
 7607SOL    HW223721   1.906   6.042   5.552
 7608SOL     OW23722   6.894   2.198   6.517
 7608SOL    HW123723   6.817   2.245   6.561
 7608SOL    HW223724   6.911   2.111   6.564
 7609SOL     OW23725   3.286   1.573   4.646
 7609SOL    HW123726   3.266   1.630   4.726
 7609SOL    HW223727   3.336   1.491   4.675
 7610SOL     OW23728   3.978   5.156   4.651
 7610SOL    HW123729   4.062   5.156   4.705
 7610SOL    HW223730   3.917   5.083   4.684
 7611SOL     OW23731   4.565   2.644   0.680
 7611SOL    HW123732   4.549   2.590   0.762
 7611SOL    HW223733   4.663   2.644   0.659
 7612SOL     OW23734   3.752   2.127   3.294
 7612SOL    HW123735   3.743   2.153   3.390
 7612SOL    HW223736   3.847   2.141   3.265
 7613SOL     OW23737   0.796   0.562   0.368
 7613SOL    HW123738   0.857   0.493   0.406
 7613SOL    HW223739   0.702   0.528   0.372
 7614SOL     OW23740   5.342   4.215   0.448
 7614SOL    HW123741   5.405   4.144   0.416
 7614SOL    HW223742   5.351   4.296   0.391
 7615SOL     OW23743   6.165   3.226   5.171
 7615SOL    HW123744   6.220   3.304   5.139
 7615SOL    HW223745   6.149   3.234   5.269
 7616SOL     OW23746   6.949   6.596   2.886
 7616SOL    HW123747   0.027   6.602   2.904
 7616SOL    HW223748   6.900   6.579   2.971
 7617SOL     OW23749   6.331   4.025   3.145
 7617SOL    HW123750   6.424   3.995   3.167
 7617SOL    HW223751   6.307   3.993   3.053
 7618SOL     OW23752   2.331   2.335   0.148
 7618SOL    HW123753   2.349   2.399   0.073
 7618SOL    HW223754   2.412   2.278   0.164
 7619SOL     OW23755   1.990   1.490   4.708
 7619SOL    HW123756   2.010   1.555   4.634
 7619SOL    HW223757   1.892   1.487   4.725
 7620SOL     OW23758   3.451   4.515   1.242
 7620SOL    HW123759   3.439   4.606   1.203
 7620SOL    HW223760   3.361   4.472   1.254
 7621SOL     OW23761   6.210   4.091   0.189
 7621SOL    HW123762   6.137   4.055   0.248
 7621SOL    HW223763   6.194   4.062   0.095
 7622SOL     OW23764   3.259   4.019   1.722
 7622SOL    HW123765   3.201   4.089   1.765
 7622SOL    HW223766   3.203   3.965   1.659
 7623SOL     OW23767   5.688   3.959   1.727
 7623SOL    HW123768   5.602   3.937   1.774
 7623SOL    HW223769   5.764   3.917   1.776
 7624SOL     OW23770   1.260   3.526   2.431
 7624SOL    HW123771   1.275   3.436   2.471
 7624SOL    HW223772   1.165   3.534   2.401
 7625SOL     OW23773   5.439   0.548   2.262
 7625SOL    HW123774   5.441   0.647   2.249
 7625SOL    HW223775   5.434   0.528   2.360
 7626SOL     OW23776   4.126   0.107   6.916
 7626SOL    HW123777   4.213   0.149   6.937
 7626SOL    HW223778   4.098   0.131   6.823
 7627SOL     OW23779   4.114   2.928   6.434
 7627SOL    HW123780   4.039   2.986   6.403
 7627SOL    HW223781   4.182   2.983   6.482
 7628SOL     OW23782   3.247   2.557   0.431
 7628SOL    HW123783   3.217   2.593   0.342
 7628SOL    HW223784   3.197   2.604   0.504
 7629SOL     OW23785   5.908   2.389   2.930
 7629SOL    HW123786   5.991   2.424   2.887
 7629SOL    HW223787   5.884   2.447   3.008
 7630SOL     OW23788   1.441   6.481   4.125
 7630SOL    HW123789   1.467   6.555   4.064
 7630SOL    HW223790   1.356   6.440   4.093
 7631SOL     OW23791   0.898   0.847   5.404
 7631SOL    HW123792   0.922   0.762   5.356
 7631SOL    HW223793   0.916   0.836   5.502
 7632SOL     OW23794   4.465   5.617   1.233
 7632SOL    HW123795   4.447   5.650   1.325
 7632SOL    HW223796   4.499   5.693   1.177
 7633SOL     OW23797   6.230   1.052   1.382
 7633SOL    HW123798   6.285   1.096   1.454
 7633SOL    HW223799   6.152   1.110   1.359
 7634SOL     OW23800   0.007   2.174   6.289
 7634SOL    HW123801   0.039   2.081   6.272
 7634SOL    HW223802   6.972   2.176   6.372
 7635SOL     OW23803   2.295   2.844   5.321
 7635SOL    HW123804   2.362   2.811   5.387
 7635SOL    HW223805   2.342   2.881   5.241
 7636SOL     OW23806   6.894   3.958   4.036
 7636SOL    HW123807   6.888   4.050   4.073
 7636SOL    HW223808   6.897   3.892   4.112
 7637SOL     OW23809   0.887   4.648   4.921
 7637SOL    HW123810   0.859   4.697   5.003
 7637SOL    HW223811   0.810   4.640   4.858
 7638SOL     OW23812   0.083   6.118   1.144
 7638SOL    HW123813   0.030   6.068   1.075
 7638SOL    HW223814   0.172   6.074   1.156
 7639SOL     OW23815   1.329   0.552   0.477
 7639SOL    HW123816   1.379   0.624   0.429
 7639SOL    HW223817   1.343   0.464   0.431
 7640SOL     OW23818   3.411   1.145   1.099
 7640SOL    HW123819   3.322   1.186   1.116
 7640SOL    HW223820   3.402   1.071   1.033
 7641SOL     OW23821   0.298   4.482   4.688
 7641SOL    HW123822   0.286   4.561   4.628
 7641SOL    HW223823   0.209   4.440   4.707
 7642SOL     OW23824   5.266   0.887   3.256
 7642SOL    HW123825   5.365   0.896   3.249
 7642SOL    HW223826   5.232   0.828   3.183
 7643SOL     OW23827   5.170   3.609   4.778
 7643SOL    HW123828   5.107   3.532   4.774
 7643SOL    HW223829   5.258   3.578   4.814
 7644SOL     OW23830   4.787   3.790   1.083
 7644SOL    HW123831   4.863   3.732   1.113
 7644SOL    HW223832   4.781   3.786   0.983
 7645SOL     OW23833   4.168   4.971   0.098
 7645SOL    HW123834   4.175   4.941   0.193
 7645SOL    HW223835   4.197   4.897   0.038
 7646SOL     OW23836   6.917   1.955   0.251
 7646SOL    HW123837   6.859   1.975   0.172
 7646SOL    HW223838   6.864   1.904   0.319
 7647SOL     OW23839   6.814   2.471   4.117
 7647SOL    HW123840   6.751   2.400   4.084
 7647SOL    HW223841   6.875   2.498   4.043
 7648SOL     OW23842   2.056   2.003   1.796
 7648SOL    HW123843   2.050   2.014   1.697
 7648SOL    HW223844   2.083   1.909   1.818
 7649SOL     OW23845   3.800   1.047   0.061
 7649SOL    HW123846   3.744   0.964   0.066
 7649SOL    HW223847   3.842   1.053   6.990
 7650SOL     OW23848   3.556   2.138   0.202
 7650SOL    HW123849   3.648   2.166   0.231
 7650SOL    HW223850   3.544   2.040   0.217
 7651SOL     OW23851   3.499   5.433   6.219
 7651SOL    HW123852   3.411   5.468   6.253
 7651SOL    HW223853   3.573   5.492   6.251
 7652SOL     OW23854   0.953   1.136   4.124
 7652SOL    HW123855   0.912   1.151   4.214
 7652SOL    HW223856   1.016   1.211   4.103
 7653SOL     OW23857   2.394   0.605   0.280
 7653SOL    HW123858   2.375   0.525   0.223
 7653SOL    HW223859   2.485   0.640   0.259
 7654SOL     OW23860   6.430   1.910   5.794
 7654SOL    HW123861   6.476   1.930   5.707
 7654SOL    HW223862   6.332   1.902   5.779
 7655SOL     OW23863   3.685   2.067   4.743
 7655SOL    HW123864   3.602   2.012   4.735
 7655SOL    HW223865   3.707   2.107   4.654
 7656SOL     OW23866   5.826   4.220   0.163
 7656SOL    HW123867   5.828   4.120   0.173
 7656SOL    HW223868   5.754   4.246   0.099
 7657SOL     OW23869   0.872   4.324   4.689
 7657SOL    HW123870   0.932   4.334   4.769
 7657SOL    HW223871   0.851   4.415   4.652
 7658SOL     OW23872   2.821   0.499   0.929
 7658SOL    HW123873   2.843   0.409   0.890
 7658SOL    HW223874   2.906   0.545   0.955
 7659SOL     OW23875   5.197   4.257   5.542
 7659SOL    HW123876   5.185   4.173   5.489
 7659SOL    HW223877   5.116   4.315   5.531
 7660SOL     OW23878   6.718   6.128   5.834
 7660SOL    HW123879   6.708   6.150   5.737
 7660SOL    HW223880   6.712   6.212   5.888
 7661SOL     OW23881   3.882   0.901   5.422
 7661SOL    HW123882   3.904   0.865   5.512
 7661SOL    HW223883   3.844   0.993   5.430
 7662SOL     OW23884   6.953   5.871   1.051
 7662SOL    HW123885   6.981   5.866   1.147
 7662SOL    HW223886   0.002   5.828   0.993
 7663SOL     OW23887   1.133   5.426   5.023
 7663SOL    HW123888   1.165   5.332   5.013
 7663SOL    HW223889   1.036   5.425   5.050
 7664SOL     OW23890   4.224   2.328   2.415
 7664SOL    HW123891   4.169   2.402   2.453
 7664SOL    HW223892   4.166   2.269   2.359
 7665SOL     OW23893   3.386   0.793   5.640
 7665SOL    HW123894   3.468   0.745   5.606
 7665SOL    HW223895   3.324   0.726   5.681
 7666SOL     OW23896   5.422   4.937   4.056
 7666SOL    HW123897   5.508   4.897   4.025
 7666SOL    HW223898   5.349   4.913   3.992
 7667SOL     OW23899   4.468   6.271   2.601
 7667SOL    HW123900   4.419   6.189   2.630
 7667SOL    HW223901   4.420   6.313   2.523
 7668SOL     OW23902   1.222   5.764   0.637
 7668SOL    HW123903   1.143   5.722   0.593
 7668SOL    HW223904   1.302   5.705   0.627
 7669SOL     OW23905   2.768   1.576   6.917
 7669SOL    HW123906   2.771   1.651   6.850
 7669SOL    HW223907   2.842   1.588   6.983
 7670SOL     OW23908   0.793   0.761   0.543
 7670SOL    HW123909   0.794   0.684   0.479
 7670SOL    HW223910   0.882   0.807   0.542
 7671SOL     OW23911   3.228   0.085   1.527
 7671SOL    HW123912   3.183   0.026   1.594
 7671SOL    HW223913   3.259   0.169   1.571
 7672SOL     OW23914   5.282   3.569   2.025
 7672SOL    HW123915   5.359   3.594   1.965
 7672SOL    HW223916   5.289   3.473   2.050
 7673SOL     OW23917   1.505   6.848   4.634
 7673SOL    HW123918   1.492   6.749   4.638
 7673SOL    HW223919   1.433   6.893   4.687
 7674SOL     OW23920   3.920   5.887   4.596
 7674SOL    HW123921   3.892   5.848   4.509
 7674SOL    HW223922   3.976   5.969   4.579
 7675SOL     OW23923   4.698   6.002   3.108
 7675SOL    HW123924   4.666   6.078   3.164
 7675SOL    HW223925   4.672   5.915   3.152
 7676SOL     OW23926   3.739   3.247   5.295
 7676SOL    HW123927   3.764   3.296   5.211
 7676SOL    HW223928   3.654   3.197   5.281
 7677SOL     OW23929   6.547   4.772   6.792
 7677SOL    HW123930   6.611   4.695   6.789
 7677SOL    HW223931   6.492   4.767   6.875
 7678SOL     OW23932   3.511   1.827   5.307
 7678SOL    HW123933   3.494   1.734   5.274
 7678SOL    HW223934   3.424   1.877   5.310
 7679SOL     OW23935   3.590   5.821   4.464
 7679SOL    HW123936   3.672   5.811   4.408
 7679SOL    HW223937   3.554   5.914   4.455
 7680SOL     OW23938   2.077   6.737   4.050
 7680SOL    HW123939   2.082   6.780   4.140
 7680SOL    HW223940   1.985   6.703   4.034
 7681SOL     OW23941   1.865   2.651   5.477
 7681SOL    HW123942   1.958   2.674   5.451
 7681SOL    HW223943   1.846   2.556   5.452
 7682SOL     OW23944   3.192   0.838   2.401
 7682SOL    HW123945   3.188   0.904   2.476
 7682SOL    HW223946   3.151   0.752   2.430
 7683SOL     OW23947   0.962   4.716   4.557
 7683SOL    HW123948   0.945   4.748   4.464
 7683SOL    HW223949   0.998   4.623   4.554
 7684SOL     OW23950   5.371   2.978   1.424
 7684SOL    HW123951   5.446   2.911   1.421
 7684SOL    HW223952   5.284   2.929   1.420
 7685SOL     OW23953   2.723   0.227   0.742
 7685SOL    HW123954   2.631   0.228   0.783
 7685SOL    HW223955   2.717   0.257   0.647
 7686SOL     OW23956   6.694   6.858   4.561
 7686SOL    HW123957   6.600   6.836   4.537
 7686SOL    HW223958   6.746   6.880   4.479
 7687SOL     OW23959   5.189   3.100   6.437
 7687SOL    HW123960   5.251   3.160   6.386
 7687SOL    HW223961   5.122   3.155   6.486
 7688SOL     OW23962   5.754   2.876   6.663
 7688SOL    HW123963   5.693   2.867   6.741
 7688SOL    HW223964   5.773   2.786   6.624
 7689SOL     OW23965   5.496   6.888   1.973
 7689SOL    HW123966   5.580   6.906   2.024
 7689SOL    HW223967   5.421   6.943   2.012
 7690SOL     OW23968   5.604   5.116   2.268
 7690SOL    HW123969   5.598   5.038   2.206
 7690SOL    HW223970   5.512   5.143   2.296
 7691SOL     OW23971   4.857   3.051   3.869
 7691SOL    HW123972   4.855   2.954   3.895
 7691SOL    HW223973   4.892   3.059   3.775
 7692SOL     OW23974   2.962   6.539   2.288
 7692SOL    HW123975   2.901   6.617   2.303
 7692SOL    HW223976   3.041   6.547   2.348
 7693SOL     OW23977   3.422   1.369   1.806
 7693SOL    HW123978   3.482   1.326   1.739
 7693SOL    HW223979   3.475   1.397   1.886
 7694SOL     OW23980   4.444   1.991   6.857
 7694SOL    HW123981   4.439   1.965   6.760
 7694SOL    HW223982   4.405   1.919   6.914
 7695SOL     OW23983   5.007   0.038   3.704
 7695SOL    HW123984   4.948   6.979   3.724
 7695SOL    HW223985   4.974   0.085   3.622
 7696SOL     OW23986   2.530   2.308   5.661
 7696SOL    HW123987   2.528   2.286   5.759
 7696SOL    HW223988   2.466   2.248   5.612
 7697SOL     OW23989   6.098   6.812   3.319
 7697SOL    HW123990   6.117   6.715   3.337
 7697SOL    HW223991   6.159   6.869   3.373
 7698SOL     OW23992   6.455   3.036   0.951
 7698SOL    HW123993   6.548   3.069   0.971
 7698SOL    HW223994   6.434   3.054   0.855
 7699SOL     OW23995   4.432   6.130   5.642
 7699SOL    HW123996   4.531   6.139   5.630
 7699SOL    HW223997   4.385   6.162   5.560
 7700SOL     OW23998   5.715   5.497   1.244
 7700SOL    HW123999   5.693   5.407   1.280
 7700SOL    HW224000   5.807   5.523   1.272
 7701SOL     OW24001   2.003   2.052   6.658
 7701SOL    HW124002   1.958   1.970   6.624
 7701SOL    HW224003   2.102   2.041   6.651
 7702SOL     OW24004   5.312   6.697   4.996
 7702SOL    HW124005   5.256   6.617   5.020
 7702SOL    HW224006   5.256   6.761   4.944
 7703SOL     OW24007   0.024   6.589   5.447
 7703SOL    HW124008   7.011   6.599   5.541
 7703SOL    HW224009   0.062   6.498   5.434
 7704SOL     OW24010   1.469   1.688   4.972
 7704SOL    HW124011   1.490   1.591   4.982
 7704SOL    HW224012   1.486   1.716   4.877
 7705SOL     OW24013   1.148   4.670   0.060
 7705SOL    HW124014   1.135   4.639   6.986
 7705SOL    HW224015   1.096   4.611   0.122
 7706SOL     OW24016   3.543   3.176   2.394
 7706SOL    HW124017   3.539   3.205   2.490
 7706SOL    HW224018   3.455   3.194   2.351
 7707SOL     OW24019   6.335   4.463   6.249
 7707SOL    HW124020   6.266   4.535   6.251
 7707SOL    HW224021   6.305   4.386   6.305
 7708SOL     OW24022   1.650   0.204   3.963
 7708SOL    HW124023   1.591   0.227   3.885
 7708SOL    HW224024   1.629   0.264   4.040
 7709SOL     OW24025   6.795   4.732   1.360
 7709SOL    HW124026   6.806   4.792   1.439
 7709SOL    HW224027   6.712   4.757   1.310
 7710SOL     OW24028   6.370   2.990   1.499
 7710SOL    HW124029   6.290   2.931   1.508
 7710SOL    HW224030   6.351   3.060   1.430
 7711SOL     OW24031   0.739   4.634   4.060
 7711SOL    HW124032   0.789   4.557   4.101
 7711SOL    HW224033   0.666   4.599   4.002
 7712SOL     OW24034   0.484   4.899   4.774
 7712SOL    HW124035   0.479   4.993   4.807
 7712SOL    HW224036   0.408   4.846   4.811
 7713SOL     OW24037   0.976   4.521   0.702
 7713SOL    HW124038   0.991   4.463   0.783
 7713SOL    HW224039   1.012   4.613   0.720
 7714SOL     OW24040   6.065   1.718   5.488
 7714SOL    HW124041   6.004   1.642   5.466
 7714SOL    HW224042   6.094   1.762   5.403
 7715SOL     OW24043   3.227   3.193   6.120
 7715SOL    HW124044   3.310   3.219   6.168
 7715SOL    HW224045   3.194   3.270   6.065
 7716SOL     OW24046   1.448   6.732   6.210
 7716SOL    HW124047   1.536   6.755   6.251
 7716SOL    HW224048   1.377   6.736   6.280
 7717SOL     OW24049   0.353   2.508   6.299
 7717SOL    HW124050   0.276   2.478   6.243
 7717SOL    HW224051   0.403   2.428   6.332
 7718SOL     OW24052   0.142   2.906   2.903
 7718SOL    HW124053   0.215   2.866   2.848
 7718SOL    HW224054   0.075   2.948   2.842
 7719SOL     OW24055   1.998   5.510   5.064
 7719SOL    HW124056   1.958   5.557   5.143
 7719SOL    HW224057   2.095   5.491   5.082
 7720SOL     OW24058   4.428   1.009   6.849
 7720SOL    HW124059   4.450   1.093   6.798
 7720SOL    HW224060   4.399   0.938   6.785
 7721SOL     OW24061   6.223   5.959   2.521
 7721SOL    HW124062   6.291   5.962   2.448
 7721SOL    HW224063   6.242   5.882   2.581
 7722SOL     OW24064   0.742   5.976   3.889
 7722SOL    HW124065   0.697   6.043   3.830
 7722SOL    HW224066   0.835   5.959   3.854
 7723SOL     OW24067   4.611   4.446   0.098
 7723SOL    HW124068   4.537   4.482   0.042
 7723SOL    HW224069   4.576   4.418   0.187
 7724SOL     OW24070   1.844   4.042   0.439
 7724SOL    HW124071   1.778   3.968   0.453
 7724SOL    HW224072   1.894   4.027   0.354
 7725SOL     OW24073   5.551   3.001   4.613
 7725SOL    HW124074   5.539   3.003   4.514
 7725SOL    HW224075   5.647   2.981   4.634
 7726SOL     OW24076   2.050   3.657   6.798
 7726SOL    HW124077   2.055   3.562   6.766
 7726SOL    HW224078   2.107   3.714   6.739
 7727SOL     OW24079   4.805   0.407   2.145
 7727SOL    HW124080   4.718   0.456   2.138
 7727SOL    HW224081   4.863   0.452   2.213
 7728SOL     OW24082   1.770   3.680   4.638
 7728SOL    HW124083   1.844   3.745   4.620
 7728SOL    HW224084   1.793   3.591   4.597
 7729SOL     OW24085   6.936   0.810   2.584
 7729SOL    HW124086   6.844   0.769   2.580
 7729SOL    HW224087   6.977   0.790   2.673
 7730SOL     OW24088   6.422   4.839   5.517
 7730SOL    HW124089   6.329   4.827   5.480
 7730SOL    HW224090   6.450   4.755   5.563
 7731SOL     OW24091   6.537   0.097   5.491
 7731SOL    HW124092   6.516   0.047   5.407
 7731SOL    HW224093   6.552   0.032   5.565
 7732SOL     OW24094   4.609   0.965   0.017
 7732SOL    HW124095   4.550   0.997   6.963
 7732SOL    HW224096   4.574   0.997   0.105
 7733SOL     OW24097   6.645   5.138   1.204
 7733SOL    HW124098   6.589   5.186   1.136
 7733SOL    HW224099   6.629   5.178   1.294
 7734SOL     OW24100   4.032   3.787   3.382
 7734SOL    HW124101   3.977   3.862   3.419
 7734SOL    HW224102   4.093   3.752   3.453
 7735SOL     OW24103   0.676   5.866   0.944
 7735SOL    HW124104   0.743   5.797   0.918
 7735SOL    HW224105   0.626   5.895   0.862
 7736SOL     OW24106   1.691   2.054   6.788
 7736SOL    HW124107   1.776   2.081   6.834
 7736SOL    HW224108   1.659   2.128   6.729
 7737SOL     OW24109   4.344   4.463   7.012
 7737SOL    HW124110   4.310   4.542   0.044
 7737SOL    HW224111   4.266   4.406   6.984
 7738SOL     OW24112   1.823   0.421   4.793
 7738SOL    HW124113   1.758   0.450   4.723
 7738SOL    HW224114   1.871   0.339   4.762
 7739SOL     OW24115   1.831   2.402   0.348
 7739SOL    HW124116   1.895   2.387   0.272
 7739SOL    HW224117   1.784   2.489   0.334
 7740SOL     OW24118   2.545   0.846   4.320
 7740SOL    HW124119   2.529   0.870   4.416
 7740SOL    HW224120   2.470   0.787   4.288
 7741SOL     OW24121   0.224   4.369   6.125
 7741SOL    HW124122   0.251   4.366   6.029
 7741SOL    HW224123   0.279   4.437   6.173
 7742SOL     OW24124   4.941   2.422   4.294
 7742SOL    HW124125   4.990   2.507   4.315
 7742SOL    HW224126   4.981   2.381   4.212
 7743SOL     OW24127   4.065   1.259   5.811
 7743SOL    HW124128   4.153   1.267   5.858
 7743SOL    HW224129   4.034   1.350   5.783
 7744SOL     OW24130   0.842   6.859   4.422
 7744SOL    HW124131   0.755   6.825   4.457
 7744SOL    HW224132   0.830   6.950   4.384
 7745SOL     OW24133   2.730   6.757   1.055
 7745SOL    HW124134   2.771   6.668   1.076
 7745SOL    HW224135   2.663   6.746   0.981
 7746SOL     OW24136   0.172   6.141   1.580
 7746SOL    HW124137   0.192   6.229   1.537
 7746SOL    HW224138   0.257   6.091   1.597
 7747SOL     OW24139   0.005   5.631   0.739
 7747SOL    HW124140   0.032   5.538   0.716
 7747SOL    HW224141   7.019   5.686   0.655
 7748SOL     OW24142   4.351   1.142   6.345
 7748SOL    HW124143   4.385   1.221   6.397
 7748SOL    HW224144   4.418   1.116   6.276
 7749SOL     OW24145   3.617   3.212   3.212
 7749SOL    HW124146   3.579   3.298   3.178
 7749SOL    HW224147   3.544   3.145   3.222
 7750SOL     OW24148   5.172   5.133   5.941
 7750SOL    HW124149   5.159   5.150   6.039
 7750SOL    HW224150   5.246   5.067   5.929
 7751SOL     OW24151   6.422   1.403   4.690
 7751SOL    HW124152   6.370   1.365   4.767
 7751SOL    HW224153   6.520   1.396   4.709
 7752SOL     OW24154   6.510   4.781   5.007
 7752SOL    HW124155   6.423   4.779   4.957
 7752SOL    HW224156   6.498   4.831   5.093
 7753SOL     OW24157   2.863   0.807   4.723
 7753SOL    HW124158   2.937   0.740   4.731
 7753SOL    HW224159   2.881   0.883   4.786
 7754SOL     OW24160   6.161   0.787   1.137
 7754SOL    HW124161   6.172   0.881   1.107
 7754SOL    HW224162   6.121   0.786   1.229
 7755SOL     OW24163   1.745   5.926   5.004
 7755SOL    HW124164   1.796   6.010   5.024
 7755SOL    HW224165   1.676   5.911   5.075
 7756SOL     OW24166   3.738   5.722   2.889
 7756SOL    HW124167   3.837   5.715   2.896
 7756SOL    HW224168   3.713   5.761   2.800
 7757SOL     OW24169   3.427   6.896   6.064
 7757SOL    HW124170   3.444   6.964   5.992
 7757SOL    HW224171   3.513   6.868   6.104
 7758SOL     OW24172   3.670   2.449   6.489
 7758SOL    HW124173   3.619   2.369   6.520
 7758SOL    HW224174   3.753   2.459   6.544
 7759SOL     OW24175   1.746   0.516   4.505
 7759SOL    HW124176   1.646   0.520   4.497
 7759SOL    HW224177   1.786   0.590   4.451
 7760SOL     OW24178   5.208   2.154   3.988
 7760SOL    HW124179   5.263   2.171   3.907
 7760SOL    HW224180   5.259   2.095   4.051
 7761SOL     OW24181   4.432   0.626   6.736
 7761SOL    HW124182   4.335   0.649   6.746
 7761SOL    HW224183   4.484   0.666   6.812
 7762SOL     OW24184   1.748   2.080   0.318
 7762SOL    HW124185   1.747   2.180   0.312
 7762SOL    HW224186   1.746   2.041   0.225
 7763SOL     OW24187   2.386   2.095   1.590
 7763SOL    HW124188   2.392   2.151   1.672
 7763SOL    HW224189   2.472   2.099   1.540
 7764SOL     OW24190   4.113   3.191   2.222
 7764SOL    HW124191   4.122   3.178   2.320
 7764SOL    HW224192   4.091   3.287   2.203
 7765SOL     OW24193   6.900   1.903   2.513
 7765SOL    HW124194   6.810   1.885   2.552
 7765SOL    HW224195   6.890   1.954   2.428
 7766SOL     OW24196   0.108   3.612   0.432
 7766SOL    HW124197   0.028   3.662   0.397
 7766SOL    HW224198   0.185   3.675   0.441
 7767SOL     OW24199   5.787   4.037   5.436
 7767SOL    HW124200   5.811   3.983   5.355
 7767SOL    HW224201   5.735   4.118   5.407
 7768SOL     OW24202   4.336   5.288   1.735
 7768SOL    HW124203   4.251   5.247   1.701
 7768SOL    HW224204   4.316   5.379   1.772
 7769SOL     OW24205   6.170   1.983   2.341
 7769SOL    HW124206   6.139   1.924   2.267
 7769SOL    HW224207   6.102   1.984   2.414
 7770SOL     OW24208   3.480   6.033   1.055
 7770SOL    HW124209   3.469   6.103   0.984
 7770SOL    HW224210   3.394   5.984   1.068
 7771SOL     OW24211   2.173   1.020   4.691
 7771SOL    HW124212   2.076   1.000   4.705
 7771SOL    HW224213   2.228   0.946   4.729
 7772SOL     OW24214   5.553   0.922   4.813
 7772SOL    HW124215   5.468   0.872   4.831
 7772SOL    HW224216   5.579   0.973   4.894
 7773SOL     OW24217   3.805   4.464   5.667
 7773SOL    HW124218   3.737   4.512   5.612
 7773SOL    HW224219   3.870   4.418   5.607
 7774SOL     OW24220   5.018   1.729   6.807
 7774SOL    HW124221   5.016   1.638   6.765
 7774SOL    HW224222   4.969   1.794   6.749
 7775SOL     OW24223   1.778   0.298   2.034
 7775SOL    HW124224   1.810   0.388   2.005
 7775SOL    HW224225   1.835   0.227   1.993
 7776SOL     OW24226   3.728   3.820   0.941
 7776SOL    HW124227   3.707   3.892   1.006
 7776SOL    HW224228   3.652   3.755   0.938
 7777SOL     OW24229   0.928   6.879   6.459
 7777SOL    HW124230   0.979   6.847   6.539
 7777SOL    HW224231   0.975   6.956   6.418
 7778SOL     OW24232   5.046   1.321   1.787
 7778SOL    HW124233   4.951   1.351   1.780
 7778SOL    HW224234   5.106   1.392   1.751
 7779SOL     OW24235   4.368   3.011   0.516
 7779SOL    HW124236   4.407   2.979   0.602
 7779SOL    HW224237   4.437   3.003   0.444
 7780SOL     OW24238   0.933   0.547   5.034
 7780SOL    HW124239   0.873   0.596   4.971
 7780SOL    HW224240   0.891   0.461   5.061
 7781SOL     OW24241   1.913   4.471   5.176
 7781SOL    HW124242   1.869   4.560   5.189
 7781SOL    HW224243   1.971   4.475   5.094
 7782SOL     OW24244   4.525   5.135   0.140
 7782SOL    HW124245   4.596   5.065   0.148
 7782SOL    HW224246   4.507   5.153   0.043
 7783SOL     OW24247   2.457   5.519   0.025
 7783SOL    HW124248   2.513   5.451   0.072
 7783SOL    HW224249   2.391   5.558   0.089
 7784SOL     OW24250   0.066   2.972   0.359
 7784SOL    HW124251   0.046   3.049   0.420
 7784SOL    HW224252   0.165   2.965   0.346
 7785SOL     OW24253   2.171   5.527   5.525
 7785SOL    HW124254   2.197   5.433   5.502
 7785SOL    HW224255   2.131   5.571   5.445
 7786SOL     OW24256   3.410   4.155   4.324
 7786SOL    HW124257   3.433   4.152   4.422
 7786SOL    HW224258   3.494   4.157   4.270
 7787SOL     OW24259   2.929   2.279   5.188
 7787SOL    HW124260   2.858   2.304   5.122
 7787SOL    HW224261   3.015   2.261   5.140
 7788SOL     OW24262   0.683   1.741   0.760
 7788SOL    HW124263   0.647   1.660   0.806
 7788SOL    HW224264   0.722   1.804   0.829
 7789SOL     OW24265   2.252   0.595   1.407
 7789SOL    HW124266   2.275   0.689   1.385
 7789SOL    HW224267   2.314   0.561   1.478
 7790SOL     OW24268   6.002   3.672   3.081
 7790SOL    HW124269   5.937   3.623   3.139
 7790SOL    HW224270   6.028   3.758   3.125
 7791SOL     OW24271   0.584   4.322   5.130
 7791SOL    HW124272   0.569   4.301   5.227
 7791SOL    HW224273   0.613   4.417   5.120
 7792SOL     OW24274   2.022   5.648   6.662
 7792SOL    HW124275   1.994   5.555   6.641
 7792SOL    HW224276   2.066   5.689   6.582
 7793SOL     OW24277   1.896   0.990   6.356
 7793SOL    HW124278   1.853   1.048   6.287
 7793SOL    HW224279   1.876   0.894   6.337
 7794SOL     OW24280   5.220   5.388   2.678
 7794SOL    HW124281   5.240   5.345   2.766
 7794SOL    HW224282   5.130   5.432   2.682
 7795SOL     OW24283   1.349   4.650   5.855
 7795SOL    HW124284   1.412   4.703   5.912
 7795SOL    HW224285   1.259   4.693   5.855
 7796SOL     OW24286   4.143   3.670   4.618
 7796SOL    HW124287   4.147   3.600   4.547
 7796SOL    HW224288   4.088   3.747   4.587
 7797SOL     OW24289   0.806   6.932   2.912
 7797SOL    HW124290   0.852   6.848   2.941
 7797SOL    HW224291   0.863   6.979   2.844
 7798SOL     OW24292   4.064   6.202   6.166
 7798SOL    HW124293   4.122   6.284   6.167
 7798SOL    HW224294   4.105   6.131   6.223
 7799SOL     OW24295   6.339   4.695   1.323
 7799SOL    HW124296   6.313   4.622   1.261
 7799SOL    HW224297   6.377   4.656   1.407
 7800SOL     OW24298   0.685   6.491   2.304
 7800SOL    HW124299   0.697   6.434   2.223
 7800SOL    HW224300   0.758   6.473   2.370
 7801SOL     OW24301   3.793   2.370   5.386
 7801SOL    HW124302   3.810   2.277   5.354
 7801SOL    HW224303   3.695   2.385   5.396
 7802SOL     OW24304   5.456   1.956   0.371
 7802SOL    HW124305   5.489   2.008   0.449
 7802SOL    HW224306   5.458   1.859   0.392
 7803SOL     OW24307   2.581   4.290   5.360
 7803SOL    HW124308   2.597   4.358   5.431
 7803SOL    HW224309   2.508   4.322   5.299
 7804SOL     OW24310   4.631   1.089   6.431
 7804SOL    HW124311   4.567   1.033   6.380
 7804SOL    HW224312   4.724   1.057   6.414
 7805SOL     OW24313   5.263   3.332   1.772
 7805SOL    HW124314   5.177   3.335   1.720
 7805SOL    HW224315   5.248   3.286   1.859
 7806SOL     OW24316   4.861   3.404   6.739
 7806SOL    HW124317   4.778   3.444   6.778
 7806SOL    HW224318   4.930   3.475   6.729
 7807SOL     OW24319   0.137   3.491   6.644
 7807SOL    HW124320   0.098   3.478   6.735
 7807SOL    HW224321   0.196   3.414   6.621
 7808SOL     OW24322   1.063   1.466   5.444
 7808SOL    HW124323   1.047   1.397   5.514
 7808SOL    HW224324   1.007   1.546   5.463
 7809SOL     OW24325   1.853   5.356   5.629
 7809SOL    HW124326   1.915   5.412   5.684
 7809SOL    HW224327   1.798   5.298   5.689
 7810SOL     OW24328   1.962   1.117   6.849
 7810SOL    HW124329   1.869   1.083   6.839
 7810SOL    HW224330   1.960   1.216   6.861
 7811SOL     OW24331   0.714   4.722   4.718
 7811SOL    HW124332   0.776   4.765   4.653
 7811SOL    HW224333   0.631   4.778   4.727
 7812SOL     OW24334   0.543   2.228   3.915
 7812SOL    HW124335   0.492   2.153   3.873
 7812SOL    HW224336   0.481   2.303   3.937
 7813SOL     OW24337   6.745   2.375   1.104
 7813SOL    HW124338   6.654   2.410   1.128
 7813SOL    HW224339   6.777   2.418   1.020
 7814SOL     OW24340   2.075   4.141   3.959
 7814SOL    HW124341   2.133   4.119   3.881
 7814SOL    HW224342   2.058   4.239   3.962
 7815SOL     OW24343   6.994   1.715   6.010
 7815SOL    HW124344   6.953   1.711   5.919
 7815SOL    HW224345   0.045   1.644   6.018
 7816SOL     OW24346   1.332   4.240   5.062
 7816SOL    HW124347   1.424   4.209   5.040
 7816SOL    HW224348   1.307   4.209   5.154
 7817SOL     OW24349   5.162   3.197   5.261
 7817SOL    HW124350   5.239   3.133   5.259
 7817SOL    HW224351   5.077   3.146   5.258
 7818SOL     OW24352   5.261   4.364   2.683
 7818SOL    HW124353   5.239   4.461   2.693
 7818SOL    HW224354   5.257   4.339   2.586
 7819SOL     OW24355   0.411   1.712   1.400
 7819SOL    HW124356   0.366   1.652   1.466
 7819SOL    HW224357   0.491   1.755   1.442
 7820SOL     OW24358   2.214   0.012   6.561
 7820SOL    HW124359   2.252   0.078   6.496
 7820SOL    HW224360   2.284   6.966   6.586
 7821SOL     OW24361   3.029   5.254   1.165
 7821SOL    HW124362   3.083   5.320   1.113
 7821SOL    HW224363   2.937   5.291   1.180
 7822SOL     OW24364   1.973   6.559   5.531
 7822SOL    HW124365   1.993   6.639   5.475
 7822SOL    HW224366   1.886   6.518   5.503
 7823SOL     OW24367   1.847   4.207   5.135
 7823SOL    HW124368   1.930   4.152   5.145
 7823SOL    HW224369   1.869   4.304   5.149
 7824SOL     OW24370   0.507   3.162   5.277
 7824SOL    HW124371   0.591   3.124   5.236
 7824SOL    HW224372   0.448   3.087   5.306
 7825SOL     OW24373   3.158   0.650   6.945
 7825SOL    HW124374   3.117   0.628   0.014
 7825SOL    HW224375   3.161   0.749   6.934
 7826SOL     OW24376   0.323   2.994   5.384
 7826SOL    HW124377   0.244   2.935   5.371
 7826SOL    HW224378   0.308   3.054   5.462
 7827SOL     OW24379   6.223   5.287   4.701
 7827SOL    HW124380   6.152   5.301   4.770
 7827SOL    HW224381   6.307   5.255   4.746
 7828SOL     OW24382   0.610   5.064   6.538
 7828SOL    HW124383   0.633   4.997   6.609
 7828SOL    HW224384   0.686   5.072   6.474
 7829SOL     OW24385   3.917   4.180   0.772
 7829SOL    HW124386   3.876   4.176   0.681
 7829SOL    HW224387   3.845   4.194   0.840
 7830SOL     OW24388   2.835   5.752   4.008
 7830SOL    HW124389   2.896   5.685   3.967
 7830SOL    HW224390   2.864   5.844   3.984
 7831SOL     OW24391   1.739   6.887   6.243
 7831SOL    HW124392   1.817   6.944   6.269
 7831SOL    HW224393   1.693   6.926   6.163
 7832SOL     OW24394   6.565   0.981   4.958
 7832SOL    HW124395   6.537   0.979   4.862
 7832SOL    HW224396   6.532   0.899   5.004
 7833SOL     OW24397   1.004   0.762   2.769
 7833SOL    HW124398   1.032   0.670   2.795
 7833SOL    HW224399   1.085   0.815   2.742
 7834SOL     OW24400   6.478   2.920   5.617
 7834SOL    HW124401   6.516   2.982   5.548
 7834SOL    HW224402   6.496   2.825   5.591
 7835SOL     OW24403   3.877   2.323   5.704
 7835SOL    HW124404   3.942   2.298   5.632
 7835SOL    HW224405   3.907   2.408   5.748
 7836SOL     OW24406   3.059   3.936   4.214
 7836SOL    HW124407   2.996   3.879   4.160
 7836SOL    HW224408   3.113   3.878   4.274
 7837SOL     OW24409   0.634   5.893   6.483
 7837SOL    HW124410   0.639   5.875   6.384
 7837SOL    HW224411   0.674   5.816   6.533
 7838SOL     OW24412   4.402   5.398   2.090
 7838SOL    HW124413   4.472   5.377   2.023
 7838SOL    HW224414   4.342   5.470   2.054
 7839SOL     OW24415   6.013   3.631   4.578
 7839SOL    HW124416   5.956   3.647   4.659
 7839SOL    HW224417   5.979   3.549   4.530
 7840SOL     OW24418   2.225   3.012   3.735
 7840SOL    HW124419   2.291   2.942   3.705
 7840SOL    HW224420   2.190   2.988   3.825
 7841SOL     OW24421   3.916   2.142   6.472
 7841SOL    HW124422   3.853   2.121   6.396
 7841SOL    HW224423   3.863   2.172   6.551
 7842SOL     OW24424   0.865   1.023   1.666
 7842SOL    HW124425   0.851   1.083   1.586
 7842SOL    HW224426   0.877   0.929   1.635
 7843SOL     OW24427   0.160   6.287   2.555
 7843SOL    HW124428   0.241   6.247   2.598
 7843SOL    HW224429   0.080   6.270   2.613
 7844SOL     OW24430   3.858   6.849   2.889
 7844SOL    HW124431   3.821   6.841   2.796
 7844SOL    HW224432   3.917   6.929   2.894
 7845SOL     OW24433   6.334   2.746   1.240
 7845SOL    HW124434   6.340   2.723   1.142
 7845SOL    HW224435   6.238   2.752   1.267
 7846SOL     OW24436   1.166   1.085   1.053
 7846SOL    HW124437   1.145   0.989   1.031
 7846SOL    HW224438   1.116   1.145   0.991
 7847SOL     OW24439   5.451   4.368   6.099
 7847SOL    HW124440   5.449   4.274   6.063
 7847SOL    HW224441   5.523   4.376   6.167
 7848SOL     OW24442   3.616   4.494   0.606
 7848SOL    HW124443   3.692   4.541   0.651
 7848SOL    HW224444   3.619   4.513   0.508
 7849SOL     OW24445   4.056   5.243   6.860
 7849SOL    HW124446   4.001   5.260   6.778
 7849SOL    HW224447   4.001   5.260   6.942
 7850SOL     OW24448   6.993   0.537   4.259
 7850SOL    HW124449   0.053   0.496   4.213
 7850SOL    HW224450   0.000   0.570   4.349
 7851SOL     OW24451   6.727   4.777   0.933
 7851SOL    HW124452   6.746   4.759   1.030
 7851SOL    HW224453   6.715   4.875   0.919
 7852SOL     OW24454   1.274   2.937   6.474
 7852SOL    HW124455   1.342   2.909   6.542
 7852SOL    HW224456   1.292   2.890   6.388
 7853SOL     OW24457   4.223   2.864   1.633
 7853SOL    HW124458   4.257   2.948   1.675
 7853SOL    HW224459   4.131   2.880   1.597
 7854SOL     OW24460   4.703   1.080   0.538
 7854SOL    HW124461   4.760   1.052   0.616
 7854SOL    HW224462   4.661   1.000   0.497
 7855SOL     OW24463   5.450   6.344   3.816
 7855SOL    HW124464   5.403   6.417   3.766
 7855SOL    HW224465   5.441   6.359   3.915
 7856SOL     OW24466   2.039   6.286   5.523
 7856SOL    HW124467   2.010   6.381   5.510
 7856SOL    HW224468   2.115   6.283   5.587
 7857SOL     OW24469   6.154   4.221   0.864
 7857SOL    HW124470   6.197   4.208   0.954
 7857SOL    HW224471   6.135   4.318   0.850
 7858SOL     OW24472   6.703   3.908   6.397
 7858SOL    HW124473   6.684   3.841   6.468
 7858SOL    HW224474   6.730   3.861   6.313
 7859SOL     OW24475   4.926   1.725   0.646
 7859SOL    HW124476   4.863   1.707   0.722
 7859SOL    HW224477   4.899   1.669   0.567
 7860SOL     OW24478   2.882   1.584   4.287
 7860SOL    HW124479   2.801   1.526   4.283
 7860SOL    HW224480   2.915   1.589   4.381
 7861SOL     OW24481   1.992   6.049   0.899
 7861SOL    HW124482   2.032   6.046   0.808
 7861SOL    HW224483   2.023   6.132   0.947
 7862SOL     OW24484   1.369   6.928   0.116
 7862SOL    HW124485   1.382   6.837   0.156
 7862SOL    HW224486   1.348   6.919   0.019
 7863SOL     OW24487   1.162   4.502   3.992
 7863SOL    HW124488   1.196   4.537   4.079
 7863SOL    HW224489   1.184   4.405   3.984
 7864SOL     OW24490   2.847   5.857   4.974
 7864SOL    HW124491   2.780   5.795   4.932
 7864SOL    HW224492   2.890   5.812   5.052
 7865SOL     OW24493   5.704   4.167   3.407
 7865SOL    HW124494   5.622   4.150   3.461
 7865SOL    HW224495   5.760   4.236   3.453
 7866SOL     OW24496   0.891   0.757   5.669
 7866SOL    HW124497   0.957   0.687   5.695
 7866SOL    HW224498   0.818   0.715   5.614
 7867SOL     OW24499   4.338   5.116   3.947
 7867SOL    HW124500   4.381   5.102   4.037
 7867SOL    HW224501   4.241   5.134   3.959
 7868SOL     OW24502   3.066   6.231   1.394
 7868SOL    HW124503   2.971   6.203   1.408
 7868SOL    HW224504   3.077   6.267   1.301
 7869SOL     OW24505   6.353   5.077   0.367
 7869SOL    HW124506   6.372   4.985   0.334
 7869SOL    HW224507   6.325   5.074   0.462
 7870SOL     OW24508   6.211   6.562   3.370
 7870SOL    HW124509   6.146   6.560   3.445
 7870SOL    HW224510   6.289   6.503   3.391
 7871SOL     OW24511   4.531   0.939   0.778
 7871SOL    HW124512   4.611   0.939   0.717
 7871SOL    HW224513   4.448   0.938   0.723
 7872SOL     OW24514   0.530   5.438   3.069
 7872SOL    HW124515   0.580   5.390   2.997
 7872SOL    HW224516   0.585   5.514   3.103
 7873SOL     OW24517   4.740   2.014   0.024
 7873SOL    HW124518   4.827   2.039   0.067
 7873SOL    HW224519   4.665   2.041   0.084
 7874SOL     OW24520   5.785   2.751   0.400
 7874SOL    HW124521   5.709   2.812   0.420
 7874SOL    HW224522   5.753   2.678   0.339
 7875SOL     OW24523   6.313   4.777   6.622
 7875SOL    HW124524   6.396   4.777   6.678
 7875SOL    HW224525   6.256   4.699   6.647
 7876SOL     OW24526   1.598   6.857   3.419
 7876SOL    HW124527   1.666   6.789   3.392
 7876SOL    HW224528   1.507   6.826   3.393
 7877SOL     OW24529   0.210   3.143   2.613
 7877SOL    HW124530   0.196   3.215   2.545
 7877SOL    HW224531   0.296   3.096   2.595
 7878SOL     OW24532   3.897   6.462   2.712
 7878SOL    HW124533   3.941   6.419   2.633
 7878SOL    HW224534   3.816   6.511   2.682
 7879SOL     OW24535   3.357   5.821   3.035
 7879SOL    HW124536   3.385   5.727   3.018
 7879SOL    HW224537   3.435   5.882   3.022
 7880SOL     OW24538   0.944   4.832   2.369
 7880SOL    HW124539   0.971   4.793   2.457
 7880SOL    HW224540   0.891   4.766   2.318
 7881SOL     OW24541   4.810   4.137   3.493
 7881SOL    HW124542   4.847   4.044   3.485
 7881SOL    HW224543   4.885   4.201   3.509
 7882SOL     OW24544   0.723   3.358   7.007
 7882SOL    HW124545   0.791   3.302   6.959
 7882SOL    HW224546   0.671   3.300   0.049
 7883SOL     OW24547   1.147   0.318   5.169
 7883SOL    HW124548   1.076   0.264   5.124
 7883SOL    HW224549   1.173   0.275   5.255
 7884SOL     OW24550   1.095   3.067   4.191
 7884SOL    HW124551   1.020   3.083   4.256
 7884SOL    HW224552   1.178   3.112   4.223
 7885SOL     OW24553   0.257   6.174   6.656
 7885SOL    HW124554   0.310   6.224   6.588
 7885SOL    HW224555   0.232   6.084   6.620
 7886SOL     OW24556   5.384   4.271   1.061
 7886SOL    HW124557   5.430   4.208   1.123
 7886SOL    HW224558   5.291   4.287   1.093
 7887SOL     OW24559   4.988   3.260   6.550
 7887SOL    HW124560   4.953   3.308   6.631
 7887SOL    HW224561   4.964   3.312   6.468
 7888SOL     OW24562   4.712   6.086   4.939
 7888SOL    HW124563   4.725   6.067   4.841
 7888SOL    HW224564   4.665   6.008   4.981
 7889SOL     OW24565   6.829   5.484   3.214
 7889SOL    HW124566   6.767   5.408   3.195
 7889SOL    HW224567   6.862   5.522   3.127
 7890SOL     OW24568   2.060   3.275   2.355
 7890SOL    HW124569   1.967   3.308   2.371
 7890SOL    HW224570   2.121   3.311   2.426
 7891SOL     OW24571   0.885   4.942   3.017
 7891SOL    HW124572   0.922   4.899   2.935
 7891SOL    HW224573   0.960   4.980   3.071
 7892SOL     OW24574   2.384   2.181   5.002
 7892SOL    HW124575   2.293   2.142   5.013
 7892SOL    HW224576   2.419   2.212   5.091
 7893SOL     OW24577   5.919   6.715   1.418
 7893SOL    HW124578   5.966   6.770   1.487
 7893SOL    HW224579   5.829   6.754   1.400
 7894SOL     OW24580   3.018   0.534   1.789
 7894SOL    HW124581   3.018   0.632   1.766
 7894SOL    HW224582   3.060   0.522   1.879
 7895SOL     OW24583   0.023   1.346   3.679
 7895SOL    HW124584   0.040   1.325   3.583
 7895SOL    HW224585   0.049   1.441   3.698
 7896SOL     OW24586   4.005   1.856   6.495
 7896SOL    HW124587   3.977   1.944   6.457
 7896SOL    HW224588   3.930   1.791   6.486
 7897SOL     OW24589   3.171   2.686   6.560
 7897SOL    HW124590   3.094   2.685   6.497
 7897SOL    HW224591   3.256   2.702   6.509
 7898SOL     OW24592   4.905   1.154   4.151
 7898SOL    HW124593   4.881   1.168   4.247
 7898SOL    HW224594   4.905   1.241   4.103
 7899SOL     OW24595   4.075   1.429   2.078
 7899SOL    HW124596   4.088   1.528   2.081
 7899SOL    HW224597   4.162   1.384   2.058
 7900SOL     OW24598   1.215   5.688   1.304
 7900SOL    HW124599   1.307   5.715   1.332
 7900SOL    HW224600   1.174   5.630   1.374
 7901SOL     OW24601   6.190   5.351   0.697
 7901SOL    HW124602   6.171   5.415   0.771
 7901SOL    HW224603   6.119   5.281   0.695
 7902SOL     OW24604   5.185   4.688   5.533
 7902SOL    HW124605   5.157   4.609   5.479
 7902SOL    HW224606   5.107   4.723   5.585
 7903SOL     OW24607   0.276   2.819   0.237
 7903SOL    HW124608   0.351   2.883   0.253
 7903SOL    HW224609   0.284   2.742   0.301
 7904SOL     OW24610   6.123   2.140   2.794
 7904SOL    HW124611   6.085   2.200   2.865
 7904SOL    HW224612   6.051   2.115   2.730
 7905SOL     OW24613   1.851   2.451   1.757
 7905SOL    HW124614   1.810   2.528   1.806
 7905SOL    HW224615   1.907   2.397   1.821
 7906SOL     OW24616   0.357   4.285   6.949
 7906SOL    HW124617   0.417   4.320   6.877
 7906SOL    HW224618   0.409   4.273   0.013
 7907SOL     OW24619   6.603   2.761   2.001
 7907SOL    HW124620   6.664   2.757   1.922
 7907SOL    HW224621   6.609   2.852   2.042
 7908SOL     OW24622   6.848   1.052   3.062
 7908SOL    HW124623   6.791   1.058   2.980
 7908SOL    HW224624   6.944   1.045   3.035
 7909SOL     OW24625   4.048   6.282   4.928
 7909SOL    HW124626   4.048   6.189   4.965
 7909SOL    HW224627   4.110   6.339   4.981
 7910SOL     OW24628   6.052   2.949   6.147
 7910SOL    HW124629   6.074   2.947   6.244
 7910SOL    HW224630   6.122   2.900   6.095
 7911SOL     OW24631   6.633   5.472   6.717
 7911SOL    HW124632   6.691   5.547   6.751
 7911SOL    HW224633   6.689   5.409   6.663
 7912SOL     OW24634   0.162   4.919   5.505
 7912SOL    HW124635   0.102   4.903   5.583
 7912SOL    HW224636   0.256   4.900   5.531
 7913SOL     OW24637   1.192   6.233   6.503
 7913SOL    HW124638   1.205   6.163   6.574
 7913SOL    HW224639   1.256   6.216   6.428
 7914SOL     OW24640   6.552   4.060   1.176
 7914SOL    HW124641   6.475   4.082   1.236
 7914SOL    HW224642   6.527   4.079   1.081
 7915SOL     OW24643   3.573   1.086   2.688
 7915SOL    HW124644   3.548   1.170   2.737
 7915SOL    HW224645   3.605   1.018   2.754
 7916SOL     OW24646   4.623   4.037   5.757
 7916SOL    HW124647   4.602   3.940   5.763
 7916SOL    HW224648   4.538   4.090   5.755
 7917SOL     OW24649   4.155   3.472   3.707
 7917SOL    HW124650   4.149   3.425   3.618
 7917SOL    HW224651   4.157   3.571   3.692
 7918SOL     OW24652   6.432   2.016   2.593
 7918SOL    HW124653   6.468   2.023   2.500
 7918SOL    HW224654   6.453   2.100   2.643
 7919SOL     OW24655   5.538   4.419   1.837
 7919SOL    HW124656   5.586   4.351   1.782
 7919SOL    HW224657   5.453   4.380   1.873
 7920SOL     OW24658   0.032   6.926   1.660
 7920SOL    HW124659   0.051   6.950   1.755
 7920SOL    HW224660   0.094   6.853   1.631
 7921SOL     OW24661   2.145   6.094   1.932
 7921SOL    HW124662   2.081   6.037   1.879
 7921SOL    HW224663   2.127   6.190   1.912
 7922SOL     OW24664   0.796   4.724   5.619
 7922SOL    HW124665   0.804   4.756   5.714
 7922SOL    HW224666   0.852   4.783   5.560
 7923SOL     OW24667   0.337   1.971   3.087
 7923SOL    HW124668   0.418   1.958   3.030
 7923SOL    HW224669   0.341   2.062   3.129
 7924SOL     OW24670   1.934   1.355   3.670
 7924SOL    HW124671   1.934   1.268   3.621
 7924SOL    HW224672   1.990   1.421   3.619
 7925SOL     OW24673   0.206   1.428   6.615
 7925SOL    HW124674   0.263   1.455   6.537
 7925SOL    HW224675   0.220   1.492   6.690
 7926SOL     OW24676   3.078   0.049   2.044
 7926SOL    HW124677   2.985   0.044   2.007
 7926SOL    HW224678   3.074   0.086   2.137
 7927SOL     OW24679   4.844   4.205   4.536
 7927SOL    HW124680   4.835   4.127   4.599
 7927SOL    HW224681   4.781   4.278   4.564
 7928SOL     OW24682   0.784   4.620   7.008
 7928SOL    HW124683   0.836   4.536   6.994
 7928SOL    HW224684   0.721   4.633   6.932
 7929SOL     OW24685   4.005   3.876   4.566
 7929SOL    HW124686   3.989   3.944   4.494
 7929SOL    HW224687   3.936   3.887   4.638
 7930SOL     OW24688   5.173   6.187   3.165
 7930SOL    HW124689   5.226   6.156   3.244
 7930SOL    HW224690   5.095   6.126   3.150
 7931SOL     OW24691   2.901   3.450   6.520
 7931SOL    HW124692   2.917   3.411   6.611
 7931SOL    HW224693   2.989   3.467   6.476
 7932SOL     OW24694   2.986   0.285   0.796
 7932SOL    HW124695   2.892   0.255   0.783
 7932SOL    HW224696   3.013   0.343   0.719
 7933SOL     OW24697   1.602   0.839   5.974
 7933SOL    HW124698   1.609   0.750   5.928
 7933SOL    HW224699   1.694   0.877   5.986
 7934SOL     OW24700   3.920   2.661   5.668
 7934SOL    HW124701   3.980   2.729   5.626
 7934SOL    HW224702   3.951   2.641   5.760
 7935SOL     OW24703   4.606   5.390   1.886
 7935SOL    HW124704   4.642   5.483   1.895
 7935SOL    HW224705   4.622   5.358   1.792
 7936SOL     OW24706   4.317   6.013   2.707
 7936SOL    HW124707   4.305   5.917   2.683
 7936SOL    HW224708   4.403   6.024   2.757
 7937SOL     OW24709   5.980   0.661   5.483
 7937SOL    HW124710   6.071   0.696   5.505
 7937SOL    HW224711   5.936   0.627   5.566
 7938SOL     OW24712   6.252   4.754   4.401
 7938SOL    HW124713   6.315   4.683   4.431
 7938SOL    HW224714   6.271   4.778   4.306
 7939SOL     OW24715   0.402   0.013   4.098
 7939SOL    HW124716   0.395   0.041   4.193
 7939SOL    HW224717   0.435   0.090   4.043
 7940SOL     OW24718   1.461   5.600   0.692
 7940SOL    HW124719   1.391   5.563   0.753
 7940SOL    HW224720   1.534   5.642   0.747
 7941SOL     OW24721   0.346   0.465   0.936
 7941SOL    HW124722   0.391   0.477   1.025
 7941SOL    HW224723   0.350   0.552   0.886
 7942SOL     OW24724   1.478   0.908   1.289
 7942SOL    HW124725   1.441   0.949   1.206
 7942SOL    HW224726   1.449   0.962   1.368
 7943SOL     OW24727   6.315   2.349   0.350
 7943SOL    HW124728   6.233   2.407   0.356
 7943SOL    HW224729   6.386   2.398   0.299
 7944SOL     OW24730   6.978   3.613   1.919
 7944SOL    HW124731   0.055   3.589   1.924
 7944SOL    HW224732   6.925   3.548   1.974
 7945SOL     OW24733   4.970   0.220   1.146
 7945SOL    HW124734   5.023   0.303   1.128
 7945SOL    HW224735   4.873   0.238   1.129
 7946SOL     OW24736   1.503   1.399   5.966
 7946SOL    HW124737   1.462   1.379   5.878
 7946SOL    HW224738   1.463   1.339   6.036
 7947SOL     OW24739   4.597   5.389   6.105
 7947SOL    HW124740   4.686   5.424   6.133
 7947SOL    HW224741   4.548   5.356   6.186
 7948SOL     OW24742   0.860   4.993   5.994
 7948SOL    HW124743   0.831   4.898   5.985
 7948SOL    HW224744   0.846   5.022   6.089
 7949SOL     OW24745   6.697   4.002   3.751
 7949SOL    HW124746   6.742   4.087   3.780
 7949SOL    HW224747   6.726   3.927   3.811
 7950SOL     OW24748   3.661   5.117   4.072
 7950SOL    HW124749   3.716   5.135   3.990
 7950SOL    HW224750   3.569   5.152   4.059
 7951SOL     OW24751   2.889   3.476   0.513
 7951SOL    HW124752   2.813   3.411   0.520
 7951SOL    HW224753   2.948   3.467   0.593
 7952SOL     OW24754   5.412   4.585   0.565
 7952SOL    HW124755   5.428   4.662   0.626
 7952SOL    HW224756   5.359   4.515   0.613
 7953SOL     OW24757   2.137   3.665   2.715
 7953SOL    HW124758   2.213   3.678   2.651
 7953SOL    HW224759   2.062   3.727   2.691
 7954SOL     OW24760   5.465   5.499   4.598
 7954SOL    HW124761   5.473   5.585   4.650
 7954SOL    HW224762   5.556   5.460   4.584
 7955SOL     OW24763   2.139   6.058   5.834
 7955SOL    HW124764   2.130   5.996   5.912
 7955SOL    HW224765   2.212   6.124   5.852
 7956SOL     OW24766   6.553   6.421   3.027
 7956SOL    HW124767   6.479   6.488   3.025
 7956SOL    HW224768   6.569   6.387   2.935
 7957SOL     OW24769   0.928   2.056   0.877
 7957SOL    HW124770   0.855   2.056   0.944
 7957SOL    HW224771   0.920   2.138   0.819
 7958SOL     OW24772   2.815   6.175   3.717
 7958SOL    HW124773   2.724   6.159   3.678
 7958SOL    HW224774   2.884   6.137   3.655
 7959SOL     OW24775   5.009   5.515   0.925
 7959SOL    HW124776   4.991   5.418   0.909
 7959SOL    HW224777   5.088   5.543   0.871
 7960SOL     OW24778   2.204   2.476   1.288
 7960SOL    HW124779   2.281   2.489   1.225
 7960SOL    HW224780   2.239   2.457   1.379
 7961SOL     OW24781   1.227   5.940   0.282
 7961SOL    HW124782   1.154   5.872   0.279
 7961SOL    HW224783   1.244   5.976   0.191
 7962SOL     OW24784   1.496   6.740   2.270
 7962SOL    HW124785   1.572   6.721   2.332
 7962SOL    HW224786   1.514   6.825   2.220
 7963SOL     OW24787   1.001   6.472   4.664
 7963SOL    HW124788   0.974   6.565   4.688
 7963SOL    HW224789   0.928   6.408   4.687
 7964SOL     OW24790   6.381   5.761   3.588
 7964SOL    HW124791   6.366   5.740   3.685
 7964SOL    HW224792   6.298   5.739   3.537
 7965SOL     OW24793   5.193   1.817   0.634
 7965SOL    HW124794   5.206   1.820   0.535
 7965SOL    HW224795   5.102   1.781   0.655
 7966SOL     OW24796   6.920   0.081   3.535
 7966SOL    HW124797   6.923   0.116   3.628
 7966SOL    HW224798   6.946   0.154   3.471
 7967SOL     OW24799   3.047   0.284   3.426
 7967SOL    HW124800   3.127   0.315   3.477
 7967SOL    HW224801   2.964   0.304   3.478
 7968SOL     OW24802   2.546   0.829   1.560
 7968SOL    HW124803   2.627   0.776   1.583
 7968SOL    HW224804   2.526   0.819   1.462
 7969SOL     OW24805   3.455   1.564   3.252
 7969SOL    HW124806   3.510   1.629   3.304
 7969SOL    HW224807   3.416   1.609   3.172
 7970SOL     OW24808   0.133   4.893   3.335
 7970SOL    HW124809   0.089   4.904   3.246
 7970SOL    HW224810   0.205   4.825   3.328
 7971SOL     OW24811   3.100   1.557   2.415
 7971SOL    HW124812   3.118   1.474   2.362
 7971SOL    HW224813   3.146   1.551   2.503
 7972SOL     OW24814   6.595   5.197   1.460
 7972SOL    HW124815   6.497   5.177   1.459
 7972SOL    HW224816   6.612   5.279   1.515
 7973SOL     OW24817   4.920   2.068   2.950
 7973SOL    HW124818   4.823   2.056   2.928
 7973SOL    HW224819   4.932   2.154   3.000
 7974SOL     OW24820   5.657   6.202   3.667
 7974SOL    HW124821   5.600   6.274   3.706
 7974SOL    HW224822   5.749   6.236   3.653
 7975SOL     OW24823   1.459   1.650   2.633
 7975SOL    HW124824   1.543   1.602   2.607
 7975SOL    HW224825   1.473   1.696   2.721
 7976SOL     OW24826   1.076   6.395   5.916
 7976SOL    HW124827   1.020   6.371   5.996
 7976SOL    HW224828   1.144   6.463   5.942
 7977SOL     OW24829   4.720   6.535   1.524
 7977SOL    HW124830   4.772   6.495   1.448
 7977SOL    HW224831   4.783   6.586   1.584
 7978SOL     OW24832   3.525   2.387   5.394
 7978SOL    HW124833   3.479   2.450   5.456
 7978SOL    HW224834   3.465   2.310   5.374
 7979SOL     OW24835   5.277   6.604   3.957
 7979SOL    HW124836   5.308   6.625   3.864
 7979SOL    HW224837   5.293   6.684   4.016
 7980SOL     OW24838   2.914   0.733   2.659
 7980SOL    HW124839   2.856   0.788   2.598
 7980SOL    HW224840   2.864   0.652   2.688
 7981SOL     OW24841   0.702   5.867   2.663
 7981SOL    HW124842   0.794   5.881   2.626
 7981SOL    HW224843   0.653   5.802   2.605
 7982SOL     OW24844   6.883   2.615   0.088
 7982SOL    HW124845   6.932   2.698   0.112
 7982SOL    HW224846   6.879   2.554   0.168
 7983SOL     OW24847   4.692   2.711   1.874
 7983SOL    HW124848   4.593   2.697   1.864
 7983SOL    HW224849   4.709   2.804   1.908
 7984SOL     OW24850   6.757   0.122   0.124
 7984SOL    HW124851   6.664   0.127   0.161
 7984SOL    HW224852   6.756   0.076   0.036
 7985SOL     OW24853   0.642   0.993   1.057
 7985SOL    HW124854   0.670   1.025   0.967
 7985SOL    HW224855   0.614   1.071   1.113
 7986SOL     OW24856   4.799   3.348   0.035
 7986SOL    HW124857   4.730   3.380   6.989
 7986SOL    HW224858   4.753   3.312   0.116
 7987SOL     OW24859   1.278   2.896   4.866
 7987SOL    HW124860   1.207   2.836   4.902
 7987SOL    HW224861   1.344   2.917   4.938
 7988SOL     OW24862   2.881   1.584   5.468
 7988SOL    HW124863   2.890   1.638   5.552
 7988SOL    HW224864   2.871   1.645   5.390
 7989SOL     OW24865   3.583   3.342   6.437
 7989SOL    HW124866   3.521   3.327   6.360
 7989SOL    HW224867   3.677   3.339   6.406
 7990SOL     OW24868   2.231   2.900   4.844
 7990SOL    HW124869   2.298   2.910   4.918
 7990SOL    HW224870   2.254   2.820   4.789
 7991SOL     OW24871   1.826   3.059   6.073
 7991SOL    HW124872   1.742   3.060   6.126
 7991SOL    HW224873   1.883   3.137   6.100
 7992SOL     OW24874   2.829   1.329   0.830
 7992SOL    HW124875   2.771   1.410   0.827
 7992SOL    HW224876   2.915   1.351   0.874
 7993SOL     OW24877   2.380   6.333   6.493
 7993SOL    HW124878   2.452   6.274   6.527
 7993SOL    HW224879   2.294   6.311   6.539
 7994SOL     OW24880   5.708   1.014   4.158
 7994SOL    HW124881   5.679   1.063   4.076
 7994SOL    HW224882   5.737   0.922   4.133
 7995SOL     OW24883   4.285   5.362   3.323
 7995SOL    HW124884   4.347   5.406   3.388
 7995SOL    HW224885   4.332   5.348   3.236
 7996SOL     OW24886   4.571   1.194   5.371
 7996SOL    HW124887   4.604   1.189   5.277
 7996SOL    HW224888   4.645   1.170   5.434
 7997SOL     OW24889   5.399   2.671   2.179
 7997SOL    HW124890   5.392   2.681   2.278
 7997SOL    HW224891   5.476   2.724   2.145
 7998SOL     OW24892   6.142   4.640   6.299
 7998SOL    HW124893   6.149   4.708   6.372
 7998SOL    HW224894   6.055   4.651   6.251
 7999SOL     OW24895   1.764   0.663   5.729
 7999SOL    HW124896   1.691   0.617   5.778
 7999SOL    HW224897   1.724   0.720   5.657
 8000SOL     OW24898   5.341   0.472   5.656
 8000SOL    HW124899   5.403   0.394   5.664
 8000SOL    HW224900   5.292   0.484   5.742
 8001SOL     OW24901   2.433   5.477   1.023
 8001SOL    HW124902   2.356   5.417   1.005
 8001SOL    HW224903   2.440   5.546   0.950
 8002SOL     OW24904   5.010   2.338   5.558
 8002SOL    HW124905   4.991   2.401   5.483
 8002SOL    HW224906   4.961   2.368   5.640
 8003SOL     OW24907   4.120   5.940   3.485
 8003SOL    HW124908   4.202   5.997   3.480
 8003SOL    HW224909   4.142   5.848   3.453
 8004SOL     OW24910   1.131   4.274   2.975
 8004SOL    HW124911   1.083   4.194   3.010
 8004SOL    HW224912   1.083   4.310   2.895
 8005SOL     OW24913   1.862   0.726   2.399
 8005SOL    HW124914   1.915   0.803   2.363
 8005SOL    HW224915   1.881   0.645   2.344
 8006SOL     OW24916   3.480   6.563   2.019
 8006SOL    HW124917   3.400   6.503   2.012
 8006SOL    HW224918   3.496   6.607   1.930
 8007SOL     OW24919   0.366   1.114   3.882
 8007SOL    HW124920   0.329   1.085   3.794
 8007SOL    HW224921   0.405   1.035   3.930
 8008SOL     OW24922   5.783   5.402   0.733
 8008SOL    HW124923   5.818   5.317   0.694
 8008SOL    HW224924   5.687   5.390   0.758
 8009SOL     OW24925   0.001   0.182   4.272
 8009SOL    HW124926   0.050   0.107   4.229
 8009SOL    HW224927   6.923   0.165   4.267
 8010SOL     OW24928   1.793   2.853   6.792
 8010SOL    HW124929   1.734   2.773   6.786
 8010SOL    HW224930   1.836   2.870   6.703
 8011SOL     OW24931   2.107   2.681   0.461
 8011SOL    HW124932   2.163   2.746   0.513
 8011SOL    HW224933   2.109   2.592   0.507
 8012SOL     OW24934   3.011   0.364   3.172
 8012SOL    HW124935   3.017   0.357   3.271
 8012SOL    HW224936   2.958   0.445   3.147
 8013SOL     OW24937   5.747   5.614   4.709
 8013SOL    HW124938   5.846   5.624   4.723
 8013SOL    HW224939   5.700   5.631   4.795
 8014SOL     OW24940   2.133   6.875   0.129
 8014SOL    HW124941   2.142   6.794   0.071
 8014SOL    HW224942   2.037   6.902   0.134
 8015SOL     OW24943   1.722   2.018   5.957
 8015SOL    HW124944   1.749   2.114   5.945
 8015SOL    HW224945   1.750   1.987   6.047
 8016SOL     OW24946   4.149   5.961   1.943
 8016SOL    HW124947   4.074   6.026   1.952
 8016SOL    HW224948   4.211   5.970   2.021
 8017SOL     OW24949   6.221   3.019   5.473
 8017SOL    HW124950   6.273   3.028   5.558
 8017SOL    HW224951   6.204   2.922   5.454
 8018SOL     OW24952   5.938   2.628   4.999
 8018SOL    HW124953   5.851   2.630   5.049
 8018SOL    HW224954   5.926   2.672   4.910
 8019SOL     OW24955   2.202   5.260   1.308
 8019SOL    HW124956   2.162   5.210   1.385
 8019SOL    HW224957   2.200   5.202   1.227
 8020SOL     OW24958   5.787   6.179   6.510
 8020SOL    HW124959   5.835   6.238   6.445
 8020SOL    HW224960   5.724   6.234   6.565
 8021SOL     OW24961   6.885   0.988   0.559
 8021SOL    HW124962   6.913   1.052   0.631
 8021SOL    HW224963   6.886   1.035   0.471
 8022SOL     OW24964   4.562   5.137   3.601
 8022SOL    HW124965   4.538   5.055   3.655
 8022SOL    HW224966   4.586   5.110   3.508
 8023SOL     OW24967   6.846   6.254   3.168
 8023SOL    HW124968   6.766   6.201   3.198
 8023SOL    HW224969   6.896   6.202   3.098
 8024SOL     OW24970   4.983   5.752   5.150
 8024SOL    HW124971   4.964   5.654   5.144
 8024SOL    HW224972   4.937   5.790   5.230
 8025SOL     OW24973   2.786   5.780   0.645
 8025SOL    HW124974   2.770   5.849   0.716
 8025SOL    HW224975   2.702   5.765   0.593
 8026SOL     OW24976   2.583   3.055   0.174
 8026SOL    HW124977   2.680   3.077   0.166
 8026SOL    HW224978   2.544   3.044   0.083
 8027SOL     OW24979   4.650   3.532   5.658
 8027SOL    HW124980   4.631   3.464   5.587
 8027SOL    HW224981   4.715   3.600   5.623
 8028SOL     OW24982   5.250   5.524   0.788
 8028SOL    HW124983   5.311   5.598   0.761
 8028SOL    HW224984   5.269   5.498   0.883
 8029SOL     OW24985   2.998   4.239   0.155
 8029SOL    HW124986   3.011   4.141   0.139
 8029SOL    HW224987   2.968   4.283   0.070
 8030SOL     OW24988   6.255   3.504   0.697
 8030SOL    HW124989   6.254   3.428   0.631
 8030SOL    HW224990   6.336   3.496   0.755
 8031SOL     OW24991   3.623   6.532   1.350
 8031SOL    HW124992   3.625   6.605   1.281
 8031SOL    HW224993   3.712   6.528   1.396
 8032SOL     OW24994   4.994   4.789   5.692
 8032SOL    HW124995   4.967   4.704   5.738
 8032SOL    HW224996   4.952   4.867   5.740
 8033SOL     OW24997   6.096   2.185   0.740
 8033SOL    HW124998   6.153   2.117   0.785
 8033SOL    HW224999   6.147   2.271   0.730
 8034SOL     OW25000   6.611   1.585   4.987
 8034SOL    HW125001   6.552   1.513   5.022
 8034SOL    HW225002   6.706   1.564   5.010
 8035SOL     OW25003   5.599   5.657   6.766
 8035SOL    HW125004   5.583   5.746   6.808
 8035SOL    HW225005   5.671   5.609   6.816
 8036SOL     OW25006   1.213   4.583   1.328
 8036SOL    HW125007   1.126   4.533   1.335
 8036SOL    HW225008   1.266   4.570   1.412
 8037SOL     OW25009   1.998   3.070   1.499
 8037SOL    HW125010   2.006   3.169   1.487
 8037SOL    HW225011   2.037   3.045   1.588
 8038SOL     OW25012   6.148   1.154   4.060
 8038SOL    HW125013   6.122   1.077   4.002
 8038SOL    HW225014   6.126   1.240   4.014
 8039SOL     OW25015   2.858   6.378   4.654
 8039SOL    HW125016   2.889   6.323   4.577
 8039SOL    HW225017   2.758   6.383   4.654
 8040SOL     OW25018   5.939   5.921   0.454
 8040SOL    HW125019   5.844   5.891   0.457
 8040SOL    HW225020   5.943   6.019   0.434
 8041SOL     OW25021   3.894   2.061   0.985
 8041SOL    HW125022   3.812   2.109   0.954
 8041SOL    HW225023   3.882   2.033   1.081
 8042SOL     OW25024   2.695   4.453   0.547
 8042SOL    HW125025   2.699   4.399   0.463
 8042SOL    HW225026   2.744   4.406   0.620
 8043SOL     OW25027   2.599   0.486   1.093
 8043SOL    HW125028   2.530   0.545   1.052
 8043SOL    HW225029   2.679   0.481   1.033
 8044SOL     OW25030   3.324   3.659   1.602
 8044SOL    HW125031   3.243   3.601   1.606
 8044SOL    HW225032   3.299   3.751   1.573
 8045SOL     OW25033   6.235   3.147   3.842
 8045SOL    HW125034   6.332   3.160   3.822
 8045SOL    HW225035   6.225   3.108   3.934
 8046SOL     OW25036   0.390   5.423   5.406
 8046SOL    HW125037   0.484   5.456   5.406
 8046SOL    HW225038   0.334   5.480   5.346
 8047SOL     OW25039   2.835   6.971   4.232
 8047SOL    HW125040   2.765   6.942   4.298
 8047SOL    HW225041   2.853   6.896   4.168
 8048SOL     OW25042   6.253   1.129   5.615
 8048SOL    HW125043   6.252   1.197   5.541
 8048SOL    HW225044   6.160   1.118   5.651
 8049SOL     OW25045   1.054   6.958   0.590
 8049SOL    HW125046   1.055   6.944   0.689
 8049SOL    HW225047   1.115   6.892   0.546
 8050SOL     OW25048   0.249   3.097   1.015
 8050SOL    HW125049   0.226   3.013   1.064
 8050SOL    HW225050   0.340   3.089   0.974
 8051SOL     OW25051   3.294   1.794   3.568
 8051SOL    HW125052   3.285   1.696   3.585
 8051SOL    HW225053   3.335   1.838   3.648
 8052SOL     OW25054   3.466   2.035   3.221
 8052SOL    HW125055   3.445   2.069   3.129
 8052SOL    HW225056   3.557   2.065   3.247
 8053SOL     OW25057   4.325   3.388   1.687
 8053SOL    HW125058   4.233   3.417   1.714
 8053SOL    HW225059   4.335   3.290   1.702
 8054SOL     OW25060   4.578   5.909   3.983
 8054SOL    HW125061   4.506   5.915   4.052
 8054SOL    HW225062   4.659   5.866   4.023
 8055SOL     OW25063   0.781   6.875   5.068
 8055SOL    HW125064   0.864   6.906   5.115
 8055SOL    HW225065   0.701   6.907   5.117
 8056SOL     OW25066   4.317   1.379   2.273
 8056SOL    HW125067   4.260   1.303   2.305
 8056SOL    HW225068   4.317   1.452   2.341
 8057SOL     OW25069   3.219   0.074   3.790
 8057SOL    HW125070   3.283   0.067   3.713
 8057SOL    HW225071   3.250   0.145   3.853
 8058SOL     OW25072   2.457   0.411   3.721
 8058SOL    HW125073   2.370   0.442   3.761
 8058SOL    HW225074   2.439   0.345   3.649
 8059SOL     OW25075   2.475   1.148   3.548
 8059SOL    HW125076   2.421   1.124   3.629
 8059SOL    HW225077   2.521   1.236   3.564
 8060SOL     OW25078   1.101   2.862   5.102
 8060SOL    HW125079   1.061   2.846   5.011
 8060SOL    HW225080   1.029   2.891   5.165
 8061SOL     OW25081   6.685   5.947   2.255
 8061SOL    HW125082   6.698   6.012   2.180
 8061SOL    HW225083   6.682   5.996   2.342
 8062SOL     OW25084   1.806   3.479   1.916
 8062SOL    HW125085   1.827   3.513   2.008
 8062SOL    HW225086   1.886   3.433   1.878
 8063SOL     OW25087   2.457   2.972   6.270
 8063SOL    HW125088   2.523   2.897   6.263
 8063SOL    HW225089   2.474   3.022   6.356
 8064SOL     OW25090   6.580   2.421   6.866
 8064SOL    HW125091   6.530   2.506   6.851
 8064SOL    HW225092   6.516   2.349   6.894
 8065SOL     OW25093   4.375   6.910   6.437
 8065SOL    HW125094   4.446   6.920   6.368
 8065SOL    HW225095   4.406   6.846   6.507
 8066SOL     OW25096   2.251   6.906   1.690
 8066SOL    HW125097   2.157   6.891   1.657
 8066SOL    HW225098   2.295   6.976   1.633
 8067SOL     OW25099   4.823   2.375   2.240
 8067SOL    HW125100   4.816   2.292   2.185
 8067SOL    HW225101   4.818   2.455   2.181
 8068SOL     OW25102   6.447   4.546   4.431
 8068SOL    HW125103   6.495   4.558   4.344
 8068SOL    HW225104   6.434   4.448   4.448
 8069SOL     OW25105   1.399   6.834   2.554
 8069SOL    HW125106   1.388   6.744   2.597
 8069SOL    HW225107   1.480   6.833   2.495
 8070SOL     OW25108   3.883   0.158   2.711
 8070SOL    HW125109   3.907   0.254   2.729
 8070SOL    HW225110   3.787   0.143   2.736
 8071SOL     OW25111   4.246   6.512   6.928
 8071SOL    HW125112   4.193   6.455   6.865
 8071SOL    HW225113   4.199   6.518   7.016
 8072SOL     OW25114   5.001   0.275   2.627
 8072SOL    HW125115   4.968   0.181   2.636
 8072SOL    HW225116   4.925   0.336   2.608
 8073SOL     OW25117   4.824   0.166   5.932
 8073SOL    HW125118   4.898   0.161   5.998
 8073SOL    HW225119   4.786   0.074   5.917
 8074SOL     OW25120   3.460   4.137   6.812
 8074SOL    HW125121   3.367   4.152   6.779
 8074SOL    HW225122   3.466   4.158   6.909
 8075SOL     OW25123   5.559   2.627   3.162
 8075SOL    HW125124   5.589   2.596   3.252
 8075SOL    HW225125   5.468   2.590   3.142
 8076SOL     OW25126   4.604   2.931   6.179
 8076SOL    HW125127   4.540   2.890   6.245
 8076SOL    HW225128   4.552   2.984   6.112
 8077SOL     OW25129   1.166   0.063   6.963
 8077SOL    HW125130   1.246   0.122   6.969
 8077SOL    HW225131   1.117   0.064   0.031
 8078SOL     OW25132   6.095   2.757   0.927
 8078SOL    HW125133   6.070   2.661   0.909
 8078SOL    HW225134   6.135   2.796   0.844
 8079SOL     OW25135   0.923   2.023   1.702
 8079SOL    HW125136   0.945   1.927   1.715
 8079SOL    HW225137   0.887   2.061   1.787
 8080SOL     OW25138   3.915   5.031   0.382
 8080SOL    HW125139   3.891   5.074   0.469
 8080SOL    HW225140   3.894   4.934   0.385
 8081SOL     OW25141   5.769   1.899   5.132
 8081SOL    HW125142   5.790   1.982   5.184
 8081SOL    HW225143   5.797   1.912   5.036
 8082SOL     OW25144   6.553   3.585   4.574
 8082SOL    HW125145   6.618   3.632   4.633
 8082SOL    HW225146   6.461   3.594   4.611
 8083SOL     OW25147   6.251   2.456   4.994
 8083SOL    HW125148   6.164   2.418   5.025
 8083SOL    HW225149   6.256   2.451   4.894
 8084SOL     OW25150   6.673   0.295   0.665
 8084SOL    HW125151   6.608   0.357   0.710
 8084SOL    HW225152   6.760   0.344   0.650
 8085SOL     OW25153   5.798   2.172   0.790
 8085SOL    HW125154   5.768   2.195   0.883
 8085SOL    HW225155   5.898   2.174   0.786
 8086SOL     OW25156   2.501   6.051   5.763
 8086SOL    HW125157   2.548   6.090   5.841
 8086SOL    HW225158   2.531   6.097   5.679
 8087SOL     OW25159   3.021   4.079   0.813
 8087SOL    HW125160   3.075   4.006   0.770
 8087SOL    HW225161   2.940   4.039   0.856
 8088SOL     OW25162   4.288   0.663   2.634
 8088SOL    HW125163   4.315   0.598   2.562
 8088SOL    HW225164   4.192   0.688   2.621
 8089SOL     OW25165   6.306   2.653   0.481
 8089SOL    HW125166   6.207   2.665   0.483
 8089SOL    HW225167   6.343   2.697   0.400
 8090SOL     OW25168   4.111   2.165   5.195
 8090SOL    HW125169   4.131   2.262   5.203
 8090SOL    HW225170   4.183   2.120   5.142
 8091SOL     OW25171   2.515   4.993   5.466
 8091SOL    HW125172   2.511   4.950   5.376
 8091SOL    HW225173   2.610   5.013   5.489
 8092SOL     OW25174   6.384   2.207   4.352
 8092SOL    HW125175   6.447   2.170   4.283
 8092SOL    HW225176   6.393   2.155   4.437
 8093SOL     OW25177   5.676   5.578   0.552
 8093SOL    HW125178   5.737   5.531   0.616
 8093SOL    HW225179   5.660   5.519   0.472
 8094SOL     OW25180   0.769   3.852   4.271
 8094SOL    HW125181   0.763   3.763   4.316
 8094SOL    HW225182   0.677   3.890   4.260
 8095SOL     OW25183   6.127   3.309   5.411
 8095SOL    HW125184   6.071   3.259   5.476
 8095SOL    HW225185   6.179   3.380   5.459
 8096SOL     OW25186   3.973   0.963   0.729
 8096SOL    HW125187   3.926   1.049   0.750
 8096SOL    HW225188   3.992   0.959   0.631
 8097SOL     OW25189   4.755   1.543   4.400
 8097SOL    HW125190   4.824   1.512   4.466
 8097SOL    HW225191   4.796   1.548   4.309
 8098SOL     OW25192   2.329   1.131   4.341
 8098SOL    HW125193   2.290   1.222   4.355
 8098SOL    HW225194   2.426   1.132   4.366
 8099SOL     OW25195   4.200   6.142   5.122
 8099SOL    HW125196   4.176   6.070   5.188
 8099SOL    HW225197   4.298   6.139   5.103
 8100SOL     OW25198   6.867   6.325   0.769
 8100SOL    HW125199   6.874   6.284   0.860
 8100SOL    HW225200   6.836   6.257   0.704
 8101SOL     OW25201   0.423   4.676   2.674
 8101SOL    HW125202   0.390   4.758   2.627
 8101SOL    HW225203   0.520   4.686   2.696
 8102SOL     OW25204   6.378   0.544   5.749
 8102SOL    HW125205   6.339   0.577   5.835
 8102SOL    HW225206   6.400   0.447   5.756
 8103SOL     OW25207   2.118   2.161   2.007
 8103SOL    HW125208   2.058   2.122   2.077
 8103SOL    HW225209   2.096   2.120   1.918
 8104SOL     OW25210   3.023   6.738   6.125
 8104SOL    HW125211   3.077   6.675   6.181
 8104SOL    HW225212   2.927   6.709   6.127
 8105SOL     OW25213   2.230   2.957   2.939
 8105SOL    HW125214   2.212   3.022   3.013
 8105SOL    HW225215   2.262   2.871   2.978
 8106SOL     OW25216   0.051   3.939   5.327
 8106SOL    HW125217   0.012   3.921   5.417
 8106SOL    HW225218   0.001   3.887   5.258
 8107SOL     OW25219   1.152   5.354   6.631
 8107SOL    HW125220   1.144   5.321   6.537
 8107SOL    HW225221   1.089   5.303   6.690
 8108SOL     OW25222   2.062   3.644   5.089
 8108SOL    HW125223   2.055   3.570   5.021
 8108SOL    HW225224   2.063   3.604   5.180
 8109SOL     OW25225   1.432   5.631   5.145
 8109SOL    HW125226   1.389   5.569   5.210
 8109SOL    HW225227   1.429   5.590   5.054
 8110SOL     OW25228   1.357   4.448   0.831
 8110SOL    HW125229   1.399   4.384   0.766
 8110SOL    HW225230   1.428   4.493   0.885
 8111SOL     OW25231   3.253   5.781   4.409
 8111SOL    HW125232   3.307   5.864   4.400
 8111SOL    HW225233   3.161   5.796   4.372
 8112SOL     OW25234   4.767   1.135   4.400
 8112SOL    HW125235   4.831   1.059   4.390
 8112SOL    HW225236   4.704   1.116   4.475
 8113SOL     OW25237   3.274   2.943   5.784
 8113SOL    HW125238   3.261   2.896   5.697
 8113SOL    HW225239   3.315   3.033   5.768
 8114SOL     OW25240   3.086   3.521   1.673
 8114SOL    HW125241   3.053   3.598   1.728
 8114SOL    HW225242   3.041   3.437   1.704
 8115SOL     OW25243   3.459   2.544   1.468
 8115SOL    HW125244   3.477   2.636   1.503
 8115SOL    HW225245   3.545   2.500   1.445
 8116SOL     OW25246   4.875   1.272   5.122
 8116SOL    HW125247   4.898   1.364   5.089
 8116SOL    HW225248   4.946   1.241   5.185
 8117SOL     OW25249   2.869   1.758   5.682
 8117SOL    HW125250   2.786   1.767   5.626
 8117SOL    HW225251   2.868   1.828   5.754
 8118SOL     OW25252   1.461   2.372   4.267
 8118SOL    HW125253   1.374   2.365   4.218
 8118SOL    HW225254   1.522   2.435   4.218
 8119SOL     OW25255   1.017   6.339   1.696
 8119SOL    HW125256   1.108   6.380   1.700
 8119SOL    HW225257   1.016   6.266   1.628
 8120SOL     OW25258   4.780   4.083   2.160
 8120SOL    HW125259   4.753   4.039   2.246
 8120SOL    HW225260   4.698   4.116   2.112
 8121SOL     OW25261   6.588   6.183   3.172
 8121SOL    HW125262   6.565   6.113   3.105
 8121SOL    HW225263   6.574   6.273   3.132
 8122SOL     OW25264   0.161   5.359   1.329
 8122SOL    HW125265   0.066   5.389   1.334
 8122SOL    HW225266   0.195   5.339   1.421
 8123SOL     OW25267   1.181   5.193   6.901
 8123SOL    HW125268   1.259   5.186   6.962
 8123SOL    HW225269   1.167   5.106   6.854
 8124SOL     OW25270   1.300   6.294   3.472
 8124SOL    HW125271   1.338   6.221   3.528
 8124SOL    HW225272   1.205   6.311   3.498
 8125SOL     OW25273   5.689   5.123   3.168
 8125SOL    HW125274   5.758   5.118   3.240
 8125SOL    HW225275   5.660   5.031   3.143
 8126SOL     OW25276   6.809   4.240   2.706
 8126SOL    HW125277   6.841   4.275   2.618
 8126SOL    HW225278   6.795   4.141   2.700
 8127SOL     OW25279   4.041   5.469   1.631
 8127SOL    HW125280   4.104   5.441   1.559
 8127SOL    HW225281   4.042   5.402   1.705
 8128SOL     OW25282   3.505   2.084   5.563
 8128SOL    HW125283   3.408   2.088   5.587
 8128SOL    HW225284   3.551   2.015   5.620
 8129SOL     OW25285   5.087   6.099   6.302
 8129SOL    HW125286   5.038   6.015   6.328
 8129SOL    HW225287   5.053   6.131   6.213
 8130SOL     OW25288   0.387   0.040   6.742
 8130SOL    HW125289   0.482   0.012   6.754
 8130SOL    HW225290   0.359   0.025   6.648
 8131SOL     OW25291   2.225   1.240   0.587
 8131SOL    HW125292   2.221   1.229   0.686
 8131SOL    HW225293   2.233   1.150   0.544
 8132SOL     OW25294   5.810   4.385   2.959
 8132SOL    HW125295   5.908   4.386   2.975
 8132SOL    HW225296   5.787   4.310   2.898
 8133SOL     OW25297   0.570   6.134   2.022
 8133SOL    HW125298   0.624   6.054   1.998
 8133SOL    HW225299   0.492   6.142   1.960
 8134SOL     OW25300   1.957   2.724   2.192
 8134SOL    HW125301   1.904   2.799   2.154
 8134SOL    HW225302   2.033   2.703   2.132
 8135SOL     OW25303   3.945   6.332   2.471
 8135SOL    HW125304   4.035   6.289   2.480
 8135SOL    HW225305   3.897   6.294   2.392
 8136SOL     OW25306   1.997   5.953   1.756
 8136SOL    HW125307   2.022   5.866   1.713
 8136SOL    HW225308   1.952   6.012   1.688
 8137SOL     OW25309   3.129   3.632   5.062
 8137SOL    HW125310   3.053   3.573   5.090
 8137SOL    HW225311   3.142   3.626   4.963
 8138SOL     OW25312   4.506   1.247   3.094
 8138SOL    HW125313   4.480   1.342   3.110
 8138SOL    HW225314   4.553   1.240   3.006
 8139SOL     OW25315   1.381   3.246   5.243
 8139SOL    HW125316   1.462   3.189   5.253
 8139SOL    HW225317   1.399   3.337   5.281
 8140SOL     OW25318   4.268   0.680   0.820
 8140SOL    HW125319   4.183   0.669   0.872
 8140SOL    HW225320   4.326   0.600   0.835
 8141SOL     OW25321   5.831   0.516   5.722
 8141SOL    HW125322   5.858   0.570   5.802
 8141SOL    HW225323   5.732   0.521   5.710
 8142SOL     OW25324   2.490   5.744   0.838
 8142SOL    HW125325   2.490   5.777   0.932
 8142SOL    HW225326   2.560   5.673   0.827
 8143SOL     OW25327   6.324   4.458   0.409
 8143SOL    HW125328   6.357   4.545   0.446
 8143SOL    HW225329   6.236   4.435   0.451
 8144SOL     OW25330   0.960   5.845   6.886
 8144SOL    HW125331   0.974   5.770   6.822
 8144SOL    HW225332   0.949   5.809   6.978
 8145SOL     OW25333   5.263   5.506   6.675
 8145SOL    HW125334   5.260   5.408   6.655
 8145SOL    HW225335   5.251   5.520   6.774
 8146SOL     OW25336   6.775   6.046   4.744
 8146SOL    HW125337   6.727   6.001   4.820
 8146SOL    HW225338   6.709   6.095   4.688
 8147SOL     OW25339   2.267   0.672   5.418
 8147SOL    HW125340   2.320   0.689   5.335
 8147SOL    HW225341   2.323   0.693   5.498
 8148SOL     OW25342   5.056   4.523   0.635
 8148SOL    HW125343   4.989   4.457   0.666
 8148SOL    HW225344   5.143   4.508   0.682
 8149SOL     OW25345   1.643   0.001   5.248
 8149SOL    HW125346   1.678   6.963   5.175
 8149SOL    HW225347   1.555   6.985   5.280
 8150SOL     OW25348   0.541   3.883   0.415
 8150SOL    HW125349   0.582   3.804   0.370
 8150SOL    HW225350   0.611   3.951   0.435
 8151SOL     OW25351   6.663   5.239   3.152
 8151SOL    HW125352   6.646   5.152   3.199
 8151SOL    HW225353   6.625   5.236   3.060
 8152SOL     OW25354   5.407   1.470   3.014
 8152SOL    HW125355   5.387   1.526   2.934
 8152SOL    HW225356   5.369   1.514   3.096
 8153SOL     OW25357   0.190   1.924   1.693
 8153SOL    HW125358   0.277   1.879   1.672
 8153SOL    HW225359   0.123   1.902   1.622
 8154SOL     OW25360   1.274   0.695   3.020
 8154SOL    HW125361   1.261   0.793   3.005
 8154SOL    HW225362   1.195   0.645   2.985
 8155SOL     OW25363   1.571   5.288   4.151
 8155SOL    HW125364   1.484   5.281   4.200
 8155SOL    HW225365   1.639   5.332   4.210
 8156SOL     OW25366   1.317   4.001   0.754
 8156SOL    HW125367   1.296   3.904   0.740
 8156SOL    HW225368   1.379   4.032   0.682
 8157SOL     OW25369   6.271   4.681   4.915
 8157SOL    HW125370   6.277   4.634   5.003
 8157SOL    HW225371   6.263   4.613   4.842
 8158SOL     OW25372   5.966   5.000   6.270
 8158SOL    HW125373   6.028   5.063   6.223
 8158SOL    HW225374   5.997   4.986   6.364
 8159SOL     OW25375   2.816   0.188   4.879
 8159SOL    HW125376   2.793   0.160   4.972
 8159SOL    HW225377   2.734   0.219   4.832
 8160SOL     OW25378   5.630   1.710   2.751
 8160SOL    HW125379   5.641   1.645   2.676
 8160SOL    HW225380   5.710   1.769   2.756
 8161SOL     OW25381   6.315   2.790   2.024
 8161SOL    HW125382   6.409   2.781   1.990
 8161SOL    HW225383   6.252   2.752   1.957
 8162SOL     OW25384   1.176   6.011   5.295
 8162SOL    HW125385   1.176   5.931   5.355
 8162SOL    HW225386   1.223   5.990   5.210
 8163SOL     OW25387   3.912   4.679   5.436
 8163SOL    HW125388   3.813   4.688   5.439
 8163SOL    HW225389   3.955   4.761   5.474
 8164SOL     OW25390   5.129   2.020   0.794
 8164SOL    HW125391   5.182   1.949   0.749
 8164SOL    HW225392   5.143   2.014   0.893
 8165SOL     OW25393   0.597   1.575   5.791
 8165SOL    HW125394   0.620   1.649   5.855
 8165SOL    HW225395   0.651   1.494   5.814
 8166SOL     OW25396   2.363   1.855   4.898
 8166SOL    HW125397   2.357   1.896   4.989
 8166SOL    HW225398   2.365   1.755   4.907
 8167SOL     OW25399   2.045   2.952   3.503
 8167SOL    HW125400   2.091   2.960   3.591
 8167SOL    HW225401   2.108   2.979   3.430
 8168SOL     OW25402   1.703   6.780   2.681
 8168SOL    HW125403   1.688   6.685   2.710
 8168SOL    HW225404   1.799   6.791   2.654
 8169SOL     OW25405   4.589   3.378   1.129
 8169SOL    HW125406   4.618   3.435   1.206
 8169SOL    HW225407   4.581   3.283   1.160
 8170SOL     OW25408   0.097   4.176   2.778
 8170SOL    HW125409   0.093   4.076   2.770
 8170SOL    HW225410   0.018   4.208   2.829
 8171SOL     OW25411   2.411   1.948   1.215
 8171SOL    HW125412   2.459   1.982   1.296
 8171SOL    HW225413   2.367   2.024   1.168
 8172SOL     OW25414   1.301   3.609   1.253
 8172SOL    HW125415   1.317   3.514   1.282
 8172SOL    HW225416   1.296   3.668   1.334
 8173SOL     OW25417   6.040   0.600   1.674
 8173SOL    HW125418   5.984   0.545   1.612
 8173SOL    HW225419   6.005   0.694   1.675
 8174SOL     OW25420   2.157   6.633   3.778
 8174SOL    HW125421   2.138   6.632   3.876
 8174SOL    HW225422   2.233   6.572   3.758
 8175SOL     OW25423   0.508   2.352   5.567
 8175SOL    HW125424   0.539   2.360   5.472
 8175SOL    HW225425   0.447   2.273   5.576
 8176SOL     OW25426   2.558   4.794   0.422
 8176SOL    HW125427   2.547   4.737   0.503
 8176SOL    HW225428   2.656   4.810   0.405
 8177SOL     OW25429   2.652   1.303   3.014
 8177SOL    HW125430   2.750   1.302   3.033
 8177SOL    HW225431   2.603   1.339   3.094
 8178SOL     OW25432   1.956   6.452   0.770
 8178SOL    HW125433   1.996   6.539   0.742
 8178SOL    HW225434   1.911   6.409   0.692
 8179SOL     OW25435   5.548   0.169   3.482
 8179SOL    HW125436   5.563   0.267   3.500
 8179SOL    HW225437   5.566   0.117   3.565
 8180SOL     OW25438   4.789   5.508   0.717
 8180SOL    HW125439   4.759   5.434   0.656
 8180SOL    HW225440   4.878   5.542   0.686
 8181SOL     OW25441   6.554   0.453   6.389
 8181SOL    HW125442   6.526   0.548   6.401
 8181SOL    HW225443   6.597   0.443   6.299
 8182SOL     OW25444   3.330   3.789   3.114
 8182SOL    HW125445   3.298   3.708   3.065
 8182SOL    HW225446   3.303   3.871   3.063
 8183SOL     OW25447   6.578   0.360   5.519
 8183SOL    HW125448   6.595   0.393   5.612
 8183SOL    HW225449   6.551   0.264   5.522
 8184SOL     OW25450   0.083   5.745   5.511
 8184SOL    HW125451   0.113   5.778   5.422
 8184SOL    HW225452   0.056   5.649   5.504
 8185SOL     OW25453   0.560   5.751   5.099
 8185SOL    HW125454   0.633   5.740   5.031
 8185SOL    HW225455   0.600   5.776   5.187
 8186SOL     OW25456   1.389   5.325   0.493
 8186SOL    HW125457   1.454   5.322   0.569
 8186SOL    HW225458   1.351   5.233   0.478
 8187SOL     OW25459   1.755   6.844   4.703
 8187SOL    HW125460   1.658   6.844   4.678
 8187SOL    HW225461   1.802   6.919   4.657
 8188SOL     OW25462   2.127   3.392   2.622
 8188SOL    HW125463   2.121   3.306   2.672
 8188SOL    HW225464   2.140   3.467   2.687
 8189SOL     OW25465   5.887   5.047   4.002
 8189SOL    HW125466   5.798   5.002   4.014
 8189SOL    HW225467   5.930   5.060   4.091
 8190SOL     OW25468   6.492   3.634   3.014
 8190SOL    HW125469   6.411   3.588   2.978
 8190SOL    HW225470   6.481   3.733   3.003
 8191SOL     OW25471   3.957   4.556   0.722
 8191SOL    HW125472   3.988   4.474   0.674
 8191SOL    HW225473   3.911   4.530   0.807
 8192SOL     OW25474   0.596   6.140   3.714
 8192SOL    HW125475   0.635   6.121   3.624
 8192SOL    HW225476   0.583   6.239   3.724
 8193SOL     OW25477   0.467   4.988   3.823
 8193SOL    HW125478   0.548   4.980   3.881
 8193SOL    HW225479   0.427   4.898   3.808
 8194SOL     OW25480   4.724   0.589   1.307
 8194SOL    HW125481   4.785   0.533   1.364
 8194SOL    HW225482   4.749   0.686   1.317
 8195SOL     OW25483   6.316   0.091   4.063
 8195SOL    HW125484   6.344   0.154   3.990
 8195SOL    HW225485   6.249   0.026   4.028
 8196SOL     OW25486   4.950   1.240   2.288
 8196SOL    HW125487   4.879   1.189   2.336
 8196SOL    HW225488   4.961   1.203   2.195
 8197SOL     OW25489   4.263   1.838   3.481
 8197SOL    HW125490   4.319   1.840   3.398
 8197SOL    HW225491   4.311   1.787   3.552
 8198SOL     OW25492   1.416   5.922   1.588
 8198SOL    HW125493   1.509   5.890   1.572
 8198SOL    HW225494   1.368   5.857   1.647
 8199SOL     OW25495   5.798   2.122   0.348
 8199SOL    HW125496   5.730   2.088   0.413
 8199SOL    HW225497   5.769   2.100   0.255
 8200SOL     OW25498   4.995   3.738   0.694
 8200SOL    HW125499   4.941   3.815   0.728
 8200SOL    HW225500   4.965   3.654   0.738
 8201SOL     OW25501   5.597   6.933   5.092
 8201SOL    HW125502   5.673   6.981   5.047
 8201SOL    HW225503   5.520   6.996   5.104
 8202SOL     OW25504   1.358   6.158   1.724
 8202SOL    HW125505   1.398   6.087   1.665
 8202SOL    HW225506   1.322   6.232   1.668
 8203SOL     OW25507   1.899   3.558   1.163
 8203SOL    HW125508   1.936   3.509   1.242
 8203SOL    HW225509   1.799   3.565   1.172
 8204SOL     OW25510   2.139   3.329   0.780
 8204SOL    HW125511   2.056   3.310   0.832
 8204SOL    HW225512   2.139   3.425   0.751
 8205SOL     OW25513   0.781   4.249   6.766
 8205SOL    HW125514   0.840   4.219   6.841
 8205SOL    HW225515   0.824   4.225   6.679
 8206SOL     OW25516   3.146   1.677   1.309
 8206SOL    HW125517   3.230   1.687   1.363
 8206SOL    HW225518   3.079   1.746   1.337
 8207SOL     OW25519   3.775   3.954   4.049
 8207SOL    HW125520   3.826   3.888   4.104
 8207SOL    HW225521   3.745   3.910   3.964
 8208SOL     OW25522   1.889   0.434   7.005
 8208SOL    HW125523   1.846   0.519   6.976
 8208SOL    HW225524   1.930   0.446   0.076
 8209SOL     OW25525   6.014   1.828   4.627
 8209SOL    HW125526   5.946   1.798   4.694
 8209SOL    HW225527   6.059   1.748   4.587
 8210SOL     OW25528   2.233   2.582   6.102
 8210SOL    HW125529   2.216   2.518   6.027
 8210SOL    HW225530   2.189   2.669   6.082
 8211SOL     OW25531   4.675   4.665   1.217
 8211SOL    HW125532   4.587   4.650   1.171
 8211SOL    HW225533   4.691   4.591   1.283
 8212SOL     OW25534   2.086   2.587   3.001
 8212SOL    HW125535   2.090   2.493   3.035
 8212SOL    HW225536   2.124   2.590   2.908
 8213SOL     OW25537   6.075   4.435   1.428
 8213SOL    HW125538   6.089   4.490   1.510
 8213SOL    HW225539   6.113   4.483   1.349
 8214SOL     OW25540   5.393   3.479   2.667
 8214SOL    HW125541   5.353   3.404   2.613
 8214SOL    HW225542   5.365   3.470   2.762
 8215SOL     OW25543   3.091   5.150   2.762
 8215SOL    HW125544   3.176   5.203   2.756
 8215SOL    HW225545   3.096   5.070   2.702
 8216SOL     OW25546   5.409   3.260   3.367
 8216SOL    HW125547   5.419   3.341   3.425
 8216SOL    HW225548   5.318   3.259   3.326
 8217SOL     OW25549   1.902   6.383   1.052
 8217SOL    HW125550   1.906   6.442   1.132
 8217SOL    HW225551   1.916   6.437   0.969
 8218SOL     OW25552   5.971   2.376   0.332
 8218SOL    HW125553   5.907   2.306   0.363
 8218SOL    HW225554   5.995   2.359   0.236
 8219SOL     OW25555   5.480   1.662   6.817
 8219SOL    HW125556   5.557   1.616   6.774
 8219SOL    HW225557   5.508   1.753   6.849
 8220SOL     OW25558   4.028   3.605   1.644
 8220SOL    HW125559   4.003   3.543   1.719
 8220SOL    HW225560   4.034   3.698   1.679
 8221SOL     OW25561   5.230   4.325   2.963
 8221SOL    HW125562   5.136   4.356   2.977
 8221SOL    HW225563   5.250   4.320   2.865
 8222SOL     OW25564   6.349   1.543   2.586
 8222SOL    HW125565   6.292   1.482   2.639
 8222SOL    HW225566   6.305   1.633   2.580
 8223SOL     OW25567   6.887   5.106   6.185
 8223SOL    HW125568   6.827   5.147   6.253
 8223SOL    HW225569   6.858   5.012   6.168
 8224SOL     OW25570   1.108   3.481   2.824
 8224SOL    HW125571   1.109   3.572   2.864
 8224SOL    HW225572   1.016   3.459   2.792
 8225SOL     OW25573   4.394   0.747   0.578
 8225SOL    HW125574   4.339   0.729   0.659
 8225SOL    HW225575   4.490   0.728   0.598
 8226SOL     OW25576   3.811   0.372   0.532
 8226SOL    HW125577   3.737   0.327   0.583
 8226SOL    HW225578   3.840   0.454   0.582
 8227SOL     OW25579   5.569   3.608   3.072
 8227SOL    HW125580   5.613   3.683   3.022
 8227SOL    HW225581   5.635   3.534   3.086
 8228SOL     OW25582   0.151   2.011   4.553
 8228SOL    HW125583   0.056   2.036   4.536
 8228SOL    HW225584   0.209   2.090   4.538
 8229SOL     OW25585   3.775   5.484   1.067
 8229SOL    HW125586   3.702   5.551   1.057
 8229SOL    HW225587   3.863   5.528   1.046
 8230SOL     OW25588   4.897   0.016   4.000
 8230SOL    HW125589   4.956   0.003   3.921
 8230SOL    HW225590   4.841   0.097   3.986
 8231SOL     OW25591   3.867   6.029   1.680
 8231SOL    HW125592   3.945   5.968   1.664
 8231SOL    HW225593   3.890   6.095   1.751
 8232SOL     OW25594   2.493   1.860   6.688
 8232SOL    HW125595   2.556   1.886   6.761
 8232SOL    HW225596   2.488   1.760   6.683
 8233SOL     OW25597   0.184   4.960   6.155
 8233SOL    HW125598   0.149   5.011   6.234
 8233SOL    HW225599   0.218   5.024   6.087
 8234SOL     OW25600   2.961   3.731   0.380
 8234SOL    HW125601   2.952   3.658   0.448
 8234SOL    HW225602   3.006   3.696   0.299
 8235SOL     OW25603   4.445   2.522   0.106
 8235SOL    HW125604   4.488   2.598   0.156
 8235SOL    HW225605   4.516   2.462   0.070
 8236SOL     OW25606   5.682   2.296   1.006
 8236SOL    HW125607   5.646   2.246   1.084
 8236SOL    HW225608   5.627   2.378   0.990
 8237SOL     OW25609   4.079   6.343   5.567
 8237SOL    HW125610   4.103   6.433   5.530
 8237SOL    HW225611   4.010   6.353   5.639
 8238SOL     OW25612   1.946   0.867   0.124
 8238SOL    HW125613   2.045   0.856   0.117
 8238SOL    HW225614   1.926   0.951   0.174
 8239SOL     OW25615   6.551   1.131   6.688
 8239SOL    HW125616   6.496   1.048   6.673
 8239SOL    HW225617   6.610   1.118   6.768
 8240SOL     OW25618   4.123   3.292   3.489
 8240SOL    HW125619   4.048   3.250   3.439
 8240SOL    HW225620   4.190   3.222   3.515
 8241SOL     OW25621   4.485   6.445   1.591
 8241SOL    HW125622   4.461   6.463   1.687
 8241SOL    HW225623   4.573   6.488   1.571
 8242SOL     OW25624   1.090   3.614   5.498
 8242SOL    HW125625   1.084   3.539   5.564
 8242SOL    HW225626   0.997   3.646   5.475
 8243SOL     OW25627   1.059   3.545   4.975
 8243SOL    HW125628   1.083   3.491   5.056
 8243SOL    HW225629   1.140   3.560   4.919
 8244SOL     OW25630   1.603   5.498   4.508
 8244SOL    HW125631   1.509   5.504   4.477
 8244SOL    HW225632   1.616   5.556   4.588
 8245SOL     OW25633   3.861   3.587   0.600
 8245SOL    HW125634   3.856   3.544   0.690
 8245SOL    HW225635   3.783   3.558   0.545
 8246SOL     OW25636   4.887   3.792   5.232
 8246SOL    HW125637   4.953   3.745   5.290
 8246SOL    HW225638   4.825   3.725   5.191
 8247SOL     OW25639   1.014   6.826   1.411
 8247SOL    HW125640   0.988   6.733   1.387
 8247SOL    HW225641   0.956   6.858   1.487
 8248SOL     OW25642   0.194   4.576   3.646
 8248SOL    HW125643   0.197   4.523   3.731
 8248SOL    HW225644   0.101   4.611   3.632
 8249SOL     OW25645   1.384   5.648   3.204
 8249SOL    HW125646   1.312   5.646   3.134
 8249SOL    HW225647   1.385   5.737   3.248
 8250SOL     OW25648   3.998   3.650   1.994
 8250SOL    HW125649   4.020   3.734   1.944
 8250SOL    HW225650   3.912   3.662   2.043
 8251SOL     OW25651   5.973   1.589   5.022
 8251SOL    HW125652   5.921   1.603   5.107
 8251SOL    HW225653   6.064   1.629   5.032
 8252SOL     OW25654   1.329   3.651   4.132
 8252SOL    HW125655   1.335   3.696   4.221
 8252SOL    HW225656   1.403   3.684   4.073
 8253SOL     OW25657   2.696   2.739   5.300
 8253SOL    HW125658   2.793   2.732   5.323
 8253SOL    HW225659   2.676   2.833   5.271
 8254SOL     OW25660   4.408   5.733   3.456
 8254SOL    HW125661   4.314   5.716   3.426
 8254SOL    HW225662   4.453   5.646   3.475
 8255SOL     OW25663   3.902   4.828   3.550
 8255SOL    HW125664   3.887   4.750   3.490
 8255SOL    HW225665   3.977   4.808   3.613
 8256SOL     OW25666   6.047   2.812   4.147
 8256SOL    HW125667   6.032   2.808   4.246
 8256SOL    HW225668   6.130   2.761   4.124
 8257SOL     OW25669   6.108   4.591   4.574
 8257SOL    HW125670   6.196   4.557   4.607
 8257SOL    HW225671   6.119   4.684   4.539
 8258SOL     OW25672   5.018   1.351   0.041
 8258SOL    HW125673   5.105   1.400   0.036
 8258SOL    HW225674   4.960   1.392   0.112
 8259SOL     OW25675   4.138   1.158   1.718
 8259SOL    HW125676   4.088   1.072   1.710
 8259SOL    HW225677   4.217   1.157   1.657
 8260SOL     OW25678   2.769   5.898   0.283
 8260SOL    HW125679   2.815   5.986   0.298
 8260SOL    HW225680   2.813   5.851   0.206
 8261SOL     OW25681   5.386   0.908   1.724
 8261SOL    HW125682   5.294   0.902   1.762
 8261SOL    HW225683   5.384   0.957   1.637
 8262SOL     OW25684   0.988   2.237   0.418
 8262SOL    HW125685   1.054   2.277   0.355
 8262SOL    HW225686   1.010   2.141   0.434
 8263SOL     OW25687   6.149   1.587   0.514
 8263SOL    HW125688   6.085   1.636   0.574
 8263SOL    HW225689   6.215   1.537   0.570
 8264SOL     OW25690   1.628   4.648   2.619
 8264SOL    HW125691   1.621   4.567   2.678
 8264SOL    HW225692   1.632   4.618   2.523
 8265SOL     OW25693   1.828   1.017   2.471
 8265SOL    HW125694   1.910   1.006   2.416
 8265SOL    HW225695   1.815   0.935   2.527
 8266SOL     OW25696   2.830   0.593   3.094
 8266SOL    HW125697   2.862   0.656   3.024
 8266SOL    HW225698   2.741   0.555   3.068
 8267SOL     OW25699   0.497   3.626   0.670
 8267SOL    HW125700   0.564   3.696   0.644
 8267SOL    HW225701   0.495   3.554   0.601
 8268SOL     OW25702   3.579   5.985   6.501
 8268SOL    HW125703   3.491   5.948   6.531
 8268SOL    HW225704   3.628   6.021   6.579
 8269SOL     OW25705   6.277   2.083   0.986
 8269SOL    HW125706   6.341   2.017   1.024
 8269SOL    HW225707   6.308   2.176   1.007
 8270SOL     OW25708   3.731   6.471   4.188
 8270SOL    HW125709   3.680   6.556   4.204
 8270SOL    HW225710   3.669   6.393   4.199
 8271SOL     OW25711   6.212   2.393   2.222
 8271SOL    HW125712   6.284   2.347   2.273
 8271SOL    HW225713   6.201   2.349   2.133
 8272SOL     OW25714   4.128   1.432   4.148
 8272SOL    HW125715   4.120   1.513   4.205
 8272SOL    HW225716   4.066   1.361   4.182
 8273SOL     OW25717   2.172   6.776   1.256
 8273SOL    HW125718   2.202   6.716   1.329
 8273SOL    HW225719   2.088   6.823   1.284
 8274SOL     OW25720   5.230   4.417   3.742
 8274SOL    HW125721   5.157   4.393   3.678
 8274SOL    HW225722   5.303   4.464   3.694
 8275SOL     OW25723   4.716   2.170   6.744
 8275SOL    HW125724   4.672   2.260   6.735
 8275SOL    HW225725   4.706   2.138   6.838
 8276SOL     OW25726   0.106   1.877   3.012
 8276SOL    HW125727   0.119   1.794   2.958
 8276SOL    HW225728   0.196   1.912   3.040
 8277SOL     OW25729   6.291   0.682   6.784
 8277SOL    HW125730   6.371   0.661   6.840
 8277SOL    HW225731   6.247   0.596   6.756
 8278SOL     OW25732   1.683   2.632   6.497
 8278SOL    HW125733   1.597   2.582   6.486
 8278SOL    HW225734   1.664   2.722   6.535
 8279SOL     OW25735   0.099   6.133   3.839
 8279SOL    HW125736   0.022   6.088   3.793
 8279SOL    HW225737   0.066   6.179   3.922
 8280SOL     OW25738   3.220   1.781   5.998
 8280SOL    HW125739   3.193   1.873   6.027
 8280SOL    HW225740   3.145   1.738   5.949
 8281SOL     OW25741   5.623   5.834   2.537
 8281SOL    HW125742   5.640   5.784   2.622
 8281SOL    HW225743   5.709   5.870   2.501
 8282SOL     OW25744   5.527   2.886   6.253
 8282SOL    HW125745   5.446   2.885   6.195
 8282SOL    HW225746   5.504   2.926   6.341
 8283SOL     OW25747   2.069   2.472   5.677
 8283SOL    HW125748   2.161   2.508   5.667
 8283SOL    HW225749   2.006   2.527   5.623
 8284SOL     OW25750   6.278   4.122   1.926
 8284SOL    HW125751   6.264   4.027   1.954
 8284SOL    HW225752   6.193   4.173   1.941
 8285SOL     OW25753   3.961   3.834   4.226
 8285SOL    HW125754   3.934   3.908   4.288
 8285SOL    HW225755   3.990   3.754   4.280
 8286SOL     OW25756   7.018   1.619   6.330
 8286SOL    HW125757   6.920   1.626   6.346
 8286SOL    HW225758   0.035   1.710   6.308
 8287SOL     OW25759   1.273   5.802   4.196
 8287SOL    HW125760   1.264   5.826   4.099
 8287SOL    HW225761   1.368   5.812   4.225
 8288SOL     OW25762   2.655   2.268   2.973
 8288SOL    HW125763   2.754   2.267   2.962
 8288SOL    HW225764   2.618   2.177   2.957
 8289SOL     OW25765   0.169   5.861   6.600
 8289SOL    HW125766   0.230   5.858   6.521
 8289SOL    HW225767   0.086   5.808   6.580
 8290SOL     OW25768   6.717   2.562   0.574
 8290SOL    HW125769   6.722   2.659   0.551
 8290SOL    HW225770   6.802   2.534   0.616
 8291SOL     OW25771   3.968   0.006   1.332
 8291SOL    HW125772   4.049   0.042   1.287
 8291SOL    HW225773   3.896   7.010   1.264
 8292SOL     OW25774   2.635   7.008   6.059
 8292SOL    HW125775   2.667   0.077   6.094
 8292SOL    HW225776   2.586   0.003   5.973
 8293SOL     OW25777   5.486   5.599   5.185
 8293SOL    HW125778   5.453   5.661   5.256
 8293SOL    HW225779   5.408   5.566   5.131
 8294SOL     OW25780   4.983   2.562   0.095
 8294SOL    HW125781   5.041   2.644   0.097
 8294SOL    HW225782   4.901   2.578   0.151
 8295SOL     OW25783   4.574   3.634   0.093
 8295SOL    HW125784   4.596   3.560   0.157
 8295SOL    HW225785   4.627   3.716   0.117
 8296SOL     OW25786   1.357   4.978   6.427
 8296SOL    HW125787   1.325   5.047   6.362
 8296SOL    HW225788   1.434   5.015   6.479
 8297SOL     OW25789   1.099   2.492   3.939
 8297SOL    HW125790   1.112   2.412   3.881
 8297SOL    HW225791   1.004   2.522   3.933
 8298SOL     OW25792   4.648   1.458   1.856
 8298SOL    HW125793   4.662   1.430   1.951
 8298SOL    HW225794   4.684   1.550   1.842
 8299SOL     OW25795   6.643   2.211   1.487
 8299SOL    HW125796   6.572   2.164   1.434
 8299SOL    HW225797   6.724   2.223   1.430
 8300SOL     OW25798   0.584   4.751   3.529
 8300SOL    HW125799   0.617   4.683   3.463
 8300SOL    HW225800   0.598   4.843   3.492
 8301SOL     OW25801   3.472   2.715   6.911
 8301SOL    HW125802   3.522   2.802   6.907
 8301SOL    HW225803   3.493   2.661   6.829
 8302SOL     OW25804   5.600   5.646   6.161
 8302SOL    HW125805   5.552   5.714   6.106
 8302SOL    HW225806   5.697   5.668   6.163
 8303SOL     OW25807   0.076   0.543   6.133
 8303SOL    HW125808   0.038   0.486   6.060
 8303SOL    HW225809   0.137   0.611   6.093
 8304SOL     OW25810   0.050   3.179   0.156
 8304SOL    HW125811   0.003   3.259   0.193
 8304SOL    HW225812   0.072   3.115   0.230
 8305SOL     OW25813   3.341   5.836   3.602
 8305SOL    HW125814   3.308   5.767   3.537
 8305SOL    HW225815   3.283   5.835   3.684
 8306SOL     OW25816   0.911   3.514   4.057
 8306SOL    HW125817   0.981   3.579   4.026
 8306SOL    HW225818   0.929   3.488   4.152
 8307SOL     OW25819   2.821   5.598   1.094
 8307SOL    HW125820   2.734   5.635   1.126
 8307SOL    HW225821   2.823   5.599   0.994
 8308SOL     OW25822   3.359   0.418   3.160
 8308SOL    HW125823   3.269   0.450   3.190
 8308SOL    HW225824   3.408   0.492   3.114
 8309SOL     OW25825   5.663   5.879   1.907
 8309SOL    HW125826   5.583   5.888   1.847
 8309SOL    HW225827   5.645   5.927   1.993
 8310SOL     OW25828   6.757   4.540   0.232
 8310SOL    HW125829   6.697   4.463   0.209
 8310SOL    HW225830   6.847   4.525   0.191
 8311SOL     OW25831   6.165   0.441   6.696
 8311SOL    HW125832   6.084   0.488   6.660
 8311SOL    HW225833   6.169   0.348   6.657
 8312SOL     OW25834   5.431   6.684   1.273
 8312SOL    HW125835   5.344   6.728   1.253
 8312SOL    HW225836   5.503   6.753   1.281
 8313SOL     OW25837   3.304   1.522   2.600
 8313SOL    HW125838   3.395   1.564   2.590
 8313SOL    HW225839   3.306   1.430   2.561
 8314SOL     OW25840   6.817   6.697   3.684
 8314SOL    HW125841   6.806   6.598   3.676
 8314SOL    HW225842   6.878   6.718   3.760
 8315SOL     OW25843   4.977   4.712   6.438
 8315SOL    HW125844   5.022   4.637   6.390
 8315SOL    HW225845   5.037   4.746   6.511
 8316SOL     OW25846   2.644   5.761   6.649
 8316SOL    HW125847   2.562   5.716   6.613
 8316SOL    HW225848   2.659   5.733   6.744
 8317SOL     OW25849   2.001   4.670   2.523
 8317SOL    HW125850   2.082   4.694   2.470
 8317SOL    HW225851   1.939   4.616   2.467
 8318SOL     OW25852   3.502   0.983   5.787
 8318SOL    HW125853   3.451   0.918   5.731
 8318SOL    HW225854   3.598   0.984   5.758
 8319SOL     OW25855   3.636   0.662   4.920
 8319SOL    HW125856   3.548   0.709   4.934
 8319SOL    HW225857   3.638   0.622   4.828
 8320SOL     OW25858   3.994   4.683   1.723
 8320SOL    HW125859   4.003   4.585   1.740
 8320SOL    HW225860   3.918   4.700   1.660
 8321SOL     OW25861   0.465   0.788   1.478
 8321SOL    HW125862   0.394   0.854   1.502
 8321SOL    HW225863   0.484   0.793   1.380
 8322SOL     OW25864   5.831   6.617   0.251
 8322SOL    HW125865   5.930   6.625   0.239
 8322SOL    HW225866   5.785   6.688   0.196
 8323SOL     OW25867   1.636   2.174   1.945
 8323SOL    HW125868   1.590   2.115   2.011
 8323SOL    HW225869   1.705   2.121   1.896
 8324SOL     OW25870   6.905   1.450   2.048
 8324SOL    HW125871   6.850   1.527   2.081
 8324SOL    HW225872   6.913   1.382   2.121
 8325SOL     OW25873   3.147   3.734   3.969
 8325SOL    HW125874   3.151   3.659   3.903
 8325SOL    HW225875   3.226   3.794   3.957
 8326SOL     OW25876   3.169   3.479   6.090
 8326SOL    HW125877   3.150   3.532   6.008
 8326SOL    HW225878   3.243   3.523   6.142
 8327SOL     OW25879   4.558   2.010   5.646
 8327SOL    HW125880   4.533   2.077   5.717
 8327SOL    HW225881   4.639   1.959   5.676
 8328SOL     OW25882   2.396   2.323   4.780
 8328SOL    HW125883   2.312   2.297   4.733
 8328SOL    HW225884   2.391   2.291   4.875
 8329SOL     OW25885   6.878   2.478   5.047
 8329SOL    HW125886   6.932   2.404   5.008
 8329SOL    HW225887   6.918   2.505   5.135
 8330SOL     OW25888   2.877   6.779   0.748
 8330SOL    HW125889   2.912   6.728   0.826
 8330SOL    HW225890   2.919   6.745   0.664
 8331SOL     OW25891   2.429   0.176   0.800
 8331SOL    HW125892   2.408   0.172   0.702
 8331SOL    HW225893   2.358   0.228   0.847
 8332SOL     OW25894   4.913   5.709   3.041
 8332SOL    HW125895   4.901   5.764   3.124
 8332SOL    HW225896   4.969   5.628   3.063
 8333SOL     OW25897   1.308   5.844   6.260
 8333SOL    HW125898   1.299   5.850   6.161
 8333SOL    HW225899   1.229   5.885   6.304
 8334SOL     OW25900   5.817   0.368   3.720
 8334SOL    HW125901   5.815   0.466   3.735
 8334SOL    HW225902   5.737   0.325   3.763
 8335SOL     OW25903   5.890   6.655   5.458
 8335SOL    HW125904   5.977   6.687   5.422
 8335SOL    HW225905   5.826   6.732   5.462
 8336SOL     OW25906   0.742   2.077   2.238
 8336SOL    HW125907   0.733   2.152   2.303
 8336SOL    HW225908   0.717   1.991   2.282
 8337SOL     OW25909   0.726   6.338   2.091
 8337SOL    HW125910   0.822   6.312   2.083
 8337SOL    HW225911   0.669   6.272   2.042
 8338SOL     OW25912   1.771   5.104   0.701
 8338SOL    HW125913   1.854   5.068   0.744
 8338SOL    HW225914   1.767   5.072   0.606
 8339SOL     OW25915   5.692   0.876   3.032
 8339SOL    HW125916   5.700   0.785   2.991
 8339SOL    HW225917   5.599   0.889   3.065
 8340SOL     OW25918   4.711   3.307   0.891
 8340SOL    HW125919   4.791   3.248   0.903
 8340SOL    HW225920   4.687   3.350   0.978
 8341SOL     OW25921   2.112   7.009   0.925
 8341SOL    HW125922   2.095   0.068   0.983
 8341SOL    HW225923   2.178   6.948   0.969
 8342SOL     OW25924   4.234   0.552   1.385
 8342SOL    HW125925   4.184   0.635   1.409
 8342SOL    HW225926   4.332   0.570   1.386
 8343SOL     OW25927   1.490   5.080   5.901
 8343SOL    HW125928   1.471   4.982   5.893
 8343SOL    HW225929   1.514   5.101   5.996
 8344SOL     OW25930   3.927   0.496   5.490
 8344SOL    HW125931   3.942   0.417   5.430
 8344SOL    HW225932   3.999   0.563   5.476
 8345SOL     OW25933   6.694   1.390   2.543
 8345SOL    HW125934   6.668   1.373   2.638
 8345SOL    HW225935   6.628   1.451   2.500
 8346SOL     OW25936   3.220   5.402   1.639
 8346SOL    HW125937   3.206   5.338   1.715
 8346SOL    HW225938   3.208   5.354   1.552
 8347SOL     OW25939   3.364   5.447   3.910
 8347SOL    HW125940   3.366   5.440   3.811
 8347SOL    HW225941   3.378   5.542   3.938
 8348SOL     OW25942   1.177   0.202   0.289
 8348SOL    HW125943   1.124   0.284   0.269
 8348SOL    HW225944   1.136   0.124   0.242
 8349SOL     OW25945   5.901   5.371   1.671
 8349SOL    HW125946   5.949   5.300   1.620
 8349SOL    HW225947   5.907   5.458   1.621
 8350SOL     OW25948   6.553   0.696   5.010
 8350SOL    HW125949   6.549   0.699   4.910
 8350SOL    HW225950   6.537   0.602   5.041
 8351SOL     OW25951   3.087   6.223   2.093
 8351SOL    HW125952   3.042   6.195   2.008
 8351SOL    HW225953   3.070   6.154   2.164
 8352SOL     OW25954   6.771   6.133   1.259
 8352SOL    HW125955   6.836   6.182   1.316
 8352SOL    HW225956   6.678   6.166   1.277
 8353SOL     OW25957   0.492   3.621   2.292
 8353SOL    HW125958   0.441   3.648   2.373
 8353SOL    HW225959   0.444   3.652   2.210
 8354SOL     OW25960   2.375   0.769   0.521
 8354SOL    HW125961   2.351   0.723   0.436
 8354SOL    HW225962   2.455   0.827   0.506
 8355SOL     OW25963   2.961   1.157   0.365
 8355SOL    HW125964   2.913   1.222   0.306
 8355SOL    HW225965   2.948   1.183   0.461
 8356SOL     OW25966   2.105   5.625   0.524
 8356SOL    HW125967   2.180   5.586   0.578
 8356SOL    HW225968   2.055   5.691   0.580
 8357SOL     OW25969   5.207   5.633   4.238
 8357SOL    HW125970   5.305   5.614   4.234
 8357SOL    HW225971   5.192   5.732   4.242
 8358SOL     OW25972   2.582   2.000   5.083
 8358SOL    HW125973   2.618   2.075   5.139
 8358SOL    HW225974   2.513   2.036   5.020
 8359SOL     OW25975   4.793   4.928   4.094
 8359SOL    HW125976   4.873   4.988   4.091
 8359SOL    HW225977   4.769   4.901   4.001
 8360SOL     OW25978   4.818   0.250   3.100
 8360SOL    HW125979   4.721   0.228   3.094
 8360SOL    HW225980   4.849   0.237   3.194
 8361SOL     OW25981   1.606   0.869   2.836
 8361SOL    HW125982   1.689   0.886   2.783
 8361SOL    HW225983   1.622   0.894   2.932
 8362SOL     OW25984   2.415   3.180   0.340
 8362SOL    HW125985   2.495   3.135   0.302
 8362SOL    HW225986   2.442   3.266   0.384
 8363SOL     OW25987   0.273   3.556   0.824
 8363SOL    HW125988   0.304   3.559   0.919
 8363SOL    HW225989   0.347   3.586   0.764
 8364SOL     OW25990   6.586   4.844   4.308
 8364SOL    HW125991   6.584   4.899   4.225
 8364SOL    HW225992   6.613   4.751   4.285
 8365SOL     OW25993   1.299   3.968   5.818
 8365SOL    HW125994   1.239   3.991   5.895
 8365SOL    HW225995   1.383   4.023   5.824
 8366SOL     OW25996   2.946   0.019   3.380
 8366SOL    HW125997   2.954   6.957   3.437
 8366SOL    HW225998   3.012   0.087   3.410
 8367SOL     OW25999   5.526   5.733   3.877
 8367SOL    HW126000   5.532   5.746   3.976
 8367SOL    HW226001   5.581   5.803   3.830
 8368SOL     OW26002   3.210   5.435   6.409
 8368SOL    HW126003   3.152   5.460   6.486
 8368SOL    HW226004   3.217   5.512   6.345
 8369SOL     OW26005   2.503   1.476   1.267
 8369SOL    HW126006   2.510   1.560   1.212
 8369SOL    HW226007   2.413   1.472   1.310
 8370SOL     OW26008   1.349   1.628   6.907
 8370SOL    HW126009   1.258   1.604   6.942
 8370SOL    HW226010   1.338   1.692   6.831
 8371SOL     OW26011   2.261   2.990   0.247
 8371SOL    HW126012   2.266   2.925   0.322
 8371SOL    HW226013   2.296   3.079   0.277
 8372SOL     OW26014   0.328   0.636   1.688
 8372SOL    HW126015   0.362   0.698   1.617
 8372SOL    HW226016   0.347   0.542   1.662
 8373SOL     OW26017   1.710   6.787   4.978
 8373SOL    HW126018   1.757   6.815   4.895
 8373SOL    HW226019   1.770   6.728   5.032
 8374SOL     OW26020   6.319   0.303   6.332
 8374SOL    HW126021   6.251   0.363   6.290
 8374SOL    HW226022   6.407   0.349   6.335
 8375SOL     OW26023   3.832   1.012   6.569
 8375SOL    HW126024   3.886   1.091   6.540
 8375SOL    HW226025   3.849   0.935   6.508
 8376SOL     OW26026   4.220   0.460   4.733
 8376SOL    HW126027   4.217   0.362   4.752
 8376SOL    HW226028   4.208   0.476   4.635
 8377SOL     OW26029   5.799   4.570   0.804
 8377SOL    HW126030   5.858   4.491   0.822
 8377SOL    HW226031   5.809   4.636   0.879
 8378SOL     OW26032   4.951   3.048   3.607
 8378SOL    HW126033   4.894   2.978   3.564
 8378SOL    HW226034   5.035   3.006   3.641
 8379SOL     OW26035   5.199   2.241   2.412
 8379SOL    HW126036   5.113   2.244   2.360
 8379SOL    HW226037   5.189   2.298   2.494
 8380SOL     OW26038   5.291   1.720   3.461
 8380SOL    HW126039   5.254   1.808   3.491
 8380SOL    HW226040   5.381   1.735   3.420
 8381SOL     OW26041   2.096   5.448   4.185
 8381SOL    HW126042   2.071   5.441   4.088
 8381SOL    HW226043   2.120   5.357   4.219
 8382SOL     OW26044   0.939   3.940   2.434
 8382SOL    HW126045   1.025   3.954   2.386
 8382SOL    HW226046   0.948   3.971   2.529
 8383SOL     OW26047   3.614   1.751   6.232
 8383SOL    HW126048   3.522   1.728   6.264
 8383SOL    HW226049   3.681   1.731   6.304
 8384SOL     OW26050   0.432   6.537   1.549
 8384SOL    HW126051   0.522   6.579   1.537
 8384SOL    HW226052   0.361   6.603   1.525
 8385SOL     OW26053   4.806   2.223   0.973
 8385SOL    HW126054   4.736   2.152   0.978
 8385SOL    HW226055   4.858   2.225   1.058
 8386SOL     OW26056   1.022   4.312   2.719
 8386SOL    HW126057   0.964   4.358   2.652
 8386SOL    HW226058   1.101   4.271   2.673
 8387SOL     OW26059   0.792   1.802   1.028
 8387SOL    HW126060   0.751   1.889   1.056
 8387SOL    HW226061   0.789   1.738   1.104
 8388SOL     OW26062   0.954   6.714   2.982
 8388SOL    HW126063   0.992   6.638   2.929
 8388SOL    HW226064   1.026   6.782   2.998
 8389SOL     OW26065   5.506   2.171   2.897
 8389SOL    HW126066   5.606   2.174   2.891
 8389SOL    HW226067   5.472   2.259   2.928
 8390SOL     OW26068   5.526   1.570   5.841
 8390SOL    HW126069   5.451   1.625   5.878
 8390SOL    HW226070   5.593   1.552   5.912
 8391SOL     OW26071   6.339   6.809   1.390
 8391SOL    HW126072   6.395   6.727   1.391
 8391SOL    HW226073   6.277   6.808   1.468
 8392SOL     OW26074   4.511   3.043   5.756
 8392SOL    HW126075   4.464   3.097   5.686
 8392SOL    HW226076   4.450   3.030   5.834
 8393SOL     OW26077   5.486   0.067   1.558
 8393SOL    HW126078   5.453   0.047   1.466
 8393SOL    HW226079   5.410   0.102   1.614
 8394SOL     OW26080   5.512   2.670   2.435
 8394SOL    HW126081   5.458   2.654   2.518
 8394SOL    HW226082   5.514   2.768   2.415
 8395SOL     OW26083   2.506   1.037   5.277
 8395SOL    HW126084   2.505   1.079   5.186
 8395SOL    HW226085   2.581   1.076   5.330
 8396SOL     OW26086   4.899   5.687   4.904
 8396SOL    HW126087   4.801   5.667   4.901
 8396SOL    HW226088   4.920   5.733   4.990
 8397SOL     OW26089   6.105   0.643   3.330
 8397SOL    HW126090   6.132   0.550   3.355
 8397SOL    HW226091   6.171   0.708   3.368
 8398SOL     OW26092   5.086   2.239   6.123
 8398SOL    HW126093   5.171   2.277   6.087
 8398SOL    HW226094   5.008   2.279   6.075
 8399SOL     OW26095   0.419   4.364   1.124
 8399SOL    HW126096   0.506   4.400   1.089
 8399SOL    HW226097   0.434   4.271   1.159
 8400SOL     OW26098   1.684   1.483   4.725
 8400SOL    HW126099   1.645   1.507   4.637
 8400SOL    HW226100   1.612   1.478   4.794
 8401SOL     OW26101   2.171   0.167   5.622
 8401SOL    HW126102   2.197   0.211   5.536
 8401SOL    HW226103   2.195   0.226   5.699
 8402SOL     OW26104   3.262   0.598   6.497
 8402SOL    HW126105   3.208   0.617   6.578
 8402SOL    HW226106   3.269   0.499   6.484
 8403SOL     OW26107   5.615   4.632   4.919
 8403SOL    HW126108   5.618   4.575   5.001
 8403SOL    HW226109   5.534   4.609   4.865
 8404SOL     OW26110   0.839   1.643   6.431
 8404SOL    HW126111   0.839   1.729   6.380
 8404SOL    HW226112   0.893   1.575   6.382
 8405SOL     OW26113   4.343   0.413   5.672
 8405SOL    HW126114   4.335   0.511   5.652
 8405SOL    HW226115   4.298   0.361   5.599
 8406SOL     OW26116   5.425   0.081   6.529
 8406SOL    HW126117   5.407   0.047   6.437
 8406SOL    HW226118   5.395   0.012   6.596
 8407SOL     OW26119   3.895   7.015   4.294
 8407SOL    HW126120   3.819   0.001   4.360
 8407SOL    HW226121   3.931   0.087   4.277
 8408SOL     OW26122   3.894   1.221   1.553
 8408SOL    HW126123   3.933   1.129   1.561
 8408SOL    HW226124   3.963   1.289   1.574
 8409SOL     OW26125   4.512   2.323   2.355
 8409SOL    HW126126   4.428   2.311   2.407
 8409SOL    HW226127   4.586   2.269   2.397
 8410SOL     OW26128   6.779   1.883   1.816
 8410SOL    HW126129   6.817   1.841   1.898
 8410SOL    HW226130   6.784   1.818   1.740
 8411SOL     OW26131   1.049   6.362   1.149
 8411SOL    HW126132   1.090   6.282   1.193
 8411SOL    HW226133   1.073   6.363   1.052
 8412SOL     OW26134   2.538   1.896   7.004
 8412SOL    HW126135   2.556   1.933   0.075
 8412SOL    HW226136   2.490   1.808   7.013
 8413SOL     OW26137   3.944   5.425   4.547
 8413SOL    HW126138   3.845   5.428   4.535
 8413SOL    HW226139   3.970   5.341   4.596
 8414SOL     OW26140   1.253   0.456   0.915
 8414SOL    HW126141   1.206   0.374   0.880
 8414SOL    HW226142   1.206   0.489   0.997
 8415SOL     OW26143   2.593   1.376   5.950
 8415SOL    HW126144   2.560   1.309   6.016
 8415SOL    HW226145   2.551   1.360   5.861
 8416SOL     OW26146   6.758   2.203   5.558
 8416SOL    HW126147   6.728   2.125   5.613
 8416SOL    HW226148   6.780   2.172   5.465
 8417SOL     OW26149   2.107   3.182   5.986
 8417SOL    HW126150   2.145   3.139   6.067
 8417SOL    HW226151   2.124   3.281   5.989
 8418SOL     OW26152   0.603   6.112   2.347
 8418SOL    HW126153   0.669   6.038   2.336
 8418SOL    HW226154   0.584   6.154   2.258
 8419SOL     OW26155   4.343   1.970   4.046
 8419SOL    HW126156   4.357   1.871   4.035
 8419SOL    HW226157   4.291   1.987   4.129
 8420SOL     OW26158   3.349   0.952   1.804
 8420SOL    HW126159   3.349   0.856   1.833
 8420SOL    HW226160   3.443   0.986   1.803
 8421SOL     OW26161   4.531   7.011   6.140
 8421SOL    HW126162   4.456   6.989   6.077
 8421SOL    HW226163   4.596   6.935   6.143
 8422SOL     OW26164   5.176   2.679   3.731
 8422SOL    HW126165   5.186   2.744   3.656
 8422SOL    HW226166   5.090   2.629   3.721
 8423SOL     OW26167   6.857   5.142   0.026
 8423SOL    HW126168   6.884   5.085   0.103
 8423SOL    HW226169   6.910   5.226   0.027
 8424SOL     OW26170   3.462   0.265   4.989
 8424SOL    HW126171   3.459   0.339   4.922
 8424SOL    HW226172   3.508   0.297   5.072
 8425SOL     OW26173   3.652   4.135   1.973
 8425SOL    HW126174   3.600   4.063   1.928
 8425SOL    HW226175   3.595   4.181   2.040
 8426SOL     OW26176   3.861   2.800   1.744
 8426SOL    HW126177   3.887   2.859   1.820
 8426SOL    HW226178   3.874   2.850   1.658
 8427SOL     OW26179   3.831   3.647   3.778
 8427SOL    HW126180   3.766   3.723   3.771
 8427SOL    HW226181   3.842   3.621   3.874
 8428SOL     OW26182   6.083   6.998   1.917
 8428SOL    HW126183   6.028   6.998   1.834
 8428SOL    HW226184   6.160   0.042   1.907
 8429SOL     OW26185   3.026   5.685   5.172
 8429SOL    HW126186   3.031   5.611   5.105
 8429SOL    HW226187   3.116   5.701   5.212
 8430SOL     OW26188   4.804   0.102   5.014
 8430SOL    HW126189   4.797   0.191   4.970
 8430SOL    HW226190   4.716   0.075   5.052
 8431SOL     OW26191   1.879   3.935   5.904
 8431SOL    HW126192   1.897   3.893   5.815
 8431SOL    HW226193   1.896   4.034   5.898
 8432SOL     OW26194   6.209   5.444   6.159
 8432SOL    HW126195   6.115   5.472   6.142
 8432SOL    HW226196   6.213   5.344   6.161
 8433SOL     OW26197   5.642   1.984   1.017
 8433SOL    HW126198   5.601   2.043   0.948
 8433SOL    HW226199   5.668   2.038   1.097
 8434SOL     OW26200   2.719   5.449   4.596
 8434SOL    HW126201   2.683   5.421   4.684
 8434SOL    HW226202   2.790   5.519   4.609
 8435SOL     OW26203   5.537   1.736   3.382
 8435SOL    HW126204   5.575   1.644   3.387
 8435SOL    HW226205   5.602   1.795   3.333
 8436SOL     OW26206   2.308   5.706   2.267
 8436SOL    HW126207   2.398   5.683   2.231
 8436SOL    HW226208   2.239   5.647   2.225
 8437SOL     OW26209   0.623   5.524   1.667
 8437SOL    HW126210   0.587   5.459   1.734
 8437SOL    HW226211   0.604   5.490   1.575
 8438SOL     OW26212   0.346   3.709   2.516
 8438SOL    HW126213   0.427   3.759   2.545
 8438SOL    HW226214   0.322   3.640   2.584
 8439SOL     OW26215   6.666   4.479   2.672
 8439SOL    HW126216   6.729   4.405   2.697
 8439SOL    HW226217   6.573   4.443   2.668
 8440SOL     OW26218   1.699   2.132   2.806
 8440SOL    HW126219   1.604   2.125   2.773
 8440SOL    HW226220   1.738   2.220   2.777
 8441SOL     OW26221   7.010   1.902   6.230
 8441SOL    HW126222   6.922   1.904   6.277
 8441SOL    HW226223   7.001   1.849   6.146
 8442SOL     OW26224   3.821   2.233   6.741
 8442SOL    HW126225   3.757   2.156   6.741
 8442SOL    HW226226   3.882   2.225   6.820
 8443SOL     OW26227   1.601   4.359   2.911
 8443SOL    HW126228   1.655   4.289   2.863
 8443SOL    HW226229   1.520   4.316   2.952
 8444SOL     OW26230   5.370   5.128   5.374
 8444SOL    HW126231   5.461   5.127   5.332
 8444SOL    HW226232   5.365   5.057   5.444
 8445SOL     OW26233   4.431   6.670   6.592
 8445SOL    HW126234   4.462   6.605   6.661
 8445SOL    HW226235   4.378   6.621   6.522
 8446SOL     OW26236   6.451   5.186   4.894
 8446SOL    HW126237   6.508   5.261   4.929
 8446SOL    HW226238   6.509   5.110   4.866
 8447SOL     OW26239   4.301   1.203   3.721
 8447SOL    HW126240   4.397   1.206   3.750
 8447SOL    HW226241   4.290   1.137   3.648
 8448SOL     OW26242   3.176   5.957   3.183
 8448SOL    HW126243   3.218   6.029   3.238
 8448SOL    HW226244   3.248   5.910   3.131
 8449SOL     OW26245   1.949   2.137   3.502
 8449SOL    HW126246   1.852   2.120   3.520
 8449SOL    HW226247   1.984   2.205   3.566
 8450SOL     OW26248   6.952   1.005   6.852
 8450SOL    HW126249   0.001   1.073   6.827
 8450SOL    HW226250   6.995   0.929   6.900
 8451SOL     OW26251   3.716   2.438   1.007
 8451SOL    HW126252   3.702   2.499   0.929
 8451SOL    HW226253   3.802   2.463   1.053
 8452SOL     OW26254   4.939   1.163   6.159
 8452SOL    HW126255   4.954   1.078   6.109
 8452SOL    HW226256   4.891   1.228   6.099
 8453SOL     OW26257   0.048   6.320   0.083
 8453SOL    HW126258   0.110   6.377   0.138
 8453SOL    HW226259   6.976   6.358   0.087
 8454SOL     OW26260   6.030   4.282   6.601
 8454SOL    HW126261   6.000   4.286   6.696
 8454SOL    HW226262   5.951   4.282   6.541
 8455SOL     OW26263   6.762   0.958   2.791
 8455SOL    HW126264   6.832   0.947   2.721
 8455SOL    HW226265   6.672   0.963   2.747
 8456SOL     OW26266   6.770   7.004   2.644
 8456SOL    HW126267   6.798   0.055   2.709
 8456SOL    HW226268   6.837   6.930   2.645
 8457SOL     OW26269   6.855   6.782   5.012
 8457SOL    HW126270   6.764   6.824   5.003
 8457SOL    HW226271   6.881   6.780   5.109
 8458SOL     OW26272   0.695   6.533   6.349
 8458SOL    HW126273   0.632   6.468   6.306
 8458SOL    HW226274   0.724   6.601   6.282
 8459SOL     OW26275   1.400   6.098   3.611
 8459SOL    HW126276   1.454   6.038   3.551
 8459SOL    HW226277   1.439   6.096   3.703
 8460SOL     OW26278   4.043   3.534   3.304
 8460SOL    HW126279   4.082   3.480   3.378
 8460SOL    HW226280   4.059   3.631   3.321
 8461SOL     OW26281   6.683   3.122   3.527
 8461SOL    HW126282   6.609   3.188   3.542
 8461SOL    HW226283   6.731   3.144   3.442
 8462SOL     OW26284   2.478   2.797   1.755
 8462SOL    HW126285   2.493   2.891   1.726
 8462SOL    HW226286   2.398   2.759   1.708
 8463SOL     OW26287   5.613   0.625   1.850
 8463SOL    HW126288   5.654   0.697   1.794
 8463SOL    HW226289   5.513   0.637   1.850
 8464SOL     OW26290   7.011   2.295   4.901
 8464SOL    HW126291   0.080   2.300   4.856
 8464SOL    HW226292   7.009   2.214   4.960
 8465SOL     OW26293   1.456   1.929   0.113
 8465SOL    HW126294   1.383   1.861   0.123
 8465SOL    HW226295   1.416   2.018   0.089
 8466SOL     OW26296   0.522   0.234   3.980
 8466SOL    HW126297   0.522   0.333   3.987
 8466SOL    HW226298   0.601   0.204   3.927
 8467SOL     OW26299   3.632   5.007   1.238
 8467SOL    HW126300   3.552   4.970   1.191
 8467SOL    HW226301   3.602   5.071   1.309
 8468SOL     OW26302   4.314   2.543   0.553
 8468SOL    HW126303   4.352   2.523   0.463
 8468SOL    HW226304   4.387   2.573   0.614
 8469SOL     OW26305   4.318   2.526   6.532
 8469SOL    HW126306   4.261   2.537   6.614
 8469SOL    HW226307   4.264   2.551   6.451
 8470SOL     OW26308   1.672   3.120   6.742
 8470SOL    HW126309   1.671   3.034   6.792
 8470SOL    HW226310   1.622   3.189   6.793
 8471SOL     OW26311   4.827   1.347   3.899
 8471SOL    HW126312   4.730   1.326   3.888
 8471SOL    HW226313   4.863   1.382   3.812
 8472SOL     OW26314   1.308   6.659   2.884
 8472SOL    HW126315   1.357   6.743   2.907
 8472SOL    HW226316   1.363   6.606   2.819
 8473SOL     OW26317   6.823   5.724   6.145
 8473SOL    HW126318   6.730   5.687   6.144
 8473SOL    HW226319   6.824   5.811   6.195
 8474SOL     OW26320   3.774   5.401   0.421
 8474SOL    HW126321   3.758   5.356   0.333
 8474SOL    HW226322   3.814   5.336   0.486
 8475SOL     OW26323   4.538   1.361   2.530
 8475SOL    HW126324   4.484   1.440   2.503
 8475SOL    HW226325   4.493   1.277   2.501
 8476SOL     OW26326   4.323   0.402   2.525
 8476SOL    HW126327   4.291   0.456   2.448
 8476SOL    HW226328   4.387   0.332   2.493
 8477SOL     OW26329   2.497   0.731   2.459
 8477SOL    HW126330   2.469   0.637   2.438
 8477SOL    HW226331   2.507   0.742   2.558
 8478SOL     OW26332   1.576   0.214   5.481
 8478SOL    HW126333   1.504   0.197   5.415
 8478SOL    HW226334   1.636   0.286   5.447
 8479SOL     OW26335   5.003   1.540   2.195
 8479SOL    HW126336   4.926   1.599   2.222
 8479SOL    HW226337   5.022   1.475   2.269
 8480SOL     OW26338   1.774   1.141   1.655
 8480SOL    HW126339   1.798   1.200   1.577
 8480SOL    HW226340   1.722   1.195   1.721
 8481SOL     OW26341   4.579   0.010   5.155
 8481SOL    HW126342   4.548   0.022   5.249
 8481SOL    HW226343   4.530   6.953   5.114
 8482SOL     OW26344   0.624   0.456   2.314
 8482SOL    HW126345   0.719   0.487   2.324
 8482SOL    HW226346   0.563   0.536   2.310
 8483SOL     OW26347   5.593   6.160   1.766
 8483SOL    HW126348   5.650   6.168   1.848
 8483SOL    HW226349   5.648   6.123   1.692
 8484SOL     OW26350   0.506   4.694   4.285
 8484SOL    HW126351   0.570   4.661   4.216
 8484SOL    HW226352   0.552   4.762   4.342
 8485SOL     OW26353   2.365   3.346   5.669
 8485SOL    HW126354   2.408   3.341   5.579
 8485SOL    HW226355   2.380   3.260   5.718
 8486SOL     OW26356   4.326   0.319   2.787
 8486SOL    HW126357   4.328   0.373   2.703
 8486SOL    HW226358   4.390   0.243   2.780
 8487SOL     OW26359   4.563   0.783   0.972
 8487SOL    HW126360   4.487   0.796   1.036
 8487SOL    HW226361   4.561   0.854   0.903
 8488SOL     OW26362   5.359   3.076   4.786
 8488SOL    HW126363   5.426   3.050   4.717
 8488SOL    HW226364   5.307   3.155   4.754
 8489SOL     OW26365   3.582   5.658   2.557
 8489SOL    HW126366   3.623   5.742   2.593
 8489SOL    HW226367   3.482   5.668   2.555
 8490SOL     OW26368   4.203   5.391   2.684
 8490SOL    HW126369   4.273   5.377   2.614
 8490SOL    HW226370   4.130   5.448   2.647
 8491SOL     OW26371   1.088   1.217   2.064
 8491SOL    HW126372   1.096   1.176   1.974
 8491SOL    HW226373   1.159   1.286   2.077
 8492SOL     OW26374   5.363   3.854   4.914
 8492SOL    HW126375   5.303   3.834   4.837
 8492SOL    HW226376   5.457   3.865   4.881
 8493SOL     OW26377   3.872   2.807   0.862
 8493SOL    HW126378   3.795   2.743   0.864
 8493SOL    HW226379   3.840   2.899   0.882
 8494SOL     OW26380   3.729   6.042   6.730
 8494SOL    HW126381   3.799   5.991   6.780
 8494SOL    HW226382   3.754   6.139   6.728
 8495SOL     OW26383   0.478   2.709   0.414
 8495SOL    HW126384   0.453   2.801   0.385
 8495SOL    HW226385   0.524   2.713   0.502
 8496SOL     OW26386   6.848   2.180   3.245
 8496SOL    HW126387   6.845   2.127   3.330
 8496SOL    HW226388   6.942   2.205   3.225
 8497SOL     OW26389   5.896   4.479   3.466
 8497SOL    HW126390   5.955   4.398   3.462
 8497SOL    HW226391   5.946   4.558   3.430
 8498SOL     OW26392   6.326   1.183   1.144
 8498SOL    HW126393   6.300   1.120   1.217
 8498SOL    HW226394   6.414   1.225   1.166
 8499SOL     OW26395   1.771   4.193   6.503
 8499SOL    HW126396   1.791   4.219   6.408
 8499SOL    HW226397   1.746   4.096   6.506
 8500SOL     OW26398   3.226   0.771   6.266
 8500SOL    HW126399   3.273   0.751   6.179
 8500SOL    HW226400   3.262   0.711   6.337
 8501SOL     OW26401   2.980   4.321   6.090
 8501SOL    HW126402   2.896   4.371   6.112
 8501SOL    HW226403   3.026   4.296   6.175
 8502SOL     OW26404   0.605   6.969   1.927
 8502SOL    HW126405   0.641   6.949   1.835
 8502SOL    HW226406   0.610   6.887   1.983
 8503SOL     OW26407   2.996   6.168   3.509
 8503SOL    HW126408   2.956   6.145   3.420
 8503SOL    HW226409   3.090   6.134   3.513
 8504SOL     OW26410   1.572   5.323   3.507
 8504SOL    HW126411   1.512   5.402   3.496
 8504SOL    HW226412   1.588   5.280   3.418
 8505SOL     OW26413   4.859   2.799   3.959
 8505SOL    HW126414   4.951   2.762   3.975
 8505SOL    HW226415   4.791   2.733   3.991
 8506SOL     OW26416   0.850   6.225   0.525
 8506SOL    HW126417   0.776   6.166   0.555
 8506SOL    HW226418   0.813   6.316   0.502
 8507SOL     OW26419   1.546   0.130   4.613
 8507SOL    HW126420   1.544   0.193   4.691
 8507SOL    HW226421   1.591   0.045   4.640
 8508SOL     OW26422   1.070   3.149   6.138
 8508SOL    HW126423   1.088   3.064   6.186
 8508SOL    HW226424   1.084   3.136   6.040
 8509SOL     OW26425   6.003   2.273   4.680
 8509SOL    HW126426   6.091   2.320   4.682
 8509SOL    HW226427   5.981   2.240   4.772
 8510SOL     OW26428   5.132   7.020   2.316
 8510SOL    HW126429   5.076   0.005   2.398
 8510SOL    HW226430   5.085   6.963   2.247
 8511SOL     OW26431   6.408   4.975   1.409
 8511SOL    HW126432   6.414   4.897   1.346
 8511SOL    HW226433   6.437   4.946   1.500
 8512SOL     OW26434   3.624   2.664   0.882
 8512SOL    HW126435   3.611   2.729   0.807
 8512SOL    HW226436   3.543   2.666   0.942
 8513SOL     OW26437   0.766   4.280   1.741
 8513SOL    HW126438   0.766   4.264   1.840
 8513SOL    HW226439   0.842   4.228   1.699
 8514SOL     OW26440   2.613   2.120   5.455
 8514SOL    HW126441   2.709   2.115   5.428
 8514SOL    HW226442   2.604   2.090   5.551
 8515SOL     OW26443   2.180   0.378   0.640
 8515SOL    HW126444   2.277   0.388   0.619
 8515SOL    HW226445   2.147   0.291   0.605
 8516SOL     OW26446   5.489   2.951   4.203
 8516SOL    HW126447   5.588   2.968   4.211
 8516SOL    HW226448   5.466   2.869   4.255
 8517SOL     OW26449   2.191   1.699   6.535
 8517SOL    HW126450   2.259   1.653   6.478
 8517SOL    HW226451   2.231   1.781   6.575
 8518SOL     OW26452   5.441   4.832   6.934
 8518SOL    HW126453   5.528   4.860   6.974
 8518SOL    HW226454   5.399   4.911   6.889
 8519SOL     OW26455   0.898   3.121   0.758
 8519SOL    HW126456   0.910   3.064   0.677
 8519SOL    HW226457   0.964   3.196   0.756
 8520SOL     OW26458   3.546   4.180   5.780
 8520SOL    HW126459   3.473   4.167   5.712
 8520SOL    HW226460   3.536   4.269   5.823
 8521SOL     OW26461   2.133   6.422   5.107
 8521SOL    HW126462   2.193   6.501   5.118
 8521SOL    HW226463   2.144   6.384   5.015
 8522SOL     OW26464   0.411   6.681   0.138
 8522SOL    HW126465   0.439   6.667   0.043
 8522SOL    HW226466   0.370   6.772   0.148
 8523SOL     OW26467   3.813   2.053   0.472
 8523SOL    HW126468   3.897   2.101   0.447
 8523SOL    HW226469   3.741   2.119   0.488
 8524SOL     OW26470   2.173   5.246   5.147
 8524SOL    HW126471   2.098   5.216   5.088
 8524SOL    HW226472   2.260   5.224   5.103
 8525SOL     OW26473   6.254   3.549   1.985
 8525SOL    HW126474   6.256   3.538   1.885
 8525SOL    HW226475   6.159   3.552   2.016
 8526SOL     OW26476   0.300   4.430   0.474
 8526SOL    HW126477   0.340   4.422   0.383
 8526SOL    HW226478   0.374   4.435   0.542
 8527SOL     OW26479   2.854   1.090   5.810
 8527SOL    HW126480   2.754   1.087   5.799
 8527SOL    HW226481   2.878   1.064   5.904
 8528SOL     OW26482   5.362   0.823   1.131
 8528SOL    HW126483   5.427   0.866   1.068
 8528SOL    HW226484   5.402   0.819   1.223
 8529SOL     OW26485   1.189   6.150   0.082
 8529SOL    HW126486   1.189   6.238   0.034
 8529SOL    HW226487   1.124   6.153   0.158
 8530SOL     OW26488   3.905   3.829   3.081
 8530SOL    HW126489   3.959   3.833   3.165
 8530SOL    HW226490   3.910   3.737   3.043
 8531SOL     OW26491   6.567   5.002   4.540
 8531SOL    HW126492   6.468   4.999   4.552
 8531SOL    HW226493   6.594   4.939   4.467
 8532SOL     OW26494   3.133   5.300   6.817
 8532SOL    HW126495   3.152   5.351   6.733
 8532SOL    HW226496   3.084   5.358   6.882
 8533SOL     OW26497   2.912   6.543   5.170
 8533SOL    HW126498   2.937   6.590   5.254
 8533SOL    HW226499   2.906   6.445   5.186
 8534SOL     OW26500   2.160   2.398   3.207
 8534SOL    HW126501   2.257   2.374   3.211
 8534SOL    HW226502   2.133   2.441   3.294
 8535SOL     OW26503   6.245   0.513   2.130
 8535SOL    HW126504   6.192   0.442   2.084
 8535SOL    HW226505   6.210   0.525   2.223
 8536SOL     OW26506   0.541   1.334   4.596
 8536SOL    HW126507   0.639   1.351   4.603
 8536SOL    HW226508   0.494   1.378   4.673
 8537SOL     OW26509   6.194   1.366   2.752
 8537SOL    HW126510   6.214   1.380   2.849
 8537SOL    HW226511   6.095   1.365   2.738
 8538SOL     OW26512   0.871   2.518   0.356
 8538SOL    HW126513   0.942   2.463   0.311
 8538SOL    HW226514   0.811   2.558   0.287
 8539SOL     OW26515   5.352   2.655   2.647
 8539SOL    HW126516   5.270   2.707   2.621
 8539SOL    HW226517   5.410   2.713   2.704
 8540SOL     OW26518   3.592   0.709   1.195
 8540SOL    HW126519   3.597   0.622   1.147
 8540SOL    HW226520   3.501   0.721   1.235
 8541SOL     OW26521   2.098   2.692   4.304
 8541SOL    HW126522   2.070   2.735   4.218
 8541SOL    HW226523   2.196   2.672   4.300
 8542SOL     OW26524   3.285   4.581   0.578
 8542SOL    HW126525   3.313   4.677   0.568
 8542SOL    HW226526   3.292   4.535   0.490
 8543SOL     OW26527   2.863   2.055   6.509
 8543SOL    HW126528   2.933   2.095   6.569
 8543SOL    HW226529   2.847   1.960   6.535
 8544SOL     OW26530   5.972   2.509   3.905
 8544SOL    HW126531   6.049   2.481   3.963
 8544SOL    HW226532   5.917   2.429   3.883
 8545SOL     OW26533   4.629   6.391   5.143
 8545SOL    HW126534   4.679   6.461   5.193
 8545SOL    HW226535   4.664   6.386   5.049
 8546SOL     OW26536   4.638   2.341   0.048
 8546SOL    HW126537   4.736   2.348   0.028
 8546SOL    HW226538   4.615   2.246   0.071
 8547SOL     OW26539   0.985   4.800   2.066
 8547SOL    HW126540   0.988   4.810   2.165
 8547SOL    HW226541   1.030   4.714   2.040
 8548SOL     OW26542   6.406   1.448   5.649
 8548SOL    HW126543   6.460   1.369   5.620
 8548SOL    HW226544   6.417   1.461   5.748
 8549SOL     OW26545   5.426   3.278   5.382
 8549SOL    HW126546   5.479   3.340   5.440
 8549SOL    HW226547   5.329   3.290   5.400
 8550SOL     OW26548   0.897   4.437   5.982
 8550SOL    HW126549   0.976   4.484   6.022
 8550SOL    HW226550   0.929   4.365   5.920
 8551SOL     OW26551   2.487   4.251   1.368
 8551SOL    HW126552   2.441   4.339   1.352
 8551SOL    HW226553   2.576   4.268   1.409
 8552SOL     OW26554   3.102   6.626   4.632
 8552SOL    HW126555   3.006   6.613   4.605
 8552SOL    HW226556   3.150   6.539   4.624
 8553SOL     OW26557   6.079   5.205   6.906
 8553SOL    HW126558   6.132   5.282   6.943
 8553SOL    HW226559   5.983   5.230   6.902
 8554SOL     OW26560   5.618   3.758   6.809
 8554SOL    HW126561   5.607   3.787   6.904
 8554SOL    HW226562   5.563   3.818   6.749
 8555SOL     OW26563   1.840   6.718   4.395
 8555SOL    HW126564   1.889   6.735   4.480
 8555SOL    HW226565   1.754   6.670   4.414
 8556SOL     OW26566   5.966   6.794   4.160
 8556SOL    HW126567   5.971   6.844   4.073
 8556SOL    HW226568   5.936   6.700   4.142
 8557SOL     OW26569   6.700   1.085   0.179
 8557SOL    HW126570   6.795   1.114   0.175
 8557SOL    HW226571   6.691   1.002   0.233
 8558SOL     OW26572   0.722   5.531   2.015
 8558SOL    HW126573   0.652   5.576   2.070
 8558SOL    HW226574   0.680   5.459   1.959
 8559SOL     OW26575   0.453   1.351   5.691
 8559SOL    HW126576   0.443   1.340   5.593
 8559SOL    HW226577   0.504   1.436   5.710
 8560SOL     OW26578   6.671   2.102   6.791
 8560SOL    HW126579   6.768   2.121   6.802
 8560SOL    HW226580   6.655   2.003   6.794
 8561SOL     OW26581   5.212   5.803   5.748
 8561SOL    HW126582   5.266   5.887   5.753
 8561SOL    HW226583   5.247   5.745   5.675
 8562SOL     OW26584   3.725   7.005   4.519
 8562SOL    HW126585   3.771   6.990   4.607
 8562SOL    HW226586   3.676   6.923   4.492
 8563SOL     OW26587   3.102   2.829   6.787
 8563SOL    HW126588   3.038   2.891   6.743
 8563SOL    HW226589   3.153   2.778   6.718
 8564SOL     OW26590   0.469   6.510   3.178
 8564SOL    HW126591   0.562   6.533   3.207
 8564SOL    HW226592   0.472   6.432   3.115
 8565SOL     OW26593   3.584   0.722   1.746
 8565SOL    HW126594   3.561   0.737   1.842
 8565SOL    HW226595   3.510   0.671   1.701
 8566SOL     OW26596   1.771   3.930   3.488
 8566SOL    HW126597   1.759   4.000   3.558
 8566SOL    HW226598   1.864   3.936   3.450
 8567SOL     OW26599   4.927   5.818   0.189
 8567SOL    HW126600   4.951   5.800   0.285
 8567SOL    HW226601   4.873   5.902   0.183
 8568SOL     OW26602   5.794   0.800   0.156
 8568SOL    HW126603   5.860   0.775   0.226
 8568SOL    HW226604   5.842   0.832   0.074
 8569SOL     OW26605   4.189   1.181   5.570
 8569SOL    HW126606   4.155   1.196   5.663
 8569SOL    HW226607   4.159   1.257   5.512
 8570SOL     OW26608   0.480   3.606   6.294
 8570SOL    HW126609   0.392   3.559   6.288
 8570SOL    HW226610   0.508   3.637   6.202
 8571SOL     OW26611   0.077   4.330   4.742
 8571SOL    HW126612   0.019   4.407   4.767
 8571SOL    HW226613   0.085   4.268   4.821
 8572SOL     OW26614   3.008   4.935   5.485
 8572SOL    HW126615   3.049   4.877   5.555
 8572SOL    HW226616   3.035   5.030   5.500
 8573SOL     OW26617   4.258   6.441   4.445
 8573SOL    HW126618   4.183   6.423   4.509
 8573SOL    HW226619   4.222   6.489   4.365
 8574SOL     OW26620   0.286   3.945   4.377
 8574SOL    HW126621   0.205   3.894   4.349
 8574SOL    HW226622   0.365   3.916   4.322
 8575SOL     OW26623   2.919   2.993   6.623
 8575SOL    HW126624   2.855   3.057   6.581
 8575SOL    HW226625   2.916   2.906   6.574
 8576SOL     OW26626   1.791   0.540   0.828
 8576SOL    HW126627   1.866   0.561   0.765
 8576SOL    HW226628   1.707   0.523   0.777
 8577SOL     OW26629   6.679   5.569   4.369
 8577SOL    HW126630   6.607   5.568   4.299
 8577SOL    HW226631   6.765   5.597   4.327
 8578SOL     OW26632   4.992   0.391   2.940
 8578SOL    HW126633   4.957   0.484   2.955
 8578SOL    HW226634   4.950   0.329   3.007
 8579SOL     OW26635   0.299   4.903   2.921
 8579SOL    HW126636   0.233   4.966   2.962
 8579SOL    HW226637   0.294   4.815   2.968
 8580SOL     OW26638   3.063   5.035   6.022
 8580SOL    HW126639   3.015   4.972   6.082
 8580SOL    HW226640   3.161   5.016   6.023
 8581SOL     OW26641   3.569   2.940   0.245
 8581SOL    HW126642   3.556   2.848   0.281
 8581SOL    HW226643   3.535   3.007   0.311
 8582SOL     OW26644   4.125   4.711   0.571
 8582SOL    HW126645   4.056   4.648   0.606
 8582SOL    HW226646   4.167   4.761   0.647
 8583SOL     OW26647   5.461   6.683   5.234
 8583SOL    HW126648   5.526   6.759   5.235
 8583SOL    HW226649   5.396   6.696   5.159
 8584SOL     OW26650   0.722   5.668   6.583
 8584SOL    HW126651   0.811   5.655   6.627
 8584SOL    HW226652   0.650   5.637   6.644
 8585SOL     OW26653   0.574   1.558   0.954
 8585SOL    HW126654   0.663   1.513   0.944
 8585SOL    HW226655   0.563   1.589   1.048
 8586SOL     OW26656   4.090   5.222   4.319
 8586SOL    HW126657   4.025   5.247   4.390
 8586SOL    HW226658   4.131   5.304   4.279
 8587SOL     OW26659   6.625   2.061   1.944
 8587SOL    HW126660   6.683   1.983   1.919
 8587SOL    HW226661   6.682   2.143   1.951
 8588SOL     OW26662   3.292   2.193   0.035
 8588SOL    HW126663   3.325   2.283   0.006
 8588SOL    HW226664   3.313   2.180   0.132
 8589SOL     OW26665   3.264   1.355   4.970
 8589SOL    HW126666   3.310   1.342   4.882
 8589SOL    HW226667   3.208   1.438   4.967
 8590SOL     OW26668   6.211   5.636   5.219
 8590SOL    HW126669   6.211   5.572   5.142
 8590SOL    HW226670   6.164   5.595   5.297
 8591SOL     OW26671   1.318   2.600   0.472
 8591SOL    HW126672   1.275   2.581   0.384
 8591SOL    HW226673   1.253   2.580   0.546
 8592SOL     OW26674   6.848   5.975   6.290
 8592SOL    HW126675   6.791   5.937   6.364
 8592SOL    HW226676   6.832   6.073   6.283
 8593SOL     OW26677   0.381   6.208   3.439
 8593SOL    HW126678   0.375   6.298   3.396
 8593SOL    HW226679   0.372   6.218   3.538
 8594SOL     OW26680   3.459   4.173   3.365
 8594SOL    HW126681   3.414   4.239   3.305
 8594SOL    HW226682   3.554   4.160   3.335
 8595SOL     OW26683   1.461   2.925   1.564
 8595SOL    HW126684   1.440   3.010   1.613
 8595SOL    HW226685   1.559   2.919   1.549
 8596SOL     OW26686   6.545   4.290   2.377
 8596SOL    HW126687   6.489   4.291   2.459
 8596SOL    HW226688   6.589   4.201   2.367
 8597SOL     OW26689   2.579   1.891   0.321
 8597SOL    HW126690   2.679   1.893   0.312
 8597SOL    HW226691   2.548   1.796   0.316
 8598SOL     OW26692   5.442   3.701   1.487
 8598SOL    HW126693   5.513   3.636   1.512
 8598SOL    HW226694   5.363   3.690   1.548
 8599SOL     OW26695   1.085   3.283   1.088
 8599SOL    HW126696   1.010   3.289   1.153
 8599SOL    HW226697   1.136   3.198   1.103
 8600SOL     OW26698   6.098   2.943   6.428
 8600SOL    HW126699   6.065   2.849   6.425
 8600SOL    HW226700   6.166   2.952   6.500
 8601SOL     OW26701   0.345   0.554   5.302
 8601SOL    HW126702   0.401   0.624   5.345
 8601SOL    HW226703   0.384   0.464   5.321
 8602SOL     OW26704   2.048   6.287   1.673
 8602SOL    HW126705   2.110   6.357   1.637
 8602SOL    HW226706   2.014   6.316   1.762
 8603SOL     OW26707   4.864   3.411   1.424
 8603SOL    HW126708   4.914   3.354   1.360
 8603SOL    HW226709   4.826   3.491   1.376
 8604SOL     OW26710   5.769   2.170   2.840
 8604SOL    HW126711   5.757   2.215   2.751
 8604SOL    HW226712   5.825   2.228   2.899
 8605SOL     OW26713   2.609   5.722   1.765
 8605SOL    HW126714   2.525   5.672   1.787
 8605SOL    HW226715   2.662   5.734   1.848
 8606SOL     OW26716   4.031   5.544   5.381
 8606SOL    HW126717   4.022   5.513   5.476
 8606SOL    HW226718   3.941   5.565   5.344
 8607SOL     OW26719   3.022   5.869   1.419
 8607SOL    HW126720   3.048   5.784   1.374
 8607SOL    HW226721   3.103   5.927   1.429
 8608SOL     OW26722   6.112   6.483   1.964
 8608SOL    HW126723   6.151   6.405   1.916
 8608SOL    HW226724   6.110   6.464   2.062
 8609SOL     OW26725   4.534   0.802   6.535
 8609SOL    HW126726   4.502   0.730   6.595
 8609SOL    HW226727   4.616   0.844   6.573
 8610SOL     OW26728   0.061   6.323   5.391
 8610SOL    HW126729   0.096   6.289   5.303
 8610SOL    HW226730   0.055   6.247   5.456
 8611SOL     OW26731   1.503   1.964   3.369
 8611SOL    HW126732   1.583   1.959   3.309
 8611SOL    HW226733   1.427   1.914   3.327
 8612SOL     OW26734   5.021   3.080   4.498
 8612SOL    HW126735   4.932   3.055   4.537
 8612SOL    HW226736   5.015   3.081   4.398
 8613SOL     OW26737   1.280   1.077   7.017
 8613SOL    HW126738   1.248   1.051   6.926
 8613SOL    HW226739   1.306   1.174   7.017
 8614SOL     OW26740   1.225   1.529   3.729
 8614SOL    HW126741   1.270   1.451   3.771
 8614SOL    HW226742   1.294   1.598   3.704
 8615SOL     OW26743   4.436   2.401   5.174
 8615SOL    HW126744   4.510   2.402   5.107
 8615SOL    HW226745   4.349   2.421   5.129
 8616SOL     OW26746   1.476   3.219   0.347
 8616SOL    HW126747   1.541   3.164   0.399
 8616SOL    HW226748   1.386   3.173   0.348
 8617SOL     OW26749   5.914   2.839   0.664
 8617SOL    HW126750   5.851   2.823   0.588
 8617SOL    HW226751   5.898   2.770   0.735
 8618SOL     OW26752   4.200   0.646   3.103
 8618SOL    HW126753   4.149   0.654   3.188
 8618SOL    HW226754   4.232   0.552   3.093
 8619SOL     OW26755   4.196   5.922   0.953
 8619SOL    HW126756   4.265   5.849   0.956
 8619SOL    HW226757   4.169   5.945   1.047
 8620SOL     OW26758   6.441   6.044   3.361
 8620SOL    HW126759   6.497   6.103   3.303
 8620SOL    HW226760   6.498   6.002   3.431
 8621SOL     OW26761   5.291   0.591   3.333
 8621SOL    HW126762   5.278   0.495   3.358
 8621SOL    HW226763   5.249   0.608   3.243
 8622SOL     OW26764   5.156   5.312   6.925
 8622SOL    HW126765   5.213   5.393   6.943
 8622SOL    HW226766   5.122   5.316   6.831
 8623SOL     OW26767   6.339   2.365   3.269
 8623SOL    HW126768   6.344   2.356   3.170
 8623SOL    HW226769   6.359   2.459   3.296
 8624SOL     OW26770   6.945   4.238   4.141
 8624SOL    HW126771   0.016   4.272   4.115
 8624SOL    HW226772   6.954   4.185   4.226
 8625SOL     OW26773   3.603   0.956   6.699
 8625SOL    HW126774   3.549   0.887   6.652
 8625SOL    HW226775   3.670   0.995   6.636
 8626SOL     OW26776   3.083   3.396   2.463
 8626SOL    HW126777   3.061   3.354   2.375
 8626SOL    HW226778   3.134   3.331   2.519
 8627SOL     OW26779   2.316   0.314   6.401
 8627SOL    HW126780   2.334   0.238   6.338
 8627SOL    HW226781   2.387   0.317   6.471
 8628SOL     OW26782   6.077   1.066   0.391
 8628SOL    HW126783   6.066   1.152   0.441
 8628SOL    HW226784   6.165   1.066   0.343
 8629SOL     OW26785   1.491   5.155   3.771
 8629SOL    HW126786   1.545   5.199   3.699
 8629SOL    HW226787   1.402   5.128   3.734
 8630SOL     OW26788   5.774   4.760   4.253
 8630SOL    HW126789   5.697   4.787   4.195
 8630SOL    HW226790   5.761   4.798   4.345
 8631SOL     OW26791   4.714   5.761   3.649
 8631SOL    HW126792   4.618   5.752   3.676
 8631SOL    HW226793   4.772   5.741   3.728
 8632SOL     OW26794   4.086   0.553   3.723
 8632SOL    HW126795   4.014   0.617   3.696
 8632SOL    HW226796   4.172   0.603   3.733
 8633SOL     OW26797   6.282   7.013   3.520
 8633SOL    HW126798   6.350   0.020   3.452
 8633SOL    HW226799   6.324   6.954   3.589
 8634SOL     OW26800   6.519   5.845   1.341
 8634SOL    HW126801   6.549   5.924   1.395
 8634SOL    HW226802   6.427   5.862   1.306
 8635SOL     OW26803   6.576   3.278   5.675
 8635SOL    HW126804   6.569   3.203   5.740
 8635SOL    HW226805   6.485   3.311   5.652
 8636SOL     OW26806   5.420   5.692   0.641
 8636SOL    HW126807   5.510   5.649   0.641
 8636SOL    HW226808   5.378   5.680   0.550
 8637SOL     OW26809   1.800   0.631   1.204
 8637SOL    HW126810   1.874   0.612   1.269
 8637SOL    HW226811   1.834   0.620   1.111
 8638SOL     OW26812   4.460   5.307   0.929
 8638SOL    HW126813   4.490   5.402   0.923
 8638SOL    HW226814   4.520   5.249   0.874
 8639SOL     OW26815   6.332   2.574   1.666
 8639SOL    HW126816   6.420   2.610   1.635
 8639SOL    HW226817   6.345   2.514   1.744
 8640SOL     OW26818   4.685   6.167   1.365
 8640SOL    HW126819   4.709   6.248   1.312
 8640SOL    HW226820   4.717   6.085   1.317
 8641SOL     OW26821   5.390   4.753   3.223
 8641SOL    HW126822   5.315   4.774   3.285
 8641SOL    HW226823   5.379   4.660   3.187
 8642SOL     OW26824   4.414   1.700   1.631
 8642SOL    HW126825   4.369   1.775   1.581
 8642SOL    HW226826   4.398   1.711   1.729
 8643SOL     OW26827   4.258   0.391   0.085
 8643SOL    HW126828   4.326   0.327   0.050
 8643SOL    HW226829   4.193   0.342   0.144
 8644SOL     OW26830   6.740   3.441   5.509
 8644SOL    HW126831   6.771   3.524   5.556
 8644SOL    HW226832   6.680   3.389   5.570
 8645SOL     OW26833   6.308   4.616   1.863
 8645SOL    HW126834   6.362   4.538   1.894
 8645SOL    HW226835   6.266   4.595   1.775
 8646SOL     OW26836   5.701   6.895   1.053
 8646SOL    HW126837   5.612   6.894   1.007
 8646SOL    HW226838   5.709   6.814   1.111
 8647SOL     OW26839   4.349   4.810   1.903
 8647SOL    HW126840   4.363   4.871   1.825
 8647SOL    HW226841   4.386   4.720   1.881
 8648SOL     OW26842   5.767   1.525   4.550
 8648SOL    HW126843   5.704   1.573   4.488
 8648SOL    HW226844   5.744   1.428   4.552
 8649SOL     OW26845   0.042   4.779   5.712
 8649SOL    HW126846   0.112   4.764   5.783
 8649SOL    HW226847   6.983   4.824   5.753
 8650SOL     OW26848   0.215   4.615   1.863
 8650SOL    HW126849   0.168   4.656   1.785
 8650SOL    HW226850   0.294   4.563   1.830
 8651SOL     OW26851   3.949   2.953   1.262
 8651SOL    HW126852   4.026   2.951   1.199
 8651SOL    HW226853   3.872   3.001   1.219
 8652SOL     OW26854   1.200   2.991   3.568
 8652SOL    HW126855   1.107   3.014   3.598
 8652SOL    HW226856   1.240   2.924   3.630
 8653SOL     OW26857   5.611   3.243   6.832
 8653SOL    HW126858   5.531   3.210   6.782
 8653SOL    HW226859   5.625   3.340   6.810
 8654SOL     OW26860   0.491   5.672   2.123
 8654SOL    HW126861   0.395   5.678   2.096
 8654SOL    HW226862   0.529   5.764   2.131
 8655SOL     OW26863   6.219   6.258   3.062
 8655SOL    HW126864   6.200   6.314   2.982
 8655SOL    HW226865   6.219   6.161   3.036
 8656SOL     OW26866   6.725   1.829   1.173
 8656SOL    HW126867   6.820   1.842   1.144
 8656SOL    HW226868   6.714   1.862   1.267
 8657SOL     OW26869   2.809   3.856   0.587
 8657SOL    HW126870   2.894   3.892   0.628
 8657SOL    HW226871   2.809   3.875   0.489
 8658SOL     OW26872   0.565   5.053   6.221
 8658SOL    HW126873   0.664   5.048   6.232
 8658SOL    HW226874   0.527   5.115   6.290
 8659SOL     OW26875   4.154   0.345   3.564
 8659SOL    HW126876   4.114   0.338   3.472
 8659SOL    HW226877   4.139   0.438   3.599
 8660SOL     OW26878   5.633   4.516   0.207
 8660SOL    HW126879   5.611   4.613   0.217
 8660SOL    HW226880   5.729   4.500   0.228
 8661SOL     OW26881   6.570   3.631   1.572
 8661SOL    HW126882   6.649   3.643   1.632
 8661SOL    HW226883   6.600   3.596   1.483
 8662SOL     OW26884   0.562   0.612   0.652
 8662SOL    HW126885   0.561   0.647   0.746
 8662SOL    HW226886   0.648   0.637   0.608
 8663SOL     OW26887   1.651   5.451   0.952
 8663SOL    HW126888   1.621   5.541   0.983
 8663SOL    HW226889   1.577   5.385   0.962
 8664SOL     OW26890   4.463   5.009   1.724
 8664SOL    HW126891   4.453   4.942   1.650
 8664SOL    HW226892   4.439   5.100   1.691
 8665SOL     OW26893   5.183   5.454   4.577
 8665SOL    HW126894   5.192   5.368   4.526
 8665SOL    HW226895   5.273   5.494   4.592
 8666SOL     OW26896   5.948   3.995   4.299
 8666SOL    HW126897   5.953   3.967   4.203
 8666SOL    HW226898   6.035   3.973   4.344
 8667SOL     OW26899   5.150   2.769   3.167
 8667SOL    HW126900   5.238   2.746   3.208
 8667SOL    HW226901   5.141   2.723   3.078
 8668SOL     OW26902   3.673   1.097   4.470
 8668SOL    HW126903   3.771   1.111   4.453
 8668SOL    HW226904   3.629   1.185   4.486
 8669SOL     OW26905   4.288   6.823   5.735
 8669SOL    HW126906   4.335   6.811   5.648
 8669SOL    HW226907   4.190   6.831   5.719
 8670SOL     OW26908   3.812   4.843   3.245
 8670SOL    HW126909   3.740   4.825   3.312
 8670SOL    HW226910   3.857   4.930   3.266
 8671SOL     OW26911   6.212   6.148   2.717
 8671SOL    HW126912   6.244   6.239   2.687
 8671SOL    HW226913   6.214   6.086   2.639
 8672SOL     OW26914   3.601   5.141   5.683
 8672SOL    HW126915   3.552   5.068   5.730
 8672SOL    HW226916   3.640   5.204   5.750
 8673SOL     OW26917   5.139   2.096   0.451
 8673SOL    HW126918   5.084   2.087   0.534
 8673SOL    HW226919   5.159   2.005   0.415
 8674SOL     OW26920   0.713   0.346   2.581
 8674SOL    HW126921   0.641   0.401   2.624
 8674SOL    HW226922   0.737   0.386   2.492
 8675SOL     OW26923   1.978   2.713   2.585
 8675SOL    HW126924   2.027   2.773   2.521
 8675SOL    HW226925   1.973   2.621   2.547
 8676SOL     OW26926   4.166   0.447   4.405
 8676SOL    HW126927   4.147   0.540   4.375
 8676SOL    HW226928   4.264   0.435   4.418
 8677SOL     OW26929   2.149   4.499   5.379
 8677SOL    HW126930   2.097   4.465   5.301
 8677SOL    HW226931   2.229   4.550   5.347
 8678SOL     OW26932   1.636   1.032   6.195
 8678SOL    HW126933   1.616   1.016   6.098
 8678SOL    HW226934   1.601   0.955   6.249
 8679SOL     OW26935   6.525   2.117   4.643
 8679SOL    HW126936   6.511   2.020   4.621
 8679SOL    HW226937   6.611   2.128   4.694
 8680SOL     OW26938   0.691   3.874   0.864
 8680SOL    HW126939   0.722   3.969   0.872
 8680SOL    HW226940   0.702   3.844   0.769
 8681SOL     OW26941   4.115   3.604   1.383
 8681SOL    HW126942   4.194   3.544   1.372
 8681SOL    HW226943   4.080   3.596   1.476
 8682SOL     OW26944   1.861   5.603   2.703
 8682SOL    HW126945   1.786   5.628   2.765
 8682SOL    HW226946   1.907   5.521   2.738
 8683SOL     OW26947   5.439   2.621   6.576
 8683SOL    HW126948   5.404   2.559   6.647
 8683SOL    HW226949   5.381   2.702   6.572
 8684SOL     OW26950   6.665   2.730   4.250
 8684SOL    HW126951   6.763   2.712   4.258
 8684SOL    HW226952   6.648   2.828   4.264
 8685SOL     OW26953   0.451   1.747   5.311
 8685SOL    HW126954   0.527   1.700   5.268
 8685SOL    HW226955   0.454   1.844   5.287
 8686SOL     OW26956   6.539   1.677   4.074
 8686SOL    HW126957   6.531   1.595   4.017
 8686SOL    HW226958   6.454   1.729   4.068
 8687SOL     OW26959   3.681   0.896   2.823
 8687SOL    HW126960   3.745   0.935   2.890
 8687SOL    HW226961   3.598   0.867   2.870
 8688SOL     OW26962   1.346   0.471   2.266
 8688SOL    HW126963   1.422   0.534   2.249
 8688SOL    HW226964   1.263   0.508   2.226
 8689SOL     OW26965   4.163   5.677   0.701
 8689SOL    HW126966   4.143   5.635   0.790
 8689SOL    HW226967   4.244   5.735   0.709
 8690SOL     OW26968   1.385   0.621   2.657
 8690SOL    HW126969   1.438   0.698   2.622
 8690SOL    HW226970   1.420   0.595   2.747
 8691SOL     OW26971   5.871   1.750   0.588
 8691SOL    HW126972   5.774   1.773   0.586
 8691SOL    HW226973   5.926   1.834   0.582
 8692SOL     OW26974   1.794   1.495   3.852
 8692SOL    HW126975   1.848   1.435   3.793
 8692SOL    HW226976   1.786   1.585   3.808
 8693SOL     OW26977   5.368   2.020   6.780
 8693SOL    HW126978   5.403   1.952   6.844
 8693SOL    HW226979   5.268   2.023   6.787
 8694SOL     OW26980   3.703   6.406   6.911
 8694SOL    HW126981   3.701   6.506   6.918
 8694SOL    HW226982   3.763   6.369   6.982
 8695SOL     OW26983   4.555   4.316   5.159
 8695SOL    HW126984   4.582   4.269   5.075
 8695SOL    HW226985   4.459   4.343   5.152
 8696SOL     OW26986   1.567   5.040   0.920
 8696SOL    HW126987   1.499   5.102   0.880
 8696SOL    HW226988   1.642   5.026   0.855
 8697SOL     OW26989   5.226   5.050   6.556
 8697SOL    HW126990   5.297   4.982   6.535
 8697SOL    HW226991   5.141   5.003   6.581
 8698SOL     OW26992   6.007   6.218   4.182
 8698SOL    HW126993   6.012   6.118   4.193
 8698SOL    HW226994   5.988   6.260   4.271
 8699SOL     OW26995   1.572   1.398   5.402
 8699SOL    HW126996   1.531   1.488   5.385
 8699SOL    HW226997   1.568   1.378   5.500
 8700SOL     OW26998   2.606   2.007   5.738
 8700SOL    HW126999   2.557   1.986   5.822
 8700SOL    HW227000   2.705   2.006   5.755
 8701SOL     OW27001   1.203   2.355   4.160
 8701SOL    HW127002   1.169   2.405   4.080
 8701SOL    HW227003   1.144   2.374   4.238
 8702SOL     OW27004   5.194   5.725   0.111
 8702SOL    HW127005   5.097   5.745   0.126
 8702SOL    HW227006   5.234   5.792   0.048
 8703SOL     OW27007   0.977   5.362   1.334
 8703SOL    HW127008   0.912   5.310   1.389
 8703SOL    HW227009   0.995   5.313   1.249
 8704SOL     OW27010   0.462   3.983   1.831
 8704SOL    HW127011   0.554   3.962   1.866
 8704SOL    HW227012   0.399   3.910   1.858
 8705SOL     OW27013   4.890   6.439   4.686
 8705SOL    HW127014   4.858   6.454   4.592
 8705SOL    HW227015   4.932   6.523   4.720
 8706SOL     OW27016   5.076   1.633   5.994
 8706SOL    HW127017   5.098   1.644   5.897
 8706SOL    HW227018   4.988   1.586   6.003
 8707SOL     OW27019   4.861   2.153   5.440
 8707SOL    HW127020   4.803   2.202   5.375
 8707SOL    HW227021   4.918   2.220   5.489
 8708SOL     OW27022   3.767   1.892   0.746
 8708SOL    HW127023   3.692   1.829   0.730
 8708SOL    HW227024   3.732   1.974   0.793
 8709SOL     OW27025   6.397   3.553   1.098
 8709SOL    HW127026   6.409   3.492   1.020
 8709SOL    HW227027   6.482   3.604   1.114
 8710SOL     OW27028   6.816   2.947   3.691
 8710SOL    HW127029   6.895   2.903   3.648
 8710SOL    HW227030   6.757   2.986   3.621
 8711SOL     OW27031   0.614   1.743   3.876
 8711SOL    HW127032   0.541   1.739   3.944
 8711SOL    HW227033   0.576   1.726   3.785
 8712SOL     OW27034   3.719   1.187   6.258
 8712SOL    HW127035   3.729   1.198   6.159
 8712SOL    HW227036   3.797   1.228   6.304
 8713SOL     OW27037   5.683   4.726   2.600
 8713SOL    HW127038   5.635   4.733   2.688
 8713SOL    HW227039   5.780   4.745   2.614
 8714SOL     OW27040   2.251   1.404   4.316
 8714SOL    HW127041   2.210   1.488   4.281
 8714SOL    HW227042   2.283   1.419   4.409
 8715SOL     OW27043   5.909   1.211   2.176
 8715SOL    HW127044   5.991   1.241   2.127
 8715SOL    HW227045   5.829   1.258   2.140
 8716SOL     OW27046   1.091   1.671   2.119
 8716SOL    HW127047   1.105   1.635   2.211
 8716SOL    HW227048   1.092   1.771   2.122
 8717SOL     OW27049   4.135   3.357   0.628
 8717SOL    HW127050   4.159   3.448   0.592
 8717SOL    HW227051   4.219   3.307   0.649
 8718SOL     OW27052   0.068   3.104   5.917
 8718SOL    HW127053   0.138   3.037   5.892
 8718SOL    HW227054   6.998   3.059   5.920
 8719SOL     OW27055   6.753   0.842   5.596
 8719SOL    HW127056   6.695   0.899   5.538
 8719SOL    HW227057   6.697   0.801   5.668
 8720SOL     OW27058   4.729   3.602   6.211
 8720SOL    HW127059   4.634   3.571   6.218
 8720SOL    HW227060   4.776   3.552   6.138
 8721SOL     OW27061   6.690   1.352   4.737
 8721SOL    HW127062   6.727   1.280   4.796
 8721SOL    HW227063   6.752   1.430   4.736
 8722SOL     OW27064   3.066   2.848   0.793
 8722SOL    HW127065   3.054   2.803   0.704
 8722SOL    HW227066   3.161   2.838   0.822
 8723SOL     OW27067   0.165   5.188   0.466
 8723SOL    HW127068   0.074   5.172   0.428
 8723SOL    HW227069   0.209   5.101   0.485
 8724SOL     OW27070   5.459   6.008   6.581
 8724SOL    HW127071   5.548   5.984   6.541
 8724SOL    HW227072   5.395   5.933   6.565
 8725SOL     OW27073   2.133   6.399   1.406
 8725SOL    HW127074   2.034   6.395   1.416
 8725SOL    HW227075   2.167   6.315   1.364
 8726SOL     OW27076   6.048   0.503   1.312
 8726SOL    HW127077   6.145   0.502   1.334
 8726SOL    HW227078   5.997   0.453   1.382
 8727SOL     OW27079   6.014   6.279   1.201
 8727SOL    HW127080   5.997   6.288   1.299
 8727SOL    HW227081   6.014   6.370   1.159
 8728SOL     OW27082   2.249   6.677   5.452
 8728SOL    HW127083   2.199   6.604   5.499
 8728SOL    HW227084   2.206   6.765   5.471
 8729SOL     OW27085   5.591   6.428   4.299
 8729SOL    HW127086   5.625   6.341   4.334
 8729SOL    HW227087   5.595   6.497   4.370
 8730SOL     OW27088   6.758   6.558   1.027
 8730SOL    HW127089   6.689   6.601   1.085
 8730SOL    HW227090   6.845   6.555   1.074
 8731SOL     OW27091   0.539   2.150   2.471
 8731SOL    HW127092   0.547   2.246   2.447
 8731SOL    HW227093   0.460   2.110   2.424
 8732SOL     OW27094   6.249   5.143   1.746
 8732SOL    HW127095   6.174   5.085   1.775
 8732SOL    HW227096   6.227   5.184   1.657
 8733SOL     OW27097   6.963   6.564   1.654
 8733SOL    HW127098   7.013   6.519   1.728
 8733SOL    HW227099   0.005   6.576   1.575
 8734SOL     OW27100   6.986   5.381   0.124
 8734SOL    HW127101   6.980   5.442   0.045
 8734SOL    HW227102   0.062   5.369   0.150
 8735SOL     OW27103   0.092   2.596   6.471
 8735SOL    HW127104   0.161   2.550   6.415
 8735SOL    HW227105   0.070   2.540   6.551
 8736SOL     OW27106   0.451   4.514   6.196
 8736SOL    HW127107   0.464   4.612   6.207
 8736SOL    HW227108   0.518   4.478   6.130
 8737SOL     OW27109   3.803   6.325   6.666
 8737SOL    HW127110   3.769   6.351   6.756
 8737SOL    HW227111   3.755   6.378   6.596
 8738SOL     OW27112   1.282   3.682   4.844
 8738SOL    HW127113   1.342   3.609   4.876
 8738SOL    HW227114   1.265   3.747   4.918
 8739SOL     OW27115   1.348   3.150   5.562
 8739SOL    HW127116   1.445   3.175   5.555
 8739SOL    HW227117   1.314   3.125   5.471
 8740SOL     OW27118   1.394   6.702   1.355
 8740SOL    HW127119   1.473   6.714   1.414
 8740SOL    HW227120   1.345   6.789   1.347
 8741SOL     OW27121   1.851   3.149   1.804
 8741SOL    HW127122   1.844   3.128   1.706
 8741SOL    HW227123   1.913   3.226   1.817
 8742SOL     OW27124   4.795   6.217   2.406
 8742SOL    HW127125   4.778   6.167   2.321
 8742SOL    HW227126   4.874   6.177   2.453
 8743SOL     OW27127   2.336   4.667   3.201
 8743SOL    HW127128   2.283   4.717   3.133
 8743SOL    HW227129   2.433   4.672   3.178
 8744SOL     OW27130   3.376   3.521   5.789
 8744SOL    HW127131   3.391   3.607   5.739
 8744SOL    HW227132   3.315   3.463   5.737
 8745SOL     OW27133   6.462   1.602   0.047
 8745SOL    HW127134   6.476   1.697   0.073
 8745SOL    HW227135   6.386   1.596   7.002
 8746SOL     OW27136   5.072   4.155   5.264
 8746SOL    HW127137   4.979   4.192   5.267
 8746SOL    HW227138   5.094   4.127   5.171
 8747SOL     OW27139   1.372   2.594   3.890
 8747SOL    HW127140   1.306   2.526   3.858
 8747SOL    HW227141   1.337   2.686   3.872
 8748SOL     OW27142   2.857   6.912   0.079
 8748SOL    HW127143   2.912   6.860   0.014
 8748SOL    HW227144   2.767   6.868   0.089
 8749SOL     OW27145   4.414   1.454   4.074
 8749SOL    HW127146   4.457   1.410   4.152
 8749SOL    HW227147   4.315   1.460   4.088
 8750SOL     OW27148   2.206   0.166   4.944
 8750SOL    HW127149   2.171   0.173   5.038
 8750SOL    HW227150   2.255   0.250   4.921
 8751SOL     OW27151   2.195   0.628   3.038
 8751SOL    HW127152   2.126   0.629   3.110
 8751SOL    HW227153   2.218   0.533   3.014
 8752SOL     OW27154   2.027   2.167   5.982
 8752SOL    HW127155   2.061   2.073   5.979
 8752SOL    HW227156   1.994   2.187   6.075
 8753SOL     OW27157   6.262   1.613   4.987
 8753SOL    HW127158   6.326   1.623   5.063
 8753SOL    HW227159   6.220   1.522   4.991
 8754SOL     OW27160   2.100   0.990   5.077
 8754SOL    HW127161   2.042   0.979   4.996
 8754SOL    HW227162   2.149   0.905   5.094
 8755SOL     OW27163   2.222   1.797   0.969
 8755SOL    HW127164   2.308   1.780   1.018
 8755SOL    HW227165   2.147   1.799   1.035
 8756SOL     OW27166   1.857   3.884   3.809
 8756SOL    HW127167   1.852   3.919   3.903
 8756SOL    HW227168   1.813   3.949   3.747
 8757SOL     OW27169   4.654   6.041   4.447
 8757SOL    HW127170   4.585   6.114   4.452
 8757SOL    HW227171   4.608   5.952   4.443
 8758SOL     OW27172   5.316   6.384   2.038
 8758SOL    HW127173   5.323   6.474   1.996
 8758SOL    HW227174   5.277   6.391   2.129
 8759SOL     OW27175   5.332   1.586   5.547
 8759SOL    HW127176   5.284   1.607   5.462
 8759SOL    HW227177   5.402   1.655   5.565
 8760SOL     OW27178   1.568   3.013   3.836
 8760SOL    HW127179   1.651   3.063   3.858
 8760SOL    HW227180   1.532   2.969   3.918
 8761SOL     OW27181   4.877   6.235   1.005
 8761SOL    HW127182   4.888   6.166   0.934
 8761SOL    HW227183   4.946   6.221   1.076
 8762SOL     OW27184   0.957   3.787   0.196
 8762SOL    HW127185   0.860   3.790   0.173
 8762SOL    HW227186   1.001   3.712   0.147
 8763SOL     OW27187   0.099   6.020   5.975
 8763SOL    HW127188   0.160   5.943   5.995
 8763SOL    HW227189   0.073   6.065   6.061
 8764SOL     OW27190   3.716   2.066   5.359
 8764SOL    HW127191   3.703   1.967   5.372
 8764SOL    HW227192   3.649   2.116   5.413
 8765SOL     OW27193   6.921   0.387   5.208
 8765SOL    HW127194   6.974   0.447   5.267
 8765SOL    HW227195   6.894   0.305   5.259
 8766SOL     OW27196   2.459   4.456   2.454
 8766SOL    HW127197   2.419   4.518   2.387
 8766SOL    HW227198   2.438   4.361   2.429
 8767SOL     OW27199   4.716   1.746   5.038
 8767SOL    HW127200   4.788   1.679   5.056
 8767SOL    HW227201   4.732   1.790   4.950
 8768SOL     OW27202   1.384   4.104   7.008
 8768SOL    HW127203   1.320   4.165   6.961
 8768SOL    HW227204   1.342   4.015   0.004
 8769SOL     OW27205   2.156   0.545   5.159
 8769SOL    HW127206   2.118   0.484   5.090
 8769SOL    HW227207   2.189   0.629   5.116
 8770SOL     OW27208   5.379   1.624   2.780
 8770SOL    HW127209   5.334   1.599   2.695
 8770SOL    HW227210   5.465   1.671   2.761
 8771SOL     OW27211   2.313   2.442   5.390
 8771SOL    HW127212   2.331   2.471   5.484
 8771SOL    HW227213   2.399   2.419   5.345
 8772SOL     OW27214   5.716   5.885   6.545
 8772SOL    HW127215   5.755   5.976   6.530
 8772SOL    HW227216   5.790   5.818   6.551
 8773SOL     OW27217   3.144   1.951   2.863
 8773SOL    HW127218   3.239   1.920   2.868
 8773SOL    HW227219   3.083   1.873   2.879
 8774SOL     OW27220   1.140   0.736   0.357
 8774SOL    HW127221   1.186   0.654   0.392
 8774SOL    HW227222   1.112   0.793   0.435
 8775SOL     OW27223   6.840   6.650   4.121
 8775SOL    HW127224   6.746   6.618   4.112
 8775SOL    HW227225   6.898   6.575   4.152
 8776SOL     OW27226   3.167   4.154   4.710
 8776SOL    HW127227   3.258   4.169   4.747
 8776SOL    HW227228   3.170   4.159   4.610
 8777SOL     OW27229   6.410   5.919   2.334
 8777SOL    HW127230   6.368   5.829   2.329
 8777SOL    HW227231   6.494   5.919   2.280
 8778SOL     OW27232   0.752   2.199   2.995
 8778SOL    HW127233   0.841   2.203   3.041
 8778SOL    HW227234   0.701   2.119   3.028
 8779SOL     OW27235   1.160   4.776   1.165
 8779SOL    HW127236   1.229   4.835   1.122
 8779SOL    HW227237   1.206   4.706   1.219
 8780SOL     OW27238   2.230   6.496   4.604
 8780SOL    HW127239   2.308   6.465   4.550
 8780SOL    HW227240   2.260   6.515   4.698
 8781SOL     OW27241   0.530   2.389   3.286
 8781SOL    HW127242   0.623   2.353   3.293
 8781SOL    HW227243   0.508   2.406   3.190
 8782SOL     OW27244   4.545   1.656   2.827
 8782SOL    HW127245   4.591   1.639   2.915
 8782SOL    HW227246   4.596   1.724   2.775
 8783SOL     OW27247   5.482   2.592   5.983
 8783SOL    HW127248   5.411   2.616   6.049
 8783SOL    HW227249   5.502   2.494   5.989
 8784SOL     OW27250   5.166   4.002   5.755
 8784SOL    HW127251   5.240   4.068   5.743
 8784SOL    HW227252   5.094   4.020   5.688
 8785SOL     OW27253   5.175   4.668   6.187
 8785SOL    HW127254   5.268   4.705   6.186
 8785SOL    HW227255   5.118   4.716   6.121
 8786SOL     OW27256   1.105   6.385   0.873
 8786SOL    HW127257   1.191   6.334   0.866
 8786SOL    HW227258   1.065   6.397   0.782
 8787SOL     OW27259   1.493   3.082   0.095
 8787SOL    HW127260   1.564   3.035   0.147
 8787SOL    HW227261   1.455   3.157   0.149
 8788SOL     OW27262   1.715   1.733   5.208
 8788SOL    HW127263   1.778   1.724   5.285
 8788SOL    HW227264   1.752   1.683   5.129
 8789SOL     OW27265   0.313   0.305   6.884
 8789SOL    HW127266   0.344   0.251   6.806
 8789SOL    HW227267   0.345   0.263   6.969
 8790SOL     OW27268   4.647   1.314   0.041
 8790SOL    HW127269   4.575   1.349   7.001
 8790SOL    HW227270   4.730   1.298   7.008
 8791SOL     OW27271   4.957   6.047   5.599
 8791SOL    HW127272   4.974   5.966   5.654
 8791SOL    HW227273   4.868   6.039   5.554
 8792SOL     OW27274   5.601   6.956   2.785
 8792SOL    HW127275   5.678   6.893   2.786
 8792SOL    HW227276   5.550   6.946   2.699
 8793SOL     OW27277   1.067   4.351   3.487
 8793SOL    HW127278   1.065   4.272   3.427
 8793SOL    HW227279   1.066   4.435   3.433
 8794SOL     OW27280   2.899   5.858   2.630
 8794SOL    HW127281   2.966   5.917   2.674
 8794SOL    HW227282   2.941   5.769   2.609
 8795SOL     OW27283   2.345   5.614   5.041
 8795SOL    HW127284   2.325   5.533   4.986
 8795SOL    HW227285   2.266   5.675   5.040
 8796SOL     OW27286   5.552   2.565   5.686
 8796SOL    HW127287   5.524   2.592   5.779
 8796SOL    HW227288   5.577   2.647   5.634
 8797SOL     OW27289   0.919   6.229   6.576
 8797SOL    HW127290   0.921   6.171   6.658
 8797SOL    HW227291   1.011   6.239   6.540
 8798SOL     OW27292   3.495   3.237   6.213
 8798SOL    HW127293   3.497   3.139   6.228
 8798SOL    HW227294   3.551   3.260   6.133
 8799SOL     OW27295   3.750   0.077   3.119
 8799SOL    HW127296   3.843   0.113   3.124
 8799SOL    HW227297   3.726   0.059   3.024
 8800SOL     OW27298   4.310   5.394   0.527
 8800SOL    HW127299   4.294   5.489   0.554
 8800SOL    HW227300   4.356   5.392   0.439
 8801SOL     OW27301   3.218   6.535   5.446
 8801SOL    HW127302   3.251   6.620   5.488
 8801SOL    HW227303   3.224   6.544   5.347
 8802SOL     OW27304   2.245   6.496   1.633
 8802SOL    HW127305   2.224   6.462   1.541
 8802SOL    HW227306   2.343   6.488   1.650
 8803SOL     OW27307   4.220   6.307   0.865
 8803SOL    HW127308   4.251   6.281   0.956
 8803SOL    HW227309   4.213   6.407   0.859
 8804SOL     OW27310   3.358   0.869   0.990
 8804SOL    HW127311   3.447   0.897   0.955
 8804SOL    HW227312   3.347   0.770   0.977
 8805SOL     OW27313   7.016   0.346   3.488
 8805SOL    HW127314   0.031   0.381   3.401
 8805SOL    HW227315   0.063   0.366   3.561
 8806SOL     OW27316   2.127   4.855   0.334
 8806SOL    HW127317   2.188   4.796   0.280
 8806SOL    HW227318   2.039   4.809   0.347
 8807SOL     OW27319   1.736   5.957   6.533
 8807SOL    HW127320   1.646   5.975   6.493
 8807SOL    HW227321   1.730   5.966   6.633
 8808SOL     OW27322   6.014   2.009   1.035
 8808SOL    HW127323   6.102   2.022   0.989
 8808SOL    HW227324   5.967   1.930   0.997
 8809SOL     OW27325   5.875   4.363   0.973
 8809SOL    HW127326   5.824   4.280   0.949
 8809SOL    HW227327   5.927   4.348   1.057
 8810SOL     OW27328   5.138   1.412   3.939
 8810SOL    HW127329   5.056   1.373   3.897
 8810SOL    HW227330   5.114   1.450   4.029
 8811SOL     OW27331   1.497   1.584   3.999
 8811SOL    HW127332   1.584   1.543   3.973
 8811SOL    HW227333   1.509   1.644   4.078
 8812SOL     OW27334   2.236   0.812   0.172
 8812SOL    HW127335   2.290   0.736   0.208
 8812SOL    HW227336   2.298   0.883   0.138
 8813SOL     OW27337   1.050   5.880   0.789
 8813SOL    HW127338   1.106   5.855   0.710
 8813SOL    HW227339   1.101   5.944   0.847
 8814SOL     OW27340   5.222   6.601   0.062
 8814SOL    HW127341   5.159   6.601   0.139
 8814SOL    HW227342   5.307   6.556   0.088
 8815SOL     OW27343   6.155   5.797   3.350
 8815SOL    HW127344   6.127   5.832   3.439
 8815SOL    HW227345   6.150   5.870   3.282
 8816SOL     OW27346   0.972   5.565   1.929
 8816SOL    HW127347   1.027   5.502   1.983
 8816SOL    HW227348   0.877   5.560   1.959
 8817SOL     OW27349   2.557   4.535   5.451
 8817SOL    HW127350   2.646   4.567   5.420
 8817SOL    HW227351   2.485   4.587   5.405
 8818SOL     OW27352   0.233   4.733   4.881
 8818SOL    HW127353   0.260   4.764   4.973
 8818SOL    HW227354   0.251   4.635   4.873
 8819SOL     OW27355   5.735   0.110   4.044
 8819SOL    HW127356   5.686   0.037   4.092
 8819SOL    HW227357   5.749   0.187   4.106
 8820SOL     OW27358   1.246   3.407   4.150
 8820SOL    HW127359   1.284   3.499   4.145
 8820SOL    HW227360   1.157   3.410   4.196
 8821SOL     OW27361   1.524   6.517   6.358
 8821SOL    HW127362   1.472   6.532   6.274
 8821SOL    HW227363   1.478   6.564   6.434
 8822SOL     OW27364   0.355   2.019   3.843
 8822SOL    HW127365   0.284   1.949   3.846
 8822SOL    HW227366   0.389   2.028   3.749
 8823SOL     OW27367   2.553   4.701   1.636
 8823SOL    HW127368   2.460   4.715   1.601
 8823SOL    HW227369   2.548   4.648   1.721
 8824SOL     OW27370   4.714   3.875   0.803
 8824SOL    HW127371   4.631   3.839   0.761
 8824SOL    HW227372   4.691   3.957   0.855
 8825SOL     OW27373   1.781   2.395   1.082
 8825SOL    HW127374   1.807   2.309   1.038
 8825SOL    HW227375   1.815   2.395   1.176
 8826SOL     OW27376   5.599   0.729   0.319
 8826SOL    HW127377   5.593   0.771   0.410
 8826SOL    HW227378   5.692   0.740   0.284
 8827SOL     OW27379   6.998   1.061   3.462
 8827SOL    HW127380   6.961   1.011   3.540
 8827SOL    HW227381   0.069   1.025   3.440
 8828SOL     OW27382   1.530   6.219   2.755
 8828SOL    HW127383   1.596   6.194   2.827
 8828SOL    HW227384   1.453   6.269   2.796
 8829SOL     OW27385   1.194   1.432   0.570
 8829SOL    HW127386   1.098   1.405   0.575
 8829SOL    HW227387   1.208   1.515   0.623
 8830SOL     OW27388   1.204   1.695   0.430
 8830SOL    HW127389   1.175   1.601   0.413
 8830SOL    HW227390   1.181   1.721   0.524
 8831SOL     OW27391   0.009   1.091   2.132
 8831SOL    HW127392   6.961   1.155   2.169
 8831SOL    HW227393   0.015   1.011   2.192
 8832SOL     OW27394   6.884   0.741   2.049
 8832SOL    HW127395   6.952   0.672   2.073
 8832SOL    HW227396   6.864   0.796   2.130
 8833SOL     OW27397   1.260   5.069   3.294
 8833SOL    HW127398   1.205   5.094   3.214
 8833SOL    HW227399   1.354   5.102   3.282
 8834SOL     OW27400   5.901   4.122   4.026
 8834SOL    HW127401   5.837   4.060   3.980
 8834SOL    HW227402   5.991   4.079   4.033
 8835SOL     OW27403   0.520   0.681   6.458
 8835SOL    HW127404   0.575   0.752   6.414
 8835SOL    HW227405   0.501   0.709   6.553
 8836SOL     OW27406   4.966   1.958   1.649
 8836SOL    HW127407   4.876   1.921   1.623
 8836SOL    HW227408   4.955   2.022   1.725
 8837SOL     OW27409   0.850   2.425   2.328
 8837SOL    HW127410   0.783   2.499   2.336
 8837SOL    HW227411   0.837   2.361   2.404
 8838SOL     OW27412   2.220   6.060   3.059
 8838SOL    HW127413   2.301   6.007   3.087
 8838SOL    HW227414   2.175   6.097   3.140
 8839SOL     OW27415   5.805   5.965   4.008
 8839SOL    HW127416   5.803   6.010   4.097
 8839SOL    HW227417   5.894   5.983   3.964
 8840SOL     OW27418   4.809   1.031   2.426
 8840SOL    HW127419   4.900   0.989   2.430
 8840SOL    HW227420   4.740   0.959   2.420
 8841SOL     OW27421   2.991   0.051   3.973
 8841SOL    HW127422   3.061   0.044   3.902
 8841SOL    HW227423   2.944   6.982   3.982
 8842SOL     OW27424   1.263   2.779   2.066
 8842SOL    HW127425   1.355   2.818   2.055
 8842SOL    HW227426   1.270   2.688   2.105
 8843SOL     OW27427   0.390   3.158   4.498
 8843SOL    HW127428   0.426   3.250   4.512
 8843SOL    HW227429   0.409   3.129   4.404
 8844SOL     OW27430   5.931   1.157   6.193
 8844SOL    HW127431   6.005   1.162   6.260
 8844SOL    HW227432   5.953   1.215   6.115
 8845SOL     OW27433   5.429   3.541   6.928
 8845SOL    HW127434   5.468   3.562   7.018
 8845SOL    HW227435   5.494   3.565   6.857
 8846SOL     OW27436   2.832   4.814   3.417
 8846SOL    HW127437   2.734   4.816   3.436
 8846SOL    HW227438   2.883   4.807   3.503
 8847SOL     OW27439   1.499   0.915   2.593
 8847SOL    HW127440   1.581   0.948   2.546
 8847SOL    HW227441   1.501   0.945   2.689
 8848SOL     OW27442   1.066   0.870   3.392
 8848SOL    HW127443   1.115   0.914   3.468
 8848SOL    HW227444   0.981   0.830   3.427
 8849SOL     OW27445   2.446   6.657   1.417
 8849SOL    HW127446   2.493   6.737   1.381
 8849SOL    HW227447   2.448   6.660   1.517
 8850SOL     OW27448   2.651   2.553   7.009
 8850SOL    HW127449   2.553   2.535   0.003
 8850SOL    HW227450   2.695   2.469   6.977
 8851SOL     OW27451   1.862   3.753   2.156
 8851SOL    HW127452   1.802   3.684   2.196
 8851SOL    HW227453   1.953   3.714   2.139
 8852SOL     OW27454   0.868   2.014   5.018
 8852SOL    HW127455   0.873   2.102   4.972
 8852SOL    HW227456   0.938   2.009   5.089
 8853SOL     OW27457   5.152   0.653   1.621
 8853SOL    HW127458   5.140   0.582   1.691
 8853SOL    HW227459   5.151   0.742   1.665
 8854SOL     OW27460   0.694   2.746   4.760
 8854SOL    HW127461   0.595   2.741   4.757
 8854SOL    HW227462   0.729   2.778   4.672
 8855SOL     OW27463   5.308   4.750   1.410
 8855SOL    HW127464   5.266   4.839   1.390
 8855SOL    HW227465   5.401   4.764   1.444
 8856SOL     OW27466   6.227   0.701   5.578
 8856SOL    HW127467   6.281   0.626   5.617
 8856SOL    HW227468   6.287   0.780   5.562
 8857SOL     OW27469   0.281   2.043   6.292
 8857SOL    HW127470   0.216   1.976   6.256
 8857SOL    HW227471   0.247   2.080   6.378
 8858SOL     OW27472   6.686   5.427   4.928
 8858SOL    HW127473   6.716   5.478   4.848
 8858SOL    HW227474   6.717   5.332   4.921
 8859SOL     OW27475   1.040   5.964   2.874
 8859SOL    HW127476   0.956   5.934   2.919
 8859SOL    HW227477   1.109   5.988   2.943
 8860SOL     OW27478   0.210   3.323   2.377
 8860SOL    HW127479   0.157   3.341   2.295
 8860SOL    HW227480   0.307   3.334   2.357
 8861SOL     OW27481   3.951   2.574   1.606
 8861SOL    HW127482   3.858   2.543   1.589
 8861SOL    HW227483   3.949   2.664   1.649
 8862SOL     OW27484   4.391   4.644   4.721
 8862SOL    HW127485   4.389   4.635   4.821
 8862SOL    HW227486   4.308   4.605   4.682
 8863SOL     OW27487   1.349   3.999   2.446
 8863SOL    HW127488   1.350   4.015   2.347
 8863SOL    HW227489   1.434   3.952   2.473
 8864SOL     OW27490   6.331   2.066   5.457
 8864SOL    HW127491   6.319   2.000   5.532
 8864SOL    HW227492   6.426   2.065   5.428
 8865SOL     OW27493   2.726   2.341   0.500
 8865SOL    HW127494   2.791   2.413   0.476
 8865SOL    HW227495   2.643   2.351   0.445
 8866SOL     OW27496   5.571   6.570   2.317
 8866SOL    HW127497   5.641   6.581   2.387
 8866SOL    HW227498   5.614   6.548   2.229
 8867SOL     OW27499   6.644   3.281   2.955
 8867SOL    HW127500   6.650   3.368   2.906
 8867SOL    HW227501   6.568   3.228   2.918
 8868SOL     OW27502   0.179   3.507   3.667
 8868SOL    HW127503   0.211   3.459   3.586
 8868SOL    HW227504   0.079   3.508   3.669
 8869SOL     OW27505   4.939   0.579   3.611
 8869SOL    HW127506   4.982   0.629   3.536
 8869SOL    HW227507   4.866   0.520   3.575
 8870SOL     OW27508   1.428   1.106   2.006
 8870SOL    HW127509   1.510   1.054   1.983
 8870SOL    HW227510   1.364   1.103   1.930
 8871SOL     OW27511   0.473   0.378   1.366
 8871SOL    HW127512   0.462   0.280   1.382
 8871SOL    HW227513   0.385   0.417   1.337
 8872SOL     OW27514   6.897   3.993   3.321
 8872SOL    HW127515   6.996   3.999   3.312
 8872SOL    HW227516   6.874   3.952   3.409
 8873SOL     OW27517   2.514   2.080   2.864
 8873SOL    HW127518   2.583   2.054   2.797
 8873SOL    HW227519   2.439   2.014   2.861
 8874SOL     OW27520   2.988   6.378   0.728
 8874SOL    HW127521   2.919   6.373   0.655
 8874SOL    HW227522   2.950   6.341   0.812
 8875SOL     OW27523   6.067   2.991   5.156
 8875SOL    HW127524   6.110   3.081   5.158
 8875SOL    HW227525   6.024   2.973   5.245
 8876SOL     OW27526   3.573   0.809   0.567
 8876SOL    HW127527   3.603   0.886   0.511
 8876SOL    HW227528   3.535   0.843   0.653
 8877SOL     OW27529   0.857   5.135   1.183
 8877SOL    HW127530   0.795   5.187   1.243
 8877SOL    HW227531   0.906   5.067   1.238
 8878SOL     OW27532   5.056   3.775   1.764
 8878SOL    HW127533   4.964   3.799   1.733
 8878SOL    HW227534   5.056   3.767   1.864
 8879SOL     OW27535   0.034   4.272   3.316
 8879SOL    HW127536   0.081   4.255   3.229
 8879SOL    HW227537   6.985   4.344   3.303
 8880SOL     OW27538   4.175   2.263   3.067
 8880SOL    HW127539   4.111   2.265   2.991
 8880SOL    HW227540   4.259   2.312   3.041
 8881SOL     OW27541   3.463   5.005   2.867
 8881SOL    HW127542   3.477   5.104   2.875
 8881SOL    HW227543   3.510   4.958   2.942
 8882SOL     OW27544   3.913   0.767   0.925
 8882SOL    HW127545   3.916   0.832   0.849
 8882SOL    HW227546   3.924   0.674   0.888
 8883SOL     OW27547   0.120   6.821   3.223
 8883SOL    HW127548   0.090   6.740   3.274
 8883SOL    HW227549   0.219   6.821   3.215
 8884SOL     OW27550   4.076   2.905   5.820
 8884SOL    HW127551   4.078   2.806   5.838
 8884SOL    HW227552   3.982   2.937   5.822
 8885SOL     OW27553   5.449   5.976   0.541
 8885SOL    HW127554   5.367   5.930   0.575
 8885SOL    HW227555   5.430   6.016   0.451
 8886SOL     OW27556   4.495   6.596   6.844
 8886SOL    HW127557   4.543   6.635   6.923
 8886SOL    HW227558   4.404   6.565   6.873
 8887SOL     OW27559   3.759   0.504   1.776
 8887SOL    HW127560   3.731   0.599   1.761
 8887SOL    HW227561   3.732   0.449   1.697
 8888SOL     OW27562   3.248   2.119   2.384
 8888SOL    HW127563   3.213   2.069   2.305
 8888SOL    HW227564   3.307   2.194   2.352
 8889SOL     OW27565   1.261   4.738   0.824
 8889SOL    HW127566   1.311   4.762   0.908
 8889SOL    HW227567   1.255   4.639   0.816
 8890SOL     OW27568   1.004   6.115   6.857
 8890SOL    HW127569   0.985   6.018   6.843
 8890SOL    HW227570   1.080   6.126   6.920
 8891SOL     OW27571   6.651   3.684   5.624
 8891SOL    HW127572   6.650   3.775   5.583
 8891SOL    HW227573   6.557   3.655   5.642
 8892SOL     OW27574   3.091   5.083   4.927
 8892SOL    HW127575   3.062   4.987   4.918
 8892SOL    HW227576   3.087   5.110   5.023
 8893SOL     OW27577   0.894   4.167   5.594
 8893SOL    HW127578   0.798   4.142   5.598
 8893SOL    HW227579   0.904   4.252   5.542
 8894SOL     OW27580   5.131   1.556   1.644
 8894SOL    HW127581   5.113   1.575   1.740
 8894SOL    HW227582   5.045   1.559   1.593
 8895SOL     OW27583   0.055   3.358   0.999
 8895SOL    HW127584   0.124   3.293   1.030
 8895SOL    HW227585   7.014   3.380   1.076
 8896SOL     OW27586   0.912   1.865   3.552
 8896SOL    HW127587   0.871   1.774   3.545
 8896SOL    HW227588   0.898   1.901   3.644
 8897SOL     OW27589   1.693   5.701   3.804
 8897SOL    HW127590   1.698   5.643   3.723
 8897SOL    HW227591   1.724   5.649   3.884
 8898SOL     OW27592   4.921   3.778   2.351
 8898SOL    HW127593   4.853   3.753   2.282
 8898SOL    HW227594   4.903   3.870   2.384
 8899SOL     OW27595   1.966   3.723   2.936
 8899SOL    HW127596   2.046   3.769   2.974
 8899SOL    HW227597   1.994   3.664   2.861
 8900SOL     OW27598   3.907   1.836   4.662
 8900SOL    HW127599   3.893   1.827   4.761
 8900SOL    HW227600   3.818   1.836   4.616
 8901SOL     OW27601   1.836   5.677   4.930
 8901SOL    HW127602   1.812   5.745   4.999
 8901SOL    HW227603   1.891   5.605   4.972
 8902SOL     OW27604   0.239   5.300   0.176
 8902SOL    HW127605   0.234   5.233   0.102
 8902SOL    HW227606   0.286   5.259   0.254
 8903SOL     OW27607   0.968   0.595   5.308
 8903SOL    HW127608   1.067   0.604   5.293
 8903SOL    HW227609   0.924   0.569   5.223
 8904SOL     OW27610   0.895   1.054   3.721
 8904SOL    HW127611   0.797   1.042   3.737
 8904SOL    HW227612   0.942   1.063   3.809
 8905SOL     OW27613   1.632   4.441   2.037
 8905SOL    HW127614   1.600   4.380   2.108
 8905SOL    HW227615   1.558   4.503   2.010
 8906SOL     OW27616   5.825   0.134   6.667
 8906SOL    HW127617   5.913   0.150   6.624
 8906SOL    HW227618   5.773   0.066   6.614
 8907SOL     OW27619   2.920   3.437   5.027
 8907SOL    HW127620   2.939   3.466   4.933
 8907SOL    HW227621   2.961   3.347   5.044
 8908SOL     OW27622   1.585   4.841   6.309
 8908SOL    HW127623   1.654   4.804   6.371
 8908SOL    HW227624   1.500   4.857   6.359
 8909SOL     OW27625   1.846   5.358   1.466
 8909SOL    HW127626   1.908   5.280   1.472
 8909SOL    HW227627   1.867   5.411   1.384
 8910SOL     OW27628   1.287   1.300   3.414
 8910SOL    HW127629   1.328   1.335   3.499
 8910SOL    HW227630   1.358   1.257   3.358
 8911SOL     OW27631   5.692   2.467   4.799
 8911SOL    HW127632   5.636   2.487   4.718
 8911SOL    HW227633   5.673   2.374   4.830
 8912SOL     OW27634   3.510   3.113   3.767
 8912SOL    HW127635   3.472   3.168   3.841
 8912SOL    HW227636   3.547   3.172   3.696
 8913SOL     OW27637   4.766   5.961   1.225
 8913SOL    HW127638   4.805   5.888   1.280
 8913SOL    HW227639   4.807   5.960   1.134
 8914SOL     OW27640   4.836   5.514   5.282
 8914SOL    HW127641   4.861   5.558   5.368
 8914SOL    HW227642   4.880   5.424   5.277
 8915SOL     OW27643   1.499   0.937   3.460
 8915SOL    HW127644   1.408   0.953   3.497
 8915SOL    HW227645   1.511   0.840   3.441
 8916SOL     OW27646   5.281   1.259   1.614
 8916SOL    HW127647   5.218   1.281   1.689
 8916SOL    HW227648   5.318   1.344   1.576
 8917SOL     OW27649   5.969   1.810   0.093
 8917SOL    HW127650   6.041   1.747   0.122
 8917SOL    HW227651   5.950   1.795   7.016
 8918SOL     OW27652   0.991   3.538   2.343
 8918SOL    HW127653   0.907   3.500   2.380
 8918SOL    HW227654   0.986   3.540   2.243
 8919SOL     OW27655   5.744   2.563   2.558
 8919SOL    HW127656   5.679   2.625   2.515
 8919SOL    HW227657   5.816   2.538   2.493
 8920SOL     OW27658   0.792   1.421   0.093
 8920SOL    HW127659   0.726   1.361   0.137
 8920SOL    HW227660   0.784   1.513   0.131
 8921SOL     OW27661   0.685   3.278   1.940
 8921SOL    HW127662   0.695   3.354   2.004
 8921SOL    HW227663   0.704   3.192   1.986
 8922SOL     OW27664   3.697   4.999   3.675
 8922SOL    HW127665   3.754   4.922   3.647
 8922SOL    HW227666   3.746   5.054   3.743
 8923SOL     OW27667   2.271   0.850   4.436
 8923SOL    HW127668   2.280   0.940   4.393
 8923SOL    HW227669   2.177   0.817   4.424
 8924SOL     OW27670   6.274   4.960   5.183
 8924SOL    HW127671   6.372   4.979   5.188
 8924SOL    HW227672   6.246   4.905   5.262
 8925SOL     OW27673   0.598   0.055   3.209
 8925SOL    HW127674   0.564   0.024   3.120
 8925SOL    HW227675   0.656   0.135   3.196
 8926SOL     OW27676   5.769   1.001   6.899
 8926SOL    HW127677   5.780   0.936   6.824
 8926SOL    HW227678   5.855   1.050   6.914
 8927SOL     OW27679   1.680   1.035   6.809
 8927SOL    HW127680   1.650   1.130   6.799
 8927SOL    HW227681   1.691   0.994   6.718
 8928SOL     OW27682   1.590   6.993   5.657
 8928SOL    HW127683   1.623   0.017   5.573
 8928SOL    HW227684   1.667   6.972   5.716
 8929SOL     OW27685   0.267   1.731   3.849
 8929SOL    HW127686   0.298   1.690   3.935
 8929SOL    HW227687   0.346   1.745   3.788
 8930SOL     OW27688   2.017   4.981   4.082
 8930SOL    HW127689   2.060   4.904   4.130
 8930SOL    HW227690   2.013   4.960   3.984
 8931SOL     OW27691   4.189   3.502   0.252
 8931SOL    HW127692   4.170   3.543   0.341
 8931SOL    HW227693   4.209   3.574   0.185
 8932SOL     OW27694   0.962   3.606   3.324
 8932SOL    HW127695   0.886   3.670   3.315
 8932SOL    HW227696   1.014   3.628   3.407
 8933SOL     OW27697   4.347   1.572   5.951
 8933SOL    HW127698   4.377   1.479   5.935
 8933SOL    HW227699   4.302   1.578   6.040
 8934SOL     OW27700   2.499   6.205   2.612
 8934SOL    HW127701   2.558   6.128   2.588
 8934SOL    HW227702   2.492   6.212   2.712
 8935SOL     OW27703   6.379   5.236   0.145
 8935SOL    HW127704   6.304   5.289   0.105
 8935SOL    HW227705   6.349   5.197   0.232
 8936SOL     OW27706   3.853   2.761   0.477
 8936SOL    HW127707   3.909   2.708   0.413
 8936SOL    HW227708   3.899   2.764   0.566
 8937SOL     OW27709   0.673   0.329   5.430
 8937SOL    HW127710   0.686   0.424   5.458
 8937SOL    HW227711   0.603   0.287   5.487
 8938SOL     OW27712   4.791   6.083   1.642
 8938SOL    HW127713   4.869   6.021   1.651
 8938SOL    HW227714   4.795   6.128   1.553
 8939SOL     OW27715   5.206   1.876   4.938
 8939SOL    HW127716   5.154   1.891   5.022
 8939SOL    HW227717   5.144   1.843   4.866
 8940SOL     OW27718   5.874   6.780   2.287
 8940SOL    HW127719   5.937   6.754   2.215
 8940SOL    HW227720   5.799   6.834   2.248
 8941SOL     OW27721   4.097   1.440   6.588
 8941SOL    HW127722   4.116   1.352   6.631
 8941SOL    HW227723   4.060   1.503   6.656
 8942SOL     OW27724   1.189   2.537   5.446
 8942SOL    HW127725   1.141   2.461   5.402
 8942SOL    HW227726   1.192   2.615   5.384
 8943SOL     OW27727   4.935   3.212   1.252
 8943SOL    HW127728   4.979   3.123   1.252
 8943SOL    HW227729   4.840   3.202   1.284
 8944SOL     OW27730   3.887   5.694   1.571
 8944SOL    HW127731   3.942   5.610   1.569
 8944SOL    HW227732   3.921   5.757   1.500
 8945SOL     OW27733   2.594   1.209   4.431
 8945SOL    HW127734   2.622   1.197   4.526
 8945SOL    HW227735   2.658   1.161   4.371
 8946SOL     OW27736   4.338   1.040   5.034
 8946SOL    HW127737   4.371   1.133   5.054
 8946SOL    HW227738   4.350   0.983   5.115
 8947SOL     OW27739   3.943   3.977   5.141
 8947SOL    HW127740   3.911   3.895   5.187
 8947SOL    HW227741   4.033   4.002   5.175
 8948SOL     OW27742   5.915   4.817   3.008
 8948SOL    HW127743   5.849   4.770   3.067
 8948SOL    HW227744   6.007   4.786   3.030
 8949SOL     OW27745   2.016   5.547   5.769
 8949SOL    HW127746   2.073   5.520   5.692
 8949SOL    HW227747   2.044   5.495   5.850
 8950SOL     OW27748   4.746   2.443   4.693
 8950SOL    HW127749   4.742   2.396   4.605
 8950SOL    HW227750   4.681   2.520   4.692
 8951SOL     OW27751   2.469   1.636   5.756
 8951SOL    HW127752   2.544   1.678   5.705
 8951SOL    HW227753   2.472   1.537   5.744
 8952SOL     OW27754   6.438   6.851   3.678
 8952SOL    HW127755   6.522   6.900   3.655
 8952SOL    HW227756   6.461   6.759   3.711
 8953SOL     OW27757   1.583   5.046   6.568
 8953SOL    HW127758   1.683   5.042   6.566
 8953SOL    HW227759   1.553   5.077   6.658
 8954SOL     OW27760   2.225   6.363   5.711
 8954SOL    HW127761   2.289   6.338   5.784
 8954SOL    HW227762   2.275   6.404   5.635
 8955SOL     OW27763   6.352   3.747   4.366
 8955SOL    HW127764   6.323   3.717   4.457
 8955SOL    HW227765   6.426   3.813   4.375
 8956SOL     OW27766   1.252   0.462   4.627
 8956SOL    HW127767   1.184   0.406   4.580
 8956SOL    HW227768   1.235   0.458   4.726
 8957SOL     OW27769   2.345   5.668   1.814
 8957SOL    HW127770   2.260   5.669   1.761
 8957SOL    HW227771   2.374   5.763   1.829
 8958SOL     OW27772   2.556   0.008   4.055
 8958SOL    HW127773   2.470   0.011   4.106
 8958SOL    HW227774   2.628   6.990   4.113
 8959SOL     OW27775   2.964   5.531   0.348
 8959SOL    HW127776   2.917   5.617   0.333
 8959SOL    HW227777   3.057   5.549   0.382
 8960SOL     OW27778   3.614   5.713   1.049
 8960SOL    HW127779   3.558   5.665   1.116
 8960SOL    HW227780   3.646   5.799   1.087
 8961SOL     OW27781   1.553   2.542   4.091
 8961SOL    HW127782   1.637   2.583   4.054
 8961SOL    HW227783   1.477   2.561   4.029
 8962SOL     OW27784   4.858   0.579   3.266
 8962SOL    HW127785   4.866   0.661   3.323
 8962SOL    HW227786   4.846   0.607   3.170
 8963SOL     OW27787   6.986   1.151   3.881
 8963SOL    HW127788   6.947   1.179   3.969
 8963SOL    HW227789   7.013   1.232   3.829
 8964SOL     OW27790   0.093   3.552   3.098
 8964SOL    HW127791   0.074   3.456   3.074
 8964SOL    HW227792   0.055   3.571   3.188
 8965SOL     OW27793   1.637   4.933   1.805
 8965SOL    HW127794   1.541   4.963   1.808
 8965SOL    HW227795   1.675   4.933   1.897
 8966SOL     OW27796   3.395   2.173   5.294
 8966SOL    HW127797   3.353   2.225   5.219
 8966SOL    HW227798   3.451   2.100   5.256
 8967SOL     OW27799   4.604   6.877   0.966
 8967SOL    HW127800   4.693   6.859   1.007
 8967SOL    HW227801   4.614   6.940   0.888
 8968SOL     OW27802   4.969   4.396   2.980
 8968SOL    HW127803   4.930   4.311   3.016
 8968SOL    HW227804   4.912   4.430   2.905
 8969SOL     OW27805   6.391   0.507   4.332
 8969SOL    HW127806   6.304   0.480   4.290
 8969SOL    HW227807   6.466   0.481   4.272
 8970SOL     OW27808   3.618   2.016   1.278
 8970SOL    HW127809   3.555   2.070   1.333
 8970SOL    HW227810   3.579   1.925   1.263
 8971SOL     OW27811   4.501   6.082   2.953
 8971SOL    HW127812   4.472   6.175   2.974
 8971SOL    HW227813   4.576   6.056   3.013
 8972SOL     OW27814   5.372   0.167   4.654
 8972SOL    HW127815   5.276   0.139   4.666
 8972SOL    HW227816   5.431   0.089   4.674
 8973SOL     OW27817   2.193   5.110   6.954
 8973SOL    HW127818   2.234   5.186   6.903
 8973SOL    HW227819   2.261   5.071   7.016
 8974SOL     OW27820   0.784   3.187   3.912
 8974SOL    HW127821   0.877   3.157   3.934
 8974SOL    HW227822   0.783   3.227   3.820
 8975SOL     OW27823   3.732   0.552   6.541
 8975SOL    HW127824   3.772   0.558   6.633
 8975SOL    HW227825   3.787   0.492   6.484
 8976SOL     OW27826   0.845   5.216   4.254
 8976SOL    HW127827   0.909   5.142   4.272
 8976SOL    HW227828   0.850   5.243   4.158
 8977SOL     OW27829   5.583   1.308   6.751
 8977SOL    HW127830   5.488   1.287   6.731
 8977SOL    HW227831   5.615   1.250   6.827
 8978SOL     OW27832   5.248   5.121   1.103
 8978SOL    HW127833   5.156   5.133   1.142
 8978SOL    HW227834   5.260   5.025   1.077
 8979SOL     OW27835   1.581   4.868   4.887
 8979SOL    HW127836   1.681   4.872   4.891
 8979SOL    HW227837   1.542   4.931   4.954
 8980SOL     OW27838   3.761   2.944   4.601
 8980SOL    HW127839   3.780   2.956   4.699
 8980SOL    HW227840   3.837   2.981   4.548
 8981SOL     OW27841   2.549   1.069   5.843
 8981SOL    HW127842   2.470   1.079   5.783
 8981SOL    HW227843   2.526   1.101   5.934
 8982SOL     OW27844   4.287   4.276   0.897
 8982SOL    HW127845   4.285   4.301   0.801
 8982SOL    HW227846   4.289   4.176   0.905
 8983SOL     OW27847   4.765   5.124   0.728
 8983SOL    HW127848   4.706   5.049   0.698
 8983SOL    HW227849   4.714   5.209   0.727
 8984SOL     OW27850   1.528   6.662   3.888
 8984SOL    HW127851   1.621   6.694   3.871
 8984SOL    HW227852   1.483   6.723   3.953
 8985SOL     OW27853   2.933   3.065   6.141
 8985SOL    HW127854   3.012   3.015   6.105
 8985SOL    HW227855   2.851   3.039   6.091
 8986SOL     OW27856   3.647   6.300   2.843
 8986SOL    HW127857   3.707   6.225   2.871
 8986SOL    HW227858   3.617   6.285   2.748
 8987SOL     OW27859   4.974   5.886   1.752
 8987SOL    HW127860   4.897   5.822   1.745
 8987SOL    HW227861   5.031   5.860   1.830
 8988SOL     OW27862   0.937   4.938   5.043
 8988SOL    HW127863   0.900   5.008   4.982
 8988SOL    HW227864   0.862   4.896   5.094
 8989SOL     OW27865   2.725   2.762   6.852
 8989SOL    HW127866   2.803   2.811   6.890
 8989SOL    HW227867   2.719   2.671   6.894
 8990SOL     OW27868   0.210   6.040   3.317
 8990SOL    HW127869   0.267   6.097   3.376
 8990SOL    HW227870   0.243   6.048   3.223
 8991SOL     OW27871   1.210   2.132   5.026
 8991SOL    HW127872   1.285   2.147   5.090
 8991SOL    HW227873   1.246   2.093   4.941
 8992SOL     OW27874   7.004   2.305   0.947
 8992SOL    HW127875   6.964   2.388   0.909
 8992SOL    HW227876   6.932   2.247   0.986
 8993SOL     OW27877   4.615   2.023   0.980
 8993SOL    HW127878   4.671   1.971   1.045
 8993SOL    HW227879   4.637   1.995   0.887
 8994SOL     OW27880   1.918   5.811   2.924
 8994SOL    HW127881   1.830   5.856   2.908
 8994SOL    HW227882   1.974   5.818   2.841
 8995SOL     OW27883   0.583   0.565   1.126
 8995SOL    HW127884   0.566   0.506   1.205
 8995SOL    HW227885   0.656   0.527   1.070
 8996SOL     OW27886   3.900   6.726   5.966
 8996SOL    HW127887   3.992   6.709   6.003
 8996SOL    HW227888   3.840   6.649   5.988
 8997SOL     OW27889   6.106   0.772   4.417
 8997SOL    HW127890   6.196   0.738   4.444
 8997SOL    HW227891   6.108   0.872   4.410
 8998SOL     OW27892   6.697   3.215   4.830
 8998SOL    HW127893   6.713   3.164   4.915
 8998SOL    HW227894   6.784   3.250   4.795
 8999SOL     OW27895   3.686   6.873   6.145
 8999SOL    HW127896   3.726   6.960   6.175
 8999SOL    HW227897   3.752   6.824   6.088
 9000SOL     OW27898   1.765   3.900   1.154
 9000SOL    HW127899   1.730   3.993   1.149
 9000SOL    HW227900   1.859   3.898   1.120
 9001SOL     OW27901   0.863   5.653   1.664
 9001SOL    HW127902   0.907   5.640   1.753
 9001SOL    HW227903   0.780   5.597   1.659
 9002SOL     OW27904   0.632   4.471   5.989
 9002SOL    HW127905   0.727   4.440   5.979
 9002SOL    HW227906   0.573   4.415   5.930
 9003SOL     OW27907   5.308   0.400   1.433
 9003SOL    HW127908   5.385   0.380   1.371
 9003SOL    HW227909   5.333   0.375   1.526
 9004SOL     OW27910   4.831   4.915   0.427
 9004SOL    HW127911   4.910   4.864   0.463
 9004SOL    HW227912   4.854   4.949   0.335
 9005SOL     OW27913   5.444   0.885   5.562
 9005SOL    HW127914   5.500   0.899   5.480
 9005SOL    HW227915   5.347   0.889   5.537
 9006SOL     OW27916   3.637   5.779   0.565
 9006SOL    HW127917   3.725   5.803   0.605
 9006SOL    HW227918   3.568   5.776   0.637
 9007SOL     OW27919   1.654   1.208   2.916
 9007SOL    HW127920   1.723   1.162   2.972
 9007SOL    HW227921   1.678   1.200   2.819
 9008SOL     OW27922   0.793   5.906   2.278
 9008SOL    HW127923   0.863   5.836   2.293
 9008SOL    HW227924   0.781   5.920   2.179
 9009SOL     OW27925   3.415   6.331   1.593
 9009SOL    HW127926   3.456   6.299   1.508
 9009SOL    HW227927   3.395   6.253   1.652
 9010SOL     OW27928   1.439   6.146   4.326
 9010SOL    HW127929   1.473   6.174   4.416
 9010SOL    HW227930   1.339   6.139   4.328
 9011SOL     OW27931   2.608   2.437   2.071
 9011SOL    HW127932   2.680   2.377   2.107
 9011SOL    HW227933   2.616   2.442   1.971
 9012SOL     OW27934   1.718   6.466   6.834
 9012SOL    HW127935   1.770   6.464   6.749
 9012SOL    HW227936   1.775   6.433   6.909
 9013SOL     OW27937   2.261   6.916   4.550
 9013SOL    HW127938   2.237   6.930   4.647
 9013SOL    HW227939   2.334   6.849   4.543
 9014SOL     OW27940   5.332   2.955   3.960
 9014SOL    HW127941   5.399   2.947   4.034
 9014SOL    HW227942   5.263   3.023   3.985
 9015SOL     OW27943   4.484   0.897   6.218
 9015SOL    HW127944   4.512   0.933   6.128
 9015SOL    HW227945   4.535   0.813   6.237
 9016SOL     OW27946   5.064   5.463   6.025
 9016SOL    HW127947   5.083   5.377   6.073
 9016SOL    HW227948   5.150   5.510   6.006
 9017SOL     OW27949   4.100   0.187   4.890
 9017SOL    HW127950   4.145   0.100   4.911
 9017SOL    HW227951   4.051   0.179   4.803
 9018SOL     OW27952   3.715   4.602   6.657
 9018SOL    HW127953   3.659   4.616   6.738
 9018SOL    HW227954   3.662   4.627   6.575
 9019SOL     OW27955   0.495   3.309   3.804
 9019SOL    HW127956   0.419   3.295   3.868
 9019SOL    HW227957   0.581   3.284   3.848
 9020SOL     OW27958   5.162   4.857   2.924
 9020SOL    HW127959   5.170   4.789   2.997
 9020SOL    HW227960   5.251   4.899   2.908
 9021SOL     OW27961   0.646   1.080   4.305
 9021SOL    HW127962   0.552   1.105   4.281
 9021SOL    HW227963   0.651   1.054   4.401
 9022SOL     OW27964   4.384   4.358   6.225
 9022SOL    HW127965   4.310   4.414   6.186
 9022SOL    HW227966   4.460   4.354   6.160
 9023SOL     OW27967   6.433   4.230   0.542
 9023SOL    HW127968   6.335   4.213   0.552
 9023SOL    HW227969   6.448   4.320   0.501
 9024SOL     OW27970   2.284   6.020   6.164
 9024SOL    HW127971   2.239   5.939   6.127
 9024SOL    HW227972   2.216   6.092   6.180
 9025SOL     OW27973   1.023   5.566   1.049
 9025SOL    HW127974   0.932   5.606   1.060
 9025SOL    HW227975   1.087   5.612   1.111
 9026SOL     OW27976   5.214   1.037   0.622
 9026SOL    HW127977   5.236   1.128   0.657
 9026SOL    HW227978   5.270   1.018   0.541
 9027SOL     OW27979   0.824   4.201   3.565
 9027SOL    HW127980   0.906   4.256   3.552
 9027SOL    HW227981   0.748   4.261   3.592
 9028SOL     OW27982   3.474   4.733   6.515
 9028SOL    HW127983   3.374   4.725   6.517
 9028SOL    HW227984   3.511   4.675   6.443
 9029SOL     OW27985   4.663   0.140   4.029
 9029SOL    HW127986   4.667   0.192   3.944
 9029SOL    HW227987   4.703   0.194   4.104
 9030SOL     OW27988   3.147   1.340   2.273
 9030SOL    HW127989   3.238   1.374   2.251
 9030SOL    HW227990   3.103   1.305   2.191
 9031SOL     OW27991   4.519   6.876   4.826
 9031SOL    HW127992   4.589   6.811   4.798
 9031SOL    HW227993   4.472   6.911   4.745
 9032SOL     OW27994   5.196   2.921   1.943
 9032SOL    HW127995   5.226   2.828   1.922
 9032SOL    HW227996   5.117   2.944   1.886
 9033SOL     OW27997   0.314   0.038   2.669
 9033SOL    HW127998   0.256   6.979   2.651
 9033SOL    HW227999   0.292   0.111   2.604
 9034SOL     OW28000   4.517   6.710   4.185
 9034SOL    HW128001   4.559   6.801   4.181
 9034SOL    HW228002   4.556   6.653   4.113
 9035SOL     OW28003   2.976   5.488   6.961
 9035SOL    HW128004   2.906   5.442   6.907
 9035SOL    HW228005   3.006   5.570   6.913
 9036SOL     OW28006   1.558   4.653   5.164
 9036SOL    HW128007   1.589   4.645   5.259
 9036SOL    HW228008   1.458   4.644   5.161
 9037SOL     OW28009   0.115   0.995   2.555
 9037SOL    HW128010   0.186   0.957   2.495
 9037SOL    HW228011   0.046   0.925   2.573
 9038SOL     OW28012   4.700   2.873   5.206
 9038SOL    HW128013   4.746   2.828   5.283
 9038SOL    HW228014   4.623   2.816   5.177
 9039SOL     OW28015   4.291   6.494   6.369
 9039SOL    HW128016   4.196   6.516   6.393
 9039SOL    HW228017   4.295   6.462   6.274
 9040SOL     OW28018   2.183   1.937   1.505
 9040SOL    HW128019   2.255   1.999   1.537
 9040SOL    HW228020   2.202   1.845   1.538
 9041SOL     OW28021   6.631   2.165   2.425
 9041SOL    HW128022   6.664   2.164   2.519
 9041SOL    HW228023   6.602   2.258   2.402
 9042SOL     OW28024   3.749   6.252   0.771
 9042SOL    HW128025   3.804   6.214   0.845
 9042SOL    HW228026   3.788   6.224   0.683
 9043SOL     OW28027   3.342   2.826   0.815
 9043SOL    HW128028   3.355   2.781   0.903
 9043SOL    HW228029   3.381   2.918   0.818
 9044SOL     OW28030   1.044   0.863   0.667
 9044SOL    HW128031   1.098   0.842   0.748
 9044SOL    HW228032   1.037   0.962   0.656
 9045SOL     OW28033   4.380   1.394   3.490
 9045SOL    HW128034   4.421   1.375   3.401
 9045SOL    HW228035   4.451   1.400   3.559
 9046SOL     OW28036   3.049   3.032   2.110
 9046SOL    HW128037   2.961   2.987   2.094
 9046SOL    HW228038   3.102   2.979   2.176
 9047SOL     OW28039   1.401   4.506   6.416
 9047SOL    HW128040   1.387   4.446   6.337
 9047SOL    HW228041   1.312   4.539   6.449
 9048SOL     OW28042   6.957   1.433   5.868
 9048SOL    HW128043   6.882   1.459   5.807
 9048SOL    HW228044   7.003   1.352   5.832
 9049SOL     OW28045   2.639   0.025   5.492
 9049SOL    HW128046   2.584   0.093   5.443
 9049SOL    HW228047   2.706   7.006   5.429
 9050SOL     OW28048   0.885   4.451   1.144
 9050SOL    HW128049   0.961   4.427   1.083
 9050SOL    HW228050   0.809   4.488   1.090
 9051SOL     OW28051   2.655   1.086   1.552
 9051SOL    HW128052   2.621   0.994   1.533
 9051SOL    HW228053   2.594   1.153   1.511
 9052SOL     OW28054   1.824   2.811   5.701
 9052SOL    HW128055   1.843   2.752   5.622
 9052SOL    HW228056   1.802   2.754   5.780
 9053SOL     OW28057   0.897   0.814   6.949
 9053SOL    HW128058   0.831   0.741   6.932
 9053SOL    HW228059   0.977   0.777   6.996
 9054SOL     OW28060   1.858   5.936   2.370
 9054SOL    HW128061   1.942   5.888   2.345
 9054SOL    HW228062   1.876   5.998   2.447
 9055SOL     OW28063   0.098   2.851   5.287
 9055SOL    HW128064   0.130   2.860   5.193
 9055SOL    HW228065   0.072   2.756   5.304
 9056SOL     OW28066   6.240   2.874   3.424
 9056SOL    HW128067   6.154   2.917   3.451
 9056SOL    HW228068   6.244   2.867   3.324
 9057SOL     OW28069   4.050   2.232   3.790
 9057SOL    HW128070   4.136   2.196   3.826
 9057SOL    HW228071   4.067   2.280   3.704
 9058SOL     OW28072   2.663   0.729   5.725
 9058SOL    HW128073   2.698   0.637   5.706
 9058SOL    HW228074   2.706   0.763   5.809
 9059SOL     OW28075   1.049   2.534   3.184
 9059SOL    HW128076   0.996   2.569   3.261
 9059SOL    HW228077   1.142   2.571   3.190
 9060SOL     OW28078   4.992   3.007   5.925
 9060SOL    HW128079   4.967   3.024   6.020
 9060SOL    HW228080   4.917   2.961   5.878
 9061SOL     OW28081   2.262   5.658   2.778
 9061SOL    HW128082   2.313   5.607   2.848
 9061SOL    HW228083   2.205   5.727   2.822
 9062SOL     OW28084   1.904   6.199   1.461
 9062SOL    HW128085   1.966   6.233   1.531
 9062SOL    HW228086   1.903   6.099   1.462
 9063SOL     OW28087   2.535   2.177   2.267
 9063SOL    HW128088   2.607   2.236   2.231
 9063SOL    HW228089   2.447   2.204   2.228
 9064SOL     OW28090   5.327   3.605   0.574
 9064SOL    HW128091   5.263   3.680   0.583
 9064SOL    HW228092   5.285   3.520   0.607
 9065SOL     OW28093   2.859   0.581   0.436
 9065SOL    HW128094   2.833   0.624   0.350
 9065SOL    HW228095   2.866   0.650   0.507
 9066SOL     OW28096   5.030   6.819   6.971
 9066SOL    HW128097   5.043   6.914   7.000
 9066SOL    HW228098   5.104   6.762   7.007
 9067SOL     OW28099   1.044   0.769   1.802
 9067SOL    HW128100   0.969   0.739   1.744
 9067SOL    HW228101   1.010   0.789   1.894
 9068SOL     OW28102   1.349   6.013   6.611
 9068SOL    HW128103   1.266   5.960   6.625
 9068SOL    HW228104   1.393   5.986   6.525
 9069SOL     OW28105   1.494   2.049   6.234
 9069SOL    HW128106   1.431   2.006   6.169
 9069SOL    HW228107   1.588   2.029   6.206
 9070SOL     OW28108   1.705   4.692   3.454
 9070SOL    HW128109   1.668   4.785   3.447
 9070SOL    HW228110   1.704   4.663   3.550
 9071SOL     OW28111   4.526   6.139   0.358
 9071SOL    HW128112   4.554   6.229   0.325
 9071SOL    HW228113   4.593   6.105   0.424
 9072SOL     OW28114   5.198   4.803   0.133
 9072SOL    HW128115   5.236   4.739   0.200
 9072SOL    HW228116   5.235   4.783   0.042
 9073SOL     OW28117   2.075   0.856   0.965
 9073SOL    HW128118   2.126   0.839   0.881
 9073SOL    HW228119   1.977   0.842   0.949
 9074SOL     OW28120   0.414   0.437   3.167
 9074SOL    HW128121   0.411   0.383   3.252
 9074SOL    HW228122   0.437   0.377   3.090
 9075SOL     OW28123   0.653   0.345   1.757
 9075SOL    HW128124   0.575   0.403   1.782
 9075SOL    HW228125   0.707   0.326   1.839
 9076SOL     OW28126   0.874   1.358   4.934
 9076SOL    HW128127   0.885   1.260   4.919
 9076SOL    HW228128   0.778   1.377   4.956
 9077SOL     OW28129   6.035   6.157   1.615
 9077SOL    HW128130   5.959   6.158   1.550
 9077SOL    HW228131   6.004   6.116   1.701
 9078SOL     OW28132   4.385   3.024   5.301
 9078SOL    HW128133   4.379   2.925   5.290
 9078SOL    HW228134   4.480   3.054   5.287
 9079SOL     OW28135   4.253   0.717   5.589
 9079SOL    HW128136   4.174   0.710   5.529
 9079SOL    HW228137   4.335   0.687   5.540
 9080SOL     OW28138   4.834   1.462   6.606
 9080SOL    HW128139   4.931   1.451   6.626
 9080SOL    HW228140   4.810   1.559   6.612
 9081SOL     OW28141   5.412   6.950   3.510
 9081SOL    HW128142   5.336   6.905   3.463
 9081SOL    HW228143   5.490   6.957   3.447
 9082SOL     OW28144   2.900   0.830   2.941
 9082SOL    HW128145   2.853   0.916   2.963
 9082SOL    HW228146   2.868   0.796   2.853
 9083SOL     OW28147   4.746   4.021   4.338
 9083SOL    HW128148   4.743   4.043   4.240
 9083SOL    HW228149   4.783   4.099   4.389
 9084SOL     OW28150   4.110   3.625   2.730
 9084SOL    HW128151   4.134   3.564   2.805
 9084SOL    HW228152   4.132   3.581   2.643
 9085SOL     OW28153   0.885   2.266   0.692
 9085SOL    HW128154   0.805   2.324   0.679
 9085SOL    HW228155   0.932   2.253   0.604
 9086SOL     OW28156   6.854   4.142   0.024
 9086SOL    HW128157   6.837   4.164   6.948
 9086SOL    HW228158   6.784   4.079   0.057
 9087SOL     OW28159   5.168   3.272   2.275
 9087SOL    HW128160   5.208   3.182   2.257
 9087SOL    HW228161   5.070   3.263   2.291
 9088SOL     OW28162   5.074   6.168   1.197
 9088SOL    HW128163   5.096   6.076   1.229
 9088SOL    HW228164   5.150   6.230   1.217
 9089SOL     OW28165   4.586   0.643   5.833
 9089SOL    HW128166   4.616   0.558   5.876
 9089SOL    HW228167   4.507   0.679   5.883
 9090SOL     OW28168   6.061   1.860   3.192
 9090SOL    HW128169   6.136   1.875   3.127
 9090SOL    HW228170   6.099   1.834   3.281
 9091SOL     OW28171   4.018   2.790   6.122
 9091SOL    HW128172   4.113   2.804   6.151
 9091SOL    HW228173   3.959   2.793   6.202
 9092SOL     OW28174   6.849   3.462   6.440
 9092SOL    HW128175   6.855   3.436   6.537
 9092SOL    HW228176   6.933   3.435   6.393
 9093SOL     OW28177   2.301   6.580   4.860
 9093SOL    HW128178   2.302   6.680   4.854
 9093SOL    HW228179   2.380   6.549   4.913
 9094SOL     OW28180   1.642   3.675   1.016
 9094SOL    HW128181   1.674   3.752   1.071
 9094SOL    HW228182   1.548   3.693   0.985
 9095SOL     OW28183   6.697   6.739   6.430
 9095SOL    HW128184   6.621   6.682   6.397
 9095SOL    HW228185   6.673   6.836   6.420
 9096SOL     OW28186   5.666   5.313   4.850
 9096SOL    HW128187   5.725   5.283   4.925
 9096SOL    HW228188   5.722   5.331   4.770
 9097SOL     OW28189   1.513   2.019   5.784
 9097SOL    HW128190   1.602   2.021   5.829
 9097SOL    HW228191   1.499   1.928   5.744
 9098SOL     OW28192   2.215   4.689   3.819
 9098SOL    HW128193   2.279   4.615   3.797
 9098SOL    HW228194   2.145   4.695   3.748
 9099SOL     OW28195   2.236   1.487   6.686
 9099SOL    HW128196   2.206   1.570   6.639
 9099SOL    HW228197   2.176   1.411   6.660
 9100SOL     OW28198   1.689   4.806   4.021
 9100SOL    HW128199   1.672   4.904   4.029
 9100SOL    HW228200   1.606   4.760   3.991
 9101SOL     OW28201   0.206   2.540   0.345
 9101SOL    HW128202   0.180   2.522   0.250
 9101SOL    HW228203   0.231   2.454   0.390
 9102SOL     OW28204   3.663   0.381   3.052
 9102SOL    HW128205   3.708   0.383   3.142
 9102SOL    HW228206   3.579   0.434   3.056
 9103SOL     OW28207   6.486   0.687   1.083
 9103SOL    HW128208   6.408   0.699   1.145
 9103SOL    HW228209   6.564   0.740   1.117
 9104SOL     OW28210   6.285   1.802   6.005
 9104SOL    HW128211   6.253   1.804   5.910
 9104SOL    HW228212   6.308   1.895   6.034
 9105SOL     OW28213   3.055   1.138   6.437
 9105SOL    HW128214   3.123   1.128   6.510
 9105SOL    HW228215   2.972   1.178   6.474
 9106SOL     OW28216   2.109   3.105   6.634
 9106SOL    HW128217   2.024   3.157   6.629
 9106SOL    HW228218   2.097   3.016   6.589
 9107SOL     OW28219   3.622   1.435   0.435
 9107SOL    HW128220   3.524   1.433   0.455
 9107SOL    HW228221   3.640   1.379   0.354
 9108SOL     OW28222   0.273   5.873   5.638
 9108SOL    HW128223   0.279   5.833   5.729
 9108SOL    HW228224   0.198   5.829   5.587
 9109SOL     OW28225   6.094   4.198   2.754
 9109SOL    HW128226   6.035   4.163   2.681
 9109SOL    HW228227   6.052   4.280   2.794
 9110SOL     OW28228   1.409   6.284   3.232
 9110SOL    HW128229   1.404   6.373   3.186
 9110SOL    HW228230   1.354   6.287   3.315
 9111SOL     OW28231   3.603   2.366   5.712
 9111SOL    HW128232   3.549   2.291   5.675
 9111SOL    HW228233   3.699   2.352   5.691
 9112SOL     OW28234   0.275   5.336   2.217
 9112SOL    HW128235   0.267   5.291   2.128
 9112SOL    HW228236   0.344   5.409   2.211
 9113SOL     OW28237   5.834   0.373   4.118
 9113SOL    HW128238   5.903   0.427   4.068
 9113SOL    HW228239   5.744   0.413   4.103
 9114SOL     OW28240   1.216   0.059   5.665
 9114SOL    HW128241   1.280   0.013   5.727
 9114SOL    HW228242   1.139   0.096   5.717
 9115SOL     OW28243   4.843   4.311   5.219
 9115SOL    HW128244   4.745   4.295   5.219
 9115SOL    HW228245   4.874   4.330   5.126
 9116SOL     OW28246   1.610   0.129   3.452
 9116SOL    HW128247   1.689   0.143   3.393
 9116SOL    HW228248   1.579   0.035   3.444
 9117SOL     OW28249   1.650   6.744   0.176
 9117SOL    HW128250   1.645   6.669   0.241
 9117SOL    HW228251   1.731   6.799   0.194
 9118SOL     OW28252   6.683   3.880   1.567
 9118SOL    HW128253   6.717   3.914   1.479
 9118SOL    HW228254   6.595   3.834   1.553
 9119SOL     OW28255   3.188   1.293   1.197
 9119SOL    HW128256   3.162   1.386   1.172
 9119SOL    HW228257   3.108   1.244   1.231
 9120SOL     OW28258   6.275   3.702   4.641
 9120SOL    HW128259   6.193   3.670   4.594
 9120SOL    HW228260   6.263   3.798   4.667
 9121SOL     OW28261   4.266   1.173   4.361
 9121SOL    HW128262   4.253   1.228   4.443
 9121SOL    HW228263   4.178   1.158   4.317
 9122SOL     OW28264   0.160   2.568   1.765
 9122SOL    HW128265   0.220   2.586   1.687
 9122SOL    HW228266   0.106   2.649   1.784
 9123SOL     OW28267   0.916   6.170   4.165
 9123SOL    HW128268   0.881   6.242   4.225
 9123SOL    HW228269   0.909   6.199   4.070
 9124SOL     OW28270   3.963   6.245   0.942
 9124SOL    HW128271   4.025   6.273   0.869
 9124SOL    HW228272   3.963   6.145   0.950
 9125SOL     OW28273   5.437   6.290   1.394
 9125SOL    HW128274   5.380   6.220   1.437
 9125SOL    HW228275   5.506   6.245   1.337
 9126SOL     OW28276   4.552   4.627   0.844
 9126SOL    HW128277   4.534   4.583   0.756
 9126SOL    HW228278   4.541   4.726   0.834
 9127SOL     OW28279   6.317   4.413   5.464
 9127SOL    HW128280   6.362   4.348   5.404
 9127SOL    HW228281   6.383   4.482   5.494
 9128SOL     OW28282   5.877   3.355   6.011
 9128SOL    HW128283   5.882   3.336   6.109
 9128SOL    HW228284   5.830   3.443   5.997
 9129SOL     OW28285   0.733   2.969   0.945
 9129SOL    HW128286   0.801   3.007   0.882
 9129SOL    HW228287   0.642   3.000   0.919
 9130SOL     OW28288   3.007   3.569   5.454
 9130SOL    HW128289   2.939   3.520   5.400
 9130SOL    HW228290   2.967   3.654   5.489
 9131SOL     OW28291   5.486   2.935   0.717
 9131SOL    HW128292   5.399   2.982   0.705
 9131SOL    HW228293   5.499   2.913   0.814
 9132SOL     OW28294   0.976   4.170   3.861
 9132SOL    HW128295   0.916   4.091   3.842
 9132SOL    HW228296   0.924   4.254   3.847
 9133SOL     OW28297   5.459   0.037   1.272
 9133SOL    HW128298   5.385   0.046   1.206
 9133SOL    HW228299   5.542   0.079   1.235
 9134SOL     OW28300   5.049   4.876   6.668
 9134SOL    HW128301   5.120   4.836   6.726
 9134SOL    HW228302   4.967   4.893   6.722
 9135SOL     OW28303   6.516   5.378   2.210
 9135SOL    HW128304   6.585   5.306   2.219
 9135SOL    HW228305   6.542   5.439   2.135
 9136SOL     OW28306   0.855   5.228   0.374
 9136SOL    HW128307   0.840   5.132   0.349
 9136SOL    HW228308   0.767   5.276   0.371
 9137SOL     OW28309   5.756   5.619   5.531
 9137SOL    HW128310   5.668   5.585   5.563
 9137SOL    HW228311   5.747   5.651   5.436
 9138SOL     OW28312   1.995   4.533   6.335
 9138SOL    HW128313   1.934   4.455   6.320
 9138SOL    HW228314   2.018   4.575   6.248
 9139SOL     OW28315   0.325   0.130   1.747
 9139SOL    HW128316   0.261   0.194   1.706
 9139SOL    HW228317   0.338   0.153   1.844
 9140SOL     OW28318   1.950   4.357   2.130
 9140SOL    HW128319   1.941   4.418   2.051
 9140SOL    HW228320   1.928   4.264   2.103
 9141SOL     OW28321   0.531   5.511   4.539
 9141SOL    HW128322   0.514   5.455   4.458
 9141SOL    HW228323   0.549   5.605   4.511
 9142SOL     OW28324   1.489   4.506   3.313
 9142SOL    HW128325   1.433   4.578   3.356
 9142SOL    HW228326   1.582   4.539   3.301
 9143SOL     OW28327   6.407   3.633   2.718
 9143SOL    HW128328   6.320   3.679   2.702
 9143SOL    HW228329   6.397   3.567   2.792
 9144SOL     OW28330   3.119   4.003   5.661
 9144SOL    HW128331   3.183   4.032   5.589
 9144SOL    HW228332   3.161   4.018   5.751
 9145SOL     OW28333   2.014   6.410   5.958
 9145SOL    HW128334   2.103   6.387   5.920
 9145SOL    HW228335   1.953   6.331   5.950
 9146SOL     OW28336   6.260   2.356   3.910
 9146SOL    HW128337   6.222   2.308   3.989
 9146SOL    HW228338   6.260   2.294   3.831
 9147SOL     OW28339   4.366   0.690   6.033
 9147SOL    HW128340   4.300   0.705   5.960
 9147SOL    HW228341   4.365   0.768   6.095
 9148SOL     OW28342   4.412   5.824   1.816
 9148SOL    HW128343   4.419   5.823   1.716
 9148SOL    HW228344   4.420   5.918   1.849
 9149SOL     OW28345   0.852   3.760   1.661
 9149SOL    HW128346   0.783   3.805   1.604
 9149SOL    HW228347   0.918   3.829   1.692
 9150SOL     OW28348   3.060   3.959   0.209
 9150SOL    HW128349   3.151   3.961   0.168
 9150SOL    HW228350   3.056   3.886   0.278
 9151SOL     OW28351   2.178   3.219   3.525
 9151SOL    HW128352   2.101   3.282   3.536
 9151SOL    HW228353   2.174   3.149   3.597
 9152SOL     OW28354   2.167   4.840   2.301
 9152SOL    HW128355   2.191   4.787   2.219
 9152SOL    HW228356   2.228   4.816   2.376
 9153SOL     OW28357   0.311   3.241   0.265
 9153SOL    HW128358   0.288   3.284   0.352
 9153SOL    HW228359   0.243   3.268   0.196
 9154SOL     OW28360   4.626   4.789   3.503
 9154SOL    HW128361   4.675   4.844   3.570
 9154SOL    HW228362   4.557   4.734   3.549
 9155SOL     OW28363   1.045   6.285   2.541
 9155SOL    HW128364   0.999   6.304   2.628
 9155SOL    HW228365   1.124   6.225   2.558
 9156SOL     OW28366   0.376   3.808   5.445
 9156SOL    HW128367   0.305   3.864   5.488
 9156SOL    HW228368   0.335   3.752   5.373
 9157SOL     OW28369   2.236   4.864   5.060
 9157SOL    HW128370   2.310   4.882   5.124
 9157SOL    HW228371   2.150   4.894   5.099
 9158SOL     OW28372   0.028   3.358   4.876
 9158SOL    HW128373   7.018   3.426   4.944
 9158SOL    HW228374   0.080   3.286   4.921
 9159SOL     OW28375   2.336   1.259   4.045
 9159SOL    HW128376   2.321   1.331   3.978
 9159SOL    HW228377   2.292   1.283   4.132
 9160SOL     OW28378   1.068   3.171   6.953
 9160SOL    HW128379   0.970   3.153   6.942
 9160SOL    HW228380   1.112   3.176   6.863
 9161SOL     OW28381   5.543   2.895   3.105
 9161SOL    HW128382   5.553   2.800   3.133
 9161SOL    HW228383   5.568   2.956   3.181
 9162SOL     OW28384   3.966   2.272   1.852
 9162SOL    HW128385   3.866   2.277   1.855
 9162SOL    HW228386   4.000   2.327   1.776
 9163SOL     OW28387   1.859   2.905   4.112
 9163SOL    HW128388   1.829   2.823   4.062
 9163SOL    HW228389   1.853   2.887   4.210
 9164SOL     OW28390   2.697   6.215   0.072
 9164SOL    HW128391   2.767   6.241   0.140
 9164SOL    HW228392   2.608   6.211   0.116
 9165SOL     OW28393   5.943   0.888   6.209
 9165SOL    HW128394   5.964   0.977   6.250
 9165SOL    HW228395   5.929   0.820   6.281
 9166SOL     OW28396   4.013   6.531   1.926
 9166SOL    HW128397   3.931   6.586   1.912
 9166SOL    HW228398   4.085   6.561   1.864
 9167SOL     OW28399   1.468   1.722   4.259
 9167SOL    HW128400   1.368   1.720   4.271
 9167SOL    HW228401   1.503   1.812   4.285
 9168SOL     OW28402   6.394   5.768   4.988
 9168SOL    HW128403   6.305   5.762   4.941
 9168SOL    HW228404   6.379   5.781   5.086
 9169SOL     OW28405   6.416   6.092   7.004
 9169SOL    HW128406   6.438   6.121   0.078
 9169SOL    HW228407   6.472   6.143   6.939
 9170SOL     OW28408   2.050   0.636   5.745
 9170SOL    HW128409   2.120   0.668   5.809
 9170SOL    HW228410   1.962   0.677   5.768
 9171SOL     OW28411   3.778   5.544   0.077
 9171SOL    HW128412   3.756   5.450   0.104
 9171SOL    HW228413   3.733   5.608   0.140
 9172SOL     OW28414   4.596   1.599   5.581
 9172SOL    HW128415   4.691   1.626   5.565
 9172SOL    HW228416   4.566   1.539   5.507
 9173SOL     OW28417   6.232   3.684   5.253
 9173SOL    HW128418   6.137   3.655   5.246
 9173SOL    HW228419   6.246   3.736   5.337
 9174SOL     OW28420   5.863   4.821   0.752
 9174SOL    HW128421   5.860   4.723   0.732
 9174SOL    HW228422   5.783   4.865   0.713
 9175SOL     OW28423   2.313   1.110   1.362
 9175SOL    HW128424   2.380   1.166   1.410
 9175SOL    HW228425   2.286   1.156   1.277
 9176SOL     OW28426   1.655   1.188   2.648
 9176SOL    HW128427   1.738   1.147   2.611
 9176SOL    HW228428   1.638   1.275   2.602
 9177SOL     OW28429   1.033   5.675   3.369
 9177SOL    HW128430   0.940   5.641   3.356
 9177SOL    HW228431   1.044   5.705   3.464
 9178SOL     OW28432   1.352   3.822   1.429
 9178SOL    HW128433   1.276   3.886   1.439
 9178SOL    HW228434   1.434   3.859   1.473
 9179SOL     OW28435   4.153   4.733   3.329
 9179SOL    HW128436   4.159   4.780   3.417
 9179SOL    HW228437   4.236   4.680   3.314
 9180SOL     OW28438   0.616   0.641   5.257
 9180SOL    HW128439   0.634   0.556   5.208
 9180SOL    HW228440   0.616   0.717   5.192
 9181SOL     OW28441   2.518   1.766   3.563
 9181SOL    HW128442   2.612   1.731   3.570
 9181SOL    HW228443   2.475   1.763   3.653
 9182SOL     OW28444   6.715   1.507   3.048
 9182SOL    HW128445   6.703   1.599   3.013
 9182SOL    HW228446   6.804   1.499   3.093
 9183SOL     OW28447   2.164   1.243   5.909
 9183SOL    HW128448   2.081   1.226   5.855
 9183SOL    HW228449   2.187   1.340   5.903
 9184SOL     OW28450   2.816   4.560   1.360
 9184SOL    HW128451   2.770   4.646   1.337
 9184SOL    HW228452   2.850   4.565   1.454
 9185SOL     OW28453   1.303   0.823   5.677
 9185SOL    HW128454   1.381   0.762   5.684
 9185SOL    HW228455   1.225   0.773   5.640
 9186SOL     OW28456   5.857   6.395   6.320
 9186SOL    HW128457   5.941   6.445   6.300
 9186SOL    HW228458   5.830   6.342   6.239
 9187SOL     OW28459   5.208   2.617   1.116
 9187SOL    HW128460   5.123   2.620   1.168
 9187SOL    HW228461   5.254   2.706   1.122
 9188SOL     OW28462   1.316   0.644   1.978
 9188SOL    HW128463   1.252   0.645   2.055
 9188SOL    HW228464   1.265   0.648   1.892
 9189SOL     OW28465   3.188   0.361   5.956
 9189SOL    HW128466   3.201   0.455   5.925
 9189SOL    HW228467   3.192   0.358   6.056
 9190SOL     OW28468   3.939   0.844   5.689
 9190SOL    HW128469   3.890   0.931   5.687
 9190SOL    HW228470   3.982   0.832   5.779
 9191SOL     OW28471   5.288   6.520   1.597
 9191SOL    HW128472   5.232   6.600   1.576
 9191SOL    HW228473   5.236   6.457   1.655
 9192SOL     OW28474   4.906   3.996   4.735
 9192SOL    HW128475   4.911   3.925   4.804
 9192SOL    HW228476   4.875   4.082   4.777
 9193SOL     OW28477   4.149   3.454   2.940
 9193SOL    HW128478   4.127   3.394   3.017
 9193SOL    HW228479   4.214   3.524   2.969
 9194SOL     OW28480   3.720   4.917   2.748
 9194SOL    HW128481   3.707   4.999   2.692
 9194SOL    HW228482   3.693   4.836   2.696
 9195SOL     OW28483   0.862   2.882   3.613
 9195SOL    HW128484   0.881   2.841   3.702
 9195SOL    HW228485   0.885   2.980   3.616
 9196SOL     OW28486   5.221   5.728   3.427
 9196SOL    HW128487   5.306   5.705   3.475
 9196SOL    HW228488   5.243   5.750   3.332
 9197SOL     OW28489   4.486   1.515   0.224
 9197SOL    HW128490   4.567   1.457   0.216
 9197SOL    HW228491   4.452   1.511   0.318
 9198SOL     OW28492   5.767   2.499   5.369
 9198SOL    HW128493   5.693   2.458   5.421
 9198SOL    HW228494   5.737   2.513   5.274
 9199SOL     OW28495   0.979   3.743   6.618
 9199SOL    HW128496   0.953   3.740   6.521
 9199SOL    HW228497   0.930   3.672   6.668
 9200SOL     OW28498   5.271   6.087   1.501
 9200SOL    HW128499   5.231   6.000   1.472
 9200SOL    HW228500   5.198   6.150   1.529
 9201SOL     OW28501   6.997   2.969   2.173
 9201SOL    HW128502   6.974   2.965   2.076
 9201SOL    HW228503   6.924   2.926   2.227
 9202SOL     OW28504   2.293   6.189   4.452
 9202SOL    HW128505   2.195   6.170   4.465
 9202SOL    HW228506   2.346   6.111   4.484
 9203SOL     OW28507   5.440   1.654   0.708
 9203SOL    HW128508   5.359   1.710   0.692
 9203SOL    HW228509   5.460   1.651   0.806
 9204SOL     OW28510   5.228   4.633   2.739
 9204SOL    HW128511   5.186   4.683   2.814
 9204SOL    HW228512   5.218   4.686   2.654
 9205SOL     OW28513   4.224   2.381   1.286
 9205SOL    HW128514   4.286   2.322   1.234
 9205SOL    HW228515   4.258   2.475   1.284
 9206SOL     OW28516   6.625   5.887   5.191
 9206SOL    HW128517   6.643   5.803   5.139
 9206SOL    HW228518   6.709   5.941   5.197
 9207SOL     OW28519   4.626   6.390   0.327
 9207SOL    HW128520   4.571   6.441   0.261
 9207SOL    HW228521   4.612   6.427   0.418
 9208SOL     OW28522   4.702   4.486   1.454
 9208SOL    HW128523   4.785   4.432   1.466
 9208SOL    HW228524   4.622   4.427   1.465
 9209SOL     OW28525   4.365   0.342   3.778
 9209SOL    HW128526   4.289   0.348   3.713
 9209SOL    HW228527   4.330   0.334   3.871
 9210SOL     OW28528   0.916   6.944   6.796
 9210SOL    HW128529   0.948   6.879   6.865
 9210SOL    HW228530   0.991   6.967   6.734
 9211SOL     OW28531   4.719   1.233   6.715
 9211SOL    HW128532   4.735   1.166   6.642
 9211SOL    HW228533   4.769   1.317   6.695
 9212SOL     OW28534   6.121   3.298   5.862
 9212SOL    HW128535   6.124   3.199   5.849
 9212SOL    HW228536   6.032   3.324   5.899
 9213SOL     OW28537   6.507   5.819   1.859
 9213SOL    HW128538   6.457   5.905   1.847
 9213SOL    HW228539   6.448   5.754   1.907
 9214SOL     OW28540   1.915   1.697   6.583
 9214SOL    HW128541   2.013   1.711   6.567
 9214SOL    HW228542   1.897   1.694   6.681
 9215SOL     OW28543   0.178   3.949   3.762
 9215SOL    HW128544   0.224   3.863   3.743
 9215SOL    HW228545   0.089   3.950   3.715
 9216SOL     OW28546   2.284   6.898   3.834
 9216SOL    HW128547   2.381   6.902   3.814
 9216SOL    HW228548   2.244   6.816   3.792
 9217SOL     OW28549   3.562   2.302   6.852
 9217SOL    HW128550   3.657   2.323   6.830
 9217SOL    HW228551   3.538   2.212   6.817
 9218SOL     OW28552   4.905   5.776   5.746
 9218SOL    HW128553   4.826   5.715   5.752
 9218SOL    HW228554   4.929   5.811   5.836
 9219SOL     OW28555   3.199   2.046   5.678
 9219SOL    HW128556   3.189   2.118   5.610
 9219SOL    HW228557   3.180   1.957   5.636
 9220SOL     OW28558   0.710   6.488   3.327
 9220SOL    HW128559   0.748   6.494   3.235
 9220SOL    HW228560   0.781   6.456   3.390
 9221SOL     OW28561   2.755   1.778   1.338
 9221SOL    HW128562   2.817   1.727   1.398
 9221SOL    HW228563   2.807   1.816   1.262
 9222SOL     OW28564   2.035   5.618   3.308
 9222SOL    HW128565   1.984   5.700   3.282
 9222SOL    HW228566   2.072   5.575   3.226
 9223SOL     OW28567   6.317   2.945   4.593
 9223SOL    HW128568   6.249   2.889   4.641
 9223SOL    HW228569   6.401   2.891   4.580
 9224SOL     OW28570   1.581   5.096   2.414
 9224SOL    HW128571   1.482   5.087   2.420
 9224SOL    HW228572   1.615   5.150   2.492
 9225SOL     OW28573   0.984   5.503   6.080
 9225SOL    HW128574   0.939   5.545   6.001
 9225SOL    HW228575   1.073   5.466   6.051
 9226SOL     OW28576   0.588   0.595   4.699
 9226SOL    HW128577   0.526   0.605   4.777
 9226SOL    HW228578   0.622   0.501   4.695
 9227SOL     OW28579   3.677   3.570   0.164
 9227SOL    HW128580   3.759   3.555   0.109
 9227SOL    HW228581   3.602   3.515   0.127
 9228SOL     OW28582   3.533   3.528   5.321
 9228SOL    HW128583   3.440   3.563   5.324
 9228SOL    HW228584   3.589   3.576   5.389
 9229SOL     OW28585   0.291   4.758   0.376
 9229SOL    HW128586   0.325   4.698   0.303
 9229SOL    HW228587   0.207   4.719   0.414
 9230SOL     OW28588   4.066   6.897   5.498
 9230SOL    HW128589   4.022   6.832   5.436
 9230SOL    HW228590   4.019   6.897   5.586
 9231SOL     OW28591   6.247   6.302   1.598
 9231SOL    HW128592   6.165   6.247   1.616
 9231SOL    HW228593   6.220   6.393   1.567
 9232SOL     OW28594   0.984   5.671   2.229
 9232SOL    HW128595   0.984   5.591   2.169
 9232SOL    HW228596   1.078   5.698   2.249
 9233SOL     OW28597   1.071   0.147   5.418
 9233SOL    HW128598   1.039   0.235   5.453
 9233SOL    HW228599   1.152   0.118   5.469
 9234SOL     OW28600   3.794   4.470   6.134
 9234SOL    HW128601   3.726   4.412   6.178
 9234SOL    HW228602   3.765   4.491   6.040
 9235SOL     OW28603   2.337   2.718   3.038
 9235SOL    HW128604   2.338   2.739   3.136
 9235SOL    HW228605   2.254   2.667   3.015
 9236SOL     OW28606   1.774   3.398   6.136
 9236SOL    HW128607   1.844   3.446   6.084
 9236SOL    HW228608   1.684   3.415   6.095
 9237SOL     OW28609   6.522   5.039   3.518
 9237SOL    HW128610   6.565   5.128   3.533
 9237SOL    HW228611   6.423   5.047   3.527
 9238SOL     OW28612   1.295   2.786   5.268
 9238SOL    HW128613   1.232   2.763   5.194
 9238SOL    HW228614   1.385   2.747   5.249
 9239SOL     OW28615   1.654   6.124   5.738
 9239SOL    HW128616   1.733   6.122   5.676
 9239SOL    HW228617   1.573   6.152   5.688
 9240SOL     OW28618   3.545   1.341   4.490
 9240SOL    HW128619   3.494   1.308   4.569
 9240SOL    HW228620   3.528   1.439   4.478
 9241SOL     OW28621   5.413   6.435   0.133
 9241SOL    HW128622   5.481   6.446   0.205
 9241SOL    HW228623   5.346   6.366   0.160
 9242SOL     OW28624   2.594   2.822   0.324
 9242SOL    HW128625   2.597   2.917   0.294
 9242SOL    HW228626   2.657   2.767   0.269
 9243SOL     OW28627   2.030   0.419   0.212
 9243SOL    HW128628   2.015   0.466   0.299
 9243SOL    HW228629   1.981   0.332   0.212
 9244SOL     OW28630   2.577   6.272   6.713
 9244SOL    HW128631   2.593   6.231   6.803
 9244SOL    HW228632   2.633   6.226   6.645
 9245SOL     OW28633   0.562   4.895   2.931
 9245SOL    HW128634   0.463   4.887   2.928
 9245SOL    HW228635   0.600   4.877   2.840
 9246SOL     OW28636   4.699   6.730   0.018
 9246SOL    HW128637   4.779   6.744   6.980
 9246SOL    HW228638   4.727   6.720   0.113
 9247SOL     OW28639   3.356   6.643   2.644
 9247SOL    HW128640   3.274   6.604   2.602
 9247SOL    HW228641   3.332   6.691   2.728
 9248SOL     OW28642   2.442   0.465   6.931
 9248SOL    HW128643   2.371   0.453   7.001
 9248SOL    HW228644   2.532   0.458   6.974
 9249SOL     OW28645   3.339   0.368   0.486
 9249SOL    HW128646   3.245   0.373   0.521
 9249SOL    HW228647   3.372   0.461   0.467
 9250SOL     OW28648   0.424   3.892   2.908
 9250SOL    HW128649   0.493   3.842   2.856
 9250SOL    HW228650   0.380   3.831   2.974
 9251SOL     OW28651   4.037   1.768   1.325
 9251SOL    HW128652   3.942   1.761   1.295
 9251SOL    HW228653   4.065   1.681   1.367
 9252SOL     OW28654   5.682   1.257   4.551
 9252SOL    HW128655   5.640   1.205   4.476
 9252SOL    HW228656   5.747   1.199   4.600
 9253SOL     OW28657   2.499   5.236   3.962
 9253SOL    HW128658   2.576   5.238   4.027
 9253SOL    HW228659   2.502   5.151   3.910
 9254SOL     OW28660   0.071   5.757   2.351
 9254SOL    HW128661   7.003   5.749   2.304
 9254SOL    HW228662   0.113   5.845   2.329
 9255SOL     OW28663   6.479   3.428   0.827
 9255SOL    HW128664   6.566   3.462   0.793
 9255SOL    HW228665   6.470   3.331   0.804
 9256SOL     OW28666   2.457   6.492   0.544
 9256SOL    HW128667   2.511   6.414   0.577
 9256SOL    HW228668   2.517   6.565   0.514
 9257SOL     OW28669   6.611   5.865   4.866
 9257SOL    HW128670   6.603   5.822   4.776
 9257SOL    HW228671   6.530   5.844   4.921
 9258SOL     OW28672   5.212   4.794   2.224
 9258SOL    HW128673   5.219   4.877   2.169
 9258SOL    HW228674   5.189   4.717   2.164
 9259SOL     OW28675   0.957   2.498   0.052
 9259SOL    HW128676   0.894   2.567   0.089
 9259SOL    HW228677   0.913   2.450   6.996
 9260SOL     OW28678   5.219   4.090   4.716
 9260SOL    HW128679   5.264   4.001   4.719
 9260SOL    HW228680   5.123   4.078   4.688
 9261SOL     OW28681   1.598   3.708   2.017
 9261SOL    HW128682   1.682   3.738   1.972
 9261SOL    HW228683   1.620   3.676   2.109
 9262SOL     OW28684   0.221   6.825   6.109
 9262SOL    HW128685   0.263   6.862   6.026
 9262SOL    HW228686   0.227   6.725   6.107
 9263SOL     OW28687   2.510   4.674   2.785
 9263SOL    HW128688   2.574   4.666   2.709
 9263SOL    HW228689   2.436   4.608   2.773
 9264SOL     OW28690   5.105   3.172   5.693
 9264SOL    HW128691   5.109   3.121   5.779
 9264SOL    HW228692   5.114   3.270   5.711
 9265SOL     OW28693   5.113   0.353   2.070
 9265SOL    HW128694   5.049   0.340   2.145
 9265SOL    HW228695   5.115   0.271   2.013
 9266SOL     OW28696   0.893   5.006   0.908
 9266SOL    HW128697   0.893   5.068   0.987
 9266SOL    HW228698   0.889   4.912   0.940
 9267SOL     OW28699   6.705   1.544   3.772
 9267SOL    HW128700   6.773   1.513   3.839
 9267SOL    HW228701   6.668   1.632   3.801
 9268SOL     OW28702   0.620   1.443   1.588
 9268SOL    HW128703   0.588   1.463   1.681
 9268SOL    HW228704   0.708   1.486   1.573
 9269SOL     OW28705   4.041   0.413   1.146
 9269SOL    HW128706   3.998   0.452   1.228
 9269SOL    HW228707   4.049   0.314   1.157
 9270SOL     OW28708   2.516   0.767   5.223
 9270SOL    HW128709   2.520   0.854   5.271
 9270SOL    HW228710   2.567   0.698   5.275
 9271SOL     OW28711   1.684   4.190   5.629
 9271SOL    HW128712   1.770   4.200   5.578
 9271SOL    HW228713   1.636   4.108   5.599
 9272SOL     OW28714   6.880   6.725   5.291
 9272SOL    HW128715   6.788   6.686   5.296
 9272SOL    HW228716   6.937   6.682   5.361
 9273SOL     OW28717   5.887   3.679   4.264
 9273SOL    HW128718   5.944   3.604   4.298
 9273SOL    HW228719   5.861   3.739   4.339
 9274SOL     OW28720   0.176   3.433   0.089
 9274SOL    HW128721   0.076   3.440   0.088
 9274SOL    HW228722   0.215   3.508   0.036
 9275SOL     OW28723   5.520   1.716   0.445
 9275SOL    HW128724   5.515   1.701   0.544
 9275SOL    HW228725   5.509   1.628   0.398
 9276SOL     OW28726   2.167   3.765   7.012
 9276SOL    HW128727   2.198   3.859   6.994
 9276SOL    HW228728   2.132   3.725   6.927
 9277SOL     OW28729   4.101   5.739   2.311
 9277SOL    HW128730   4.052   5.722   2.225
 9277SOL    HW228731   4.078   5.830   2.345
 9278SOL     OW28732   0.826   0.136   5.651
 9278SOL    HW128733   0.820   0.039   5.625
 9278SOL    HW228734   0.776   0.191   5.584
 9279SOL     OW28735   3.128   6.026   1.722
 9279SOL    HW128736   3.221   6.046   1.751
 9279SOL    HW228737   3.130   5.977   1.635
 9280SOL     OW28738   0.947   5.203   1.946
 9280SOL    HW128739   1.021   5.136   1.951
 9280SOL    HW228740   0.860   5.158   1.970
 9281SOL     OW28741   1.286   5.520   0.901
 9281SOL    HW128742   1.211   5.544   0.962
 9281SOL    HW228743   1.346   5.454   0.945
 9282SOL     OW28744   2.360   0.345   4.626
 9282SOL    HW128745   2.337   0.442   4.612
 9282SOL    HW228746   2.313   0.289   4.558
 9283SOL     OW28747   4.566   5.784   6.913
 9283SOL    HW128748   4.626   5.744   6.983
 9283SOL    HW228749   4.556   5.882   6.930
 9284SOL     OW28750   4.239   6.575   0.945
 9284SOL    HW128751   4.245   6.661   0.894
 9284SOL    HW228752   4.151   6.570   0.992
 9285SOL     OW28753   6.925   5.987   3.657
 9285SOL    HW128754   6.922   5.942   3.568
 9285SOL    HW228755   6.875   5.931   3.724
 9286SOL     OW28756   4.861   6.867   1.864
 9286SOL    HW128757   4.882   6.808   1.786
 9286SOL    HW228758   4.885   6.962   1.841
 9287SOL     OW28759   4.517   4.372   0.329
 9287SOL    HW128760   4.434   4.426   0.343
 9287SOL    HW228761   4.492   4.282   0.294
 9288SOL     OW28762   3.873   1.831   2.621
 9288SOL    HW128763   3.825   1.825   2.533
 9288SOL    HW228764   3.909   1.740   2.645
 9289SOL     OW28765   4.576   5.686   2.073
 9289SOL    HW128766   4.653   5.740   2.107
 9289SOL    HW228767   4.518   5.659   2.149
 9290SOL     OW28768   5.220   1.112   3.382
 9290SOL    HW128769   5.272   1.186   3.341
 9290SOL    HW228770   5.236   1.028   3.330
 9291SOL     OW28771   0.543   4.020   5.353
 9291SOL    HW128772   0.495   3.939   5.388
 9291SOL    HW228773   0.538   4.021   5.253
 9292SOL     OW28774   0.894   1.627   6.852
 9292SOL    HW128775   0.956   1.596   6.923
 9292SOL    HW228776   0.909   1.574   6.768
 9293SOL     OW28777   5.016   1.167   5.826
 9293SOL    HW128778   4.945   1.225   5.785
 9293SOL    HW228779   4.974   1.105   5.892
 9294SOL     OW28780   5.341   6.247   6.006
 9294SOL    HW128781   5.330   6.153   5.973
 9294SOL    HW228782   5.320   6.252   6.103
 9295SOL     OW28783   6.423   0.490   3.236
 9295SOL    HW128784   6.359   0.449   3.301
 9295SOL    HW228785   6.444   0.425   3.164
 9296SOL     OW28786   1.549   4.097   5.832
 9296SOL    HW128787   1.589   4.007   5.817
 9296SOL    HW228788   1.595   4.164   5.773
 9297SOL     OW28789   6.701   4.928   2.328
 9297SOL    HW128790   6.642   4.853   2.297
 9297SOL    HW228791   6.704   4.929   2.428
 9298SOL     OW28792   0.359   4.094   6.172
 9298SOL    HW128793   0.394   4.157   6.102
 9298SOL    HW228794   0.262   4.111   6.186
 9299SOL     OW28795   3.052   1.818   3.912
 9299SOL    HW128796   2.992   1.810   3.991
 9299SOL    HW228797   3.143   1.848   3.942
 9300SOL     OW28798   2.601   5.695   5.533
 9300SOL    HW128799   2.567   5.601   5.534
 9300SOL    HW228800   2.676   5.703   5.468
 9301SOL     OW28801   1.208   4.121   4.413
 9301SOL    HW128802   1.111   4.099   4.400
 9301SOL    HW228803   1.222   4.153   4.507
 9302SOL     OW28804   3.191   5.547   4.125
 9302SOL    HW128805   3.254   5.490   4.073
 9302SOL    HW228806   3.185   5.513   4.219
 9303SOL     OW28807   2.607   4.515   0.086
 9303SOL    HW128808   2.624   4.418   0.102
 9303SOL    HW228809   2.680   4.554   0.030
 9304SOL     OW28810   5.412   5.705   6.550
 9304SOL    HW128811   5.348   5.637   6.585
 9304SOL    HW228812   5.489   5.714   6.613
 9305SOL     OW28813   1.739   1.698   1.088
 9305SOL    HW128814   1.688   1.784   1.099
 9305SOL    HW228815   1.725   1.663   0.996
 9306SOL     OW28816   6.968   6.346   4.438
 9306SOL    HW128817   6.996   6.275   4.502
 9306SOL    HW228818   6.876   6.377   4.460
 9307SOL     OW28819   2.226   3.854   1.361
 9307SOL    HW128820   2.313   3.805   1.357
 9307SOL    HW228821   2.243   3.952   1.369
 9308SOL     OW28822   2.470   3.464   1.355
 9308SOL    HW128823   2.480   3.563   1.339
 9308SOL    HW228824   2.515   3.439   1.441
 9309SOL     OW28825   4.755   4.900   6.016
 9309SOL    HW128826   4.762   4.992   6.053
 9309SOL    HW228827   4.775   4.901   5.918
 9310SOL     OW28828   6.252   6.161   5.498
 9310SOL    HW128829   6.255   6.061   5.487
 9310SOL    HW228830   6.276   6.184   5.593
 9311SOL     OW28831   5.687   4.176   0.913
 9311SOL    HW128832   5.726   4.132   0.994
 9311SOL    HW228833   5.658   4.105   0.848
 9312SOL     OW28834   5.976   3.045   4.629
 9312SOL    HW128835   6.027   3.101   4.564
 9312SOL    HW228836   6.036   2.977   4.670
 9313SOL     OW28837   0.585   0.744   2.336
 9313SOL    HW128838   0.652   0.743   2.410
 9313SOL    HW228839   0.622   0.796   2.259
 9314SOL     OW28840   5.222   5.389   1.132
 9314SOL    HW128841   5.134   5.358   1.168
 9314SOL    HW228842   5.267   5.313   1.085
 9315SOL     OW28843   6.158   5.301   5.730
 9315SOL    HW128844   6.074   5.357   5.728
 9315SOL    HW228845   6.189   5.285   5.637
 9316SOL     OW28846   5.436   6.905   0.991
 9316SOL    HW128847   5.347   6.880   1.030
 9316SOL    HW228848   5.430   6.902   0.891
 9317SOL     OW28849   2.358   6.078   3.403
 9317SOL    HW128850   2.315   5.988   3.405
 9317SOL    HW228851   2.406   6.091   3.317
 9318SOL     OW28852   3.316   6.684   3.305
 9318SOL    HW128853   3.309   6.708   3.402
 9318SOL    HW228854   3.333   6.767   3.252
 9319SOL     OW28855   3.811   1.891   0.122
 9319SOL    HW128856   3.855   1.847   0.200
 9319SOL    HW228857   3.826   1.989   0.126
 9320SOL     OW28858   6.796   6.728   6.703
 9320SOL    HW128859   6.765   6.752   6.611
 9320SOL    HW228860   6.895   6.742   6.710
 9321SOL     OW28861   0.584   2.991   3.680
 9321SOL    HW128862   0.673   2.951   3.659
 9321SOL    HW228863   0.525   2.987   3.600
 9322SOL     OW28864   4.616   2.716   0.235
 9322SOL    HW128865   4.669   2.736   0.152
 9322SOL    HW228866   4.592   2.802   0.281
 9323SOL     OW28867   0.633   2.323   5.312
 9323SOL    HW128868   0.706   2.258   5.330
 9323SOL    HW228869   0.649   2.369   5.225
 9324SOL     OW28870   0.637   4.786   1.255
 9324SOL    HW128871   0.651   4.869   1.308
 9324SOL    HW228872   0.558   4.796   1.195
 9325SOL     OW28873   0.747   5.153   3.308
 9325SOL    HW128874   0.819   5.220   3.328
 9325SOL    HW228875   0.727   5.154   3.210
 9326SOL     OW28876   5.073   4.567   1.058
 9326SOL    HW128877   4.982   4.600   1.033
 9326SOL    HW228878   5.088   4.580   1.156
 9327SOL     OW28879   2.421   1.609   3.020
 9327SOL    HW128880   2.366   1.567   3.092
 9327SOL    HW228881   2.453   1.538   2.957
 9328SOL     OW28882   1.614   0.180   3.027
 9328SOL    HW128883   1.533   0.140   3.070
 9328SOL    HW228884   1.686   0.111   3.020
 9329SOL     OW28885   1.500   5.318   6.396
 9329SOL    HW128886   1.505   5.337   6.494
 9329SOL    HW228887   1.505   5.404   6.345
 9330SOL     OW28888   0.542   6.698   0.989
 9330SOL    HW128889   0.550   6.616   0.931
 9330SOL    HW228890   0.564   6.779   0.936
 9331SOL     OW28891   2.072   4.627   4.500
 9331SOL    HW128892   2.157   4.677   4.481
 9331SOL    HW228893   1.996   4.672   4.452
 9332SOL     OW28894   6.896   5.125   0.426
 9332SOL    HW128895   6.872   5.221   0.407
 9332SOL    HW228896   6.887   5.071   0.343
 9333SOL     OW28897   2.447   4.949   1.246
 9333SOL    HW128898   2.430   4.994   1.158
 9333SOL    HW228899   2.397   4.862   1.249
 9334SOL     OW28900   0.209   5.410   6.735
 9334SOL    HW128901   0.167   5.337   6.789
 9334SOL    HW228902   0.162   5.420   6.648
 9335SOL     OW28903   0.388   3.523   1.099
 9335SOL    HW128904   0.455   3.462   1.058
 9335SOL    HW228905   0.435   3.593   1.154
 9336SOL     OW28906   4.437   5.747   5.404
 9336SOL    HW128907   4.529   5.734   5.440
 9336SOL    HW228908   4.413   5.844   5.406
 9337SOL     OW28909   2.788   1.799   5.293
 9337SOL    HW128910   2.695   1.792   5.255
 9337SOL    HW228911   2.806   1.894   5.317
 9338SOL     OW28912   4.952   6.523   0.947
 9338SOL    HW128913   4.948   6.429   0.982
 9338SOL    HW228914   4.870   6.572   0.975
 9339SOL     OW28915   6.861   3.371   5.267
 9339SOL    HW128916   6.840   3.365   5.365
 9339SOL    HW228917   6.780   3.345   5.215
 9340SOL     OW28918   2.659   4.827   2.412
 9340SOL    HW128919   2.621   4.903   2.465
 9340SOL    HW228920   2.756   4.843   2.395
 9341SOL     OW28921   5.749   5.404   0.329
 9341SOL    HW128922   5.827   5.467   0.331
 9341SOL    HW228923   5.758   5.342   0.251
 9342SOL     OW28924   3.117   0.361   5.315
 9342SOL    HW128925   3.181   0.428   5.277
 9342SOL    HW228926   3.148   0.269   5.292
 9343SOL     OW28927   5.128   3.558   1.423
 9343SOL    HW128928   5.113   3.640   1.478
 9343SOL    HW228929   5.086   3.479   1.469
 9344SOL     OW28930   5.757   7.001   4.860
 9344SOL    HW128931   5.666   6.975   4.826
 9344SOL    HW228932   5.766   0.080   4.859
 9345SOL     OW28933   7.012   4.873   6.598
 9345SOL    HW128934   0.074   4.872   6.656
 9345SOL    HW228935   6.984   4.780   6.578
 9346SOL     OW28936   5.368   0.295   2.151
 9346SOL    HW128937   5.400   0.375   2.202
 9346SOL    HW228938   5.268   0.295   2.147
 9347SOL     OW28939   4.898   6.411   1.919
 9347SOL    HW128940   4.824   6.353   1.882
 9347SOL    HW228941   4.890   6.414   2.019
 9348SOL     OW28942   2.506   4.888   1.897
 9348SOL    HW128943   2.557   4.881   1.811
 9348SOL    HW228944   2.562   4.937   1.964
 9349SOL     OW28945   6.244   5.866   0.801
 9349SOL    HW128946   6.182   5.828   0.732
 9349SOL    HW228947   6.247   5.965   0.792
 9350SOL     OW28948   6.319   0.209   0.258
 9350SOL    HW128949   6.243   0.160   0.301
 9350SOL    HW228950   6.397   0.209   0.320
 9351SOL     OW28951   4.545   3.829   6.419
 9351SOL    HW128952   4.589   3.857   6.334
 9351SOL    HW228953   4.571   3.736   6.443
 9352SOL     OW28954   2.241   1.862   6.913
 9352SOL    HW128955   2.239   1.929   6.987
 9352SOL    HW228956   2.222   1.908   6.826
 9353SOL     OW28957   1.195   3.162   1.785
 9353SOL    HW128958   1.099   3.188   1.779
 9353SOL    HW228959   1.229   3.181   1.877
 9354SOL     OW28960   5.526   1.872   2.504
 9354SOL    HW128961   5.580   1.845   2.583
 9354SOL    HW228962   5.434   1.900   2.534
 9355SOL     OW28963   0.303   2.009   2.382
 9355SOL    HW128964   0.327   1.913   2.398
 9355SOL    HW228965   0.275   2.021   2.287
 9356SOL     OW28966   5.096   2.765   2.609
 9356SOL    HW128967   5.043   2.823   2.671
 9356SOL    HW228968   5.114   2.816   2.525
 9357SOL     OW28969   2.370   4.579   0.329
 9357SOL    HW128970   2.431   4.637   0.276
 9357SOL    HW228971   2.371   4.486   0.291
 9358SOL     OW28972   5.141   3.652   2.436
 9358SOL    HW128973   5.070   3.718   2.412
 9358SOL    HW228974   5.224   3.672   2.384
 9359SOL     OW28975   4.833   5.470   6.173
 9359SOL    HW128976   4.827   5.535   6.249
 9359SOL    HW228977   4.925   5.471   6.136
 9360SOL     OW28978   1.489   0.571   4.846
 9360SOL    HW128979   1.477   0.667   4.820
 9360SOL    HW228980   1.405   0.521   4.828
 9361SOL     OW28981   2.207   1.213   2.510
 9361SOL    HW128982   2.198   1.309   2.535
 9361SOL    HW228983   2.217   1.205   2.411
 9362SOL     OW28984   2.352   1.819   2.855
 9362SOL    HW128985   2.375   1.756   2.929
 9362SOL    HW228986   2.393   1.787   2.770
 9363SOL     OW28987   1.440   6.450   2.165
 9363SOL    HW128988   1.485   6.529   2.207
 9363SOL    HW228989   1.410   6.386   2.235
 9364SOL     OW28990   5.581   4.447   1.061
 9364SOL    HW128991   5.489   4.409   1.047
 9364SOL    HW228992   5.643   4.409   0.993
 9365SOL     OW28993   2.116   1.023   4.124
 9365SOL    HW128994   2.134   1.094   4.192
 9365SOL    HW228995   2.126   1.062   4.032
 9366SOL     OW28996   3.057   1.736   2.204
 9366SOL    HW128997   3.078   1.675   2.280
 9366SOL    HW228998   3.068   1.687   2.118
 9367SOL     OW28999   6.314   6.479   4.131
 9367SOL    HW129000   6.254   6.441   4.060
 9367SOL    HW229001   6.264   6.548   4.184
 9368SOL     OW29002   4.818   2.963   0.745
 9368SOL    HW129003   4.847   2.981   0.651
 9368SOL    HW229004   4.843   3.041   0.803
 9369SOL     OW29005   0.493   1.990   5.221
 9369SOL    HW129006   0.573   1.949   5.178
 9369SOL    HW229007   0.521   2.074   5.268
 9370SOL     OW29008   5.732   5.600   3.073
 9370SOL    HW129009   5.757   5.527   3.010
 9370SOL    HW229010   5.734   5.565   3.167
 9371SOL     OW29011   0.824   6.952   0.443
 9371SOL    HW129012   0.905   6.951   0.501
 9371SOL    HW229013   0.770   0.014   0.462
 9372SOL     OW29014   5.786   6.412   0.443
 9372SOL    HW129015   5.786   6.491   0.383
 9372SOL    HW229016   5.706   6.414   0.502
 9373SOL     OW29017   5.674   2.328   4.393
 9373SOL    HW129018   5.755   2.334   4.334
 9373SOL    HW229019   5.615   2.408   4.376
 9374SOL     OW29020   4.849   4.077   0.450
 9374SOL    HW129021   4.836   4.172   0.419
 9374SOL    HW229022   4.939   4.044   0.420
 9375SOL     OW29023   6.556   1.151   4.562
 9375SOL    HW129024   6.557   1.222   4.492
 9375SOL    HW229025   6.618   1.176   4.636
 9376SOL     OW29026   2.253   2.781   1.590
 9376SOL    HW129027   2.170   2.728   1.608
 9376SOL    HW229028   2.252   2.814   1.496
 9377SOL     OW29029   5.965   4.766   2.737
 9377SOL    HW129030   5.922   4.778   2.826
 9377SOL    HW229031   6.035   4.695   2.743
 9378SOL     OW29032   3.371   6.399   1.075
 9378SOL    HW129033   3.325   6.380   0.989
 9378SOL    HW229034   3.467   6.421   1.058
 9379SOL     OW29035   5.533   4.809   5.292
 9379SOL    HW129036   5.472   4.747   5.342
 9379SOL    HW229037   5.483   4.893   5.268
 9380SOL     OW29038   6.381   5.722   5.892
 9380SOL    HW129039   6.431   5.809   5.898
 9380SOL    HW229040   6.418   5.658   5.959
 9381SOL     OW29041   1.110   0.456   0.243
 9381SOL    HW129042   1.120   0.546   0.285
 9381SOL    HW229043   1.047   0.463   0.165
 9382SOL     OW29044   5.288   2.145   2.750
 9382SOL    HW129045   5.273   2.091   2.667
 9382SOL    HW229046   5.386   2.146   2.771
 9383SOL     OW29047   6.593   5.535   5.984
 9383SOL    HW129048   6.538   5.466   5.938
 9383SOL    HW229049   6.686   5.533   5.949
 9384SOL     OW29050   3.990   6.467   2.964
 9384SOL    HW129051   3.967   6.451   2.868
 9384SOL    HW229052   4.054   6.543   2.971
 9385SOL     OW29053   4.027   1.103   4.202
 9385SOL    HW129054   3.991   1.011   4.212
 9385SOL    HW229055   4.000   1.140   4.113
 9386SOL     OW29056   4.226   0.236   5.488
 9386SOL    HW129057   4.146   0.250   5.429
 9386SOL    HW229058   4.198   0.192   5.573
 9387SOL     OW29059   3.891   5.972   0.902
 9387SOL    HW129060   3.852   5.921   0.826
 9387SOL    HW229061   3.962   5.917   0.946
 9388SOL     OW29062   6.281   6.580   2.411
 9388SOL    HW129063   6.374   6.612   2.394
 9388SOL    HW229064   6.219   6.658   2.411
 9389SOL     OW29065   3.481   1.793   7.015
 9389SOL    HW129066   3.556   1.733   6.988
 9389SOL    HW229067   3.469   1.864   6.946
 9390SOL     OW29068   3.061   5.667   1.246
 9390SOL    HW129069   3.114   5.591   1.209
 9390SOL    HW229070   2.978   5.679   1.191
 9391SOL     OW29071   6.666   1.307   5.197
 9391SOL    HW129072   6.710   1.268   5.278
 9391SOL    HW229073   6.728   1.299   5.119
 9392SOL     OW29074   1.142   6.899   4.411
 9392SOL    HW129075   1.047   6.920   4.435
 9392SOL    HW229076   1.200   6.978   4.433
 9393SOL     OW29077   3.944   1.813   5.195
 9393SOL    HW129078   3.920   1.886   5.131
 9393SOL    HW229079   3.860   1.772   5.231
 9394SOL     OW29080   5.926   2.360   1.837
 9394SOL    HW129081   5.918   2.459   1.839
 9394SOL    HW229082   5.838   2.320   1.809
 9395SOL     OW29083   2.164   2.849   5.950
 9395SOL    HW129084   2.070   2.825   5.971
 9395SOL    HW229085   2.197   2.918   6.015
 9396SOL     OW29086   0.092   0.988   5.962
 9396SOL    HW129087   0.113   1.056   6.032
 9396SOL    HW229088   0.174   0.934   5.942
 9397SOL     OW29089   2.676   2.064   0.883
 9397SOL    HW129090   2.690   2.163   0.886
 9397SOL    HW229091   2.579   2.045   0.869
 9398SOL     OW29092   2.375   1.611   0.828
 9398SOL    HW129093   2.332   1.698   0.852
 9398SOL    HW229094   2.331   1.572   0.747
 9399SOL     OW29095   6.744   0.410   5.762
 9399SOL    HW129096   6.802   0.489   5.743
 9399SOL    HW229097   6.784   0.328   5.723
 9400SOL     OW29098   3.984   1.831   3.600
 9400SOL    HW129099   4.061   1.818   3.538
 9400SOL    HW229100   3.899   1.812   3.551
 9401SOL     OW29101   4.437   6.499   3.888
 9401SOL    HW129102   4.399   6.433   3.952
 9401SOL    HW229103   4.529   6.526   3.918
 9402SOL     OW29104   2.329   5.225   0.301
 9402SOL    HW129105   2.404   5.160   0.286
 9402SOL    HW229106   2.361   5.303   0.354
 9403SOL     OW29107   5.549   0.385   4.712
 9403SOL    HW129108   5.492   0.307   4.684
 9403SOL    HW229109   5.632   0.351   4.756
 9404SOL     OW29110   1.340   3.710   5.701
 9404SOL    HW129111   1.307   3.788   5.755
 9404SOL    HW229112   1.282   3.699   5.620
 9405SOL     OW29113   0.143   0.278   0.814
 9405SOL    HW129114   0.227   0.331   0.826
 9405SOL    HW229115   0.097   0.268   0.902
 9406SOL     OW29116   6.803   1.145   5.371
 9406SOL    HW129117   6.854   1.106   5.448
 9406SOL    HW229118   6.852   1.126   5.286
 9407SOL     OW29119   4.155   5.703   3.366
 9407SOL    HW129120   4.090   5.632   3.393
 9407SOL    HW229121   4.149   5.718   3.268
 9408SOL     OW29122   4.330   1.811   0.317
 9408SOL    HW129123   4.351   1.859   0.232
 9408SOL    HW229124   4.267   1.736   0.297
 9409SOL     OW29125   5.900   3.602   3.699
 9409SOL    HW129126   5.861   3.686   3.736
 9409SOL    HW229127   5.945   3.551   3.772
 9410SOL     OW29128   4.340   6.580   2.161
 9410SOL    HW129129   4.257   6.624   2.196
 9410SOL    HW229130   4.329   6.560   2.064
 9411SOL     OW29131   4.501   5.646   1.502
 9411SOL    HW129132   4.537   5.567   1.553
 9411SOL    HW229133   4.545   5.729   1.534
 9412SOL     OW29134   5.765   2.960   2.911
 9412SOL    HW129135   5.830   2.908   2.965
 9412SOL    HW229136   5.684   2.981   2.967
 9413SOL     OW29137   3.416   5.215   4.061
 9413SOL    HW129138   3.415   5.274   3.980
 9413SOL    HW229139   3.344   5.146   4.052
 9414SOL     OW29140   2.322   0.931   2.415
 9414SOL    HW129141   2.385   0.854   2.421
 9414SOL    HW229142   2.342   0.985   2.334
 9415SOL     OW29143   2.213   1.185   2.211
 9415SOL    HW129144   2.292   1.155   2.157
 9415SOL    HW229145   2.142   1.220   2.149
 9416SOL     OW29146   1.593   2.417   1.356
 9416SOL    HW129147   1.516   2.455   1.304
 9416SOL    HW229148   1.567   2.408   1.452
 9417SOL     OW29149   1.848   0.051   4.571
 9417SOL    HW129150   1.845   0.086   4.477
 9417SOL    HW229151   1.901   0.114   4.628
 9418SOL     OW29152   4.457   4.363   1.432
 9418SOL    HW129153   4.414   4.304   1.363
 9418SOL    HW229154   4.435   4.329   1.523
 9419SOL     OW29155   3.240   5.363   4.609
 9419SOL    HW129156   3.146   5.381   4.638
 9419SOL    HW229157   3.301   5.364   4.689
 9420SOL     OW29158   1.492   1.557   4.486
 9420SOL    HW129159   1.395   1.533   4.489
 9420SOL    HW229160   1.515   1.593   4.396
 9421SOL     OW29161   1.818   5.600   4.051
 9421SOL    HW129162   1.858   5.510   4.037
 9421SOL    HW229163   1.888   5.670   4.041
 9422SOL     OW29164   4.206   1.326   2.731
 9422SOL    HW129165   4.232   1.417   2.763
 9422SOL    HW229166   4.249   1.256   2.787
 9423SOL     OW29167   4.763   0.000   4.469
 9423SOL    HW129168   4.815   0.077   4.430
 9423SOL    HW229169   4.747   0.017   4.566
 9424SOL     OW29170   3.096   6.339   4.046
 9424SOL    HW129171   3.099   6.387   4.134
 9424SOL    HW229172   3.172   6.370   3.989
 9425SOL     OW29173   1.012   5.236   3.362
 9425SOL    HW129174   1.093   5.289   3.337
 9425SOL    HW229175   1.036   5.139   3.366
 9426SOL     OW29176   3.222   5.698   0.961
 9426SOL    HW129177   3.247   5.767   1.028
 9426SOL    HW229178   3.135   5.721   0.920
 9427SOL     OW29179   2.853   4.942   4.519
 9427SOL    HW129180   2.788   4.868   4.542
 9427SOL    HW229181   2.940   4.924   4.564
 9428SOL     OW29182   5.092   6.160   2.273
 9428SOL    HW129183   5.103   6.259   2.284
 9428SOL    HW229184   5.005   6.140   2.228
 9429SOL     OW29185   0.301   3.261   2.856
 9429SOL    HW129186   0.263   3.232   2.768
 9429SOL    HW229187   0.400   3.274   2.848
 9430SOL     OW29188   5.678   6.976   2.199
 9430SOL    HW129189   5.598   0.014   2.215
 9430SOL    HW229190   5.717   6.996   2.109
 9431SOL     OW29191   6.481   4.043   0.747
 9431SOL    HW129192   6.464   4.087   0.659
 9431SOL    HW229193   6.394   4.025   0.793
 9432SOL     OW29194   6.464   6.558   4.546
 9432SOL    HW129195   6.383   6.510   4.513
 9432SOL    HW229196   6.443   6.604   4.632
 9433SOL     OW29197   3.098   4.950   4.625
 9433SOL    HW129198   3.097   5.048   4.606
 9433SOL    HW229199   3.184   4.911   4.593
 9434SOL     OW29200   5.560   4.318   3.107
 9434SOL    HW129201   5.543   4.220   3.104
 9434SOL    HW229202   5.643   4.339   3.055
 9435SOL     OW29203   1.779   2.424   5.042
 9435SOL    HW129204   1.730   2.341   5.069
 9435SOL    HW229205   1.868   2.425   5.087
 9436SOL     OW29206   2.877   2.000   5.851
 9436SOL    HW129207   2.870   1.967   5.945
 9436SOL    HW229208   2.924   2.088   5.850
 9437SOL     OW29209   0.638   5.551   4.027
 9437SOL    HW129210   0.584   5.606   4.090
 9437SOL    HW229211   0.621   5.583   3.933
 9438SOL     OW29212   0.534   6.914   2.340
 9438SOL    HW129213   0.571   6.871   2.257
 9438SOL    HW229214   0.593   6.990   2.367
 9439SOL     OW29215   1.361   3.160   1.362
 9439SOL    HW129216   1.402   3.151   1.453
 9439SOL    HW229217   1.262   3.151   1.369
 9440SOL     OW29218   3.930   5.651   4.783
 9440SOL    HW129219   3.833   5.629   4.794
 9440SOL    HW229220   3.940   5.745   4.752
 9441SOL     OW29221   1.686   6.025   5.261
 9441SOL    HW129222   1.774   6.020   5.308
 9441SOL    HW229223   1.631   5.945   5.284
 9442SOL     OW29224   0.807   3.586   1.307
 9442SOL    HW129225   0.877   3.654   1.327
 9442SOL    HW229226   0.801   3.573   1.208
 9443SOL     OW29227   1.612   3.291   1.342
 9443SOL    HW129228   1.575   3.346   1.267
 9443SOL    HW229229   1.551   3.214   1.360
 9444SOL     OW29230   1.234   4.295   5.948
 9444SOL    HW129231   1.234   4.282   5.849
 9444SOL    HW229232   1.159   4.243   5.989
 9445SOL     OW29233   6.339   3.184   1.701
 9445SOL    HW129234   6.342   3.104   1.642
 9445SOL    HW229235   6.421   3.187   1.758
 9446SOL     OW29236   5.966   4.429   0.536
 9446SOL    HW129237   5.881   4.428   0.587
 9446SOL    HW229238   6.001   4.336   0.526
 9447SOL     OW29239   6.162   1.813   1.678
 9447SOL    HW129240   6.180   1.910   1.690
 9447SOL    HW229241   6.080   1.787   1.728
 9448SOL     OW29242   6.051   6.181   0.725
 9448SOL    HW129243   6.036   6.229   0.639
 9448SOL    HW229244   5.982   6.109   0.735
 9449SOL     OW29245   6.547   4.906   5.257
 9449SOL    HW129246   6.495   4.888   5.340
 9449SOL    HW229247   6.635   4.857   5.262
 9450SOL     OW29248   2.841   6.110   4.140
 9450SOL    HW129249   2.766   6.054   4.176
 9450SOL    HW229250   2.877   6.068   4.057
 9451SOL     OW29251   4.368   4.170   5.813
 9451SOL    HW129252   4.274   4.166   5.777
 9451SOL    HW229253   4.370   4.130   5.904
 9452SOL     OW29254   3.401   4.737   1.101
 9452SOL    HW129255   3.405   4.835   1.117
 9452SOL    HW229256   3.321   4.716   1.045
 9453SOL     OW29257   2.775   5.279   1.510
 9453SOL    HW129258   2.749   5.362   1.559
 9453SOL    HW229259   2.770   5.295   1.412
 9454SOL     OW29260   2.010   1.852   5.307
 9454SOL    HW129261   1.986   1.950   5.311
 9454SOL    HW229262   1.953   1.802   5.373
 9455SOL     OW29263   1.932   2.089   2.353
 9455SOL    HW129264   1.957   2.016   2.289
 9455SOL    HW229265   2.015   2.127   2.394
 9456SOL     OW29266   1.049   3.530   0.663
 9456SOL    HW129267   1.118   3.566   0.600
 9456SOL    HW229268   0.964   3.512   0.613
 9457SOL     OW29269   6.672   3.473   0.139
 9457SOL    HW129270   6.660   3.561   0.093
 9457SOL    HW229271   6.608   3.466   0.216
 9458SOL     OW29272   0.918   5.601   4.533
 9458SOL    HW129273   0.951   5.695   4.526
 9458SOL    HW229274   0.888   5.569   4.443
 9459SOL     OW29275   4.346   6.427   1.868
 9459SOL    HW129276   4.253   6.400   1.845
 9459SOL    HW229277   4.395   6.349   1.905
 9460SOL     OW29278   1.066   2.430   5.672
 9460SOL    HW129279   1.020   2.497   5.731
 9460SOL    HW229280   1.133   2.476   5.615
 9461SOL     OW29281   1.798   0.560   2.626
 9461SOL    HW129282   1.713   0.533   2.583
 9461SOL    HW229283   1.851   0.618   2.564
 9462SOL     OW29284   0.122   2.985   3.168
 9462SOL    HW129285   0.115   2.971   3.069
 9462SOL    HW229286   0.186   3.061   3.186
 9463SOL     OW29287   5.354   1.738   6.394
 9463SOL    HW129288   5.449   1.744   6.425
 9463SOL    HW229289   5.352   1.712   6.297
 9464SOL     OW29290   4.322   6.896   5.988
 9464SOL    HW129291   4.261   6.832   6.034
 9464SOL    HW229292   4.319   6.880   5.889
 9465SOL     OW29293   5.377   6.731   4.380
 9465SOL    HW129294   5.303   6.669   4.408
 9465SOL    HW229295   5.338   6.820   4.359
 9466SOL     OW29296   2.584   1.507   0.131
 9466SOL    HW129297   2.489   1.536   0.138
 9466SOL    HW229298   2.618   1.527   0.039
 9467SOL     OW29299   2.132   3.252   2.098
 9467SOL    HW129300   2.161   3.341   2.063
 9467SOL    HW229301   2.110   3.260   2.196
 9468SOL     OW29302   0.470   2.605   6.664
 9468SOL    HW129303   0.515   2.694   6.663
 9468SOL    HW229304   0.539   2.533   6.662
 9469SOL     OW29305   6.783   3.938   2.768
 9469SOL    HW129306   6.830   3.900   2.848
 9469SOL    HW229307   6.737   3.864   2.719
 9470SOL     OW29308   6.249   3.347   1.514
 9470SOL    HW129309   6.286   3.274   1.571
 9470SOL    HW229310   6.298   3.348   1.427
 9471SOL     OW29311   0.345   2.757   6.394
 9471SOL    HW129312   0.255   2.763   6.438
 9471SOL    HW229313   0.354   2.668   6.349
 9472SOL     OW29314   6.625   2.413   4.516
 9472SOL    HW129315   6.648   2.482   4.585
 9472SOL    HW229316   6.525   2.410   4.505
 9473SOL     OW29317   3.666   5.593   4.830
 9473SOL    HW129318   3.656   5.494   4.827
 9473SOL    HW229319   3.655   5.625   4.924
 9474SOL     OW29320   3.364   5.457   3.643
 9474SOL    HW129321   3.318   5.539   3.607
 9474SOL    HW229322   3.463   5.464   3.626
 9475SOL     OW29323   1.728   3.364   1.586
 9475SOL    HW129324   1.693   3.456   1.606
 9475SOL    HW229325   1.678   3.326   1.509
 9476SOL     OW29326   3.345   3.183   5.704
 9476SOL    HW129327   3.433   3.208   5.666
 9476SOL    HW229328   3.274   3.245   5.670
 9477SOL     OW29329   0.240   2.227   0.908
 9477SOL    HW129330   0.302   2.304   0.889
 9477SOL    HW229331   0.147   2.261   0.918
 9478SOL     OW29332   5.069   3.772   5.447
 9478SOL    HW129333   5.104   3.865   5.457
 9478SOL    HW229334   5.145   3.707   5.448
 9479SOL     OW29335   6.420   5.506   4.851
 9479SOL    HW129336   6.429   5.587   4.909
 9479SOL    HW229337   6.507   5.457   4.849
 9480SOL     OW29338   5.637   3.793   6.200
 9480SOL    HW129339   5.707   3.738   6.246
 9480SOL    HW229340   5.632   3.883   6.242
 9481SOL     OW29341   6.778   3.483   2.349
 9481SOL    HW129342   6.866   3.438   2.365
 9481SOL    HW229343   6.786   3.580   2.370
 9482SOL     OW29344   4.312   6.999   2.861
 9482SOL    HW129345   4.393   0.030   2.832
 9482SOL    HW229346   4.323   6.902   2.837
 9483SOL     OW29347   1.863   1.776   0.803
 9483SOL    HW129348   1.918   1.831   0.740
 9483SOL    HW229349   1.809   1.837   0.861
 9484SOL     OW29350   5.807   0.786   2.704
 9484SOL    HW129351   5.787   0.767   2.800
 9484SOL    HW229352   5.732   0.754   2.647
 9485SOL     OW29353   0.988   0.073   2.752
 9485SOL    HW129354   1.067   0.023   2.716
 9485SOL    HW229355   1.012   0.169   2.765
 9486SOL     OW29356   2.845   6.145   2.453
 9486SOL    HW129357   2.915   6.086   2.413
 9486SOL    HW229358   2.775   6.087   2.497
 9487SOL     OW29359   2.939   3.522   3.107
 9487SOL    HW129360   2.912   3.594   3.172
 9487SOL    HW229361   2.920   3.553   3.014
 9488SOL     OW29362   1.375   1.688   1.529
 9488SOL    HW129363   1.406   1.760   1.466
 9488SOL    HW229364   1.306   1.725   1.591
 9489SOL     OW29365   3.232   4.269   0.937
 9489SOL    HW129366   3.316   4.292   0.887
 9489SOL    HW229367   3.168   4.224   0.875
 9490SOL     OW29368   5.456   1.709   0.111
 9490SOL    HW129369   5.395   1.740   0.038
 9490SOL    HW229370   5.526   1.779   0.127
 9491SOL     OW29371   0.089   4.900   5.226
 9491SOL    HW129372   0.101   4.871   5.321
 9491SOL    HW229373   0.019   4.972   5.222
 9492SOL     OW29374   2.789   4.295   1.400
 9492SOL    HW129375   2.884   4.263   1.402
 9492SOL    HW229376   2.787   4.391   1.374
 9493SOL     OW29377   5.552   6.289   2.340
 9493SOL    HW129378   5.530   6.245   2.253
 9493SOL    HW229379   5.519   6.383   2.339
 9494SOL     OW29380   3.142   2.930   6.017
 9494SOL    HW129381   3.155   2.917   5.918
 9494SOL    HW229382   3.198   3.006   6.048
 9495SOL     OW29383   5.764   1.745   4.724
 9495SOL    HW129384   5.790   1.654   4.694
 9495SOL    HW229385   5.670   1.744   4.757
 9496SOL     OW29386   5.883   3.677   0.085
 9496SOL    HW129387   5.872   3.612   0.160
 9496SOL    HW229388   5.890   3.627   7.018
 9497SOL     OW29389   0.581   6.294   6.189
 9497SOL    HW129390   0.558   6.222   6.254
 9497SOL    HW229391   0.646   6.260   6.122
 9498SOL     OW29392   3.829   0.831   6.359
 9498SOL    HW129393   3.832   0.733   6.340
 9498SOL    HW229394   3.750   0.872   6.315
 9499SOL     OW29395   4.499   4.572   6.448
 9499SOL    HW129396   4.482   4.562   6.546
 9499SOL    HW229397   4.455   4.498   6.399
 9500SOL     OW29398   5.411   5.536   1.830
 9500SOL    HW129399   5.391   5.438   1.826
 9500SOL    HW229400   5.400   5.568   1.924
 9501SOL     OW29401   3.288   1.763   4.891
 9501SOL    HW129402   3.199   1.717   4.883
 9501SOL    HW229403   3.308   1.779   4.988
 9502SOL     OW29404   4.109   3.145   5.635
 9502SOL    HW129405   4.123   3.063   5.690
 9502SOL    HW229406   4.197   3.176   5.598
 9503SOL     OW29407   1.552   6.867   1.097
 9503SOL    HW129408   1.459   6.830   1.093
 9503SOL    HW229409   1.582   6.893   1.005
 9504SOL     OW29410   0.938   3.035   0.139
 9504SOL    HW129411   1.015   3.079   0.092
 9504SOL    HW229412   0.957   2.938   0.151
 9505SOL     OW29413   4.929   3.412   3.337
 9505SOL    HW129414   4.939   3.481   3.408
 9505SOL    HW229415   4.864   3.444   3.268
 9506SOL     OW29416   6.802   2.523   0.886
 9506SOL    HW129417   6.727   2.544   0.823
 9506SOL    HW229418   6.854   2.607   0.906
 9507SOL     OW29419   1.464   1.960   4.411
 9507SOL    HW129420   1.364   1.964   4.403
 9507SOL    HW229421   1.492   2.001   4.497
 9508SOL     OW29422   4.680   1.637   6.274
 9508SOL    HW129423   4.656   1.569   6.344
 9508SOL    HW229424   4.776   1.661   6.283
 9509SOL     OW29425   2.842   6.492   5.769
 9509SOL    HW129426   2.939   6.514   5.758
 9509SOL    HW229427   2.791   6.524   5.690
 9510SOL     OW29428   6.628   4.014   3.116
 9510SOL    HW129429   6.711   3.959   3.107
 9510SOL    HW229430   6.636   4.074   3.195
 9511SOL     OW29431   1.824   1.324   1.459
 9511SOL    HW129432   1.789   1.414   1.436
 9511SOL    HW229433   1.805   1.260   1.384
 9512SOL     OW29434   1.428   3.018   4.683
 9512SOL    HW129435   1.381   2.962   4.751
 9512SOL    HW229436   1.494   2.962   4.633
 9513SOL     OW29437   2.137   4.425   4.175
 9513SOL    HW129438   2.077   4.419   4.254
 9513SOL    HW229439   2.232   4.417   4.204
 9514SOL     OW29440   2.837   2.767   6.137
 9514SOL    HW129441   2.757   2.751   6.194
 9514SOL    HW229442   2.819   2.840   6.072
 9515SOL     OW29443   2.446   5.150   5.685
 9515SOL    HW129444   2.470   5.101   5.602
 9515SOL    HW229445   2.510   5.126   5.758
 9516SOL     OW29446   5.463   4.084   5.565
 9516SOL    HW129447   5.411   4.075   5.480
 9516SOL    HW229448   5.475   4.180   5.586
 9517SOL     OW29449   0.734   5.931   1.979
 9517SOL    HW129450   0.834   5.922   1.971
 9517SOL    HW229451   0.695   5.945   1.888
 9518SOL     OW29452   0.733   3.054   5.199
 9518SOL    HW129453   0.738   3.055   5.099
 9518SOL    HW229454   0.813   3.006   5.236
 9519SOL     OW29455   3.382   3.070   3.355
 9519SOL    HW129456   3.293   3.108   3.382
 9519SOL    HW229457   3.410   3.000   3.421
 9520SOL     OW29458   5.202   0.101   6.208
 9520SOL    HW129459   5.186   0.024   6.270
 9520SOL    HW229460   5.212   0.185   6.261
 9521SOL     OW29461   3.384   1.333   1.470
 9521SOL    HW129462   3.338   1.317   1.383
 9521SOL    HW229463   3.352   1.267   1.538
 9522SOL     OW29464   3.711   5.936   1.471
 9522SOL    HW129465   3.775   5.983   1.532
 9522SOL    HW229466   3.647   5.882   1.526
 9523SOL     OW29467   2.467   4.677   4.185
 9523SOL    HW129468   2.512   4.766   4.176
 9523SOL    HW229469   2.492   4.619   4.107
 9524SOL     OW29470   2.095   3.870   0.477
 9524SOL    HW129471   2.021   3.938   0.481
 9524SOL    HW229472   2.073   3.801   0.407
 9525SOL     OW29473   2.397   3.107   5.400
 9525SOL    HW129474   2.456   3.062   5.333
 9525SOL    HW229475   2.316   3.050   5.417
 9526SOL     OW29476   5.312   5.528   6.967
 9526SOL    HW129477   5.276   5.597   0.011
 9526SOL    HW229478   5.406   5.550   6.943
 9527SOL     OW29479   4.139   6.911   4.781
 9527SOL    HW129480   4.178   6.955   4.700
 9527SOL    HW229481   4.155   6.813   4.777
 9528SOL     OW29482   5.172   2.434   0.551
 9528SOL    HW129483   5.239   2.399   0.485
 9528SOL    HW229484   5.164   2.370   0.627
 9529SOL     OW29485   5.466   0.958   1.969
 9529SOL    HW129486   5.443   0.926   1.877
 9529SOL    HW229487   5.511   1.047   1.963
 9530SOL     OW29488   1.419   5.545   3.467
 9530SOL    HW129489   1.397   5.593   3.381
 9530SOL    HW229490   1.394   5.603   3.544
 9531SOL     OW29491   3.233   5.281   2.475
 9531SOL    HW129492   3.307   5.214   2.468
 9531SOL    HW229493   3.147   5.238   2.446
 9532SOL     OW29494   6.406   5.094   3.891
 9532SOL    HW129495   6.424   5.190   3.909
 9532SOL    HW229496   6.316   5.069   3.926
 9533SOL     OW29497   2.003   4.277   3.088
 9533SOL    HW129498   2.091   4.234   3.064
 9533SOL    HW229499   1.971   4.239   3.175
 9534SOL     OW29500   5.383   5.107   4.619
 9534SOL    HW129501   5.400   5.181   4.685
 9534SOL    HW229502   5.363   5.023   4.669
 9535SOL     OW29503   0.197   1.834   4.294
 9535SOL    HW129504   0.289   1.812   4.262
 9535SOL    HW229505   0.202   1.909   4.360
 9536SOL     OW29506   3.340   3.841   4.598
 9536SOL    HW129507   3.366   3.938   4.593
 9536SOL    HW229508   3.315   3.809   4.507
 9537SOL     OW29509   6.625   1.328   4.344
 9537SOL    HW129510   6.641   1.299   4.250
 9537SOL    HW229511   6.654   1.423   4.355
 9538SOL     OW29512   5.240   6.934   4.813
 9538SOL    HW129513   5.212   6.930   4.716
 9538SOL    HW229514   5.187   7.004   4.860
 9539SOL     OW29515   3.384   3.867   2.375
 9539SOL    HW129516   3.372   3.771   2.401
 9539SOL    HW229517   3.367   3.878   2.277
 9540SOL     OW29518   4.492   4.850   3.192
 9540SOL    HW129519   4.543   4.917   3.246
 9540SOL    HW229520   4.449   4.783   3.253
 9541SOL     OW29521   2.132   5.100   5.378
 9541SOL    HW129522   2.185   5.021   5.407
 9541SOL    HW229523   2.165   5.132   5.289
 9542SOL     OW29524   6.073   4.385   3.773
 9542SOL    HW129525   6.088   4.434   3.687
 9542SOL    HW229526   6.107   4.439   3.849
 9543SOL     OW29527   2.528   0.340   5.815
 9543SOL    HW129528   2.551   0.359   5.911
 9543SOL    HW229529   2.430   0.354   5.801
 9544SOL     OW29530   5.796   3.226   4.752
 9544SOL    HW129531   5.822   3.142   4.706
 9544SOL    HW229532   5.867   3.252   4.817
 9545SOL     OW29533   6.743   4.703   1.962
 9545SOL    HW129534   6.804   4.625   1.950
 9545SOL    HW229535   6.698   4.724   1.875
 9546SOL     OW29536   2.885   2.823   1.222
 9546SOL    HW129537   2.834   2.833   1.307
 9546SOL    HW229538   2.953   2.750   1.233
 9547SOL     OW29539   4.340   0.101   3.521
 9547SOL    HW129540   4.433   0.101   3.560
 9547SOL    HW229541   4.291   0.181   3.553
 9548SOL     OW29542   1.239   4.861   6.103
 9548SOL    HW129543   1.173   4.840   6.175
 9548SOL    HW229544   1.213   4.945   6.056
 9549SOL     OW29545   4.810   1.938   1.176
 9549SOL    HW129546   4.852   1.856   1.139
 9549SOL    HW229547   4.760   1.916   1.260
 9550SOL     OW29548   6.080   3.194   1.811
 9550SOL    HW129549   6.177   3.190   1.785
 9550SOL    HW229550   6.025   3.151   1.740
 9551SOL     OW29551   5.895   3.088   6.553
 9551SOL    HW129552   5.963   3.049   6.491
 9551SOL    HW229553   5.849   3.014   6.602
 9552SOL     OW29554   3.333   1.424   0.499
 9552SOL    HW129555   3.334   1.379   0.589
 9552SOL    HW229556   3.242   1.459   0.480
 9553SOL     OW29557   5.512   1.251   6.329
 9553SOL    HW129558   5.594   1.234   6.384
 9553SOL    HW229559   5.431   1.247   6.388
 9554SOL     OW29560   3.161   0.717   3.695
 9554SOL    HW129561   3.154   0.779   3.773
 9554SOL    HW229562   3.120   0.628   3.719
 9555SOL     OW29563   6.845   7.003   3.982
 9555SOL    HW129564   6.797   6.920   4.011
 9555SOL    HW229565   6.800   0.063   4.023
 9556SOL     OW29566   2.234   4.881   6.799
 9556SOL    HW129567   2.257   4.935   6.880
 9556SOL    HW229568   2.135   4.871   6.791
 9557SOL     OW29569   5.411   0.751   1.410
 9557SOL    HW129570   5.385   0.837   1.455
 9557SOL    HW229571   5.332   0.689   1.409
 9558SOL     OW29572   5.034   6.680   6.340
 9558SOL    HW129573   4.937   6.692   6.319
 9558SOL    HW229574   5.066   6.593   6.303
 9559SOL     OW29575   1.729   4.469   0.147
 9559SOL    HW129576   1.661   4.471   0.221
 9559SOL    HW229577   1.753   4.374   0.127
 9560SOL     OW29578   3.079   0.186   2.567
 9560SOL    HW129579   3.051   0.099   2.608
 9560SOL    HW229580   3.032   0.261   2.613
 9561SOL     OW29581   0.680   0.993   0.289
 9561SOL    HW129582   0.737   0.918   0.254
 9561SOL    HW229583   0.637   0.965   0.375
 9562SOL     OW29584   2.553   6.683   2.495
 9562SOL    HW129585   2.569   6.585   2.498
 9562SOL    HW229586   2.548   6.720   2.588
 9563SOL     OW29587   0.920   5.699   6.252
 9563SOL    HW129588   0.832   5.741   6.228
 9563SOL    HW229589   0.948   5.635   6.181
 9564SOL     OW29590   1.742   0.797   0.328
 9564SOL    HW129591   1.768   0.815   0.233
 9564SOL    HW229592   1.788   0.863   0.388
 9565SOL     OW29593   3.010   1.834   4.589
 9565SOL    HW129594   2.984   1.895   4.514
 9565SOL    HW229595   3.022   1.741   4.554
 9566SOL     OW29596   3.313   0.216   0.168
 9566SOL    HW129597   3.274   0.236   0.258
 9566SOL    HW229598   3.402   0.260   0.159
 9567SOL     OW29599   0.198   4.042   1.360
 9567SOL    HW129600   0.224   3.983   1.283
 9567SOL    HW229601   0.218   4.137   1.337
 9568SOL     OW29602   4.402   1.438   6.985
 9568SOL    HW129603   4.415   1.454   0.063
 9568SOL    HW229604   4.335   1.503   6.949
 9569SOL     OW29605   6.044   0.372   1.908
 9569SOL    HW129606   5.953   0.356   1.945
 9569SOL    HW229607   6.041   0.444   1.839
 9570SOL     OW29608   0.505   3.063   1.832
 9570SOL    HW129609   0.568   3.140   1.848
 9570SOL    HW229610   0.501   3.044   1.734
 9571SOL     OW29611   1.631   1.788   6.772
 9571SOL    HW129612   1.644   1.881   6.805
 9571SOL    HW229613   1.625   1.725   6.849
 9572SOL     OW29614   2.380   4.319   3.958
 9572SOL    HW129615   2.321   4.354   4.031
 9572SOL    HW229616   2.347   4.230   3.928
 9573SOL     OW29617   6.391   0.410   4.584
 9573SOL    HW129618   6.429   0.438   4.496
 9573SOL    HW229619   6.339   0.326   4.572
 9574SOL     OW29620   3.766   3.238   1.009
 9574SOL    HW129621   3.778   3.156   0.953
 9574SOL    HW229622   3.814   3.315   0.965
 9575SOL     OW29623   5.387   5.993   1.756
 9575SOL    HW129624   5.315   6.031   1.698
 9575SOL    HW229625   5.460   6.061   1.768
 9576SOL     OW29626   1.220   0.565   6.278
 9576SOL    HW129627   1.282   0.631   6.236
 9576SOL    HW229628   1.272   0.501   6.334
 9577SOL     OW29629   6.317   5.111   2.816
 9577SOL    HW129630   6.240   5.104   2.879
 9577SOL    HW229631   6.288   5.083   2.725
 9578SOL     OW29632   1.929   3.829   2.643
 9578SOL    HW129633   1.865   3.863   2.711
 9578SOL    HW229634   1.987   3.903   2.611
 9579SOL     OW29635   6.129   5.984   2.174
 9579SOL    HW129636   6.077   5.904   2.202
 9579SOL    HW229637   6.221   5.957   2.146
 9580SOL     OW29638   5.135   4.081   3.465
 9580SOL    HW129639   5.222   4.067   3.419
 9580SOL    HW229640   5.075   4.003   3.448
 9581SOL     OW29641   5.974   1.165   6.965
 9581SOL    HW129642   5.951   1.259   6.991
 9581SOL    HW229643   6.070   1.160   6.938
 9582SOL     OW29644   5.480   6.282   4.633
 9582SOL    HW129645   5.419   6.246   4.704
 9582SOL    HW229646   5.531   6.360   4.668
 9583SOL     OW29647   3.542   4.973   1.811
 9583SOL    HW129648   3.475   4.939   1.746
 9583SOL    HW229649   3.596   4.897   1.848
 9584SOL     OW29650   2.559   5.545   4.006
 9584SOL    HW129651   2.538   5.448   3.998
 9584SOL    HW229652   2.537   5.577   4.098
 9585SOL     OW29653   4.165   6.036   1.216
 9585SOL    HW129654   4.176   6.132   1.189
 9585SOL    HW229655   4.195   6.024   1.310
 9586SOL     OW29656   4.198   5.252   3.009
 9586SOL    HW129657   4.262   5.317   3.049
 9586SOL    HW229658   4.195   5.169   3.065
 9587SOL     OW29659   3.236   5.925   1.122
 9587SOL    HW129660   3.177   5.979   1.063
 9587SOL    HW229661   3.195   5.918   1.213
 9588SOL     OW29662   6.647   6.067   0.333
 9588SOL    HW129663   6.609   6.131   0.266
 9588SOL    HW229664   6.607   5.977   0.320
 9589SOL     OW29665   1.871   3.244   6.616
 9589SOL    HW129666   1.791   3.199   6.655
 9589SOL    HW229667   1.841   3.314   6.551
 9590SOL     OW29668   6.247   0.488   1.009
 9590SOL    HW129669   6.246   0.536   1.096
 9590SOL    HW229670   6.205   0.546   0.939
 9591SOL     OW29671   4.101   0.698   0.332
 9591SOL    HW129672   4.124   0.659   0.421
 9591SOL    HW229673   4.010   0.667   0.304
 9592SOL     OW29674   2.360   6.660   5.879
 9592SOL    HW129675   2.283   6.706   5.836
 9592SOL    HW229676   2.415   6.614   5.809
 9593SOL     OW29677   1.782   2.221   3.824
 9593SOL    HW129678   1.805   2.192   3.917
 9593SOL    HW229679   1.683   2.215   3.811
 9594SOL     OW29680   0.514   6.641   3.849
 9594SOL    HW129681   0.422   6.632   3.811
 9594SOL    HW229682   0.553   6.729   3.821
 9595SOL     OW29683   0.530   3.274   3.330
 9595SOL    HW129684   0.612   3.217   3.329
 9595SOL    HW229685   0.545   3.355   3.273
 9596SOL     OW29686   0.786   6.297   0.841
 9596SOL    HW129687   0.729   6.216   0.833
 9596SOL    HW229688   0.859   6.280   0.907
 9597SOL     OW29689   1.192   3.506   2.071
 9597SOL    HW129690   1.266   3.530   2.134
 9597SOL    HW229691   1.172   3.585   2.012
 9598SOL     OW29692   2.055   4.432   3.724
 9598SOL    HW129693   2.061   4.529   3.701
 9598SOL    HW229694   2.039   4.421   3.822
 9599SOL     OW29695   4.354   6.319   4.042
 9599SOL    HW129696   4.373   6.221   4.049
 9599SOL    HW229697   4.323   6.353   4.131
 9600SOL     OW29698   3.609   1.233   1.663
 9600SOL    HW129699   3.600   1.134   1.651
 9600SOL    HW229700   3.705   1.259   1.663
 9601SOL     OW29701   1.066   3.723   0.977
 9601SOL    HW129702   1.124   3.642   0.965
 9601SOL    HW229703   1.124   3.801   1.003
 9602SOL     OW29704   4.585   5.277   5.376
 9602SOL    HW129705   4.549   5.326   5.297
 9602SOL    HW229706   4.514   5.216   5.412
 9603SOL     OW29707   5.098   6.166   5.375
 9603SOL    HW129708   5.069   6.117   5.457
 9603SOL    HW229709   5.141   6.253   5.400
 9604SOL     OW29710   5.113   6.663   0.485
 9604SOL    HW129711   5.076   6.630   0.398
 9604SOL    HW229712   5.156   6.752   0.471
 9605SOL     OW29713   5.798   5.615   2.403
 9605SOL    HW129714   5.835   5.620   2.496
 9605SOL    HW229715   5.698   5.604   2.408
 9606SOL     OW29716   1.672   1.225   0.055
 9606SOL    HW129717   1.623   1.138   0.059
 9606SOL    HW229718   1.606   1.300   0.042
 9607SOL     OW29719   2.474   2.341   5.911
 9607SOL    HW129720   2.518   2.412   5.966
 9607SOL    HW229721   2.375   2.343   5.926
 9608SOL     OW29722   6.373   3.425   4.393
 9608SOL    HW129723   6.355   3.517   4.426
 9608SOL    HW229724   6.461   3.393   4.427
 9609SOL     OW29725   4.343   3.075   6.480
 9609SOL    HW129726   4.283   3.152   6.456
 9609SOL    HW229727   4.424   3.110   6.528
 9610SOL     OW29728   0.577   4.939   3.316
 9610SOL    HW129729   0.651   5.003   3.336
 9610SOL    HW229730   0.489   4.985   3.329
 9611SOL     OW29731   2.014   0.542   0.460
 9611SOL    HW129732   2.076   0.498   0.526
 9611SOL    HW229733   2.004   0.638   0.485
 9612SOL     OW29734   0.157   3.094   3.927
 9612SOL    HW129735   0.247   3.050   3.921
 9612SOL    HW229736   0.151   3.146   4.012
 9613SOL     OW29737   6.116   5.387   2.933
 9613SOL    HW129738   6.158   5.383   2.842
 9613SOL    HW229739   6.027   5.433   2.926
 9614SOL     OW29740   4.372   2.295   3.980
 9614SOL    HW129741   4.337   2.234   3.909
 9614SOL    HW229742   4.333   2.269   4.069
 9615SOL     OW29743   2.626   3.992   1.231
 9615SOL    HW129744   2.620   4.089   1.254
 9615SOL    HW229745   2.557   3.970   1.161
 9616SOL     OW29746   4.056   3.540   6.776
 9616SOL    HW129747   4.117   3.473   6.818
 9616SOL    HW229748   4.103   3.585   6.701
 9617SOL     OW29749   1.571   2.382   3.344
 9617SOL    HW129750   1.666   2.356   3.329
 9617SOL    HW229751   1.516   2.356   3.264
 9618SOL     OW29752   2.076   1.523   1.133
 9618SOL    HW129753   2.013   1.517   1.056
 9618SOL    HW229754   2.119   1.613   1.135
 9619SOL     OW29755   3.022   1.302   5.752
 9619SOL    HW129756   2.979   1.219   5.786
 9619SOL    HW229757   3.033   1.296   5.653
 9620SOL     OW29758   6.047   1.058   5.147
 9620SOL    HW129759   6.130   1.009   5.120
 9620SOL    HW229760   5.991   0.999   5.206
 9621SOL     OW29761   1.845   3.107   3.633
 9621SOL    HW129762   1.890   3.056   3.560
 9621SOL    HW229763   1.799   3.187   3.595
 9622SOL     OW29764   5.699   0.121   1.195
 9622SOL    HW129765   5.738   0.208   1.166
 9622SOL    HW229766   5.715   0.053   1.123
 9623SOL     OW29767   2.570   3.081   6.527
 9623SOL    HW129768   2.531   3.121   6.609
 9623SOL    HW229769   2.648   3.137   6.497
 9624SOL     OW29770   6.717   3.302   4.017
 9624SOL    HW129771   6.793   3.257   3.970
 9624SOL    HW229772   6.751   3.341   4.103
 9625SOL     OW29773   5.669   5.757   1.014
 9625SOL    HW129774   5.649   5.804   0.928
 9625SOL    HW229775   5.584   5.726   1.056
 9626SOL     OW29776   3.321   6.569   0.042
 9626SOL    HW129777   3.287   6.647   0.093
 9626SOL    HW229778   3.354   6.499   0.105
 9627SOL     OW29779   1.187   6.497   6.671
 9627SOL    HW129780   1.089   6.511   6.687
 9627SOL    HW229781   1.200   6.412   6.621
 9628SOL     OW29782   3.453   6.701   2.249
 9628SOL    HW129783   3.362   6.728   2.281
 9628SOL    HW229784   3.445   6.655   2.161
 9629SOL     OW29785   2.259   6.784   1.012
 9629SOL    HW129786   2.227   6.697   0.974
 9629SOL    HW229787   2.246   6.784   1.111
 9630SOL     OW29788   0.050   1.223   6.088
 9630SOL    HW129789   0.053   1.243   6.186
 9630SOL    HW229790   0.016   1.303   6.039
 9631SOL     OW29791   6.015   6.174   0.422
 9631SOL    HW129792   5.936   6.235   0.417
 9631SOL    HW229793   6.071   6.185   0.340
 9632SOL     OW29794   1.292   5.740   1.764
 9632SOL    HW129795   1.329   5.765   1.854
 9632SOL    HW229796   1.289   5.640   1.756
 9633SOL     OW29797   6.774   4.868   6.104
 9633SOL    HW129798   6.799   4.771   6.097
 9633SOL    HW229799   6.677   4.875   6.126
 9634SOL     OW29800   1.566   6.279   5.187
 9634SOL    HW129801   1.628   6.205   5.213
 9634SOL    HW229802   1.506   6.302   5.264
 9635SOL     OW29803   1.202   5.732   5.435
 9635SOL    HW129804   1.193   5.655   5.372
 9635SOL    HW229805   1.283   5.719   5.493
 9636SOL     OW29806   4.008   1.529   6.860
 9636SOL    HW129807   3.983   1.619   6.897
 9636SOL    HW229808   3.954   1.458   6.906
 9637SOL     OW29809   2.169   1.249   0.147
 9637SOL    HW129810   2.085   1.236   0.094
 9637SOL    HW229811   2.187   1.346   0.157
 9638SOL     OW29812   6.765   1.904   6.325
 9638SOL    HW129813   6.712   1.819   6.329
 9638SOL    HW229814   6.703   1.982   6.316
 9639SOL     OW29815   4.036   0.776   2.713
 9639SOL    HW129816   4.018   0.722   2.795
 9639SOL    HW229817   3.951   0.817   2.680
 9640SOL     OW29818   1.738   2.304   2.318
 9640SOL    HW129819   1.816   2.254   2.356
 9640SOL    HW229820   1.662   2.241   2.303
 9641SOL     OW29821   5.714   5.538   6.982
 9641SOL    HW129822   5.714   5.452   0.013
 9641SOL    HW229823   5.699   5.614   0.025
 9642SOL     OW29824   3.440   0.399   3.796
 9642SOL    HW129825   3.402   0.454   3.871
 9642SOL    HW229826   3.464   0.308   3.831
 9643SOL     OW29827   3.674   4.932   3.045
 9643SOL    HW129828   3.712   4.939   2.953
 9643SOL    HW229829   3.742   4.891   3.106
 9644SOL     OW29830   2.733   2.288   6.962
 9644SOL    HW129831   2.807   2.259   6.901
 9644SOL    HW229832   2.647   2.248   6.931
 9645SOL     OW29833   3.404   4.997   5.354
 9645SOL    HW129834   3.324   5.058   5.356
 9645SOL    HW229835   3.481   5.042   5.399
 9646SOL     OW29836   4.184   5.035   3.719
 9646SOL    HW129837   4.231   5.038   3.807
 9646SOL    HW229838   4.155   4.941   3.700
 9647SOL     OW29839   6.482   3.034   6.759
 9647SOL    HW129840   6.464   3.045   6.857
 9647SOL    HW229841   6.406   2.985   6.717
 9648SOL     OW29842   4.182   3.639   1.096
 9648SOL    HW129843   4.144   3.639   1.003
 9648SOL    HW229844   4.108   3.652   1.162
 9649SOL     OW29845   1.938   6.121   1.184
 9649SOL    HW129846   1.936   6.210   1.139
 9649SOL    HW229847   1.992   6.127   1.268
 9650SOL     OW29848   0.307   6.922   1.489
 9650SOL    HW129849   0.325   6.920   1.587
 9650SOL    HW229850   0.209   6.928   1.472
 9651SOL     OW29851   0.586   1.802   5.941
 9651SOL    HW129852   0.679   1.829   5.965
 9651SOL    HW229853   0.528   1.884   5.937
 9652SOL     OW29854   0.231   5.111   2.394
 9652SOL    HW129855   0.141   5.130   2.433
 9652SOL    HW229856   0.265   5.192   2.346
 9653SOL     OW29857   6.528   6.050   4.382
 9653SOL    HW129858   6.454   6.076   4.321
 9653SOL    HW229859   6.536   6.116   4.456
 9654SOL     OW29860   2.106   3.155   2.720
 9654SOL    HW129861   2.155   3.077   2.758
 9654SOL    HW229862   2.018   3.124   2.684
 9655SOL     OW29863   5.840   1.870   6.550
 9655SOL    HW129864   5.747   1.876   6.513
 9655SOL    HW229865   5.906   1.899   6.480
 9656SOL     OW29866   3.322   1.080   3.065
 9656SOL    HW129867   3.355   1.152   3.126
 9656SOL    HW229868   3.237   1.043   3.102
 9657SOL     OW29869   0.583   6.969   5.247
 9657SOL    HW129870   0.529   0.019   5.200
 9657SOL    HW229871   0.539   6.945   5.333
 9658SOL     OW29872   5.408   2.093   3.335
 9658SOL    HW129873   5.474   2.163   3.308
 9658SOL    HW229874   5.354   2.065   3.255
 9659SOL     OW29875   1.186   4.935   0.235
 9659SOL    HW129876   1.170   4.846   0.193
 9659SOL    HW229877   1.269   4.976   0.195
 9660SOL     OW29878   0.322   4.990   0.527
 9660SOL    HW129879   0.315   4.901   0.482
 9660SOL    HW229880   0.298   4.980   0.624
 9661SOL     OW29881   4.386   6.906   1.131
 9661SOL    HW129882   4.465   6.889   1.072
 9661SOL    HW229883   4.305   6.922   1.074
 9662SOL     OW29884   4.962   1.067   4.674
 9662SOL    HW129885   4.989   1.042   4.581
 9662SOL    HW229886   4.893   1.140   4.670
 9663SOL     OW29887   2.335   6.416   3.116
 9663SOL    HW129888   2.328   6.357   3.196
 9663SOL    HW229889   2.426   6.457   3.113
 9664SOL     OW29890   2.123   5.729   1.647
 9664SOL    HW129891   2.150   5.765   1.558
 9664SOL    HW229892   2.120   5.629   1.643
 9665SOL     OW29893   5.402   4.163   3.887
 9665SOL    HW129894   5.320   4.214   3.913
 9665SOL    HW229895   5.375   4.075   3.848
 9666SOL     OW29896   5.237   4.617   4.868
 9666SOL    HW129897   5.325   4.578   4.843
 9666SOL    HW229898   5.165   4.549   4.854
 9667SOL     OW29899   3.371   3.414   3.139
 9667SOL    HW129900   3.325   3.333   3.103
 9667SOL    HW229901   3.319   3.495   3.113
 9668SOL     OW29902   0.443   1.237   4.965
 9668SOL    HW129903   0.419   1.171   5.036
 9668SOL    HW229904   0.495   1.312   5.005
 9669SOL     OW29905   1.699   6.344   0.324
 9669SOL    HW129906   1.607   6.314   0.348
 9669SOL    HW229907   1.708   6.442   0.345
 9670SOL     OW29908   5.809   4.645   6.381
 9670SOL    HW129909   5.859   4.680   6.302
 9670SOL    HW229910   5.840   4.693   6.463
 9671SOL     OW29911   0.100   0.361   0.146
 9671SOL    HW129912   0.183   0.305   0.150
 9671SOL    HW229913   0.032   0.323   0.209
 9672SOL     OW29914   1.723   6.367   4.994
 9672SOL    HW129915   1.625   6.347   4.986
 9672SOL    HW229916   1.768   6.291   5.041
 9673SOL     OW29917   2.582   2.598   5.979
 9673SOL    HW129918   2.678   2.626   5.992
 9673SOL    HW229919   2.532   2.672   5.934
 9674SOL     OW29920   2.795   6.779   2.345
 9674SOL    HW129921   2.771   6.825   2.259
 9674SOL    HW229922   2.713   6.772   2.402
 9675SOL     OW29923   0.351   2.416   2.207
 9675SOL    HW129924   0.311   2.382   2.122
 9675SOL    HW229925   0.414   2.348   2.244
 9676SOL     OW29926   0.264   3.208   4.999
 9676SOL    HW129927   0.339   3.147   5.025
 9676SOL    HW229928   0.229   3.255   5.080
 9677SOL     OW29929   1.651   3.468   5.110
 9677SOL    HW129930   1.686   3.511   5.027
 9677SOL    HW229931   1.724   3.463   5.178
 9678SOL     OW29932   3.747   3.271   2.908
 9678SOL    HW129933   3.793   3.211   2.843
 9678SOL    HW229934   3.760   3.236   3.001
 9679SOL     OW29935   0.485   3.742   1.277
 9679SOL    HW129936   0.429   3.795   1.214
 9679SOL    HW229937   0.576   3.785   1.284
 9680SOL     OW29938   5.100   4.705   3.396
 9680SOL    HW129939   5.131   4.752   3.478
 9680SOL    HW229940   5.056   4.619   3.422
 9681SOL     OW29941   0.805   0.900   4.162
 9681SOL    HW129942   0.891   0.951   4.154
 9681SOL    HW229943   0.728   0.962   4.152
 9682SOL     OW29944   0.224   5.306   2.946
 9682SOL    HW129945   0.311   5.290   2.992
 9682SOL    HW229946   0.157   5.340   3.012
 9683SOL     OW29947   4.769   6.637   6.556
 9683SOL    HW129948   4.818   6.692   6.623
 9683SOL    HW229949   4.748   6.547   6.595
 9684SOL     OW29950   0.694   4.433   3.610
 9684SOL    HW129951   0.631   4.407   3.684
 9684SOL    HW229952   0.754   4.506   3.642
 9685SOL     OW29953   1.713   2.429   6.979
 9685SOL    HW129954   1.765   2.358   6.932
 9685SOL    HW229955   1.630   2.389   7.019
 9686SOL     OW29956   5.466   1.194   1.120
 9686SOL    HW129957   5.412   1.268   1.079
 9686SOL    HW229958   5.505   1.225   1.206
 9687SOL     OW29959   3.783   1.486   4.036
 9687SOL    HW129960   3.857   1.502   3.971
 9687SOL    HW229961   3.726   1.568   4.043
 9688SOL     OW29962   6.337   1.907   3.734
 9688SOL    HW129963   6.389   1.884   3.651
 9688SOL    HW229964   6.262   1.968   3.710
 9689SOL     OW29965   1.674   5.846   5.773
 9689SOL    HW129966   1.592   5.792   5.794
 9689SOL    HW229967   1.648   5.941   5.755
 9690SOL     OW29968   5.837   3.877   0.816
 9690SOL    HW129969   5.739   3.871   0.831
 9690SOL    HW229970   5.885   3.849   0.900
 9691SOL     OW29971   1.451   4.390   1.276
 9691SOL    HW129972   1.527   4.436   1.322
 9691SOL    HW229973   1.387   4.458   1.240
 9692SOL     OW29974   2.085   5.556   0.928
 9692SOL    HW129975   2.034   5.537   0.844
 9692SOL    HW229976   2.103   5.654   0.934
 9693SOL     OW29977   6.304   5.390   1.602
 9693SOL    HW129978   6.370   5.461   1.628
 9693SOL    HW229979   6.272   5.406   1.509
 9694SOL     OW29980   1.609   1.860   0.482
 9694SOL    HW129981   1.681   1.790   0.481
 9694SOL    HW229982   1.651   1.951   0.481
 9695SOL     OW29983   6.688   4.260   0.720
 9695SOL    HW129984   6.672   4.302   0.631
 9695SOL    HW229985   6.615   4.195   0.740
 9696SOL     OW29986   3.401   4.395   0.754
 9696SOL    HW129987   3.459   4.447   0.692
 9696SOL    HW229988   3.306   4.428   0.746
 9697SOL     OW29989   0.613   5.921   6.179
 9697SOL    HW129990   0.677   5.901   6.105
 9697SOL    HW229991   0.537   5.975   6.143
 9698SOL     OW29992   5.107   1.392   5.549
 9698SOL    HW129993   5.103   1.335   5.631
 9698SOL    HW229994   5.169   1.469   5.565
 9699SOL     OW29995   2.149   2.889   7.007
 9699SOL    HW129996   2.214   2.920   0.056
 9699SOL    HW229997   2.192   2.820   6.949
 9700SOL     OW29998   3.371   4.128   3.636
 9700SOL    HW129999   3.271   4.126   3.640
 9700SOL    HW230000   3.401   4.155   3.545
 9701SOL     OW30001   4.728   4.197   4.878
 9701SOL    HW130002   4.659   4.152   4.822
 9701SOL    HW230003   4.761   4.134   4.948
 9702SOL     OW30004   4.682   0.264   0.610
 9702SOL    HW130005   4.625   0.239   0.531
 9702SOL    HW230006   4.749   0.333   0.582
 9703SOL     OW30007   3.163   6.069   4.176
 9703SOL    HW130008   3.113   6.143   4.131
 9703SOL    HW230009   3.119   6.047   4.263
 9704SOL     OW30010   2.562   0.884   3.885
 9704SOL    HW130011   2.473   0.864   3.844
 9704SOL    HW230012   2.562   0.978   3.919
 9705SOL     OW30013   3.967   3.899   0.833
 9705SOL    HW130014   3.955   3.975   0.769
 9705SOL    HW230015   3.878   3.873   0.870
 9706SOL     OW30016   6.383   2.628   3.263
 9706SOL    HW130017   6.452   2.662   3.326
 9706SOL    HW230018   6.359   2.699   3.197
 9707SOL     OW30019   2.611   5.755   2.838
 9707SOL    HW130020   2.544   5.756   2.763
 9707SOL    HW230021   2.652   5.846   2.847
 9708SOL     OW30022   1.694   1.985   2.428
 9708SOL    HW130023   1.702   1.894   2.467
 9708SOL    HW230024   1.785   2.021   2.407
 9709SOL     OW30025   1.739   5.191   2.794
 9709SOL    HW130026   1.807   5.139   2.742
 9709SOL    HW230027   1.666   5.130   2.825
 9710SOL     OW30028   0.534   0.513   4.008
 9710SOL    HW130029   0.606   0.582   3.995
 9710SOL    HW230030   0.446   0.559   4.022
 9711SOL     OW30031   1.966   3.435   6.328
 9711SOL    HW130032   1.967   3.532   6.350
 9711SOL    HW230033   1.899   3.418   6.256
 9712SOL     OW30034   4.816   2.977   4.168
 9712SOL    HW130035   4.889   2.928   4.121
 9712SOL    HW230036   4.744   3.000   4.102
 9713SOL     OW30037   6.665   5.238   2.554
 9713SOL    HW130038   6.687   5.184   2.473
 9713SOL    HW230039   6.639   5.330   2.527
 9714SOL     OW30040   1.650   2.530   2.215
 9714SOL    HW130041   1.564   2.500   2.175
 9714SOL    HW230042   1.684   2.460   2.279
 9715SOL     OW30043   5.983   5.541   5.707
 9715SOL    HW130044   5.922   5.582   5.639
 9715SOL    HW230045   5.936   5.533   5.794
 9716SOL     OW30046   3.838   2.132   5.933
 9716SOL    HW130047   3.857   2.039   5.902
 9716SOL    HW230048   3.826   2.192   5.854
 9717SOL     OW30049   6.070   4.985   3.314
 9717SOL    HW130050   6.110   5.072   3.284
 9717SOL    HW230051   5.978   5.002   3.351
 9718SOL     OW30052   4.578   3.320   1.475
 9718SOL    HW130053   4.565   3.399   1.534
 9718SOL    HW230054   4.640   3.344   1.400
 9719SOL     OW30055   0.353   1.614   0.479
 9719SOL    HW130056   0.393   1.701   0.507
 9719SOL    HW230057   0.425   1.555   0.443
 9720SOL     OW30058   0.892   0.367   0.548
 9720SOL    HW130059   0.880   0.415   0.635
 9720SOL    HW230060   0.964   0.298   0.558
 9721SOL     OW30061   6.838   2.612   3.089
 9721SOL    HW130062   6.774   2.540   3.114
 9721SOL    HW230063   6.846   2.616   2.989
 9722SOL     OW30064   6.885   0.474   4.595
 9722SOL    HW130065   6.883   0.573   4.584
 9722SOL    HW230066   6.827   0.448   4.672
 9723SOL     OW30067   6.460   1.130   3.815
 9723SOL    HW130068   6.371   1.092   3.790
 9723SOL    HW230069   6.447   1.206   3.879
 9724SOL     OW30070   3.785   3.065   0.782
 9724SOL    HW130071   3.850   3.109   0.721
 9724SOL    HW230072   3.719   3.012   0.729
 9725SOL     OW30073   4.298   3.790   5.558
 9725SOL    HW130074   4.301   3.795   5.459
 9725SOL    HW230075   4.205   3.814   5.590
 9726SOL     OW30076   6.017   5.690   4.743
 9726SOL    HW130077   6.061   5.644   4.666
 9726SOL    HW230078   6.075   5.764   4.776
 9727SOL     OW30079   1.416   1.322   6.708
 9727SOL    HW130080   1.511   1.309   6.736
 9727SOL    HW230081   1.413   1.345   6.611
 9728SOL     OW30082   3.112   5.307   0.229
 9728SOL    HW130083   3.093   5.244   0.304
 9728SOL    HW230084   3.049   5.385   0.234
 9729SOL     OW30085   3.053   4.994   2.359
 9729SOL    HW130086   2.964   4.959   2.329
 9729SOL    HW230087   3.054   5.094   2.352
 9730SOL     OW30088   5.807   3.305   3.373
 9730SOL    HW130089   5.903   3.326   3.390
 9730SOL    HW230090   5.755   3.314   3.458
 9731SOL     OW30091   4.889   5.715   1.312
 9731SOL    HW130092   4.875   5.676   1.221
 9731SOL    HW230093   4.905   5.642   1.378
 9732SOL     OW30094   6.333   5.756   3.861
 9732SOL    HW130095   6.329   5.836   3.921
 9732SOL    HW230096   6.424   5.715   3.867
 9733SOL     OW30097   5.817   4.746   5.819
 9733SOL    HW130098   5.741   4.764   5.882
 9733SOL    HW230099   5.902   4.779   5.861
 9734SOL     OW30100   5.418   2.013   5.225
 9734SOL    HW130101   5.443   2.082   5.293
 9734SOL    HW230102   5.445   2.044   5.134
 9735SOL     OW30103   3.092   4.547   0.059
 9735SOL    HW130104   3.167   4.483   0.039
 9735SOL    HW230105   3.051   4.522   0.146
 9736SOL     OW30106   3.492   1.743   1.660
 9736SOL    HW130107   3.580   1.787   1.645
 9736SOL    HW230108   3.461   1.758   1.754
 9737SOL     OW30109   4.202   2.271   4.862
 9737SOL    HW130110   4.204   2.360   4.907
 9737SOL    HW230111   4.108   2.243   4.846
 9738SOL     OW30112   2.414   1.080   2.080
 9738SOL    HW130113   2.490   1.017   2.092
 9738SOL    HW230114   2.366   1.059   1.995
 9739SOL     OW30115   5.699   4.602   1.720
 9739SOL    HW130116   5.761   4.526   1.698
 9739SOL    HW230117   5.625   4.568   1.777
 9740SOL     OW30118   6.316   3.453   3.276
 9740SOL    HW130119   6.359   3.365   3.291
 9740SOL    HW230120   6.384   3.526   3.280
 9741SOL     OW30121   3.935   1.773   2.051
 9741SOL    HW130122   3.842   1.739   2.067
 9741SOL    HW230123   3.940   1.870   2.077
 9742SOL     OW30124   4.460   1.683   3.622
 9742SOL    HW130125   4.512   1.597   3.623
 9742SOL    HW230126   4.392   1.682   3.695
 9743SOL     OW30127   1.521   1.846   5.344
 9743SOL    HW130128   1.537   1.937   5.384
 9743SOL    HW230129   1.607   1.808   5.311
 9744SOL     OW30130   2.355   0.476   1.681
 9744SOL    HW130131   2.382   0.530   1.761
 9744SOL    HW230132   2.360   0.379   1.704
 9745SOL     OW30133   0.218   1.129   4.796
 9745SOL    HW130134   0.234   1.044   4.745
 9745SOL    HW230135   0.305   1.164   4.830
 9746SOL     OW30136   6.302   0.855   4.043
 9746SOL    HW130137   6.215   0.878   4.000
 9746SOL    HW230138   6.314   0.909   4.126
 9747SOL     OW30139   7.009   0.163   6.355
 9747SOL    HW130140   0.072   0.146   6.301
 9747SOL    HW230141   0.004   0.240   6.416
 9748SOL     OW30142   0.448   4.883   4.503
 9748SOL    HW130143   0.455   4.913   4.598
 9748SOL    HW230144   0.481   4.955   4.442
 9749SOL     OW30145   0.265   4.534   4.300
 9749SOL    HW130146   0.348   4.589   4.292
 9749SOL    HW230147   0.285   4.452   4.354
 9750SOL     OW30148   3.158   5.393   3.101
 9750SOL    HW130149   3.103   5.375   3.182
 9750SOL    HW230150   3.178   5.306   3.055
 9751SOL     OW30151   1.937   2.786   0.939
 9751SOL    HW130152   2.017   2.844   0.953
 9751SOL    HW230153   1.861   2.842   0.905
 9752SOL     OW30154   3.892   1.732   6.107
 9752SOL    HW130155   3.797   1.719   6.135
 9752SOL    HW230156   3.942   1.646   6.119
 9753SOL     OW30157   6.837   6.541   6.209
 9753SOL    HW130158   6.763   6.507   6.268
 9753SOL    HW230159   6.918   6.558   6.264
 9754SOL     OW30160   0.074   2.888   6.333
 9754SOL    HW130161   0.014   2.813   6.362
 9754SOL    HW230162   0.103   2.873   6.238
 9755SOL     OW30163   3.801   5.456   5.663
 9755SOL    HW130164   3.782   5.414   5.752
 9755SOL    HW230165   3.892   5.498   5.665
 9756SOL     OW30166   4.882   2.479   5.788
 9756SOL    HW130167   4.860   2.573   5.814
 9756SOL    HW230168   4.829   2.454   5.707
 9757SOL     OW30169   6.217   1.062   3.742
 9757SOL    HW130170   6.150   1.133   3.719
 9757SOL    HW230171   6.224   0.998   3.666
 9758SOL     OW30172   3.044   0.525   0.156
 9758SOL    HW130173   2.980   0.464   0.204
 9758SOL    HW230174   3.137   0.504   0.185
 9759SOL     OW30175   3.237   6.027   1.436
 9759SOL    HW130176   3.330   6.054   1.411
 9759SOL    HW230177   3.183   6.110   1.455
 9760SOL     OW30178   5.721   4.534   6.046
 9760SOL    HW130179   5.633   4.575   6.019
 9760SOL    HW230180   5.725   4.440   6.011
 9761SOL     OW30181   5.286   5.270   2.930
 9761SOL    HW130182   5.372   5.321   2.922
 9761SOL    HW230183   5.294   5.202   3.003
 9762SOL     OW30184   2.910   0.964   3.347
 9762SOL    HW130185   2.962   0.909   3.412
 9762SOL    HW230186   2.823   0.992   3.389
 9763SOL     OW30187   1.983   1.537   2.327
 9763SOL    HW130188   1.936   1.454   2.356
 9763SOL    HW230189   2.078   1.516   2.307
 9764SOL     OW30190   1.363   2.752   2.438
 9764SOL    HW130191   1.446   2.796   2.404
 9764SOL    HW230192   1.384   2.705   2.524
 9765SOL     OW30193   0.171   1.331   5.167
 9765SOL    HW130194   0.263   1.320   5.130
 9765SOL    HW230195   0.104   1.318   5.094
 9766SOL     OW30196   2.001   0.380   2.649
 9766SOL    HW130197   1.959   0.290   2.662
 9766SOL    HW230198   1.929   0.449   2.638
 9767SOL     OW30199   5.118   0.190   5.583
 9767SOL    HW130200   5.118   0.272   5.641
 9767SOL    HW230201   5.189   0.200   5.512
 9768SOL     OW30202   5.035   2.609   4.063
 9768SOL    HW130203   5.016   2.515   4.032
 9768SOL    HW230204   5.111   2.608   4.128
 9769SOL     OW30205   0.630   1.863   1.606
 9769SOL    HW130206   0.704   1.901   1.661
 9769SOL    HW230207   0.636   1.898   1.513
 9770SOL     OW30208   6.966   3.141   5.467
 9770SOL    HW130209   6.984   3.204   5.543
 9770SOL    HW230210   0.015   3.154   5.396
 9771SOL     OW30211   2.740   5.442   3.741
 9771SOL    HW130212   2.763   5.374   3.811
 9771SOL    HW230213   2.705   5.525   3.785
 9772SOL     OW30214   6.002   6.940   1.094
 9772SOL    HW130215   6.050   6.940   1.182
 9772SOL    HW230216   5.918   6.886   1.102
 9773SOL     OW30217   5.008   4.858   3.799
 9773SOL    HW130218   4.945   4.783   3.820
 9773SOL    HW230219   4.957   4.934   3.759
 9774SOL     OW30220   0.228   4.805   3.923
 9774SOL    HW130221   0.295   4.752   3.871
 9774SOL    HW230222   0.268   4.832   4.011
 9775SOL     OW30223   2.550   2.495   4.987
 9775SOL    HW130224   2.548   2.591   5.016
 9775SOL    HW230225   2.473   2.477   4.926
 9776SOL     OW30226   0.356   4.928   4.182
 9776SOL    HW130227   0.409   4.994   4.235
 9776SOL    HW230228   0.367   4.837   4.221
 9777SOL     OW30229   5.455   4.806   6.132
 9777SOL    HW130230   5.550   4.837   6.133
 9777SOL    HW230231   5.396   4.879   6.167
 9778SOL     OW30232   3.857   0.785   4.266
 9778SOL    HW130233   3.955   0.772   4.255
 9778SOL    HW230234   3.823   0.728   4.340
 9779SOL     OW30235   3.052   2.133   6.697
 9779SOL    HW130236   3.033   2.090   6.785
 9779SOL    HW230237   3.147   2.117   6.671
 9780SOL     OW30238   3.183   4.107   0.454
 9780SOL    HW130239   3.212   4.020   0.415
 9780SOL    HW230240   3.133   4.160   0.385
 9781SOL     OW30241   1.860   6.244   4.347
 9781SOL    HW130242   1.859   6.158   4.297
 9781SOL    HW230243   1.826   6.317   4.287
 9782SOL     OW30244   6.074   0.356   0.687
 9782SOL    HW130245   6.090   0.383   0.592
 9782SOL    HW230246   6.076   0.437   0.746
 9783SOL     OW30247   5.827   0.769   3.382
 9783SOL    HW130248   5.879   0.684   3.380
 9783SOL    HW230249   5.795   0.786   3.475
 9784SOL     OW30250   5.747   0.712   4.171
 9784SOL    HW130251   5.727   0.699   4.268
 9784SOL    HW230252   5.664   0.694   4.117
 9785SOL     OW30253   0.578   2.728   0.984
 9785SOL    HW130254   0.635   2.806   1.013
 9785SOL    HW230255   0.559   2.670   1.064
 9786SOL     OW30256   2.964   7.015   4.740
 9786SOL    HW130257   2.977   0.013   4.643
 9786SOL    HW230258   2.920   0.074   4.783
 9787SOL     OW30259   6.377   4.135   1.367
 9787SOL    HW130260   6.333   4.125   1.456
 9787SOL    HW230261   6.383   4.232   1.343
 9788SOL     OW30262   6.944   1.040   5.131
 9788SOL    HW130263   0.003   0.991   5.170
 9788SOL    HW230264   6.976   1.102   5.060
 9789SOL     OW30265   1.684   5.319   4.731
 9789SOL    HW130266   1.713   5.251   4.663
 9789SOL    HW230267   1.718   5.409   4.704
 9790SOL     OW30268   6.630   1.221   3.602
 9790SOL    HW130269   6.563   1.186   3.668
 9790SOL    HW230270   6.603   1.192   3.510
 9791SOL     OW30271   1.131   2.372   1.321
 9791SOL    HW130272   1.115   2.319   1.405
 9791SOL    HW230273   1.064   2.346   1.252
 9792SOL     OW30274   3.318   5.636   2.468
 9792SOL    HW130275   3.345   5.608   2.376
 9792SOL    HW230276   3.226   5.602   2.486
 9793SOL     OW30277   5.526   6.184   2.103
 9793SOL    HW130278   5.449   6.218   2.047
 9793SOL    HW230279   5.612   6.219   2.066
 9794SOL     OW30280   2.954   3.340   6.749
 9794SOL    HW130281   2.870   3.306   6.792
 9794SOL    HW230282   3.010   3.263   6.721
 9795SOL     OW30283   2.544   5.035   3.796
 9795SOL    HW130284   2.624   4.979   3.819
 9795SOL    HW230285   2.532   5.038   3.697
 9796SOL     OW30286   3.565   4.948   0.637
 9796SOL    HW130287   3.640   4.884   0.620
 9796SOL    HW230288   3.548   5.002   0.555
 9797SOL     OW30289   5.198   2.795   4.784
 9797SOL    HW130290   5.280   2.741   4.804
 9797SOL    HW230291   5.200   2.880   4.837
 9798SOL     OW30292   2.544   1.653   1.487
 9798SOL    HW130293   2.583   1.685   1.401
 9798SOL    HW230294   2.576   1.712   1.561
 9799SOL     OW30295   3.503   4.137   2.221
 9799SOL    HW130296   3.477   4.233   2.231
 9799SOL    HW230297   3.568   4.112   2.293
 9800SOL     OW30298   3.906   5.077   0.099
 9800SOL    HW130299   3.904   5.080   0.199
 9800SOL    HW230300   4.001   5.079   0.068
 9801SOL     OW30301   4.843   5.658   1.054
 9801SOL    HW130302   4.928   5.622   1.016
 9801SOL    HW230303   4.832   5.754   1.026
 9802SOL     OW30304   0.357   5.089   1.544
 9802SOL    HW130305   0.313   4.999   1.551
 9802SOL    HW230306   0.290   5.160   1.566
 9803SOL     OW30307   4.658   0.233   6.203
 9803SOL    HW130308   4.611   0.145   6.200
 9803SOL    HW230309   4.757   0.219   6.192
 9804SOL     OW30310   5.450   5.500   4.295
 9804SOL    HW130311   5.433   5.471   4.389
 9804SOL    HW230312   5.451   5.420   4.235
 9805SOL     OW30313   3.561   4.024   1.100
 9805SOL    HW130314   3.594   4.049   1.191
 9805SOL    HW230315   3.482   3.964   1.109
 9806SOL     OW30316   6.945   1.655   2.690
 9806SOL    HW130317   6.897   1.732   2.649
 9806SOL    HW230318   6.892   1.571   2.678
 9807SOL     OW30319   2.426   3.402   0.763
 9807SOL    HW130320   2.360   3.330   0.783
 9807SOL    HW230321   2.391   3.490   0.798
 9808SOL     OW30322   1.807   1.853   4.645
 9808SOL    HW130323   1.801   1.911   4.564
 9808SOL    HW230324   1.903   1.836   4.666
 9809SOL     OW30325   0.882   0.692   3.999
 9809SOL    HW130326   0.938   0.618   4.035
 9809SOL    HW230327   0.857   0.754   4.074
 9810SOL     OW30328   4.314   1.827   2.635
 9810SOL    HW130329   4.388   1.877   2.590
 9810SOL    HW230330   4.228   1.876   2.624
 9811SOL     OW30331   1.264   0.041   2.624
 9811SOL    HW130332   1.328   0.105   2.581
 9811SOL    HW230333   1.302   6.968   2.619
 9812SOL     OW30334   5.596   2.837   5.557
 9812SOL    HW130335   5.505   2.869   5.585
 9812SOL    HW230336   5.642   2.909   5.506
 9813SOL     OW30337   6.663   3.715   0.389
 9813SOL    HW130338   6.724   3.695   0.467
 9813SOL    HW230339   6.572   3.736   0.423
 9814SOL     OW30340   6.830   0.704   5.376
 9814SOL    HW130341   6.799   0.717   5.470
 9814SOL    HW230342   6.881   0.785   5.347
 9815SOL     OW30343   0.048   3.694   2.791
 9815SOL    HW130344   0.078   3.779   2.748
 9815SOL    HW230345   0.041   3.707   2.890
 9816SOL     OW30346   5.921   0.891   5.305
 9816SOL    HW130347   5.959   0.833   5.378
 9816SOL    HW230348   5.865   0.836   5.244
 9817SOL     OW30349   2.388   1.031   0.913
 9817SOL    HW130350   2.466   1.051   0.854
 9817SOL    HW230351   2.316   1.099   0.899
 9818SOL     OW30352   0.272   6.861   2.342
 9818SOL    HW130353   0.259   6.806   2.260
 9818SOL    HW230354   0.368   6.888   2.349
 9819SOL     OW30355   6.310   2.458   4.433
 9819SOL    HW130356   6.307   2.361   4.408
 9819SOL    HW230357   6.371   2.507   4.371
 9820SOL     OW30358   3.958   1.433   6.145
 9820SOL    HW130359   3.953   1.336   6.121
 9820SOL    HW230360   4.033   1.448   6.209
 9821SOL     OW30361   4.314   3.263   0.174
 9821SOL    HW130362   4.305   3.351   0.219
 9821SOL    HW230363   4.268   3.193   0.229
 9822SOL     OW30364   3.412   5.269   4.338
 9822SOL    HW130365   3.476   5.244   4.411
 9822SOL    HW230366   3.452   5.246   4.249
 9823SOL     OW30367   3.935   6.308   3.368
 9823SOL    HW130368   3.874   6.270   3.437
 9823SOL    HW230369   4.017   6.344   3.412
 9824SOL     OW30370   1.539   5.794   5.343
 9824SOL    HW130371   1.500   5.749   5.262
 9824SOL    HW230372   1.515   5.741   5.424
 9825SOL     OW30373   0.314   6.126   4.955
 9825SOL    HW130374   0.287   6.029   4.950
 9825SOL    HW230375   0.412   6.134   4.938
 9826SOL     OW30376   1.836   5.527   6.157
 9826SOL    HW130377   1.827   5.567   6.248
 9826SOL    HW230378   1.804   5.592   6.089
 9827SOL     OW30379   2.055   4.555   1.820
 9827SOL    HW130380   2.130   4.510   1.771
 9827SOL    HW230381   1.978   4.492   1.828
 9828SOL     OW30382   4.581   2.151   4.886
 9828SOL    HW130383   4.560   2.158   4.788
 9828SOL    HW230384   4.680   2.161   4.900
 9829SOL     OW30385   5.430   4.333   5.664
 9829SOL    HW130386   5.435   4.433   5.665
 9829SOL    HW230387   5.341   4.305   5.627
 9830SOL     OW30388   5.841   1.726   3.346
 9830SOL    HW130389   5.884   1.804   3.302
 9830SOL    HW230390   5.877   1.717   3.439
 9831SOL     OW30391   0.383   4.431   2.398
 9831SOL    HW130392   0.414   4.508   2.342
 9831SOL    HW230393   0.283   4.426   2.394
 9832SOL     OW30394   5.069   5.733   4.529
 9832SOL    HW130395   5.084   5.744   4.431
 9832SOL    HW230396   5.099   5.642   4.557
 9833SOL     OW30397   3.840   3.561   4.995
 9833SOL    HW130398   3.911   3.588   5.059
 9833SOL    HW230399   3.865   3.589   4.902
 9834SOL     OW30400   3.552   5.993   5.643
 9834SOL    HW130401   3.471   6.031   5.597
 9834SOL    HW230402   3.572   6.046   5.725
 9835SOL     OW30403   4.062   3.248   3.862
 9835SOL    HW130404   4.100   3.322   3.806
 9835SOL    HW230405   4.083   3.265   3.958
 9836SOL     OW30406   6.618   3.091   5.455
 9836SOL    HW130407   6.619   3.164   5.523
 9836SOL    HW230408   6.710   3.077   5.420
 9837SOL     OW30409   6.315   1.051   3.421
 9837SOL    HW130410   6.398   1.026   3.372
 9837SOL    HW230411   6.252   1.097   3.358
 9838SOL     OW30412   0.209   5.837   0.560
 9838SOL    HW130413   0.246   5.766   0.500
 9838SOL    HW230414   0.280   5.868   0.623
 9839SOL     OW30415   4.329   6.078   3.426
 9839SOL    HW130416   4.314   6.040   3.335
 9839SOL    HW230417   4.349   6.175   3.419
 9840SOL     OW30418   6.634   1.594   6.710
 9840SOL    HW130419   6.647   1.616   6.613
 9840SOL    HW230420   6.705   1.530   6.739
 9841SOL     OW30421   0.260   5.847   2.029
 9841SOL    HW130422   0.301   5.893   2.107
 9841SOL    HW230423   0.219   5.915   1.968
 9842SOL     OW30424   3.505   0.599   0.427
 9842SOL    HW130425   3.529   0.683   0.476
 9842SOL    HW230426   3.578   0.577   0.362
 9843SOL     OW30427   6.954   0.565   0.975
 9843SOL    HW130428   6.864   0.607   0.959
 9843SOL    HW230429   0.006   0.633   0.962
 9844SOL     OW30430   5.153   0.311   5.198
 9844SOL    HW130431   5.166   0.368   5.279
 9844SOL    HW230432   5.227   0.328   5.133
 9845SOL     OW30433   1.016   4.146   2.272
 9845SOL    HW130434   1.031   4.077   2.202
 9845SOL    HW230435   0.970   4.104   2.351
 9846SOL     OW30436   5.427   1.725   2.218
 9846SOL    HW130437   5.352   1.760   2.162
 9846SOL    HW230438   5.421   1.764   2.310
 9847SOL     OW30439   4.070   4.492   6.778
 9847SOL    HW130440   3.983   4.460   6.741
 9847SOL    HW230441   4.113   4.418   6.831
 9848SOL     OW30442   2.930   4.555   5.660
 9848SOL    HW130443   3.002   4.624   5.656
 9848SOL    HW230444   2.952   4.480   5.597
 9849SOL     OW30445   2.038   2.672   3.982
 9849SOL    HW130446   2.075   2.762   3.958
 9849SOL    HW230447   2.086   2.601   3.931
 9850SOL     OW30448   1.004   0.038   3.928
 9850SOL    HW130449   1.008   0.138   3.931
 9850SOL    HW230450   1.027   0.001   4.018
 9851SOL     OW30451   3.732   5.452   3.857
 9851SOL    HW130452   3.783   5.530   3.894
 9851SOL    HW230453   3.689   5.480   3.770
 9852SOL     OW30454   1.829   6.366   0.054
 9852SOL    HW130455   1.782   6.343   0.139
 9852SOL    HW230456   1.838   6.284   7.018
 9853SOL     OW30457   0.320   4.364   3.848
 9853SOL    HW130458   0.320   4.286   3.785
 9853SOL    HW230459   0.267   4.341   3.929
 9854SOL     OW30460   6.757   3.596   6.902
 9854SOL    HW130461   6.800   3.664   6.961
 9854SOL    HW230462   6.826   3.531   6.870
 9855SOL     OW30463   0.712   6.144   6.414
 9855SOL    HW130464   0.685   6.059   6.459
 9855SOL    HW230465   0.797   6.178   6.455
 9856SOL     OW30466   5.234   4.049   3.012
 9856SOL    HW130467   5.144   4.008   3.027
 9856SOL    HW230468   5.227   4.149   3.018
 9857SOL     OW30469   4.929   0.191   6.198
 9857SOL    HW130470   4.956   0.284   6.222
 9857SOL    HW230471   4.954   0.128   6.271
 9858SOL     OW30472   6.452   5.501   2.513
 9858SOL    HW130473   6.499   5.590   2.513
 9858SOL    HW230474   6.437   5.471   2.419
 9859SOL     OW30475   0.916   5.277   2.274
 9859SOL    HW130476   0.999   5.332   2.286
 9859SOL    HW230477   0.923   5.223   2.190
 9860SOL     OW30478   1.791   3.456   3.898
 9860SOL    HW130479   1.888   3.475   3.911
 9860SOL    HW230480   1.752   3.522   3.834
 9861SOL     OW30481   3.569   2.088   3.711
 9861SOL    HW130482   3.555   1.990   3.726
 9861SOL    HW230483   3.655   2.103   3.663
 9862SOL     OW30484   1.991   3.684   6.430
 9862SOL    HW130485   2.068   3.621   6.441
 9862SOL    HW230486   2.025   3.777   6.420
 9863SOL     OW30487   3.890   6.888   2.380
 9863SOL    HW130488   3.845   6.830   2.312
 9863SOL    HW230489   3.918   6.974   2.337
 9864SOL     OW30490   2.724   6.563   5.537
 9864SOL    HW130491   2.657   6.632   5.510
 9864SOL    HW230492   2.769   6.526   5.455
 9865SOL     OW30493   2.329   6.254   5.968
 9865SOL    HW130494   2.316   6.315   6.047
 9865SOL    HW230495   2.415   6.205   5.978
 9866SOL     OW30496   6.651   5.341   6.344
 9866SOL    HW130497   6.593   5.420   6.324
 9866SOL    HW230498   6.746   5.371   6.354
 9867SOL     OW30499   4.629   1.325   2.119
 9867SOL    HW130500   4.640   1.237   2.165
 9867SOL    HW230501   4.546   1.323   2.063
 9868SOL     OW30502   2.231   4.887   3.377
 9868SOL    HW130503   2.296   4.812   3.380
 9868SOL    HW230504   2.181   4.885   3.291
 9869SOL     OW30505   6.456   2.505   2.760
 9869SOL    HW130506   6.451   2.513   2.660
 9869SOL    HW230507   6.466   2.596   2.800
 9870SOL     OW30508   1.965   2.005   3.226
 9870SOL    HW130509   1.957   2.031   3.323
 9870SOL    HW230510   1.993   2.085   3.173
 9871SOL     OW30511   5.699   5.866   3.077
 9871SOL    HW130512   5.605   5.896   3.096
 9871SOL    HW230513   5.700   5.767   3.065
 9872SOL     OW30514   0.691   6.007   5.699
 9872SOL    HW130515   0.790   5.992   5.693
 9872SOL    HW230516   0.674   6.095   5.744
 9873SOL     OW30517   0.672   0.965   5.284
 9873SOL    HW130518   0.762   0.954   5.324
 9873SOL    HW230519   0.675   0.941   5.187
 9874SOL     OW30520   0.238   2.428   3.494
 9874SOL    HW130521   0.195   2.386   3.414
 9874SOL    HW230522   0.314   2.371   3.525
 9875SOL     OW30523   6.263   6.260   1.058
 9875SOL    HW130524   6.167   6.274   1.082
 9875SOL    HW230525   6.283   6.305   0.971
 9876SOL     OW30526   0.197   6.913   3.941
 9876SOL    HW130527   0.267   6.945   4.005
 9876SOL    HW230528   0.240   6.863   3.866
 9877SOL     OW30529   1.223   6.265   5.200
 9877SOL    HW130530   1.314   6.283   5.238
 9877SOL    HW230531   1.179   6.192   5.253
 9878SOL     OW30532   3.350   2.442   6.946
 9878SOL    HW130533   3.425   2.382   6.915
 9878SOL    HW230534   3.387   2.532   6.969
 9879SOL     OW30535   6.487   5.615   4.192
 9879SOL    HW130536   6.502   5.665   4.107
 9879SOL    HW230537   6.391   5.591   4.200
 9880SOL     OW30538   3.752   1.389   1.384
 9880SOL    HW130539   3.670   1.342   1.351
 9880SOL    HW230540   3.803   1.328   1.444
 9881SOL     OW30541   6.052   0.332   3.589
 9881SOL    HW130542   6.039   0.303   3.495
 9881SOL    HW230543   5.963   0.351   3.631
 9882SOL     OW30544   3.476   2.948   4.639
 9882SOL    HW130545   3.462   2.905   4.550
 9882SOL    HW230546   3.571   2.979   4.646
 9883SOL     OW30547   1.830   6.322   2.444
 9883SOL    HW130548   1.874   6.360   2.525
 9883SOL    HW230549   1.764   6.252   2.471
 9884SOL     OW30550   3.193   2.518   5.334
 9884SOL    HW130551   3.212   2.442   5.271
 9884SOL    HW230552   3.124   2.489   5.400
 9885SOL     OW30553   4.706   2.454   5.590
 9885SOL    HW130554   4.651   2.373   5.569
 9885SOL    HW230555   4.678   2.529   5.529
 9886SOL     OW30556   2.274   6.145   1.350
 9886SOL    HW130557   2.365   6.160   1.310
 9886SOL    HW230558   2.283   6.115   1.444
 9887SOL     OW30559   3.464   1.116   0.075
 9887SOL    HW130560   3.524   1.196   0.073
 9887SOL    HW230561   3.383   1.137   0.130
 9888SOL     OW30562   6.729   6.453   3.644
 9888SOL    HW130563   6.715   6.358   3.672
 9888SOL    HW230564   6.771   6.455   3.553
 9889SOL     OW30565   6.370   5.766   2.904
 9889SOL    HW130566   6.306   5.741   2.977
 9889SOL    HW230567   6.386   5.865   2.906
 9890SOL     OW30568   1.537   3.200   2.695
 9890SOL    HW130569   1.515   3.108   2.726
 9890SOL    HW230570   1.465   3.232   2.632
 9891SOL     OW30571   4.686   6.706   1.983
 9891SOL    HW130572   4.756   6.635   1.997
 9891SOL    HW230573   4.727   6.786   1.940
 9892SOL     OW30574   1.692   6.276   3.268
 9892SOL    HW130575   1.710   6.341   3.341
 9892SOL    HW230576   1.597   6.283   3.239
 9893SOL     OW30577   6.086   4.325   5.548
 9893SOL    HW130578   6.166   4.360   5.499
 9893SOL    HW230579   6.084   4.361   5.641
 9894SOL     OW30580   4.578   4.181   5.379
 9894SOL    HW130581   4.540   4.222   5.462
 9894SOL    HW230582   4.573   4.247   5.304
 9895SOL     OW30583   4.807   2.015   6.547
 9895SOL    HW130584   4.844   2.057   6.464
 9895SOL    HW230585   4.760   2.084   6.602
 9896SOL     OW30586   4.226   3.721   6.680
 9896SOL    HW130587   4.193   3.749   6.770
 9896SOL    HW230588   4.252   3.801   6.627
 9897SOL     OW30589   0.365   1.587   2.731
 9897SOL    HW130590   0.382   1.564   2.635
 9897SOL    HW230591   0.344   1.503   2.782
 9898SOL     OW30592   0.677   4.486   0.206
 9898SOL    HW130593   0.721   4.446   0.286
 9898SOL    HW230594   0.745   4.537   0.153
 9899SOL     OW30595   4.316   5.365   2.341
 9899SOL    HW130596   4.340   5.392   2.247
 9899SOL    HW230597   4.233   5.415   2.368
 9900SOL     OW30598   2.192   4.777   4.264
 9900SOL    HW130599   2.231   4.688   4.242
 9900SOL    HW230600   2.266   4.844   4.274
 9901SOL     OW30601   2.568   1.918   5.997
 9901SOL    HW130602   2.663   1.891   6.016
 9901SOL    HW230603   2.509   1.838   6.003
 9902SOL     OW30604   4.160   3.851   6.900
 9902SOL    HW130605   4.105   3.932   6.917
 9902SOL    HW230606   4.192   3.813   6.986
 9903SOL     OW30607   3.172   1.551   1.082
 9903SOL    HW130608   3.263   1.547   1.040
 9903SOL    HW230609   3.175   1.607   1.164
 9904SOL     OW30610   6.999   6.068   2.308
 9904SOL    HW130611   6.944   6.078   2.390
 9904SOL    HW230612   0.039   6.147   2.297
 9905SOL     OW30613   2.135   6.943   6.120
 9905SOL    HW130614   2.154   6.856   6.075
 9905SOL    HW230615   2.204   7.010   6.094
 9906SOL     OW30616   3.311   4.343   6.062
 9906SOL    HW130617   3.233   4.311   6.008
 9906SOL    HW230618   3.344   4.269   6.120
 9907SOL     OW30619   1.002   6.332   2.912
 9907SOL    HW130620   0.928   6.291   2.860
 9907SOL    HW230621   1.010   6.429   2.888
 9908SOL     OW30622   6.169   2.767   5.448
 9908SOL    HW130623   6.227   2.686   5.434
 9908SOL    HW230624   6.076   2.747   5.416
 9909SOL     OW30625   3.031   6.827   3.050
 9909SOL    HW130626   2.954   6.840   2.987
 9909SOL    HW230627   3.060   6.916   3.086
 9910SOL     OW30628   0.896   5.487   0.687
 9910SOL    HW130629   0.988   5.447   0.683
 9910SOL    HW230630   0.830   5.415   0.709
 9911SOL     OW30631   3.384   4.864   2.637
 9911SOL    HW130632   3.284   4.872   2.628
 9911SOL    HW230633   3.414   4.913   2.719
 9912SOL     OW30634   4.943   6.928   0.848
 9912SOL    HW130635   4.951   6.842   0.799
 9912SOL    HW230636   4.870   6.984   0.808
 9913SOL     OW30637   5.189   2.039   3.159
 9913SOL    HW130638   5.131   2.012   3.236
 9913SOL    HW230639   5.140   2.024   3.073
 9914SOL     OW30640   2.303   5.862   4.350
 9914SOL    HW130641   2.292   5.765   4.373
 9914SOL    HW230642   2.324   5.871   4.253
 9915SOL     OW30643   6.162   3.970   4.506
 9915SOL    HW130644   6.090   4.027   4.546
 9915SOL    HW230645   6.249   4.020   4.508
 9916SOL     OW30646   2.651   3.628   0.462
 9916SOL    HW130647   2.736   3.602   0.418
 9916SOL    HW230648   2.672   3.683   0.543
 9917SOL     OW30649   2.201   3.087   4.622
 9917SOL    HW130650   2.163   3.179   4.633
 9917SOL    HW230651   2.257   3.065   4.701
 9918SOL     OW30652   2.383   0.634   4.578
 9918SOL    HW130653   2.475   0.660   4.608
 9918SOL    HW230654   2.346   0.705   4.518
 9919SOL     OW30655   0.547   5.293   1.954
 9919SOL    HW130656   0.592   5.267   1.869
 9919SOL    HW230657   0.458   5.249   1.959
 9920SOL     OW30658   4.050   0.039   2.901
 9920SOL    HW130659   4.149   0.033   2.894
 9920SOL    HW230660   4.011   0.055   2.810
 9921SOL     OW30661   4.573   0.595   2.692
 9921SOL    HW130662   4.569   0.681   2.743
 9921SOL    HW230663   4.480   0.563   2.673
 9922SOL     OW30664   5.437   2.410   2.547
 9922SOL    HW130665   5.372   2.388   2.475
 9922SOL    HW230666   5.390   2.460   2.620
 9923SOL     OW30667   5.941   0.521   6.563
 9923SOL    HW130668   5.919   0.613   6.531
 9923SOL    HW230669   5.864   0.485   6.617
 9924SOL     OW30670   5.221   1.162   4.120
 9924SOL    HW130671   5.225   1.097   4.044
 9924SOL    HW230672   5.178   1.246   4.089
 9925SOL     OW30673   3.723   2.160   4.466
 9925SOL    HW130674   3.790   2.232   4.481
 9925SOL    HW230675   3.739   2.119   4.376
 9926SOL     OW30676   2.184   0.946   5.634
 9926SOL    HW130677   2.267   0.893   5.653
 9926SOL    HW230678   2.110   0.884   5.608
 9927SOL     OW30679   1.184   3.106   2.895
 9927SOL    HW130680   1.261   3.156   2.936
 9927SOL    HW230681   1.177   3.016   2.937
 9928SOL     OW30682   0.260   2.950   2.172
 9928SOL    HW130683   0.278   2.860   2.134
 9928SOL    HW230684   0.166   2.954   2.207
 9929SOL     OW30685   1.261   5.399   5.772
 9929SOL    HW130686   1.228   5.414   5.865
 9929SOL    HW230687   1.283   5.303   5.759
 9930SOL     OW30688   6.495   5.633   6.463
 9930SOL    HW130689   6.473   5.586   6.378
 9930SOL    HW230690   6.446   5.591   6.539
 9931SOL     OW30691   1.967   4.821   6.781
 9931SOL    HW130692   1.935   4.795   6.690
 9931SOL    HW230693   1.962   4.742   6.842
 9932SOL     OW30694   2.403   2.466   1.124
 9932SOL    HW130695   2.389   2.385   1.181
 9932SOL    HW230696   2.491   2.507   1.146
 9933SOL     OW30697   0.799   1.550   3.156
 9933SOL    HW130698   0.736   1.486   3.113
 9933SOL    HW230699   0.873   1.499   3.200
 9934SOL     OW30700   5.293   0.346   6.448
 9934SOL    HW130701   5.334   0.415   6.388
 9934SOL    HW230702   5.356   0.270   6.460
 9935SOL     OW30703   2.673   3.210   0.797
 9935SOL    HW130704   2.603   3.252   0.739
 9935SOL    HW230705   2.748   3.177   0.739
 9936SOL     OW30706   5.175   6.162   6.982
 9936SOL    HW130707   5.083   6.174   6.944
 9936SOL    HW230708   5.241   6.211   6.925
 9937SOL     OW30709   1.842   6.571   4.031
 9937SOL    HW130710   1.790   6.547   4.113
 9937SOL    HW230711   1.886   6.490   3.993
 9938SOL     OW30712   6.756   1.039   3.308
 9938SOL    HW130713   6.832   1.065   3.368
 9938SOL    HW230714   6.787   1.041   3.212
 9939SOL     OW30715   2.554   3.737   1.280
 9939SOL    HW130716   2.593   3.825   1.253
 9939SOL    HW230717   2.516   3.691   1.200
 9940SOL     OW30718   0.193   0.433   3.665
 9940SOL    HW130719   0.162   0.490   3.741
 9940SOL    HW230720   0.254   0.362   3.698
 9941SOL     OW30721   5.670   3.441   0.494
 9941SOL    HW130722   5.688   3.469   0.589
 9941SOL    HW230723   5.610   3.360   0.495
 9942SOL     OW30724   6.269   5.727   2.654
 9942SOL    HW130725   6.314   5.756   2.738
 9942SOL    HW230726   6.321   5.652   2.612
 9943SOL     OW30727   1.559   3.964   5.526
 9943SOL    HW130728   1.542   3.866   5.533
 9943SOL    HW230729   1.611   3.982   5.442
 9944SOL     OW30730   2.425   5.601   6.573
 9944SOL    HW130731   2.428   5.523   6.511
 9944SOL    HW230732   2.379   5.574   6.658
 9945SOL     OW30733   6.626   3.744   6.634
 9945SOL    HW130734   6.694   3.696   6.689
 9945SOL    HW230735   6.534   3.713   6.659
 9946SOL     OW30736   4.969   2.206   1.845
 9946SOL    HW130737   4.908   2.285   1.847
 9946SOL    HW230738   5.002   2.187   1.938
 9947SOL     OW30739   0.889   1.036   3.054
 9947SOL    HW130740   0.878   1.093   2.973
 9947SOL    HW230741   0.986   1.031   3.079
 9948SOL     OW30742   5.748   0.715   5.183
 9948SOL    HW130743   5.668   0.671   5.224
 9948SOL    HW230744   5.732   0.731   5.086
 9949SOL     OW30745   6.964   3.435   2.771
 9949SOL    HW130746   6.965   3.534   2.787
 9949SOL    HW230747   7.009   3.388   2.847
 9950SOL     OW30748   4.458   5.300   5.890
 9950SOL    HW130749   4.499   5.331   5.976
 9950SOL    HW230750   4.531   5.278   5.825
 9951SOL     OW30751   0.191   2.158   2.814
 9951SOL    HW130752   0.183   2.130   2.718
 9951SOL    HW230753   0.242   2.090   2.865
 9952SOL     OW30754   1.193   4.982   1.638
 9952SOL    HW130755   1.234   4.896   1.670
 9952SOL    HW230756   1.265   5.048   1.618
 9953SOL     OW30757   5.992   4.511   4.827
 9953SOL    HW130758   5.985   4.411   4.824
 9953SOL    HW230759   6.017   4.545   4.736
 9954SOL     OW30760   4.181   1.107   1.121
 9954SOL    HW130761   4.190   1.060   1.209
 9954SOL    HW230762   4.227   1.054   1.050
 9955SOL     OW30763   6.035   5.261   1.224
 9955SOL    HW130764   5.963   5.192   1.220
 9955SOL    HW230765   6.054   5.295   1.132
 9956SOL     OW30766   1.422   3.733   3.614
 9956SOL    HW130767   1.522   3.724   3.618
 9956SOL    HW230768   1.380   3.667   3.676
 9957SOL     OW30769   5.084   0.034   0.127
 9957SOL    HW130770   5.041   0.011   0.215
 9957SOL    HW230771   5.097   0.133   0.121
 9958SOL     OW30772   6.054   6.166   6.014
 9958SOL    HW130773   6.107   6.135   6.093
 9958SOL    HW230774   5.968   6.207   6.046
 9959SOL     OW30775   5.956   4.718   0.044
 9959SOL    HW130776   5.989   4.624   0.054
 9959SOL    HW230777   6.018   4.768   7.004
 9960SOL     OW30778   6.822   0.481   6.705
 9960SOL    HW130779   6.822   0.482   6.805
 9960SOL    HW230780   6.879   0.555   6.670
 9961SOL     OW30781   3.345   6.583   0.516
 9961SOL    HW130782   3.276   6.589   0.587
 9961SOL    HW230783   3.432   6.554   0.556
 9962SOL     OW30784   3.197   0.818   1.550
 9962SOL    HW130785   3.116   0.827   1.607
 9962SOL    HW230786   3.261   0.754   1.593
 9963SOL     OW30787   1.023   0.568   6.479
 9963SOL    HW130788   1.060   0.578   6.571
 9963SOL    HW230789   1.097   0.563   6.413
 9964SOL     OW30790   4.857   5.229   4.969
 9964SOL    HW130791   4.758   5.234   4.981
 9964SOL    HW230792   4.882   5.270   4.882
 9965SOL     OW30793   2.649   4.697   4.387
 9965SOL    HW130794   2.556   4.731   4.373
 9965SOL    HW230795   2.647   4.612   4.440
 9966SOL     OW30796   2.448   5.789   2.617
 9966SOL    HW130797   2.480   5.705   2.573
 9966SOL    HW230798   2.373   5.768   2.679
 9967SOL     OW30799   0.528   0.539   2.684
 9967SOL    HW130800   0.440   0.534   2.637
 9967SOL    HW230801   0.514   0.571   2.778
 9968SOL     OW30802   4.961   6.239   6.828
 9968SOL    HW130803   4.987   6.220   6.734
 9968SOL    HW230804   4.878   6.295   6.829
 9969SOL     OW30805   0.202   6.048   3.019
 9969SOL    HW130806   0.232   6.140   2.995
 9969SOL    HW230807   0.265   5.981   2.979
 9970SOL     OW30808   6.773   3.237   1.844
 9970SOL    HW130809   6.690   3.182   1.831
 9970SOL    HW230810   6.779   3.306   1.771
 9971SOL     OW30811   0.234   5.183   5.061
 9971SOL    HW130812   0.139   5.210   5.041
 9971SOL    HW230813   0.249   5.184   5.160
 9972SOL     OW30814   3.095   4.711   6.085
 9972SOL    HW130815   3.017   4.723   6.023
 9972SOL    HW230816   3.166   4.778   6.062
 9973SOL     OW30817   3.217   1.896   3.328
 9973SOL    HW130818   3.253   1.852   3.246
 9973SOL    HW230819   3.213   1.830   3.403
 9974SOL     OW30820   0.693   2.625   3.131
 9974SOL    HW130821   0.725   2.570   3.208
 9974SOL    HW230822   0.711   2.722   3.150
 9975SOL     OW30823   2.204   4.305   6.509
 9975SOL    HW130824   2.133   4.355   6.459
 9975SOL    HW230825   2.162   4.257   6.586
 9976SOL     OW30826   3.755   6.379   5.652
 9976SOL    HW130827   3.659   6.406   5.651
 9976SOL    HW230828   3.770   6.313   5.726
 9977SOL     OW30829   4.441   0.071   5.419
 9977SOL    HW130830   4.523   0.127   5.431
 9977SOL    HW230831   4.359   0.129   5.427
 9978SOL     OW30832   7.007   3.172   6.921
 9978SOL    HW130833   0.047   3.114   6.866
 9978SOL    HW230834   0.019   3.174   7.015
 9979SOL     OW30835   3.626   3.637   4.359
 9979SOL    HW130836   3.554   3.672   4.299
 9979SOL    HW230837   3.584   3.583   4.432
 9980SOL     OW30838   0.377   0.244   0.131
 9980SOL    HW130839   0.444   0.188   0.180
 9980SOL    HW230840   0.414   0.335   0.117
 9981SOL     OW30841   5.923   0.683   6.880
 9981SOL    HW130842   5.957   0.749   6.947
 9981SOL    HW230843   5.975   0.693   6.794
 9982SOL     OW30844   2.676   2.293   4.396
 9982SOL    HW130845   2.746   2.272   4.465
 9982SOL    HW230846   2.588   2.258   4.426
 9983SOL     OW30847   0.451   2.751   2.500
 9983SOL    HW130848   0.522   2.818   2.518
 9983SOL    HW230849   0.415   2.763   2.407
 9984SOL     OW30850   0.688   4.535   0.958
 9984SOL    HW130851   0.682   4.524   0.859
 9984SOL    HW230852   0.635   4.615   0.986
 9985SOL     OW30853   4.666   4.654   0.406
 9985SOL    HW130854   4.760   4.619   0.407
 9985SOL    HW230855   4.662   4.738   0.351
 9986SOL     OW30856   5.542   4.780   0.192
 9986SOL    HW130857   5.536   4.863   0.247
 9986SOL    HW230858   5.450   4.750   0.166
 9987SOL     OW30859   4.753   2.405   1.232
 9987SOL    HW130860   4.815   2.340   1.277
 9987SOL    HW230861   4.658   2.376   1.249
 9988SOL     OW30862   6.038   6.538   3.583
 9988SOL    HW130863   6.062   6.628   3.619
 9988SOL    HW230864   6.045   6.470   3.656
 9989SOL     OW30865   6.570   5.600   2.039
 9989SOL    HW130866   6.587   5.693   2.007
 9989SOL    HW230867   6.493   5.561   1.990
 9990SOL     OW30868   0.562   6.038   3.318
 9990SOL    HW130869   0.484   6.093   3.350
 9990SOL    HW230870   0.538   5.941   3.322
 9991SOL     OW30871   2.054   4.234   2.375
 9991SOL    HW130872   2.002   4.276   2.449
 9991SOL    HW230873   2.041   4.286   2.291
 9992SOL     OW30874   2.540   5.030   0.273
 9992SOL    HW130875   2.535   4.940   0.317
 9992SOL    HW230876   2.635   5.053   0.254
 9993SOL     OW30877   4.096   0.397   5.089
 9993SOL    HW130878   4.047   0.481   5.064
 9993SOL    HW230879   4.105   0.339   5.008
 9994SOL     OW30880   6.014   5.382   4.877
 9994SOL    HW130881   5.947   5.327   4.926
 9994SOL    HW230882   5.999   5.479   4.897
 9995SOL     OW30883   4.438   1.368   6.478
 9995SOL    HW130884   4.420   1.343   6.574
 9995SOL    HW230885   4.535   1.384   6.465
 9996SOL     OW30886   2.851   4.634   0.856
 9996SOL    HW130887   2.877   4.576   0.933
 9996SOL    HW230888   2.920   4.626   0.784
 9997SOL     OW30889   6.448   1.016   2.982
 9997SOL    HW130890   6.510   0.945   2.950
 9997SOL    HW230891   6.483   1.105   2.952
 9998SOL     OW30892   5.371   3.682   2.265
 9998SOL    HW130893   5.387   3.780   2.256
 9998SOL    HW230894   5.333   3.646   2.179
 9999SOL     OW30895   0.578   6.880   4.528
 9999SOL    HW130896   0.527   6.794   4.531
 9999SOL    HW230897   0.601   6.909   4.622
10000SOL     OW30898   4.540   2.428   1.478
10000SOL    HW130899   4.489   2.345   1.496
10000SOL    HW230900   4.507   2.470   1.393
10001SOL     OW30901   3.730   6.360   1.706
10001SOL    HW130902   3.752   6.446   1.659
10001SOL    HW230903   3.635   6.335   1.687
10002SOL     OW30904   2.335   6.923   1.949
10002SOL    HW130905   2.360   6.827   1.964
10002SOL    HW230906   2.305   6.935   1.855
10003SOL     OW30907   1.063   1.097   2.426
10003SOL    HW130908   1.038   1.053   2.340
10003SOL    HW230909   1.155   1.136   2.417
10004SOL     OW30910   6.919   3.802   3.813
10004SOL    HW130911   6.962   3.718   3.845
10004SOL    HW230912   6.883   3.853   3.891
10005SOL     OW30913   2.705   5.606   3.161
10005SOL    HW130914   2.703   5.574   3.066
10005SOL    HW230915   2.724   5.529   3.222
10006SOL     OW30916   5.189   1.708   5.343
10006SOL    HW130917   5.136   1.643   5.289
10006SOL    HW230918   5.189   1.798   5.298
10007SOL     OW30919   1.828   5.343   3.591
10007SOL    HW130920   1.737   5.348   3.550
10007SOL    HW230921   1.823   5.291   3.676
10008SOL     OW30922   4.561   0.968   5.963
10008SOL    HW130923   4.631   1.031   5.928
10008SOL    HW230924   4.498   0.944   5.890
10009SOL     OW30925   0.693   4.744   2.733
10009SOL    HW130926   0.767   4.808   2.714
10009SOL    HW230927   0.726   4.673   2.796
10010SOL     OW30928   1.845   4.325   1.157
10010SOL    HW130929   1.861   4.413   1.113
10010SOL    HW230930   1.898   4.254   1.109
10011SOL     OW30931   3.232   3.040   0.486
10011SOL    HW130932   3.314   3.067   0.536
10011SOL    HW230933   3.186   3.122   0.451
10012SOL     OW30934   5.398   1.985   4.121
10012SOL    HW130935   5.404   2.028   4.212
10012SOL    HW230936   5.405   1.886   4.131
10013SOL     OW30937   0.794   6.418   4.310
10013SOL    HW130938   0.763   6.347   4.372
10013SOL    HW230939   0.722   6.486   4.296
10014SOL     OW30940   1.165   1.069   3.216
10014SOL    HW130941   1.257   1.097   3.244
10014SOL    HW230942   1.131   0.998   3.278
10015SOL     OW30943   3.832   6.909   6.451
10015SOL    HW130944   3.753   6.969   6.465
10015SOL    HW230945   3.874   6.930   6.363
10016SOL     OW30946   2.795   1.181   4.626
10016SOL    HW130947   2.784   1.259   4.687
10016SOL    HW230948   2.825   1.212   4.536
10017SOL     OW30949   3.099   1.703   2.743
10017SOL    HW130950   3.110   1.759   2.661
10017SOL    HW230951   3.169   1.631   2.744
10018SOL     OW30952   0.157   4.350   5.203
10018SOL    HW130953   0.207   4.347   5.116
10018SOL    HW230954   0.165   4.441   5.244
10019SOL     OW30955   6.803   2.341   2.006
10019SOL    HW130956   6.792   2.289   1.922
10019SOL    HW230957   6.719   2.391   2.026
10020SOL     OW30958   6.406   0.820   2.384
10020SOL    HW130959   6.436   0.730   2.353
10020SOL    HW230960   6.306   0.825   2.380
10021SOL     OW30961   0.801   3.201   1.568
10021SOL    HW130962   0.845   3.232   1.652
10021SOL    HW230963   0.870   3.168   1.504
10022SOL     OW30964   1.650   6.484   5.813
10022SOL    HW130965   1.739   6.531   5.815
10022SOL    HW230966   1.664   6.385   5.819
10023SOL     OW30967   0.127   1.643   5.616
10023SOL    HW130968   0.183   1.665   5.695
10023SOL    HW230969   0.047   1.591   5.645
10024SOL     OW30970   2.001   4.663   3.122
10024SOL    HW130971   1.920   4.614   3.092
10024SOL    HW230972   2.078   4.638   3.064
10025SOL     OW30973   0.857   3.266   1.239
10025SOL    HW130974   0.760   3.255   1.217
10025SOL    HW230975   0.870   3.346   1.298
10026SOL     OW30976   5.808   1.187   4.828
10026SOL    HW130977   5.736   1.147   4.885
10026SOL    HW230978   5.855   1.258   4.879
10027SOL     OW30979   3.446   1.559   5.244
10027SOL    HW130980   3.509   1.534   5.171
10027SOL    HW230981   3.490   1.546   5.333
10028SOL     OW30982   4.018   0.034   2.158
10028SOL    HW130983   4.054   0.120   2.195
10028SOL    HW230984   3.931   0.051   2.112
10029SOL     OW30985   0.154   4.405   4.069
10029SOL    HW130986   0.223   4.424   4.139
10029SOL    HW230987   0.085   4.477   4.070
10030SOL     OW30988   2.507   0.052   4.531
10030SOL    HW130989   2.417   0.078   4.567
10030SOL    HW230990   2.566   0.024   4.607
10031SOL     OW30991   2.015   6.094   3.284
10031SOL    HW130992   2.056   6.141   3.362
10031SOL    HW230993   1.922   6.128   3.270
10032SOL     OW30994   3.405   6.048   4.313
10032SOL    HW130995   3.312   6.035   4.278
10032SOL    HW230996   3.465   5.979   4.273
10033SOL     OW30997   3.326   1.139   5.393
10033SOL    HW130998   3.281   1.084   5.464
10033SOL    HW230999   3.256   1.182   5.336
10034SOL     OW31000   2.597   1.427   2.262
10034SOL    HW131001   2.671   1.495   2.262
10034SOL    HW231002   2.616   1.357   2.330
10035SOL     OW31003   6.439   2.789   2.739
10035SOL    HW131004   6.402   2.814   2.650
10035SOL    HW231005   6.523   2.840   2.756
10036SOL     OW31006   1.129   0.759   0.070
10036SOL    HW131007   1.134   0.771   0.170
10036SOL    HW231008   1.205   0.808   0.027
10037SOL     OW31009   5.928   6.785   6.199
10037SOL    HW131010   5.863   6.739   6.259
10037SOL    HW231011   5.998   6.830   6.255
10038SOL     OW31012   5.043   6.187   6.557
10038SOL    HW131013   5.056   6.106   6.500
10038SOL    HW231014   5.120   6.249   6.545
10039SOL     OW31015   0.110   5.673   1.860
10039SOL    HW131016   0.076   5.753   1.810
10039SOL    HW231017   0.168   5.703   1.936
10040SOL     OW31018   2.430   6.785   0.158
10040SOL    HW131019   2.331   6.792   0.147
10040SOL    HW231020   2.456   6.690   0.173
10041SOL     OW31021   5.667   5.396   5.180
10041SOL    HW131022   5.590   5.458   5.162
10041SOL    HW231023   5.701   5.359   5.094
10042SOL     OW31024   6.832   0.760   4.991
10042SOL    HW131025   6.736   0.735   4.999
10042SOL    HW231026   6.848   0.846   5.039
10043SOL     OW31027   0.752   0.735   3.281
10043SOL    HW131028   0.721   0.652   3.329
10043SOL    HW231029   0.798   0.709   3.197
10044SOL     OW31030   2.859   1.913   0.271
10044SOL    HW131031   2.948   1.929   0.314
10044SOL    HW231032   2.817   2.001   0.249
10045SOL     OW31033   4.017   6.690   4.977
10045SOL    HW131034   3.936   6.631   4.985
10045SOL    HW231035   4.029   6.742   5.061
10046SOL     OW31036   6.139   2.260   1.991
10046SOL    HW131037   6.228   2.300   1.965
10046SOL    HW231038   6.077   2.264   1.913
10047SOL     OW31039   0.422   2.690   3.321
10047SOL    HW131040   0.447   2.593   3.322
10047SOL    HW231041   0.490   2.742   3.371
10048SOL     OW31042   3.672   2.614   1.749
10048SOL    HW131043   3.745   2.680   1.763
10048SOL    HW231044   3.701   2.524   1.782
10049SOL     OW31045   2.026   6.320   4.583
10049SOL    HW131046   1.967   6.334   4.504
10049SOL    HW231047   2.105   6.381   4.577
10050SOL     OW31048   5.405   1.127   4.650
10050SOL    HW131049   5.361   1.120   4.560
10050SOL    HW231050   5.454   1.043   4.670
10051SOL     OW31051   6.302   2.115   0.113
10051SOL    HW131052   6.386   2.150   0.154
10051SOL    HW231053   6.229   2.115   0.181
10052SOL     OW31054   1.381   4.538   1.932
10052SOL    HW131055   1.378   4.453   1.879
10052SOL    HW231056   1.323   4.607   1.887
10053SOL     OW31057   2.994   6.637   3.329
10053SOL    HW131058   2.987   6.695   3.410
10053SOL    HW231059   3.054   6.681   3.262
10054SOL     OW31060   4.259   5.694   3.852
10054SOL    HW131061   4.328   5.743   3.799
10054SOL    HW231062   4.258   5.730   3.946
10055SOL     OW31063   6.200   3.102   6.761
10055SOL    HW131064   6.227   3.006   6.764
10055SOL    HW231065   6.279   3.158   6.735
10056SOL     OW31066   6.426   4.896   2.047
10056SOL    HW131067   6.461   4.987   2.071
10056SOL    HW231068   6.465   4.828   2.108
10057SOL     OW31069   2.525   2.020   3.788
10057SOL    HW131070   2.443   2.058   3.831
10057SOL    HW231071   2.540   2.062   3.699
10058SOL     OW31072   0.893   4.626   3.681
10058SOL    HW131073   0.991   4.610   3.671
10058SOL    HW231074   0.871   4.718   3.651
10059SOL     OW31075   5.613   6.859   1.686
10059SOL    HW131076   5.549   6.931   1.659
10059SOL    HW231077   5.604   6.841   1.784
10060SOL     OW31078   2.260   2.635   2.501
10060SOL    HW131079   2.337   2.575   2.480
10060SOL    HW231080   2.247   2.638   2.600
10061SOL     OW31081   6.345   2.213   4.817
10061SOL    HW131082   6.400   2.188   4.737
10061SOL    HW231083   6.390   2.179   4.900
10062SOL     OW31084   6.018   5.718   2.994
10062SOL    HW131085   5.930   5.701   3.039
10062SOL    HW231086   6.001   5.743   2.898
10063SOL     OW31087   0.774   2.433   2.715
10063SOL    HW131088   0.803   2.449   2.809
10063SOL    HW231089   0.750   2.520   2.672
10064SOL     OW31090   5.677   5.901   5.250
10064SOL    HW131091   5.663   5.935   5.157
10064SOL    HW231092   5.716   5.809   5.247
10065SOL     OW31093   0.449   6.537   3.443
10065SOL    HW131094   0.541   6.508   3.470
10065SOL    HW231095   0.436   6.522   3.345
10066SOL     OW31096   0.770   0.288   3.123
10066SOL    HW131097   0.815   0.338   3.197
10066SOL    HW231098   0.738   0.353   3.054
10067SOL     OW31099   4.910   6.893   3.385
10067SOL    HW131100   4.879   6.859   3.296
10067SOL    HW231101   4.882   6.830   3.457
10068SOL     OW31102   4.822   3.727   5.565
10068SOL    HW131103   4.754   3.795   5.539
10068SOL    HW231104   4.912   3.756   5.533
10069SOL     OW31105   5.085   1.111   3.825
10069SOL    HW131106   5.118   1.168   3.749
10069SOL    HW231107   4.990   1.085   3.809
10070SOL     OW31108   1.078   6.895   4.147
10070SOL    HW131109   1.002   6.835   4.171
10070SOL    HW231110   1.140   6.902   4.225
10071SOL     OW31111   5.167   5.147   5.194
10071SOL    HW131112   5.200   5.103   5.110
10071SOL    HW231113   5.241   5.152   5.261
10072SOL     OW31114   1.121   0.098   3.330
10072SOL    HW131115   1.162   0.186   3.355
10072SOL    HW231116   1.081   0.104   3.239
10073SOL     OW31117   0.344   5.165   6.387
10073SOL    HW131118   0.253   5.123   6.385
10073SOL    HW231119   0.375   5.173   6.482
10074SOL     OW31120   2.571   6.888   5.722
10074SOL    HW131121   2.622   6.944   5.657
10074SOL    HW231122   2.632   6.818   5.760
10075SOL     OW31123   1.482   2.371   3.606
10075SOL    HW131124   1.532   2.433   3.667
10075SOL    HW231125   1.521   2.375   3.515
10076SOL     OW31126   5.431   0.197   4.302
10076SOL    HW131127   5.474   0.276   4.260
10076SOL    HW231128   5.479   0.114   4.276
10077SOL     OW31129   2.941   1.057   6.818
10077SOL    HW131130   2.863   1.053   6.755
10077SOL    HW231131   2.941   1.145   6.865
10078SOL     OW31132   5.678   6.033   5.489
10078SOL    HW131133   5.770   6.045   5.527
10078SOL    HW231134   5.685   5.989   5.400
10079SOL     OW31135   6.466   2.772   6.353
10079SOL    HW131136   6.480   2.870   6.364
10079SOL    HW231137   6.510   2.741   6.268
10080SOL     OW31138   1.380   2.280   6.337
10080SOL    HW131139   1.289   2.297   6.299
10080SOL    HW231140   1.423   2.204   6.287
10081SOL     OW31141   0.370   1.002   0.047
10081SOL    HW131142   0.461   1.012   0.007
10081SOL    HW231143   0.303   1.049   7.009
10082SOL     OW31144   6.678   0.728   0.593
10082SOL    HW131145   6.771   0.716   0.557
10082SOL    HW231146   6.668   0.820   0.631
10083SOL     OW31147   5.215   1.308   4.381
10083SOL    HW131148   5.290   1.328   4.443
10083SOL    HW231149   5.202   1.209   4.374
10084SOL     OW31150   2.167   1.027   6.343
10084SOL    HW131151   2.070   1.025   6.366
10084SOL    HW231152   2.184   1.095   6.272
10085SOL     OW31153   0.780   5.532   2.328
10085SOL    HW131154   0.771   5.457   2.263
10085SOL    HW231155   0.856   5.591   2.301
10086SOL     OW31156   6.703   3.775   2.331
10086SOL    HW131157   6.682   3.769   2.234
10086SOL    HW231158   6.622   3.806   2.381
10087SOL     OW31159   1.583   6.935   3.696
10087SOL    HW131160   1.643   6.867   3.738
10087SOL    HW231161   1.577   6.917   3.597
10088SOL     OW31162   6.713   0.413   4.808
10088SOL    HW131163   6.780   0.441   4.878
10088SOL    HW231164   6.638   0.363   4.851
10089SOL     OW31165   1.972   3.022   2.246
10089SOL    HW131166   2.032   2.951   2.283
10089SOL    HW231167   1.998   3.111   2.284
10090SOL     OW31168   0.464   4.228   1.679
10090SOL    HW131169   0.523   4.167   1.733
10090SOL    HW231170   0.448   4.187   1.589
10091SOL     OW31171   0.486   2.329   4.318
10091SOL    HW131172   0.472   2.382   4.234
10091SOL    HW231173   0.571   2.358   4.362
10092SOL     OW31174   1.810   3.090   4.642
10092SOL    HW131175   1.862   3.005   4.649
10092SOL    HW231176   1.804   3.133   4.733
10093SOL     OW31177   6.852   5.345   6.586
10093SOL    HW131178   6.941   5.374   6.551
10093SOL    HW231179   6.864   5.270   6.651
10094SOL     OW31180   1.501   1.394   2.293
10094SOL    HW131181   1.553   1.309   2.301
10094SOL    HW231182   1.526   1.455   2.367
10095SOL     OW31183   0.459   0.968   5.961
10095SOL    HW131184   0.550   0.927   5.968
10095SOL    HW231185   0.451   1.044   6.026
10096SOL     OW31186   0.286   4.705   2.120
10096SOL    HW131187   0.222   4.769   2.163
10096SOL    HW231188   0.258   4.688   2.026
10097SOL     OW31189   1.058   2.178   6.400
10097SOL    HW131190   1.085   2.229   6.482
10097SOL    HW231191   1.084   2.229   6.319
10098SOL     OW31192   3.300   5.167   6.392
10098SOL    HW131193   3.247   5.129   6.467
10098SOL    HW231194   3.256   5.251   6.359
10099SOL     OW31195   6.634   4.300   4.555
10099SOL    HW131196   6.662   4.321   4.649
10099SOL    HW231197   6.701   4.336   4.491
10100SOL     OW31198   5.565   0.622   5.371
10100SOL    HW131199   5.554   0.694   5.440
10100SOL    HW231200   5.570   0.533   5.415
10101SOL     OW31201   6.849   4.586   2.309
10101SOL    HW131202   6.766   4.632   2.342
10101SOL    HW231203   6.930   4.629   2.349
10102SOL     OW31204   3.808   1.167   3.509
10102SOL    HW131205   3.790   1.250   3.562
10102SOL    HW231206   3.760   1.090   3.549
10103SOL     OW31207   2.156   1.862   0.327
10103SOL    HW131208   2.182   1.913   0.409
10103SOL    HW231209   2.170   1.920   0.247
10104SOL     OW31210   1.926   5.883   5.361
10104SOL    HW131211   1.883   5.857   5.448
10104SOL    HW231212   2.014   5.837   5.352
10105SOL     OW31213   2.695   0.248   6.760
10105SOL    HW131214   2.704   0.159   6.804
10105SOL    HW231215   2.604   0.286   6.778
10106SOL     OW31216   5.217   5.921   0.957
10106SOL    HW131217   5.213   5.956   1.050
10106SOL    HW231218   5.239   5.823   0.960
10107SOL     OW31219   5.625   0.749   5.822
10107SOL    HW131220   5.531   0.773   5.846
10107SOL    HW231221   5.688   0.811   5.870
10108SOL     OW31222   5.993   6.135   6.991
10108SOL    HW131223   6.000   6.076   6.911
10108SOL    HW231224   6.009   6.080   0.054
10109SOL     OW31225   4.851   5.029   3.662
10109SOL    HW131226   4.918   5.102   3.680
10109SOL    HW231227   4.760   5.062   3.685
10110SOL     OW31228   3.502   1.411   5.869
10110SOL    HW131229   3.417   1.357   5.866
10110SOL    HW231230   3.520   1.449   5.779
10111SOL     OW31231   0.285   2.519   2.507
10111SOL    HW131232   0.355   2.590   2.492
10111SOL    HW231233   0.308   2.438   2.454
10112SOL     OW31234   4.207   4.605   6.244
10112SOL    HW131235   4.227   4.600   6.146
10112SOL    HW231236   4.259   4.680   6.285
10113SOL     OW31237   3.923   6.258   0.550
10113SOL    HW131238   3.986   6.181   0.547
10113SOL    HW231239   3.939   6.318   0.472
10114SOL     OW31240   4.261   1.916   1.443
10114SOL    HW131241   4.220   1.984   1.505
10114SOL    HW231242   4.188   1.864   1.399
10115SOL     OW31243   1.038   2.142   3.883
10115SOL    HW131244   0.948   2.109   3.914
10115SOL    HW231245   1.035   2.158   3.784
10116SOL     OW31246   0.915   0.774   1.101
10116SOL    HW131247   0.869   0.748   1.016
10116SOL    HW231248   0.849   0.815   1.163
10117SOL     OW31249   5.185   0.475   5.870
10117SOL    HW131250   5.126   0.554   5.885
10117SOL    HW231251   5.156   0.399   5.928
10118SOL     OW31252   6.588   4.964   2.598
10118SOL    HW131253   6.622   5.034   2.661
10118SOL    HW231254   6.490   4.978   2.583
10119SOL     OW31255   2.516   0.377   5.466
10119SOL    HW131256   2.553   0.469   5.448
10119SOL    HW231257   2.418   0.384   5.487
10120SOL     OW31258   5.897   3.012   4.074
10120SOL    HW131259   5.826   2.991   4.007
10120SOL    HW231260   5.957   2.932   4.085
10121SOL     OW31261   5.929   5.156   4.261
10121SOL    HW131262   6.018   5.132   4.300
10121SOL    HW231263   5.905   5.249   4.288
10122SOL     OW31264   5.278   3.506   0.324
10122SOL    HW131265   5.227   3.588   0.299
10122SOL    HW231266   5.346   3.529   0.394
10123SOL     OW31267   0.087   6.874   0.292
10123SOL    HW131268   0.143   6.846   0.370
10123SOL    HW231269   0.041   6.960   0.312
10124SOL     OW31270   2.838   4.759   0.439
10124SOL    HW131271   2.936   4.754   0.420
10124SOL    HW231272   2.823   4.754   0.537
10125SOL     OW31273   1.488   0.295   0.957
10125SOL    HW131274   1.432   0.363   0.910
10125SOL    HW231275   1.490   0.314   1.055
10126SOL     OW31276   5.731   4.961   0.034
10126SOL    HW131277   5.795   4.957   6.976
10126SOL    HW231278   5.743   4.880   0.091
10127SOL     OW31279   3.665   4.320   5.412
10127SOL    HW131280   3.600   4.284   5.344
10127SOL    HW231281   3.729   4.248   5.438
10128SOL     OW31282   0.054   2.112   1.258
10128SOL    HW131283   0.150   2.137   1.253
10128SOL    HW231284   0.042   2.039   1.325
10129SOL     OW31285   5.316   2.733   3.417
10129SOL    HW131286   5.219   2.742   3.440
10129SOL    HW231287   5.335   2.640   3.387
10130SOL     OW31288   6.586   5.408   1.659
10130SOL    HW131289   6.627   5.390   1.749
10130SOL    HW231290   6.624   5.493   1.621
10131SOL     OW31291   6.716   0.766   1.196
10131SOL    HW131292   6.786   0.793   1.130
10131SOL    HW231293   6.758   0.709   1.267
10132SOL     OW31294   2.909   0.358   2.721
10132SOL    HW131295   2.837   0.420   2.692
10132SOL    HW231296   2.874   0.296   2.792
10133SOL     OW31297   5.053   5.157   3.322
10133SOL    HW131298   5.004   5.102   3.390
10133SOL    HW231299   5.113   5.221   3.369
10134SOL     OW31300   0.338   1.736   2.389
10134SOL    HW131301   0.299   1.685   2.312
10134SOL    HW231302   0.367   1.672   2.460
10135SOL     OW31303   3.041   6.030   2.843
10135SOL    HW131304   3.128   5.985   2.862
10135SOL    HW231305   3.056   6.129   2.837
10136SOL     OW31306   6.693   0.346   2.232
10136SOL    HW131307   6.690   0.262   2.286
10136SOL    HW231308   6.629   0.339   2.156
10137SOL     OW31309   5.645   5.126   4.542
10137SOL    HW131310   5.550   5.100   4.559
10137SOL    HW231311   5.654   5.225   4.554
10138SOL     OW31312   5.422   2.334   6.817
10138SOL    HW131313   5.521   2.346   6.809
10138SOL    HW231314   5.398   2.239   6.798
10139SOL     OW31315   3.865   3.175   3.426
10139SOL    HW131316   3.836   3.135   3.513
10139SOL    HW231317   3.785   3.208   3.376
10140SOL     OW31318   0.768   4.750   5.175
10140SOL    HW131319   0.684   4.709   5.140
10140SOL    HW231320   0.747   4.837   5.218
10141SOL     OW31321   1.897   0.245   3.800
10141SOL    HW131322   1.812   0.286   3.834
10141SOL    HW231323   1.885   0.221   3.703
10142SOL     OW31324   4.794   6.000   4.672
10142SOL    HW131325   4.853   5.920   4.683
10142SOL    HW231326   4.731   5.985   4.595
10143SOL     OW31327   5.046   6.296   1.506
10143SOL    HW131328   5.076   6.332   1.595
10143SOL    HW231329   4.993   6.365   1.458
10144SOL     OW31330   2.827   5.174   3.218
10144SOL    HW131331   2.857   5.247   3.279
10144SOL    HW231332   2.729   5.180   3.203
10145SOL     OW31333   2.930   6.251   5.648
10145SOL    HW131334   2.995   6.209   5.712
10145SOL    HW231335   2.893   6.335   5.689
10146SOL     OW31336   5.201   4.855   4.697
10146SOL    HW131337   5.183   4.821   4.604
10146SOL    HW231338   5.206   4.778   4.760
10147SOL     OW31339   4.999   5.316   4.276
10147SOL    HW131340   5.078   5.271   4.318
10147SOL    HW231341   4.962   5.384   4.339
10148SOL     OW31342   5.754   5.051   0.366
10148SOL    HW131343   5.814   4.993   0.311
10148SOL    HW231344   5.660   5.018   0.358
10149SOL     OW31345   4.108   3.643   0.840
10149SOL    HW131346   4.049   3.704   0.789
10149SOL    HW231347   4.178   3.605   0.780
10150SOL     OW31348   5.110   4.273   1.193
10150SOL    HW131349   5.096   4.187   1.242
10150SOL    HW231350   5.071   4.349   1.246
10151SOL     OW31351   1.906   6.601   5.791
10151SOL    HW131352   1.944   6.577   5.702
10151SOL    HW231353   1.964   6.563   5.863
10152SOL     OW31354   0.280   5.378   3.721
10152SOL    HW131355   0.340   5.305   3.690
10152SOL    HW231356   0.314   5.415   3.807
10153SOL     OW31357   5.562   6.594   3.648
10153SOL    HW131358   5.632   6.591   3.576
10153SOL    HW231359   5.475   6.561   3.611
10154SOL     OW31360   6.514   5.545   5.646
10154SOL    HW131361   6.479   5.519   5.556
10154SOL    HW231362   6.551   5.638   5.642
10155SOL     OW31363   3.662   1.637   6.867
10155SOL    HW131364   3.595   1.563   6.859
10155SOL    HW231365   3.734   1.624   6.799
10156SOL     OW31366   5.779   0.204   2.343
10156SOL    HW131367   5.873   0.213   2.375
10156SOL    HW231368   5.763   0.111   2.309
10157SOL     OW31369   5.195   0.940   5.447
10157SOL    HW131370   5.201   1.013   5.515
10157SOL    HW231371   5.115   0.883   5.467
10158SOL     OW31372   4.529   3.992   6.139
10158SOL    HW131373   4.583   4.075   6.151
10158SOL    HW231374   4.442   4.013   6.094
10159SOL     OW31375   1.378   1.054   6.539
10159SOL    HW131376   1.429   1.126   6.493
10159SOL    HW231377   1.322   1.005   6.472
10160SOL     OW31378   0.891   5.899   3.083
10160SOL    HW131379   0.893   5.967   3.156
10160SOL    HW231380   0.947   5.820   3.109
10161SOL     OW31381   2.326   5.823   5.771
10161SOL    HW131382   2.359   5.918   5.776
10161SOL    HW231383   2.240   5.815   5.822
10162SOL     OW31384   3.141   1.971   0.119
10162SOL    HW131385   3.200   2.050   0.105
10162SOL    HW231386   3.124   1.959   0.217
10163SOL     OW31387   6.631   2.696   5.568
10163SOL    HW131388   6.573   2.688   5.487
10163SOL    HW231389   6.662   2.605   5.596
10164SOL     OW31390   0.860   2.684   5.465
10164SOL    HW131391   0.796   2.758   5.445
10164SOL    HW231392   0.817   2.619   5.527
10165SOL     OW31393   6.569   2.059   3.664
10165SOL    HW131394   6.504   2.078   3.591
10165SOL    HW231395   6.593   2.145   3.710
10166SOL     OW31396   1.010   0.649   2.390
10166SOL    HW131397   0.956   0.717   2.439
10166SOL    HW231398   1.099   0.639   2.434
10167SOL     OW31399   4.336   0.365   0.588
10167SOL    HW131400   4.352   0.461   0.610
10167SOL    HW231401   4.381   0.343   0.501
10168SOL     OW31402   6.607   3.961   4.383
10168SOL    HW131403   6.608   4.007   4.472
10168SOL    HW231404   6.573   4.025   4.313
10169SOL     OW31405   6.329   4.110   4.242
10169SOL    HW131406   6.283   4.027   4.212
10169SOL    HW231407   6.283   4.190   4.203
10170SOL     OW31408   1.661   3.871   4.403
10170SOL    HW131409   1.740   3.859   4.343
10170SOL    HW231410   1.684   3.842   4.495
10171SOL     OW31411   6.089   3.021   5.842
10171SOL    HW131412   6.127   2.941   5.888
10171SOL    HW231413   5.990   3.009   5.832
10172SOL     OW31414   4.888   1.409   3.648
10172SOL    HW131415   4.979   1.443   3.624
10172SOL    HW231416   4.873   1.321   3.604
10173SOL     OW31417   2.272   1.707   2.216
10173SOL    HW131418   2.286   1.722   2.118
10173SOL    HW231419   2.321   1.624   2.244
10174SOL     OW31420   6.027   4.739   1.195
10174SOL    HW131421   6.045   4.750   1.098
10174SOL    HW231422   6.110   4.707   1.241
10175SOL     OW31423   6.071   1.882   6.386
10175SOL    HW131424   6.001   1.913   6.323
10175SOL    HW231425   6.160   1.914   6.356
10176SOL     OW31426   2.305   4.001   0.001
10176SOL    HW131427   2.344   4.037   0.086
10176SOL    HW231428   2.377   3.997   6.950
10177SOL     OW31429   1.769   0.239   6.103
10177SOL    HW131430   1.788   0.142   6.096
10177SOL    HW231431   1.847   0.286   6.143
10178SOL     OW31432   5.893   2.631   4.699
10178SOL    HW131433   5.840   2.560   4.746
10178SOL    HW231434   5.885   2.619   4.600
10179SOL     OW31435   1.275   3.136   6.778
10179SOL    HW131436   1.288   3.135   6.679
10179SOL    HW231437   1.348   3.082   6.822
10180SOL     OW31438   2.516   6.746   5.466
10180SOL    HW131439   2.515   6.845   5.480
10180SOL    HW231440   2.422   6.711   5.468
10181SOL     OW31441   5.894   3.090   1.638
10181SOL    HW131442   5.905   3.176   1.588
10181SOL    HW231443   5.804   3.052   1.619
10182SOL     OW31444   5.775   1.408   0.553
10182SOL    HW131445   5.692   1.362   0.520
10182SOL    HW231446   5.774   1.411   0.653
10183SOL     OW31447   1.749   1.975   6.482
10183SOL    HW131448   1.737   2.047   6.551
10183SOL    HW231449   1.683   1.902   6.499
10184SOL     OW31450   4.498   0.437   6.263
10184SOL    HW131451   4.403   0.408   6.252
10184SOL    HW231452   4.560   0.364   6.236
10185SOL     OW31453   4.861   0.785   6.904
10185SOL    HW131454   4.916   0.866   6.923
10185SOL    HW231455   4.818   0.752   6.988
10186SOL     OW31456   4.058   2.120   3.258
10186SOL    HW131457   4.120   2.181   3.207
10186SOL    HW231458   4.077   2.127   3.356
10187SOL     OW31459   1.141   2.265   2.448
10187SOL    HW131460   1.132   2.252   2.349
10187SOL    HW231461   1.054   2.294   2.486
10188SOL     OW31462   3.354   5.010   1.166
10188SOL    HW131463   3.373   5.108   1.180
10188SOL    HW231464   3.302   4.975   1.244
10189SOL     OW31465   1.499   6.556   5.182
10189SOL    HW131466   1.527   6.597   5.269
10189SOL    HW231467   1.551   6.473   5.165
10190SOL     OW31468   5.329   2.335   0.371
10190SOL    HW131469   5.336   2.362   0.275
10190SOL    HW231470   5.289   2.244   0.378
10191SOL     OW31471   6.547   4.335   6.914
10191SOL    HW131472   6.460   4.362   6.955
10191SOL    HW231473   6.538   4.335   6.814
10192SOL     OW31474   3.149   0.909   6.739
10192SOL    HW131475   3.233   0.939   6.784
10192SOL    HW231476   3.080   0.981   6.747
10193SOL     OW31477   4.234   3.795   0.142
10193SOL    HW131478   4.313   3.754   0.096
10193SOL    HW231479   4.262   3.827   0.233
10194SOL     OW31480   5.058   3.769   5.858
10194SOL    HW131481   5.090   3.720   5.776
10194SOL    HW231482   5.104   3.857   5.864
10195SOL     OW31483   6.536   4.394   1.720
10195SOL    HW131484   6.621   4.345   1.700
10195SOL    HW231485   6.513   4.382   1.817
10196SOL     OW31486   0.585   1.602   4.738
10196SOL    HW131487   0.672   1.651   4.737
10196SOL    HW231488   0.512   1.663   4.708
10197SOL     OW31489   5.689   0.916   6.631
10197SOL    HW131490   5.716   0.923   6.535
10197SOL    HW231491   5.607   0.859   6.637
10198SOL     OW31492   4.183   6.963   3.404
10198SOL    HW131493   4.169   6.894   3.475
10198SOL    HW231494   4.240   0.017   3.439
10199SOL     OW31495   0.995   2.178   5.614
10199SOL    HW131496   1.020   2.272   5.636
10199SOL    HW231497   1.076   2.127   5.585
10200SOL     OW31498   5.757   1.863   1.386
10200SOL    HW131499   5.842   1.834   1.429
10200SOL    HW231500   5.771   1.952   1.342
10201SOL     OW31501   0.754   3.771   0.617
10201SOL    HW131502   0.807   3.687   0.611
10201SOL    HW231503   0.781   3.834   0.544
10202SOL     OW31504   4.339   0.850   4.202
10202SOL    HW131505   4.397   0.930   4.193
10202SOL    HW231506   4.307   0.822   4.111
10203SOL     OW31507   6.671   2.633   4.687
10203SOL    HW131508   6.656   2.573   4.765
10203SOL    HW231509   6.751   2.691   4.704
10204SOL     OW31510   5.663   4.987   6.554
10204SOL    HW131511   5.690   5.060   6.491
10204SOL    HW231512   5.745   4.940   6.586
10205SOL     OW31513   1.109   0.441   5.891
10205SOL    HW131514   1.075   0.503   5.962
10205SOL    HW231515   1.194   0.400   5.922
10206SOL     OW31516   1.484   0.841   4.708
10206SOL    HW131517   1.545   0.887   4.644
10206SOL    HW231518   1.392   0.880   4.701
10207SOL     OW31519   2.187   2.169   5.326
10207SOL    HW131520   2.138   2.164   5.413
10207SOL    HW231521   2.233   2.257   5.319
10208SOL     OW31522   6.826   5.736   5.368
10208SOL    HW131523   6.815   5.832   5.393
10208SOL    HW231524   6.738   5.697   5.341
10209SOL     OW31525   0.116   0.111   5.509
10209SOL    HW131526   0.115   0.013   5.488
10209SOL    HW231527   0.033   0.134   5.561
10210SOL     OW31528   2.772   6.909   1.505
10210SOL    HW131529   2.757   6.862   1.592
10210SOL    HW231530   2.817   6.997   1.522
10211SOL     OW31531   5.454   5.847   6.059
10211SOL    HW131532   5.364   5.884   6.082
10211SOL    HW231533   5.512   5.921   6.024
10212SOL     OW31534   0.825   0.380   6.335
10212SOL    HW131535   0.908   0.435   6.328
10212SOL    HW231536   0.821   0.315   6.259
10213SOL     OW31537   6.486   1.974   1.135
10213SOL    HW131538   6.552   1.899   1.131
10213SOL    HW231539   6.463   1.992   1.231
10214SOL     OW31540   0.894   2.190   0.102
10214SOL    HW131541   0.991   2.205   0.086
10214SOL    HW231542   0.855   2.267   0.152
10215SOL     OW31543   2.836   3.406   2.068
10215SOL    HW131544   2.865   3.499   2.090
10215SOL    HW231545   2.736   3.402   2.067
10216SOL     OW31546   0.625   6.571   1.961
10216SOL    HW131547   0.683   6.508   2.013
10216SOL    HW231548   0.599   6.529   1.874
10217SOL     OW31549   3.698   1.324   4.843
10217SOL    HW131550   3.725   1.228   4.851
10217SOL    HW231551   3.780   1.381   4.828
10218SOL     OW31552   1.262   3.071   2.586
10218SOL    HW131553   1.167   3.047   2.566
10218SOL    HW231554   1.312   3.083   2.500
10219SOL     OW31555   6.983   5.927   3.384
10219SOL    HW131556   6.921   5.954   3.311
10219SOL    HW231557   0.051   5.975   3.373
10220SOL     OW31558   3.384   2.833   0.548
10220SOL    HW131559   3.363   2.806   0.642
10220SOL    HW231560   3.326   2.910   0.522
10221SOL     OW31561   0.883   5.365   4.002
10221SOL    HW131562   0.851   5.460   4.012
10221SOL    HW231563   0.968   5.364   3.950
10222SOL     OW31564   3.653   3.397   4.128
10222SOL    HW131565   3.632   3.354   4.216
10222SOL    HW231566   3.706   3.334   4.071
10223SOL     OW31567   1.759   5.907   0.913
10223SOL    HW131568   1.688   5.964   0.954
10223SOL    HW231569   1.834   5.965   0.880
10224SOL     OW31570   6.075   3.931   3.204
10224SOL    HW131571   6.004   4.001   3.193
10224SOL    HW231572   6.165   3.971   3.187
10225SOL     OW31573   2.209   3.721   5.543
10225SOL    HW131574   2.218   3.806   5.491
10225SOL    HW231575   2.298   3.693   5.576
10226SOL     OW31576   4.866   3.272   0.416
10226SOL    HW131577   4.798   3.274   0.343
10226SOL    HW231578   4.901   3.364   0.431
10227SOL     OW31579   5.699   3.047   1.452
10227SOL    HW131580   5.748   3.075   1.369
10227SOL    HW231581   5.619   3.106   1.464
10228SOL     OW31582   5.242   0.790   0.728
10228SOL    HW131583   5.336   0.786   0.693
10228SOL    HW231584   5.197   0.872   0.692
10229SOL     OW31585   6.978   3.051   5.121
10229SOL    HW131586   0.023   3.000   5.065
10229SOL    HW231587   0.008   3.104   5.190
10230SOL     OW31588   6.965   6.255   1.689
10230SOL    HW131589   6.998   6.322   1.755
10230SOL    HW231590   0.019   6.193   1.663
10231SOL     OW31591   0.520   5.180   2.523
10231SOL    HW131592   0.598   5.129   2.486
10231SOL    HW231593   0.442   5.171   2.461
10232SOL     OW31594   4.978   4.461   3.306
10232SOL    HW131595   5.008   4.427   3.217
10232SOL    HW231596   4.892   4.511   3.296
10233SOL     OW31597   2.902   4.209   5.666
10233SOL    HW131598   2.912   4.226   5.568
10233SOL    HW231599   2.991   4.190   5.706
10234SOL     OW31600   0.539   1.312   2.020
10234SOL    HW131601   0.636   1.288   2.023
10234SOL    HW231602   0.486   1.243   2.069
10235SOL     OW31603   1.447   1.122   3.204
10235SOL    HW131604   1.533   1.076   3.225
10235SOL    HW231605   1.429   1.115   3.106
10236SOL     OW31606   1.842   0.044   2.265
10236SOL    HW131607   1.812   0.137   2.286
10236SOL    HW231608   1.895   0.045   2.180
10237SOL     OW31609   0.640   3.854   4.798
10237SOL    HW131610   0.633   3.933   4.859
10237SOL    HW231611   0.727   3.807   4.816
10238SOL     OW31612   2.846   0.132   1.631
10238SOL    HW131613   2.765   0.177   1.594
10238SOL    HW231614   2.923   0.196   1.630
10239SOL     OW31615   0.671   2.032   4.236
10239SOL    HW131616   0.582   2.069   4.263
10239SOL    HW231617   0.698   2.070   4.148
10240SOL     OW31618   1.742   6.213   0.826
10240SOL    HW131619   1.793   6.264   0.895
10240SOL    HW231620   1.650   6.252   0.817
10241SOL     OW31621   4.318   2.823   1.345
10241SOL    HW131622   4.309   2.841   1.443
10241SOL    HW231623   4.228   2.831   1.302
10242SOL     OW31624   0.475   3.101   6.509
10242SOL    HW131625   0.538   3.108   6.587
10242SOL    HW231626   0.491   3.177   6.446
10243SOL     OW31627   2.652   5.961   1.650
10243SOL    HW131628   2.662   5.871   1.693
10243SOL    HW231629   2.647   6.032   1.720
10244SOL     OW31630   2.605   5.074   2.093
10244SOL    HW131631   2.552   5.125   2.024
10244SOL    HW231632   2.615   5.130   2.175
10245SOL     OW31633   4.943   4.239   0.947
10245SOL    HW131634   5.023   4.246   1.008
10245SOL    HW231635   4.864   4.282   0.991
10246SOL     OW31636   3.014   3.172   4.046
10246SOL    HW131637   2.989   3.256   3.998
10246SOL    HW231638   2.995   3.093   3.987
10247SOL     OW31639   0.900   3.154   4.400
10247SOL    HW131640   0.811   3.119   4.371
10247SOL    HW231641   0.905   3.252   4.378
10248SOL     OW31642   0.949   1.250   4.610
10248SOL    HW131643   1.048   1.262   4.596
10248SOL    HW231644   0.900   1.320   4.559
10249SOL     OW31645   2.671   5.411   5.959
10249SOL    HW131646   2.715   5.468   5.889
10249SOL    HW231647   2.618   5.468   6.021
10250SOL     OW31648   3.666   2.281   0.549
10250SOL    HW131649   3.750   2.322   0.586
10250SOL    HW231650   3.591   2.346   0.556
10251SOL     OW31651   1.524   0.319   4.228
10251SOL    HW131652   1.474   0.232   4.221
10251SOL    HW231653   1.499   0.364   4.314
10252SOL     OW31654   5.433   4.625   5.648
10252SOL    HW131655   5.341   4.640   5.611
10252SOL    HW231656   5.426   4.612   5.747
10253SOL     OW31657   3.898   6.207   6.442
10253SOL    HW131658   3.865   6.245   6.529
10253SOL    HW231659   3.956   6.274   6.396
10254SOL     OW31660   6.186   1.874   5.720
10254SOL    HW131661   6.119   1.947   5.714
10254SOL    HW231662   6.158   1.798   5.662
10255SOL     OW31663   4.069   4.388   1.666
10255SOL    HW131664   4.050   4.368   1.570
10255SOL    HW231665   4.000   4.345   1.723
10256SOL     OW31666   3.903   1.169   3.935
10256SOL    HW131667   3.955   1.221   3.868
10256SOL    HW231668   3.809   1.203   3.939
10257SOL     OW31669   4.084   5.858   3.140
10257SOL    HW131670   4.166   5.915   3.149
10257SOL    HW231671   4.012   5.894   3.199
10258SOL     OW31672   2.322   1.446   2.285
10258SOL    HW131673   2.421   1.446   2.276
10258SOL    HW231674   2.283   1.373   2.228
10259SOL     OW31675   1.973   4.421   3.984
10259SOL    HW131676   1.883   4.417   4.027
10259SOL    HW231677   2.043   4.429   4.054
10260SOL     OW31678   0.197   0.485   2.769
10260SOL    HW131679   0.172   0.409   2.829
10260SOL    HW231680   0.272   0.536   2.810
10261SOL     OW31681   0.286   3.831   0.517
10261SOL    HW131682   0.368   3.848   0.462
10261SOL    HW231683   0.293   3.882   0.603
10262SOL     OW31684   4.091   0.964   0.479
10262SOL    HW131685   4.007   0.943   0.429
10262SOL    HW231686   4.169   0.955   0.417
10263SOL     OW31687   5.434   0.525   2.531
10263SOL    HW131688   5.356   0.510   2.592
10263SOL    HW231689   5.510   0.465   2.557
10264SOL     OW31690   6.506   0.284   6.627
10264SOL    HW131691   6.521   0.365   6.570
10264SOL    HW231692   6.593   0.256   6.667
10265SOL     OW31693   1.902   2.154   1.002
10265SOL    HW131694   1.987   2.184   0.959
10265SOL    HW231695   1.923   2.093   1.078
10266SOL     OW31696   2.550   3.435   1.648
10266SOL    HW131697   2.614   3.512   1.651
10266SOL    HW231698   2.485   3.444   1.724
10267SOL     OW31699   5.609   0.252   0.876
10267SOL    HW131700   5.673   0.291   0.809
10267SOL    HW231701   5.598   0.315   0.953
10268SOL     OW31702   3.764   6.286   2.276
10268SOL    HW131703   3.764   6.312   2.179
10268SOL    HW231704   3.711   6.352   2.328
10269SOL     OW31705   2.658   2.088   0.609
10269SOL    HW131706   2.697   2.164   0.557
10269SOL    HW231707   2.680   2.100   0.706
10270SOL     OW31708   3.056   1.005   3.085
10270SOL    HW131709   2.998   0.941   3.035
10270SOL    HW231710   3.033   1.002   3.182
10271SOL     OW31711   1.657   1.670   6.492
10271SOL    HW131712   1.751   1.676   6.528
10271SOL    HW231713   1.593   1.667   6.568
10272SOL     OW31714   6.258   0.186   4.527
10272SOL    HW131715   6.175   0.143   4.492
10272SOL    HW231716   6.337   0.153   4.477
10273SOL     OW31717   2.398   5.280   3.605
10273SOL    HW131718   2.388   5.379   3.590
10273SOL    HW231719   2.340   5.252   3.681
10274SOL     OW31720   1.285   4.849   5.035
10274SOL    HW131721   1.357   4.855   4.966
10274SOL    HW231722   1.242   4.938   5.046
10275SOL     OW31723   6.673   0.360   1.625
10275SOL    HW131724   6.769   0.349   1.650
10275SOL    HW231725   6.629   0.423   1.690
10276SOL     OW31726   3.703   5.738   5.074
10276SOL    HW131727   3.724   5.822   5.023
10276SOL    HW231728   3.646   5.761   5.153
10277SOL     OW31729   0.837   5.749   3.653
10277SOL    HW131730   0.866   5.716   3.743
10277SOL    HW231731   0.755   5.805   3.663
10278SOL     OW31732   6.706   0.246   5.050
10278SOL    HW131733   6.773   0.294   5.106
10278SOL    HW231734   6.751   0.174   4.998
10279SOL     OW31735   1.387   6.260   3.869
10279SOL    HW131736   1.305   6.310   3.897
10279SOL    HW231737   1.450   6.253   3.947
10280SOL     OW31738   6.695   4.845   0.055
10280SOL    HW131739   6.657   4.930   0.017
10280SOL    HW231740   6.628   4.771   0.046
10281SOL     OW31741   5.986   1.175   3.668
10281SOL    HW131742   5.985   1.170   3.568
10281SOL    HW231743   5.912   1.236   3.698
10282SOL     OW31744   4.928   3.314   3.606
10282SOL    HW131745   4.950   3.216   3.612
10282SOL    HW231746   4.893   3.335   3.515
10283SOL     OW31747   1.189   2.881   0.929
10283SOL    HW131748   1.136   2.932   0.862
10283SOL    HW231749   1.287   2.895   0.911
10284SOL     OW31750   6.959   4.070   4.346
10284SOL    HW131751   6.982   4.144   4.410
10284SOL    HW231752   6.963   3.982   4.393
10285SOL     OW31753   5.974   6.748   5.791
10285SOL    HW131754   6.011   6.694   5.868
10285SOL    HW231755   5.880   6.721   5.773
10286SOL     OW31756   2.621   1.792   3.138
10286SOL    HW131757   2.587   1.871   3.189
10286SOL    HW231758   2.544   1.733   3.113
10287SOL     OW31759   1.671   5.859   2.597
10287SOL    HW131760   1.644   5.785   2.658
10287SOL    HW231761   1.752   5.832   2.545
10288SOL     OW31762   3.826   6.240   5.417
10288SOL    HW131763   3.746   6.188   5.385
10288SOL    HW231764   3.807   6.278   5.508
10289SOL     OW31765   3.061   5.732   6.833
10289SOL    HW131766   3.092   5.783   6.913
10289SOL    HW231767   3.015   5.794   6.769
10290SOL     OW31768   3.528   3.169   1.984
10290SOL    HW131769   3.567   3.134   1.898
10290SOL    HW231770   3.463   3.242   1.964
10291SOL     OW31771   2.351   1.688   1.865
10291SOL    HW131772   2.432   1.650   1.909
10291SOL    HW231773   2.377   1.766   1.808
10292SOL     OW31774   6.870   6.923   5.901
10292SOL    HW131775   6.845   6.858   5.973
10292SOL    HW231776   6.791   6.979   5.879
10293SOL     OW31777   1.305   4.475   4.941
10293SOL    HW131778   1.380   4.515   4.888
10293SOL    HW231779   1.330   4.383   4.970
10294SOL     OW31780   3.678   1.001   2.328
10294SOL    HW131781   3.694   0.955   2.240
10294SOL    HW231782   3.580   1.003   2.347
10295SOL     OW31783   1.219   1.516   6.291
10295SOL    HW131784   1.227   1.551   6.384
10295SOL    HW231785   1.283   1.564   6.231
10296SOL     OW31786   6.044   1.282   5.978
10296SOL    HW131787   6.047   1.195   5.928
10296SOL    HW231788   6.064   1.357   5.915
10297SOL     OW31789   3.229   1.197   0.205
10297SOL    HW131790   3.141   1.176   0.246
10297SOL    HW231791   3.219   1.270   0.137
10298SOL     OW31792   0.354   2.684   2.154
10298SOL    HW131793   0.390   2.712   2.065
10298SOL    HW231794   0.362   2.584   2.164
10299SOL     OW31795   4.526   6.863   3.044
10299SOL    HW131796   4.566   6.783   2.999
10299SOL    HW231797   4.458   6.833   3.111
10300SOL     OW31798   1.292   4.124   1.650
10300SOL    HW131799   1.336   4.066   1.719
10300SOL    HW231800   1.333   4.107   1.560
10301SOL     OW31801   3.336   0.521   0.209
10301SOL    HW131802   3.394   0.554   0.284
10301SOL    HW231803   3.393   0.497   0.131
10302SOL     OW31804   2.873   6.256   5.269
10302SOL    HW131805   2.880   6.158   5.286
10302SOL    HW231806   2.910   6.306   5.347
10303SOL     OW31807   0.612   5.132   4.605
10303SOL    HW131808   0.652   5.150   4.695
10303SOL    HW231809   0.662   5.058   4.561
10304SOL     OW31810   5.947   6.503   0.859
10304SOL    HW131811   5.857   6.467   0.836
10304SOL    HW231812   5.982   6.558   0.783
10305SOL     OW31813   3.256   3.996   5.893
10305SOL    HW131814   3.201   3.919   5.924
10305SOL    HW231815   3.345   3.995   5.939
10306SOL     OW31816   3.946   0.899   1.216
10306SOL    HW131817   3.974   0.840   1.141
10306SOL    HW231818   3.854   0.933   1.199
10307SOL     OW31819   1.927   0.463   5.556
10307SOL    HW131820   1.966   0.543   5.603
10307SOL    HW231821   1.873   0.410   5.621
10308SOL     OW31822   2.872   4.861   1.953
10308SOL    HW131823   2.855   4.898   1.861
10308SOL    HW231824   2.859   4.762   1.952
10309SOL     OW31825   0.414   1.069   5.156
10309SOL    HW131826   0.382   0.993   5.099
10309SOL    HW231827   0.465   1.032   5.234
10310SOL     OW31828   2.365   3.933   5.736
10310SOL    HW131829   2.402   3.999   5.672
10310SOL    HW231830   2.411   3.845   5.724
10311SOL     OW31831   5.291   5.056   7.006
10311SOL    HW131832   5.300   5.059   0.086
10311SOL    HW231833   5.239   5.135   6.975
10312SOL     OW31834   3.767   0.060   2.029
10312SOL    HW131835   3.740   0.128   2.097
10312SOL    HW231836   3.721   0.080   1.942
10313SOL     OW31837   5.443   6.449   2.678
10313SOL    HW131838   5.537   6.414   2.682
10313SOL    HW231839   5.387   6.401   2.745
10314SOL     OW31840   0.405   0.042   0.930
10314SOL    HW131841   0.416   0.044   1.030
10314SOL    HW231842   0.317   0.001   0.907
10315SOL     OW31843   5.909   5.225   3.651
10315SOL    HW131844   5.863   5.314   3.653
10315SOL    HW231845   5.970   5.217   3.730
10316SOL     OW31846   0.444   1.767   6.794
10316SOL    HW131847   0.540   1.790   6.807
10316SOL    HW231848   0.422   1.768   6.697
10317SOL     OW31849   3.169   6.208   5.058
10317SOL    HW131850   3.215   6.247   4.978
10317SOL    HW231851   3.070   6.214   5.045
10318SOL     OW31852   6.465   0.183   0.029
10318SOL    HW131853   6.410   0.208   6.969
10318SOL    HW231854   6.406   0.180   0.110
10319SOL     OW31855   0.589   4.212   3.705
10319SOL    HW131856   0.643   4.130   3.724
10319SOL    HW231857   0.496   4.185   3.679
10320SOL     OW31858   0.378   6.775   3.131
10320SOL    HW131859   0.412   6.688   3.167
10320SOL    HW231860   0.448   6.817   3.072
10321SOL     OW31861   5.459   2.921   2.378
10321SOL    HW131862   5.422   2.977   2.304
10321SOL    HW231863   5.487   2.980   2.454
10322SOL     OW31864   4.624   4.528   4.904
10322SOL    HW131865   4.688   4.549   4.978
10322SOL    HW231866   4.531   4.525   4.940
10323SOL     OW31867   0.923   4.179   5.895
10323SOL    HW131868   0.930   4.096   5.950
10323SOL    HW231869   0.896   4.157   5.802
10324SOL     OW31870   3.109   3.073   1.819
10324SOL    HW131871   3.123   3.100   1.915
10324SOL    HW231872   3.077   3.152   1.767
10325SOL     OW31873   6.567   5.834   3.960
10325SOL    HW131874   6.595   5.923   3.923
10325SOL    HW231875   6.497   5.848   4.030
10326SOL     OW31876   5.294   3.806   6.492
10326SOL    HW131877   5.242   3.761   6.564
10326SOL    HW231878   5.241   3.806   6.407
10327SOL     OW31879   2.287   4.628   0.593
10327SOL    HW131880   2.351   4.611   0.668
10327SOL    HW231881   2.336   4.627   0.506
10328SOL     OW31882   5.847   2.140   2.382
10328SOL    HW131883   5.817   2.212   2.445
10328SOL    HW231884   5.768   2.086   2.353
10329SOL     OW31885   3.633   2.094   2.865
10329SOL    HW131886   3.541   2.133   2.868
10329SOL    HW231887   3.679   2.123   2.781
10330SOL     OW31888   5.311   0.656   1.934
10330SOL    HW131889   5.326   0.746   1.974
10330SOL    HW231890   5.222   0.621   1.964
10331SOL     OW31891   6.042   5.880   5.989
10331SOL    HW131892   6.115   5.838   5.936
10331SOL    HW231893   6.042   5.978   5.974
10332SOL     OW31894   1.278   1.252   6.155
10332SOL    HW131895   1.273   1.326   6.222
10332SOL    HW231896   1.256   1.165   6.199
10333SOL     OW31897   1.345   4.049   4.195
10333SOL    HW131898   1.445   4.043   4.198
10333SOL    HW231899   1.311   4.074   4.285
10334SOL     OW31900   3.465   1.601   3.964
10334SOL    HW131901   3.491   1.505   3.974
10334SOL    HW231902   3.530   1.659   4.014
10335SOL     OW31903   0.981   2.294   4.996
10335SOL    HW131904   0.995   2.389   4.967
10335SOL    HW231905   1.066   2.243   4.984
10336SOL     OW31906   5.526   6.831   3.203
10336SOL    HW131907   5.597   6.762   3.213
10336SOL    HW231908   5.438   6.786   3.186
10337SOL     OW31909   6.812   5.659   6.755
10337SOL    HW131910   6.872   5.636   6.832
10337SOL    HW231911   6.840   5.747   6.717
10338SOL     OW31912   1.334   6.621   1.985
10338SOL    HW131913   1.387   6.572   2.055
10338SOL    HW231914   1.237   6.608   2.003
10339SOL     OW31915   5.890   2.556   6.096
10339SOL    HW131916   5.958   2.519   6.034
10339SOL    HW231917   5.831   2.620   6.047
10340SOL     OW31918   2.497   3.188   6.071
10340SOL    HW131919   2.469   3.130   6.147
10340SOL    HW231920   2.562   3.256   6.103
10341SOL     OW31921   2.057   3.450   3.254
10341SOL    HW131922   1.987   3.522   3.255
10341SOL    HW231923   2.090   3.435   3.347
10342SOL     OW31924   0.207   1.080   3.656
10342SOL    HW131925   0.140   1.128   3.599
10342SOL    HW231926   0.227   0.991   3.616
10343SOL     OW31927   3.519   5.711   1.949
10343SOL    HW131928   3.559   5.668   2.030
10343SOL    HW231929   3.422   5.728   1.964
10344SOL     OW31930   4.797   6.195   6.439
10344SOL    HW131931   4.730   6.255   6.483
10344SOL    HW231932   4.882   6.194   6.493
10345SOL     OW31933   1.812   3.447   4.271
10345SOL    HW131934   1.793   3.530   4.218
10345SOL    HW231935   1.807   3.367   4.211
10346SOL     OW31936   0.024   6.074   6.980
10346SOL    HW131937   0.053   6.163   7.015
10346SOL    HW231938   6.968   6.039   0.016
10347SOL     OW31939   5.050   1.818   4.720
10347SOL    HW131940   5.100   1.883   4.663
10347SOL    HW231941   4.952   1.824   4.699
10348SOL     OW31942   6.436   4.533   0.743
10348SOL    HW131943   6.494   4.611   0.765
10348SOL    HW231944   6.491   4.449   0.745
10349SOL     OW31945   1.081   0.054   6.060
10349SOL    HW131946   1.087   0.089   5.966
10349SOL    HW231947   1.001   7.015   6.069
10350SOL     OW31948   2.716   0.207   6.202
10350SOL    HW131949   2.811   0.176   6.204
10350SOL    HW231950   2.674   0.193   6.292
10351SOL     OW31951   4.151   5.567   6.325
10351SOL    HW131952   4.095   5.626   6.384
10351SOL    HW231953   4.101   5.546   6.241
10352SOL     OW31954   3.663   4.319   6.397
10352SOL    HW131955   3.684   4.259   6.320
10352SOL    HW231956   3.647   4.263   6.479
10353SOL     OW31957   0.945   3.013   4.680
10353SOL    HW131958   1.044   3.013   4.667
10353SOL    HW231959   0.916   3.102   4.716
10354SOL     OW31960   5.272   1.891   1.656
10354SOL    HW131961   5.181   1.932   1.665
10354SOL    HW231962   5.312   1.919   1.568
10355SOL     OW31963   1.104   5.125   3.075
10355SOL    HW131964   1.065   5.216   3.090
10355SOL    HW231965   1.098   5.102   2.978
10356SOL     OW31966   0.406   2.538   4.569
10356SOL    HW131967   0.392   2.542   4.668
10356SOL    HW231968   0.375   2.624   4.528
10357SOL     OW31969   2.780   2.167   0.218
10357SOL    HW131970   2.738   2.182   0.128
10357SOL    HW231971   2.709   2.169   0.288
10358SOL     OW31972   6.886   1.852   2.067
10358SOL    HW131973   6.840   1.906   2.137
10358SOL    HW231974   6.979   1.885   2.054
10359SOL     OW31975   0.574   1.531   1.236
10359SOL    HW131976   0.658   1.569   1.273
10359SOL    HW231977   0.497   1.556   1.294
10360SOL     OW31978   6.888   5.608   2.996
10360SOL    HW131979   6.980   5.608   2.957
10360SOL    HW231980   6.835   5.532   2.957
10361SOL     OW31981   1.738   5.050   1.432
10361SOL    HW131982   1.704   5.140   1.459
10361SOL    HW231983   1.707   5.028   1.340
10362SOL     OW31984   1.713   5.105   4.560
10362SOL    HW131985   1.719   5.095   4.461
10362SOL    HW231986   1.628   5.065   4.593
10363SOL     OW31987   5.894   6.863   3.502
10363SOL    HW131988   5.948   6.823   3.428
10363SOL    HW231989   5.891   6.963   3.491
10364SOL     OW31990   1.541   4.626   1.419
10364SOL    HW131991   1.602   4.686   1.471
10364SOL    HW231992   1.460   4.605   1.473
10365SOL     OW31993   4.790   6.087   0.078
10365SOL    HW131994   4.831   6.068   7.009
10365SOL    HW231995   4.690   6.082   0.071
10366SOL     OW31996   3.729   6.723   3.641
10366SOL    HW131997   3.749   6.817   3.671
10366SOL    HW231998   3.796   6.661   3.681
10367SOL     OW31999   6.619   1.707   3.495
10367SOL    HW132000   6.528   1.678   3.525
10367SOL    HW232001   6.673   1.627   3.470
10368SOL     OW32002   2.922   0.108   1.228
10368SOL    HW132003   2.911   0.009   1.233
10368SOL    HW232004   2.831   0.151   1.226
10369SOL     OW32005   4.278   3.036   6.863
10369SOL    HW132006   4.290   2.942   6.831
10369SOL    HW232007   4.185   3.067   6.842
10370SOL     OW32008   4.337   0.495   5.199
10370SOL    HW132009   4.289   0.437   5.133
10370SOL    HW232010   4.431   0.462   5.210
10371SOL     OW32011   5.216   6.380   5.555
10371SOL    HW132012   5.298   6.427   5.523
10371SOL    HW232013   5.195   6.410   5.648
10372SOL     OW32014   1.068   0.568   3.388
10372SOL    HW132015   1.060   0.659   3.345
10372SOL    HW232016   1.094   0.501   3.318
10373SOL     OW32017   1.811   5.391   5.345
10373SOL    HW132018   1.809   5.486   5.315
10373SOL    HW232019   1.845   5.386   5.438
10374SOL     OW32020   2.882   1.897   4.822
10374SOL    HW132021   2.905   1.839   4.744
10374SOL    HW232022   2.903   1.992   4.800
10375SOL     OW32023   0.177   2.247   0.570
10375SOL    HW132024   0.175   2.198   0.657
10375SOL    HW232025   0.113   2.205   0.506
10376SOL     OW32026   6.279   0.794   3.488
10376SOL    HW132027   6.314   0.876   3.443
10376SOL    HW232028   6.355   0.731   3.505
10377SOL     OW32029   0.606   6.621   4.258
10377SOL    HW132030   0.525   6.659   4.303
10377SOL    HW232031   0.578   6.560   4.185
10378SOL     OW32032   6.458   6.869   5.707
10378SOL    HW132033   6.528   6.815   5.661
10378SOL    HW232034   6.368   6.835   5.682
10379SOL     OW32035   4.978   1.560   4.749
10379SOL    HW132036   5.023   1.501   4.683
10379SOL    HW232037   4.996   1.656   4.726
10380SOL     OW32038   4.502   1.020   3.847
10380SOL    HW132039   4.567   1.008   3.923
10380SOL    HW232040   4.539   0.976   3.765
10381SOL     OW32041   4.625   5.612   4.856
10381SOL    HW132042   4.648   5.546   4.784
10381SOL    HW232043   4.544   5.664   4.829
10382SOL     OW32044   1.639   6.012   0.508
10382SOL    HW132045   1.600   6.104   0.506
10382SOL    HW232046   1.717   6.010   0.571
10383SOL     OW32047   5.353   2.401   0.120
10383SOL    HW132048   5.312   2.492   0.112
10383SOL    HW232049   5.403   2.380   0.036
10384SOL     OW32050   6.193   1.075   6.614
10384SOL    HW132051   6.281   1.030   6.631
10384SOL    HW232052   6.194   1.166   6.655
10385SOL     OW32053   6.147   2.510   0.047
10385SOL    HW132054   6.216   2.465   7.009
10385SOL    HW232055   6.163   2.609   0.046
10386SOL     OW32056   6.677   1.641   6.444
10386SOL    HW132057   6.676   1.561   6.385
10386SOL    HW232058   6.616   1.711   6.406
10387SOL     OW32059   1.813   3.951   2.367
10387SOL    HW132060   1.902   3.906   2.373
10387SOL    HW232061   1.817   4.025   2.299
10388SOL     OW32062   1.274   5.142   2.315
10388SOL    HW132063   1.271   5.174   2.410
10388SOL    HW232064   1.258   5.044   2.313
10389SOL     OW32065   0.497   5.613   3.696
10389SOL    HW132066   0.423   5.585   3.758
10389SOL    HW232067   0.501   5.713   3.693
10390SOL     OW32068   2.050   3.863   3.400
10390SOL    HW132069   2.096   3.850   3.488
10390SOL    HW232070   2.114   3.905   3.335
10391SOL     OW32071   3.267   6.374   4.867
10391SOL    HW132072   3.213   6.372   4.783
10391SOL    HW232073   3.362   6.396   4.845
10392SOL     OW32074   6.490   5.485   6.941
10392SOL    HW132075   6.525   5.414   7.003
10392SOL    HW232076   6.530   5.473   6.850
10393SOL     OW32077   0.641   1.344   4.187
10393SOL    HW132078   0.560   1.347   4.128
10393SOL    HW232079   0.654   1.251   4.221
10394SOL     OW32080   3.175   6.569   0.718
10394SOL    HW132081   3.155   6.619   0.803
10394SOL    HW232082   3.094   6.517   0.691
10395SOL     OW32083   1.546   1.425   4.967
10395SOL    HW132084   1.483   1.360   5.009
10395SOL    HW232085   1.638   1.413   5.005
10396SOL     OW32086   0.633   6.932   4.796
10396SOL    HW132087   0.619   0.007   4.826
10396SOL    HW232088   0.700   6.888   4.855
10397SOL     OW32089   4.316   1.936   2.883
10397SOL    HW132090   4.269   2.020   2.855
10397SOL    HW232091   4.317   1.872   2.807
10398SOL     OW32092   6.575   3.801   2.050
10398SOL    HW132093   6.644   3.780   1.981
10398SOL    HW232094   6.486   3.816   2.006
10399SOL     OW32095   6.036   2.393   5.921
10399SOL    HW132096   6.131   2.414   5.895
10399SOL    HW232097   5.977   2.402   5.840
10400SOL     OW32098   1.182   5.064   2.035
10400SOL    HW132099   1.187   5.091   2.132
10400SOL    HW232100   1.252   4.995   2.016
10401SOL     OW32101   0.510   5.076   0.816
10401SOL    HW132102   0.411   5.070   0.805
10401SOL    HW232103   0.535   5.056   0.911
10402SOL     OW32104   1.044   1.886   4.834
10402SOL    HW132105   1.130   1.936   4.826
10402SOL    HW232106   0.985   1.931   4.902
10403SOL     OW32107   4.961   0.926   2.124
10403SOL    HW132108   5.042   0.884   2.167
10403SOL    HW232109   4.907   0.854   2.080
10404SOL     OW32110   0.159   0.348   4.126
10404SOL    HW132111   0.110   0.294   4.195
10404SOL    HW232112   0.183   0.290   4.049
10405SOL     OW32113   2.187   6.723   6.700
10405SOL    HW132114   2.254   6.649   6.695
10405SOL    HW232115   2.139   6.730   6.612
10406SOL     OW32116   2.094   5.954   5.572
10406SOL    HW132117   2.116   5.983   5.665
10406SOL    HW232118   2.171   5.901   5.535
10407SOL     OW32119   1.854   1.312   6.272
10407SOL    HW132120   1.788   1.326   6.198
10407SOL    HW232121   1.939   1.277   6.234
10408SOL     OW32122   4.282   6.048   3.171
10408SOL    HW132123   4.335   6.039   3.086
10408SOL    HW232124   4.241   6.138   3.175
10409SOL     OW32125   6.899   4.523   2.852
10409SOL    HW132126   6.914   4.526   2.754
10409SOL    HW232127   6.893   4.427   2.882
10410SOL     OW32128   5.666   6.427   0.864
10410SOL    HW132129   5.640   6.334   0.837
10410SOL    HW232130   5.632   6.492   0.796
10411SOL     OW32131   1.273   4.955   2.518
10411SOL    HW132132   1.327   4.902   2.583
10411SOL    HW232133   1.236   5.036   2.563
10412SOL     OW32134   6.858   2.522   6.219
10412SOL    HW132135   6.956   2.504   6.213
10412SOL    HW232136   6.838   2.575   6.301
10413SOL     OW32137   0.451   2.031   5.592
10413SOL    HW132138   0.544   2.055   5.621
10413SOL    HW232139   0.392   2.025   5.673
10414SOL     OW32140   5.877   6.316   5.238
10414SOL    HW132141   5.778   6.326   5.226
10414SOL    HW232142   5.905   6.360   5.324
10415SOL     OW32143   0.112   5.628   2.917
10415SOL    HW132144   0.178   5.554   2.903
10415SOL    HW232145   0.161   5.711   2.946
10416SOL     OW32146   4.984   0.115   0.389
10416SOL    HW132147   4.991   0.128   0.488
10416SOL    HW232148   4.948   0.198   0.347
10417SOL     OW32149   4.283   4.825   4.152
10417SOL    HW132150   4.215   4.845   4.222
10417SOL    HW232151   4.356   4.894   4.156
10418SOL     OW32152   5.930   4.024   6.888
10418SOL    HW132153   6.017   4.065   6.863
10418SOL    HW232154   5.860   4.050   6.822
10419SOL     OW32155   1.874   0.226   4.297
10419SOL    HW132156   1.808   0.278   4.242
10419SOL    HW232157   1.883   0.269   4.387
10420SOL     OW32158   5.820   3.636   4.755
10420SOL    HW132159   5.778   3.569   4.694
10420SOL    HW232160   5.853   3.589   4.837
10421SOL     OW32161   1.478   4.615   3.965
10421SOL    HW132162   1.411   4.687   3.948
10421SOL    HW232163   1.441   4.527   3.935
10422SOL     OW32164   5.830   3.136   5.801
10422SOL    HW132165   5.832   3.217   5.860
10422SOL    HW232166   5.742   3.131   5.755
10423SOL     OW32167   2.816   5.400   3.362
10423SOL    HW132168   2.887   5.460   3.399
10423SOL    HW232169   2.754   5.372   3.436
10424SOL     OW32170   4.203   1.125   1.969
10424SOL    HW132171   4.169   1.133   1.875
10424SOL    HW232172   4.127   1.112   2.031
10425SOL     OW32173   1.661   3.752   0.251
10425SOL    HW132174   1.702   3.755   0.342
10425SOL    HW232175   1.651   3.656   0.222
10426SOL     OW32176   6.425   2.140   6.692
10426SOL    HW132177   6.421   2.175   6.599
10426SOL    HW232178   6.505   2.178   6.738
10427SOL     OW32179   5.698   0.849   3.629
10427SOL    HW132180   5.680   0.941   3.594
10427SOL    HW232181   5.636   0.784   3.586
10428SOL     OW32182   1.472   6.573   4.699
10428SOL    HW132183   1.551   6.552   4.756
10428SOL    HW232184   1.390   6.532   4.740
10429SOL     OW32185   2.223   4.363   1.668
10429SOL    HW132186   2.308   4.339   1.715
10429SOL    HW232187   2.199   4.291   1.603
10430SOL     OW32188   3.777   0.237   4.591
10430SOL    HW132189   3.805   0.236   4.687
10430SOL    HW232190   3.767   0.143   4.558
10431SOL     OW32191   4.188   1.883   4.249
10431SOL    HW132192   4.159   1.918   4.338
10431SOL    HW232193   4.190   1.783   4.252
10432SOL     OW32194   1.213   5.104   0.447
10432SOL    HW132195   1.135   5.110   0.510
10432SOL    HW232196   1.190   5.042   0.372
10433SOL     OW32197   3.830   6.636   3.984
10433SOL    HW132198   3.881   6.712   4.022
10433SOL    HW232199   3.797   6.577   4.058
10434SOL     OW32200   3.918   1.073   6.828
10434SOL    HW132201   3.899   1.048   6.733
10434SOL    HW232202   4.012   1.048   6.851
10435SOL     OW32203   2.238   1.499   1.402
10435SOL    HW132204   2.238   1.585   1.454
10435SOL    HW232205   2.178   1.508   1.323
10436SOL     OW32206   1.111   3.610   4.627
10436SOL    HW132207   1.093   3.512   4.624
10436SOL    HW232208   1.182   3.628   4.696
10437SOL     OW32209   7.015   6.165   4.626
10437SOL    HW132210   0.088   6.134   4.643
10437SOL    HW232211   6.953   6.123   4.692
10438SOL     OW32212   6.978   5.693   6.526
10438SOL    HW132213   6.905   5.728   6.468
10438SOL    HW232214   6.939   5.639   6.601
10439SOL     OW32215   6.283   5.617   4.625
10439SOL    HW132216   6.335   5.556   4.686
10439SOL    HW232217   6.335   5.701   4.611
10440SOL     OW32218   6.065   2.924   1.144
10440SOL    HW132219   6.090   2.873   1.062
10440SOL    HW232220   6.006   2.867   1.202
10441SOL     OW32221   4.140   2.111   0.192
10441SOL    HW132222   4.178   2.180   0.254
10441SOL    HW232223   4.214   2.051   0.160
10442SOL     OW32224   2.899   1.137   5.164
10442SOL    HW132225   2.901   1.040   5.139
10442SOL    HW232226   2.840   1.187   5.100
10443SOL     OW32227   0.470   0.526   0.137
10443SOL    HW132228   0.402   0.594   0.110
10443SOL    HW232229   0.482   0.528   0.236
10444SOL     OW32230   4.517   4.937   3.772
10444SOL    HW132231   4.480   5.016   3.821
10444SOL    HW232232   4.534   4.863   3.838
10445SOL     OW32233   1.077   3.494   3.786
10445SOL    HW132234   1.169   3.511   3.820
10445SOL    HW232235   1.079   3.483   3.687
10446SOL     OW32236   2.364   5.065   4.750
10446SOL    HW132237   2.276   5.017   4.748
10446SOL    HW232238   2.371   5.124   4.670
10447SOL     OW32239   1.030   1.862   2.463
10447SOL    HW132240   1.045   1.825   2.555
10447SOL    HW232241   1.081   1.948   2.452
10448SOL     OW32242   1.257   5.992   2.326
10448SOL    HW132243   1.252   5.896   2.298
10448SOL    HW232244   1.177   6.041   2.291
10449SOL     OW32245   3.837   4.940   4.375
10449SOL    HW132246   3.903   4.880   4.422
10449SOL    HW232247   3.817   5.019   4.433
10450SOL     OW32248   0.794   2.121   3.971
10450SOL    HW132249   0.807   2.041   3.913
10450SOL    HW232250   0.706   2.164   3.949
10451SOL     OW32251   3.250   2.120   3.959
10451SOL    HW132252   3.261   2.025   3.987
10451SOL    HW232253   3.248   2.126   3.860
10452SOL     OW32254   6.890   2.846   4.707
10452SOL    HW132255   6.977   2.879   4.669
10452SOL    HW232256   6.814   2.883   4.655
10453SOL     OW32257   4.049   5.602   4.361
10453SOL    HW132258   4.139   5.561   4.347
10453SOL    HW232259   4.007   5.561   4.442
10454SOL     OW32260   6.394   0.900   6.669
10454SOL    HW132261   6.342   0.846   6.736
10454SOL    HW232262   6.482   0.856   6.652
10455SOL     OW32263   0.599   6.217   2.588
10455SOL    HW132264   0.612   6.172   2.500
10455SOL    HW232265   0.585   6.315   2.574
10456SOL     OW32266   1.454   5.492   6.033
10456SOL    HW132267   1.491   5.534   6.116
10456SOL    HW232268   1.527   5.448   5.982
10457SOL     OW32269   4.144   1.598   0.242
10457SOL    HW132270   4.193   1.555   0.318
10457SOL    HW232271   4.107   1.528   0.182
10458SOL     OW32272   1.526   6.306   6.983
10458SOL    HW132273   1.601   6.352   6.936
10458SOL    HW232274   1.467   6.261   6.916
10459SOL     OW32275   6.096   5.912   1.031
10459SOL    HW132276   6.034   5.990   1.022
10459SOL    HW232277   6.162   5.913   0.956
10460SOL     OW32278   6.029   0.866   0.024
10460SOL    HW132279   6.125   0.888   0.005
10460SOL    HW232280   5.978   0.951   0.038
10461SOL     OW32281   0.060   4.089   6.220
10461SOL    HW132282   0.042   4.154   6.146
10461SOL    HW232283   7.002   4.086   6.282
10462SOL     OW32284   3.136   3.551   6.411
10462SOL    HW132285   3.182   3.628   6.456
10462SOL    HW232286   3.204   3.493   6.366
10463SOL     OW32287   4.752   2.771   6.430
10463SOL    HW132288   4.735   2.867   6.409
10463SOL    HW232289   4.842   2.762   6.473
10464SOL     OW32290   6.426   4.384   1.973
10464SOL    HW132291   6.423   4.419   2.067
10464SOL    HW232292   6.367   4.303   1.966
10465SOL     OW32293   5.659   4.244   1.675
10465SOL    HW132294   5.748   4.287   1.683
10465SOL    HW232295   5.667   4.145   1.691
10466SOL     OW32296   5.910   3.505   5.690
10466SOL    HW132297   5.885   3.574   5.621
10466SOL    HW232298   5.854   3.518   5.771
10467SOL     OW32299   0.066   2.885   6.803
10467SOL    HW132300   0.030   2.793   6.822
10467SOL    HW232301   0.145   2.878   6.742
10468SOL     OW32302   1.646   4.228   3.995
10468SOL    HW132303   1.591   4.275   3.926
10468SOL    HW232304   1.616   4.256   4.086
10469SOL     OW32305   0.835   1.903   3.820
10469SOL    HW132306   0.900   1.833   3.847
10469SOL    HW232307   0.745   1.863   3.808
10470SOL     OW32308   2.199   4.034   1.997
10470SOL    HW132309   2.217   4.127   2.029
10470SOL    HW232310   2.242   4.021   1.908
10471SOL     OW32311   2.597   5.151   6.792
10471SOL    HW132312   2.557   5.131   6.703
10471SOL    HW232313   2.536   5.118   6.865
10472SOL     OW32314   4.012   5.492   6.101
10472SOL    HW132315   3.925   5.520   6.060
10472SOL    HW232316   4.030   5.396   6.080
10473SOL     OW32317   6.260   4.984   6.957
10473SOL    HW132318   6.170   4.982   6.913
10473SOL    HW232319   6.281   5.077   6.987
10474SOL     OW32320   6.447   6.683   5.144
10474SOL    HW132321   6.365   6.731   5.176
10474SOL    HW232322   6.515   6.750   5.113
10475SOL     OW32323   0.565   4.986   1.421
10475SOL    HW132324   0.508   5.055   1.464
10475SOL    HW232325   0.587   4.915   1.488
10476SOL     OW32326   5.118   6.562   1.175
10476SOL    HW132327   5.211   6.524   1.171
10476SOL    HW232328   5.079   6.562   1.083
10477SOL     OW32329   6.948   5.494   3.929
10477SOL    HW132330   7.014   5.568   3.921
10477SOL    HW232331   6.985   5.412   3.885
10478SOL     OW32332   0.271   0.751   6.386
10478SOL    HW132333   0.359   0.713   6.416
10478SOL    HW232334   0.201   0.680   6.390
10479SOL     OW32335   0.550   3.381   1.713
10479SOL    HW132336   0.599   3.350   1.794
10479SOL    HW232337   0.616   3.409   1.643
10480SOL     OW32338   2.489   0.938   3.184
10480SOL    HW132339   2.540   0.951   3.268
10480SOL    HW232340   2.392   0.956   3.200
10481SOL     OW32341   6.820   1.581   1.452
10481SOL    HW132342   6.790   1.495   1.493
10481SOL    HW232343   6.847   1.564   1.357
10482SOL     OW32344   5.425   3.228   4.332
10482SOL    HW132345   5.327   3.223   4.311
10482SOL    HW232346   5.471   3.148   4.293
10483SOL     OW32347   5.804   0.114   6.959
10483SOL    HW132348   5.840   0.139   6.869
10483SOL    HW232349   5.732   0.045   6.948
10484SOL     OW32350   6.732   0.653   1.830
10484SOL    HW132351   6.763   0.654   1.925
10484SOL    HW232352   6.800   0.608   1.773
10485SOL     OW32353   5.600   3.216   4.950
10485SOL    HW132354   5.661   3.190   4.876
10485SOL    HW232355   5.508   3.233   4.913
10486SOL     OW32356   5.183   2.365   2.835
10486SOL    HW132357   5.135   2.393   2.751
10486SOL    HW232358   5.219   2.273   2.823
10487SOL     OW32359   4.293   6.892   2.372
10487SOL    HW132360   4.336   6.827   2.309
10487SOL    HW232361   4.222   6.845   2.424
10488SOL     OW32362   3.779   3.841   6.832
10488SOL    HW132363   3.803   3.878   6.922
10488SOL    HW232364   3.847   3.871   6.765
10489SOL     OW32365   1.881   5.261   5.104
10489SOL    HW132366   1.830   5.255   5.190
10489SOL    HW232367   1.918   5.353   5.094
10490SOL     OW32368   6.194   0.372   4.153
10490SOL    HW132369   6.123   0.422   4.104
10490SOL    HW232370   6.207   0.282   4.112
10491SOL     OW32371   0.327   4.776   5.143
10491SOL    HW132372   0.278   4.714   5.205
10491SOL    HW232373   0.336   4.865   5.187
10492SOL     OW32374   4.071   4.631   5.719
10492SOL    HW132375   4.040   4.683   5.639
10492SOL    HW232376   4.031   4.539   5.716
10493SOL     OW32377   3.675   1.334   0.989
10493SOL    HW132378   3.763   1.295   1.015
10493SOL    HW232379   3.684   1.382   0.902
10494SOL     OW32380   5.420   1.798   5.946
10494SOL    HW132381   5.328   1.837   5.952
10494SOL    HW232382   5.487   1.870   5.964
10495SOL     OW32383   1.651   6.808   6.737
10495SOL    HW132384   1.685   6.836   6.827
10495SOL    HW232385   1.642   6.889   6.678
10496SOL     OW32386   6.306   0.398   5.427
10496SOL    HW132387   6.404   0.403   5.449
10496SOL    HW232388   6.279   0.480   5.377
10497SOL     OW32389   1.356   1.805   6.712
10497SOL    HW132390   1.360   1.878   6.644
10497SOL    HW232391   1.446   1.793   6.754
10498SOL     OW32392   2.883   4.575   6.177
10498SOL    HW132393   2.973   4.612   6.199
10498SOL    HW232394   2.851   4.614   6.090
10499SOL     OW32395   3.078   5.680   3.213
10499SOL    HW132396   3.036   5.655   3.126
10499SOL    HW232397   3.126   5.767   3.204
10500SOL     OW32398   2.355   2.205   6.544
10500SOL    HW132399   2.359   2.268   6.466
10500SOL    HW232400   2.311   2.251   6.621
10501SOL     OW32401   0.995   3.390   3.166
10501SOL    HW132402   0.978   3.462   3.233
10501SOL    HW232403   1.094   3.379   3.153
10502SOL     OW32404   3.034   5.454   4.997
10502SOL    HW132405   2.989   5.379   5.045
10502SOL    HW232406   3.132   5.435   4.988
10503SOL     OW32407   2.884   3.077   5.502
10503SOL    HW132408   2.808   3.116   5.451
10503SOL    HW232409   2.962   3.062   5.441
10504SOL     OW32410   2.002   3.357   1.533
10504SOL    HW132411   2.018   3.448   1.495
10504SOL    HW232412   1.904   3.335   1.525
10505SOL     OW32413   0.157   6.894   0.909
10505SOL    HW132414   0.157   6.954   0.829
10505SOL    HW232415   0.193   6.804   0.884
10506SOL     OW32416   0.430   3.804   5.120
10506SOL    HW132417   0.387   3.880   5.072
10506SOL    HW232418   0.360   3.753   5.171
10507SOL     OW32419   1.889   0.434   3.344
10507SOL    HW132420   1.980   0.436   3.386
10507SOL    HW232421   1.876   0.517   3.289
10508SOL     OW32422   5.505   3.643   2.494
10508SOL    HW132423   5.440   3.656   2.419
10508SOL    HW232424   5.459   3.597   2.570
10509SOL     OW32425   2.273   0.763   5.919
10509SOL    HW132426   2.308   0.696   5.985
10509SOL    HW232427   2.277   0.855   5.959
10510SOL     OW32428   5.757   6.809   6.714
10510SOL    HW132429   5.814   6.727   6.720
10510SOL    HW232430   5.768   6.851   6.624
10511SOL     OW32431   0.476   2.101   0.580
10511SOL    HW132432   0.462   2.172   0.511
10511SOL    HW232433   0.391   2.049   0.592
10512SOL     OW32434   2.625   0.210   6.467
10512SOL    HW132435   2.664   0.174   6.551
10512SOL    HW232436   2.642   0.309   6.462
10513SOL     OW32437   0.250   2.240   0.158
10513SOL    HW132438   0.309   2.187   0.097
10513SOL    HW232439   0.219   2.323   0.111
10514SOL     OW32440   0.146   3.028   1.662
10514SOL    HW132441   0.075   3.004   1.728
10514SOL    HW232442   0.195   3.109   1.694
10515SOL     OW32443   6.354   3.119   4.325
10515SOL    HW132444   6.396   3.207   4.348
10515SOL    HW232445   6.381   3.051   4.394
10516SOL     OW32446   2.638   6.864   0.665
10516SOL    HW132447   2.726   6.881   0.708
10516SOL    HW232448   2.580   6.945   0.674
10517SOL     OW32449   0.037   2.331   2.977
10517SOL    HW132450   0.089   2.416   2.967
10517SOL    HW232451   0.078   2.260   2.920
10518SOL     OW32452   0.535   6.503   2.542
10518SOL    HW132453   0.555   6.517   2.445
10518SOL    HW232454   0.602   6.553   2.597
10519SOL     OW32455   3.607   3.638   5.564
10519SOL    HW132456   3.663   3.644   5.647
10519SOL    HW232457   3.521   3.686   5.579
10520SOL     OW32458   3.201   4.728   6.587
10520SOL    HW132459   3.109   4.766   6.574
10520SOL    HW232460   3.223   4.727   6.685
10521SOL     OW32461   6.046   5.180   2.087
10521SOL    HW132462   5.999   5.269   2.083
10521SOL    HW232463   6.025   5.128   2.005
10522SOL     OW32464   6.582   6.950   2.270
10522SOL    HW132465   6.589   6.952   2.170
10522SOL    HW232466   6.490   6.978   2.297
10523SOL     OW32467   6.904   5.704   5.703
10523SOL    HW132468   6.968   5.727   5.630
10523SOL    HW232469   6.908   5.774   5.774
10524SOL     OW32470   4.545   0.283   4.292
10524SOL    HW132471   4.644   0.292   4.291
10524SOL    HW232472   4.508   0.320   4.377
10525SOL     OW32473   2.907   6.183   4.826
10525SOL    HW132474   2.902   6.266   4.770
10525SOL    HW232475   2.968   6.117   4.783
10526SOL     OW32476   5.394   0.034   2.242
10526SOL    HW132477   5.390   0.119   2.190
10526SOL    HW232478   5.303   0.015   2.281
10527SOL     OW32479   1.558   2.834   4.538
10527SOL    HW132480   1.491   2.824   4.464
10527SOL    HW232481   1.650   2.836   4.500
10528SOL     OW32482   6.034   5.047   5.592
10528SOL    HW132483   6.108   5.096   5.546
10528SOL    HW232484   6.041   5.062   5.691
10529SOL     OW32485   0.226   6.006   4.666
10529SOL    HW132486   0.230   5.914   4.626
10529SOL    HW232487   0.282   6.068   4.612
10530SOL     OW32488   2.149   1.400   5.575
10530SOL    HW132489   2.223   1.355   5.525
10530SOL    HW232490   2.074   1.419   5.513
10531SOL     OW32491   1.364   2.117   5.319
10531SOL    HW132492   1.418   2.037   5.292
10531SOL    HW232493   1.425   2.197   5.325
10532SOL     OW32494   3.022   3.187   5.074
10532SOL    HW132495   3.074   3.148   4.998
10532SOL    HW232496   3.024   3.123   5.151
10533SOL     OW32497   2.720   1.030   6.567
10533SOL    HW132498   2.671   0.950   6.601
10533SOL    HW232499   2.696   1.045   6.471
10534SOL     OW32500   5.501   5.658   1.193
10534SOL    HW132501   5.491   5.712   1.277
10534SOL    HW232502   5.582   5.600   1.201
10535SOL     OW32503   0.034   1.250   1.834
10535SOL    HW132504   6.977   1.286   1.886
10535SOL    HW232505   0.117   1.254   1.890
10536SOL     OW32506   5.654   5.597   3.410
10536SOL    HW132507   5.751   5.575   3.400
10536SOL    HW232508   5.641   5.696   3.400
10537SOL     OW32509   6.834   5.504   0.891
10537SOL    HW132510   6.752   5.512   0.834
10537SOL    HW232511   6.912   5.546   0.844
10538SOL     OW32512   4.149   4.287   6.965
10538SOL    HW132513   4.066   4.264   7.016
10538SOL    HW232514   4.208   4.206   6.959
10539SOL     OW32515   1.124   3.281   5.114
10539SOL    HW132516   1.190   3.286   5.039
10539SOL    HW232517   1.169   3.245   5.195
10540SOL     OW32518   3.082   0.459   0.554
10540SOL    HW132519   3.149   0.529   0.578
10540SOL    HW232520   3.025   0.492   0.479
10541SOL     OW32521   4.277   2.284   0.636
10541SOL    HW132522   4.313   2.375   0.616
10541SOL    HW232523   4.298   2.260   0.731
10542SOL     OW32524   1.193   2.310   0.260
10542SOL    HW132525   1.226   2.361   0.181
10542SOL    HW232526   1.251   2.230   0.275
10543SOL     OW32527   3.198   0.557   5.000
10543SOL    HW132528   3.250   0.546   5.085
10543SOL    HW232529   3.139   0.478   4.987
10544SOL     OW32530   6.642   2.500   1.560
10544SOL    HW132531   6.575   2.436   1.521
10544SOL    HW232532   6.727   2.451   1.580
10545SOL     OW32533   4.722   1.081   2.693
10545SOL    HW132534   4.641   1.127   2.657
10545SOL    HW232535   4.794   1.148   2.710
10546SOL     OW32536   4.123   1.424   5.389
10546SOL    HW132537   4.153   1.511   5.350
10546SOL    HW232538   4.028   1.433   5.421
10547SOL     OW32539   4.436   6.897   1.677
10547SOL    HW132540   4.374   6.974   1.691
10547SOL    HW232541   4.393   6.813   1.713
10548SOL     OW32542   4.021   4.791   5.202
10548SOL    HW132543   3.994   4.732   5.278
10548SOL    HW232544   3.945   4.801   5.139
10549SOL     OW32545   1.236   1.719   1.806
10549SOL    HW132546   1.318   1.752   1.852
10549SOL    HW232547   1.218   1.625   1.834
10550SOL     OW32548   5.137   6.637   4.502
10550SOL    HW132549   5.041   6.661   4.487
10550SOL    HW232550   5.147   6.538   4.502
10551SOL     OW32551   1.253   2.644   6.237
10551SOL    HW132552   1.205   2.626   6.152
10551SOL    HW232553   1.348   2.612   6.230
10552SOL     OW32554   3.045   2.114   4.748
10552SOL    HW132555   3.079   2.178   4.818
10552SOL    HW232556   3.094   2.027   4.756
10553SOL     OW32557   3.047   5.210   5.516
10553SOL    HW132558   3.137   5.222   5.559
10553SOL    HW232559   2.998   5.297   5.518
10554SOL     OW32560   6.396   3.995   6.095
10554SOL    HW132561   6.389   3.908   6.047
10554SOL    HW232562   6.490   4.029   6.090
10555SOL     OW32563   3.379   2.702   1.035
10555SOL    HW132564   3.393   2.756   1.118
10555SOL    HW232565   3.354   2.608   1.059
10556SOL     OW32566   1.352   3.557   3.814
10556SOL    HW132567   1.361   3.621   3.890
10556SOL    HW232568   1.424   3.488   3.820
10557SOL     OW32569   5.448   1.326   3.396
10557SOL    HW132570   5.510   1.404   3.382
10557SOL    HW232571   5.486   1.245   3.352
10558SOL     OW32572   5.174   5.670   4.862
10558SOL    HW132573   5.224   5.724   4.794
10558SOL    HW232574   5.078   5.698   4.863
10559SOL     OW32575   4.673   2.530   1.019
10559SOL    HW132576   4.725   2.477   1.086
10559SOL    HW232577   4.676   2.483   0.931
10560SOL     OW32578   0.141   2.874   4.351
10560SOL    HW132579   0.135   2.866   4.451
10560SOL    HW232580   0.102   2.792   4.309
10561SOL     OW32581   2.753   4.125   6.200
10561SOL    HW132582   2.749   4.206   6.141
10561SOL    HW232583   2.734   4.044   6.146
10562SOL     OW32584   3.069   1.461   0.404
10562SOL    HW132585   3.011   1.488   0.481
10562SOL    HW232586   3.012   1.433   0.327
10563SOL     OW32587   1.610   2.211   3.098
10563SOL    HW132588   1.698   2.216   3.145
10563SOL    HW232589   1.613   2.142   3.026
10564SOL     OW32590   7.015   2.238   2.184
10564SOL    HW132591   0.008   2.322   2.235
10564SOL    HW232592   6.968   2.258   2.098
10565SOL     OW32593   5.512   1.327   4.863
10565SOL    HW132594   5.544   1.421   4.853
10565SOL    HW232595   5.526   1.278   4.777
10566SOL     OW32596   4.301   5.480   0.038
10566SOL    HW132597   4.218   5.516   7.016
10566SOL    HW232598   4.278   5.404   0.099
10567SOL     OW32599   1.927   5.362   3.947
10567SOL    HW132600   1.885   5.276   3.919
10567SOL    HW232601   1.954   5.415   3.867
10568SOL     OW32602   3.489   1.839   2.813
10568SOL    HW132603   3.583   1.811   2.832
10568SOL    HW232604   3.484   1.938   2.804
10569SOL     OW32605   6.080   3.110   3.397
10569SOL    HW132606   6.130   3.137   3.314
10569SOL    HW232607   5.984   3.095   3.374
10570SOL     OW32608   1.181   4.086   1.215
10570SOL    HW132609   1.246   4.012   1.197
10570SOL    HW232610   1.171   4.099   1.313
10571SOL     OW32611   6.377   6.650   4.773
10571SOL    HW132612   6.328   6.578   4.823
10571SOL    HW232613   6.348   6.740   4.807
10572SOL     OW32614   6.776   3.247   1.462
10572SOL    HW132615   6.740   3.155   1.474
10572SOL    HW232616   6.857   3.259   1.520
10573SOL     OW32617   6.396   4.423   5.977
10573SOL    HW132618   6.319   4.372   5.939
10573SOL    HW232619   6.379   4.440   6.074
10574SOL     OW32620   0.217   2.131   3.526
10574SOL    HW132621   0.303   2.110   3.573
10574SOL    HW232622   0.236   2.149   3.430
10575SOL     OW32623   1.225   6.634   5.967
10575SOL    HW132624   1.226   6.693   6.047
10575SOL    HW232625   1.206   6.688   5.885
10576SOL     OW32626   1.176   5.446   3.283
10576SOL    HW132627   1.137   5.518   3.340
10576SOL    HW232628   1.259   5.480   3.238
10577SOL     OW32629   0.514   2.610   5.595
10577SOL    HW132630   0.612   2.625   5.605
10577SOL    HW232631   0.496   2.511   5.592
10578SOL     OW32632   5.642   0.931   5.328
10578SOL    HW132633   5.689   0.843   5.342
10578SOL    HW232634   5.686   1.001   5.384
10579SOL     OW32635   5.117   0.033   1.004
10579SOL    HW132636   5.050   6.992   0.961
10579SOL    HW232637   5.069   0.106   1.053
10580SOL     OW32638   6.912   6.026   0.241
10580SOL    HW132639   6.968   6.109   0.241
10580SOL    HW232640   6.819   6.049   0.269
10581SOL     OW32641   4.820   2.123   4.074
10581SOL    HW132642   4.793   2.086   4.162
10581SOL    HW232643   4.770   2.076   4.001
10582SOL     OW32644   3.384   4.811   0.157
10582SOL    HW132645   3.436   4.893   0.132
10582SOL    HW232646   3.438   4.730   0.137
10583SOL     OW32647   4.616   1.138   1.733
10583SOL    HW132648   4.713   1.115   1.735
10583SOL    HW232649   4.601   1.227   1.774
10584SOL     OW32650   6.143   0.190   1.343
10584SOL    HW132651   6.191   0.274   1.369
10584SOL    HW232652   6.122   0.192   1.245
10585SOL     OW32653   2.501   4.734   6.547
10585SOL    HW132654   2.462   4.824   6.526
10585SOL    HW232655   2.564   4.707   6.474
10586SOL     OW32656   5.141   1.522   0.883
10586SOL    HW132657   5.102   1.614   0.880
10586SOL    HW232658   5.068   1.454   0.874
10587SOL     OW32659   6.067   2.965   0.029
10587SOL    HW132660   6.012   2.947   0.110
10587SOL    HW232661   6.108   3.056   0.037
10588SOL     OW32662   1.555   5.172   3.247
10588SOL    HW132663   1.535   5.254   3.194
10588SOL    HW232664   1.618   5.114   3.196
10589SOL     OW32665   5.728   1.482   3.933
10589SOL    HW132666   5.788   1.482   4.013
10589SOL    HW232667   5.669   1.563   3.936
10590SOL     OW32668   1.477   0.495   4.459
10590SOL    HW132669   1.444   0.583   4.426
10590SOL    HW232670   1.417   0.462   4.533
10591SOL     OW32671   1.992   2.516   0.961
10591SOL    HW132672   1.988   2.616   0.959
10591SOL    HW232673   1.904   2.479   0.991
10592SOL     OW32674   6.457   1.399   6.631
10592SOL    HW132675   6.505   1.313   6.648
10592SOL    HW232676   6.518   1.476   6.649
10593SOL     OW32677   0.978   5.136   1.680
10593SOL    HW132678   1.071   5.098   1.673
10593SOL    HW232679   0.964   5.172   1.772
10594SOL     OW32680   0.840   1.441   4.437
10594SOL    HW132681   0.896   1.464   4.357
10594SOL    HW232682   0.745   1.467   4.419
10595SOL     OW32683   2.657   5.669   4.864
10595SOL    HW132684   2.607   5.690   4.780
10595SOL    HW232685   2.600   5.691   4.944
10596SOL     OW32686   3.169   0.978   2.027
10596SOL    HW132687   3.217   0.968   1.939
10596SOL    HW232688   3.224   1.035   2.088
10597SOL     OW32689   1.613   1.017   3.686
10597SOL    HW132690   1.595   0.965   3.769
10597SOL    HW232691   1.557   0.981   3.611
10598SOL     OW32692   1.884   1.078   0.293
10598SOL    HW132693   1.914   1.136   0.218
10598SOL    HW232694   1.813   1.125   0.345
10599SOL     OW32695   4.898   0.512   6.854
10599SOL    HW132696   4.880   0.608   6.834
10599SOL    HW232697   4.903   0.460   6.769
10600SOL     OW32698   1.481   2.399   5.448
10600SOL    HW132699   1.540   2.439   5.378
10600SOL    HW232700   1.404   2.460   5.466
10601SOL     OW32701   3.315   6.053   5.468
10601SOL    HW132702   3.328   6.039   5.369
10601SOL    HW232703   3.225   6.020   5.495
10602SOL     OW32704   4.684   1.038   1.361
10602SOL    HW132705   4.714   1.112   1.421
10602SOL    HW232706   4.629   1.075   1.286
10603SOL     OW32707   0.846   5.394   4.817
10603SOL    HW132708   0.807   5.485   4.827
10603SOL    HW232709   0.843   5.367   4.720
10604SOL     OW32710   7.002   3.904   5.604
10604SOL    HW132711   6.981   3.865   5.693
10604SOL    HW232712   6.942   3.982   5.586
10605SOL     OW32713   1.869   5.291   6.331
10605SOL    HW132714   1.802   5.216   6.323
10605SOL    HW232715   1.861   5.350   6.251
10606SOL     OW32716   0.265   1.226   2.469
10606SOL    HW132717   0.360   1.198   2.452
10606SOL    HW232718   0.217   1.154   2.517
10607SOL     OW32719   5.885   4.828   6.618
10607SOL    HW132720   5.971   4.856   6.574
10607SOL    HW232721   5.897   4.740   6.663
10608SOL     OW32722   5.554   0.437   2.950
10608SOL    HW132723   5.619   0.377   2.997
10608SOL    HW232724   5.589   0.531   2.950
10609SOL     OW32725   3.628   6.628   2.669
10609SOL    HW132726   3.530   6.623   2.653
10609SOL    HW232727   3.659   6.723   2.663
10610SOL     OW32728   1.963   4.387   4.415
10610SOL    HW132729   1.996   4.309   4.469
10610SOL    HW232730   2.015   4.469   4.439
10611SOL     OW32731   4.811   2.359   6.257
10611SOL    HW132732   4.758   2.406   6.329
10611SOL    HW232733   4.784   2.263   6.254
10612SOL     OW32734   1.676   0.016   1.253
10612SOL    HW132735   1.701   0.096   1.199
10612SOL    HW232736   1.630   6.969   1.194
10613SOL     OW32737   0.362   6.716   6.573
10613SOL    HW132738   0.351   6.689   6.669
10613SOL    HW232739   0.408   6.804   6.568
10614SOL     OW32740   6.600   0.626   3.397
10614SOL    HW132741   6.531   0.582   3.340
10614SOL    HW232742   6.559   0.657   3.482
10615SOL     OW32743   6.810   6.236   5.361
10615SOL    HW132744   6.735   6.261   5.300
10615SOL    HW232745   6.879   6.308   5.361
10616SOL     OW32746   2.484   5.863   1.087
10616SOL    HW132747   2.513   5.841   1.180
10616SOL    HW232748   2.394   5.908   1.089
10617SOL     OW32749   0.200   1.610   6.823
10617SOL    HW132750   0.285   1.633   6.870
10617SOL    HW232751   0.165   1.691   6.775
10618SOL     OW32752   6.233   3.770   1.094
10618SOL    HW132753   6.251   3.672   1.094
10618SOL    HW232754   6.240   3.805   1.188
10619SOL     OW32755   0.998   4.021   3.039
10619SOL    HW132756   0.901   4.005   3.055
10619SOL    HW232757   1.043   3.935   3.016
10620SOL     OW32758   1.206   5.358   3.936
10620SOL    HW132759   1.289   5.412   3.951
10620SOL    HW232760   1.167   5.380   3.847
10621SOL     OW32761   3.274   6.336   0.835
10621SOL    HW132762   3.184   6.294   0.828
10621SOL    HW232763   3.271   6.427   0.793
10622SOL     OW32764   4.406   1.866   0.701
10622SOL    HW132765   4.370   1.785   0.749
10622SOL    HW232766   4.434   1.840   0.608
10623SOL     OW32767   6.526   0.927   4.404
10623SOL    HW132768   6.530   0.990   4.482
10623SOL    HW232769   6.455   0.956   4.341
10624SOL     OW32770   3.411   1.152   4.335
10624SOL    HW132771   3.494   1.189   4.378
10624SOL    HW232772   3.406   1.184   4.240
10625SOL     OW32773   0.803   2.821   0.367
10625SOL    HW132774   0.897   2.799   0.393
10625SOL    HW232775   0.751   2.851   0.447
10626SOL     OW32776   5.953   1.814   2.254
10626SOL    HW132777   5.863   1.781   2.223
10626SOL    HW232778   5.989   1.879   2.188
10627SOL     OW32779   5.903   5.892   4.522
10627SOL    HW132780   5.951   5.832   4.586
10627SOL    HW232781   5.921   5.988   4.546
10628SOL     OW32782   0.002   5.484   5.512
10628SOL    HW132783   6.935   5.458   5.553
10628SOL    HW232784   7.011   5.487   5.412
10629SOL     OW32785   2.349   4.637   6.794
10629SOL    HW132786   2.333   4.733   6.774
10629SOL    HW232787   2.399   4.595   6.718
10630SOL     OW32788   6.376   0.962   2.018
10630SOL    HW132789   6.404   1.005   2.104
10630SOL    HW232790   6.303   0.896   2.037
10631SOL     OW32791   1.239   6.655   4.963
10631SOL    HW132792   1.177   6.718   4.917
10631SOL    HW232793   1.185   6.589   5.016
10632SOL     OW32794   7.015   3.108   6.196
10632SOL    HW132795   0.026   3.090   6.103
10632SOL    HW232796   0.009   3.026   6.253
10633SOL     OW32797   0.535   5.159   0.395
10633SOL    HW132798   0.444   5.160   0.438
10633SOL    HW232799   0.574   5.067   0.401
10634SOL     OW32800   3.599   6.492   2.385
10634SOL    HW132801   3.573   6.549   2.462
10634SOL    HW232802   3.544   6.517   2.305
10635SOL     OW32803   1.375   1.133   1.552
10635SOL    HW132804   1.308   1.143   1.479
10635SOL    HW232805   1.418   1.221   1.571
10636SOL     OW32806   5.445   1.659   0.981
10636SOL    HW132807   5.536   1.618   0.987
10636SOL    HW232808   5.390   1.628   1.059
10637SOL     OW32809   2.758   4.405   5.835
10637SOL    HW132810   2.809   4.487   5.807
10637SOL    HW232811   2.801   4.324   5.794
10638SOL     OW32812   6.544   6.864   6.110
10638SOL    HW132813   6.548   6.929   6.186
10638SOL    HW232814   6.449   6.837   6.095
10639SOL     OW32815   3.330   2.085   4.841
10639SOL    HW132816   3.309   2.033   4.924
10639SOL    HW232817   3.278   2.171   4.842
10640SOL     OW32818   4.318   6.289   1.144
10640SOL    HW132819   4.273   6.363   1.193
10640SOL    HW232820   4.412   6.315   1.123
10641SOL     OW32821   3.525   0.740   6.535
10641SOL    HW132822   3.605   0.685   6.510
10641SOL    HW232823   3.443   0.683   6.530
10642SOL     OW32824   7.012   4.714   0.381
10642SOL    HW132825   0.004   4.757   0.470
10642SOL    HW232826   6.993   4.616   0.393
10643SOL     OW32827   4.235   3.239   5.278
10643SOL    HW132828   4.299   3.314   5.298
10643SOL    HW232829   4.282   3.152   5.286
10644SOL     OW32830   3.803   1.187   5.157
10644SOL    HW132831   3.705   1.194   5.180
10644SOL    HW232832   3.818   1.224   5.065
10645SOL     OW32833   2.541   6.922   4.773
10645SOL    HW132834   2.455   6.941   4.820
10645SOL    HW232835   2.525   6.855   4.701
10646SOL     OW32836   0.671   4.595   6.725
10646SOL    HW132837   0.586   4.543   6.723
10646SOL    HW232838   0.748   4.533   6.709
10647SOL     OW32839   0.345   6.053   0.920
10647SOL    HW132840   0.357   6.044   1.019
10647SOL    HW232841   0.360   5.964   0.877
10648SOL     OW32842   4.826   5.251   6.539
10648SOL    HW132843   4.783   5.223   6.625
10648SOL    HW232844   4.856   5.169   6.490
10649SOL     OW32845   0.217   3.679   5.994
10649SOL    HW132846   0.225   3.752   5.925
10649SOL    HW232847   0.183   3.718   6.080
10650SOL     OW32848   3.126   0.795   5.347
10650SOL    HW132849   3.085   0.814   5.258
10650SOL    HW232850   3.097   0.865   5.412
10651SOL     OW32851   2.597   0.587   5.027
10651SOL    HW132852   2.692   0.569   5.052
10651SOL    HW232853   2.557   0.652   5.092
10652SOL     OW32854   4.020   1.647   0.571
10652SOL    HW132855   4.090   1.612   0.633
10652SOL    HW232856   3.998   1.577   0.503
10653SOL     OW32857   6.238   3.867   4.133
10653SOL    HW132858   6.280   3.841   4.046
10653SOL    HW232859   6.279   3.815   4.207
10654SOL     OW32860   4.819   0.769   1.641
10654SOL    HW132861   4.781   0.702   1.704
10654SOL    HW232862   4.816   0.732   1.548
10655SOL     OW32863   2.422   5.441   1.511
10655SOL    HW132864   2.372   5.356   1.494
10655SOL    HW232865   2.358   5.513   1.537
10656SOL     OW32866   6.056   2.608   6.583
10656SOL    HW132867   6.046   2.670   6.661
10656SOL    HW232868   5.994   2.637   6.510
10657SOL     OW32869   6.607   0.351   1.359
10657SOL    HW132870   6.694   0.383   1.322
10657SOL    HW232871   6.613   0.346   1.458
10658SOL     OW32872   0.287   6.498   4.276
10658SOL    HW132873   0.189   6.506   4.258
10658SOL    HW232874   0.329   6.588   4.269
10659SOL     OW32875   4.917   1.154   1.035
10659SOL    HW132876   4.885   1.109   1.118
10659SOL    HW232877   4.978   1.092   0.985
10660SOL     OW32878   5.534   5.494   6.366
10660SOL    HW132879   5.495   5.561   6.429
10660SOL    HW232880   5.549   5.536   6.277
10661SOL     OW32881   0.321   0.877   2.402
10661SOL    HW132882   0.370   0.873   2.489
10661SOL    HW232883   0.381   0.847   2.328
10662SOL     OW32884   6.604   1.838   6.861
10662SOL    HW132885   6.582   1.746   6.827
10662SOL    HW232886   6.522   1.894   6.862
10663SOL     OW32887   0.738   2.079   0.469
10663SOL    HW132888   0.649   2.096   0.511
10663SOL    HW232889   0.776   2.165   0.435
10664SOL     OW32890   2.116   5.092   6.405
10664SOL    HW132891   2.155   5.151   6.476
10664SOL    HW232892   2.022   5.120   6.386
10665SOL     OW32893   5.686   1.550   6.661
10665SOL    HW132894   5.773   1.540   6.613
10665SOL    HW232895   5.657   1.461   6.697
10666SOL     OW32896   0.546   0.085   0.281
10666SOL    HW132897   0.491   0.001   0.281
10666SOL    HW232898   0.569   0.108   0.376
10667SOL     OW32899   2.717   2.516   5.591
10667SOL    HW132900   2.766   2.575   5.655
10667SOL    HW232901   2.666   2.446   5.642
10668SOL     OW32902   2.577   1.331   6.630
10668SOL    HW132903   2.546   1.290   6.544
10668SOL    HW232904   2.556   1.270   6.706
10669SOL     OW32905   1.357   6.237   6.298
10669SOL    HW132906   1.451   6.228   6.330
10669SOL    HW232907   1.355   6.237   6.198
10670SOL     OW32908   6.433   4.050   4.766
10670SOL    HW132909   6.422   4.101   4.681
10670SOL    HW232910   6.385   4.098   4.840
10671SOL     OW32911   1.834   2.303   3.220
10671SOL    HW132912   1.835   2.368   3.297
10671SOL    HW232913   1.910   2.325   3.158
10672SOL     OW32914   0.146   2.682   0.565
10672SOL    HW132915   0.176   2.631   0.484
10672SOL    HW232916   0.100   2.621   0.628
10673SOL     OW32917   3.245   3.754   4.352
10673SOL    HW132918   3.296   3.797   4.278
10673SOL    HW232919   3.233   3.657   4.331
10674SOL     OW32920   3.980   1.582   2.646
10674SOL    HW132921   4.049   1.595   2.575
10674SOL    HW232922   3.952   1.486   2.648
10675SOL     OW32923   0.988   1.257   5.645
10675SOL    HW132924   1.018   1.188   5.578
10675SOL    HW232925   1.044   1.249   5.727
10676SOL     OW32926   0.022   0.346   6.557
10676SOL    HW132927   6.981   0.328   6.634
10676SOL    HW232928   7.018   0.435   6.516
10677SOL     OW32929   6.122   1.264   0.942
10677SOL    HW132930   6.047   1.201   0.963
10677SOL    HW232931   6.195   1.253   1.010
10678SOL     OW32932   2.260   5.223   3.345
10678SOL    HW132933   2.295   5.235   3.438
10678SOL    HW232934   2.163   5.202   3.348
10679SOL     OW32935   5.514   4.649   3.784
10679SOL    HW132936   5.601   4.640   3.736
10679SOL    HW232937   5.523   4.612   3.876
10680SOL     OW32938   0.483   2.660   3.700
10680SOL    HW132939   0.520   2.737   3.753
10680SOL    HW232940   0.522   2.661   3.608
10681SOL     OW32941   0.535   2.418   6.982
10681SOL    HW132942   0.464   2.472   6.936
10681SOL    HW232943   0.522   2.424   0.061
10682SOL     OW32944   6.690   1.749   2.951
10682SOL    HW132945   6.755   1.749   2.874
10682SOL    HW232946   6.714   1.823   3.014
10683SOL     OW32947   1.186   0.382   4.242
10683SOL    HW132948   1.147   0.333   4.321
10683SOL    HW232949   1.187   0.322   4.163
10684SOL     OW32950   4.946   5.750   0.449
10684SOL    HW132951   5.002   5.706   0.519
10684SOL    HW232952   4.850   5.731   0.468
10685SOL     OW32953   5.986   2.519   2.688
10685SOL    HW132954   6.053   2.467   2.634
10685SOL    HW232955   5.894   2.490   2.664
10686SOL     OW32956   4.354   4.835   1.043
10686SOL    HW132957   4.293   4.757   1.060
10686SOL    HW232958   4.384   4.834   0.948
10687SOL     OW32959   6.332   5.172   1.236
10687SOL    HW132960   6.234   5.165   1.217
10687SOL    HW232961   6.365   5.086   1.274
10688SOL     OW32962   0.499   5.005   1.068
10688SOL    HW132963   0.419   5.061   1.090
10688SOL    HW232964   0.568   5.017   1.140
10689SOL     OW32965   1.127   0.251   0.826
10689SOL    HW132966   1.036   0.262   0.865
10689SOL    HW232967   1.121   0.253   0.726
10690SOL     OW32968   4.516   6.580   3.315
10690SOL    HW132969   4.552   6.634   3.392
10690SOL    HW232970   4.458   6.638   3.258
10691SOL     OW32971   5.783   1.061   1.725
10691SOL    HW132972   5.702   1.068   1.784
10691SOL    HW232973   5.857   1.117   1.763
10692SOL     OW32974   6.572   6.609   4.085
10692SOL    HW132975   6.476   6.581   4.081
10692SOL    HW232976   6.584   6.698   4.041
10693SOL     OW32977   5.274   2.621   4.174
10693SOL    HW132978   5.339   2.633   4.098
10693SOL    HW232979   5.305   2.674   4.253
10694SOL     OW32980   2.411   6.037   0.699
10694SOL    HW132981   2.324   6.086   0.696
10694SOL    HW232982   2.405   5.954   0.643
10695SOL     OW32983   5.568   3.142   5.697
10695SOL    HW132984   5.616   3.167   5.613
10695SOL    HW232985   5.511   3.062   5.681
10696SOL     OW32986   6.464   0.034   1.379
10696SOL    HW132987   6.427   6.961   1.378
10696SOL    HW232988   6.471   0.067   1.473
10697SOL     OW32989   1.979   6.413   2.690
10697SOL    HW132990   2.006   6.320   2.716
10697SOL    HW232991   2.038   6.479   2.737
10698SOL     OW32992   2.998   0.571   4.581
10698SOL    HW132993   2.905   0.592   4.550
10698SOL    HW232994   3.021   0.478   4.555
10699SOL     OW32995   1.610   2.590   3.732
10699SOL    HW132996   1.526   2.589   3.786
10699SOL    HW232997   1.621   2.679   3.688
10700SOL     OW32998   0.975   2.726   2.493
10700SOL    HW132999   1.029   2.802   2.457
10700SOL    HW233000   1.033   2.670   2.553
10701SOL     OW33001   2.632   0.232   1.468
10701SOL    HW133002   2.562   0.162   1.478
10701SOL    HW233003   2.661   0.237   1.373
10702SOL     OW33004   5.168   2.288   0.812
10702SOL    HW133005   5.140   2.192   0.815
10702SOL    HW233006   5.235   2.305   0.884
10703SOL     OW33007   3.883   3.053   4.184
10703SOL    HW133008   3.905   2.983   4.117
10703SOL    HW233009   3.796   3.031   4.228
10704SOL     OW33010   5.805   5.965   2.355
10704SOL    HW133011   5.834   6.048   2.401
10704SOL    HW233012   5.884   5.907   2.336
10705SOL     OW33013   1.571   3.364   6.527
10705SOL    HW133014   1.640   3.434   6.547
10705SOL    HW233015   1.524   3.338   6.612
10706SOL     OW33016   3.248   3.358   0.960
10706SOL    HW133017   3.204   3.307   1.033
10706SOL    HW233018   3.347   3.358   0.973
10707SOL     OW33019   6.154   6.866   6.346
10707SOL    HW133020   6.242   6.911   6.362
10707SOL    HW233021   6.132   6.806   6.423
10708SOL     OW33022   4.880   1.538   1.542
10708SOL    HW133023   4.860   1.450   1.499
10708SOL    HW233024   4.804   1.601   1.527
10709SOL     OW33025   0.961   6.664   6.220
10709SOL    HW133026   0.965   6.722   6.301
10709SOL    HW233027   1.035   6.596   6.225
10710SOL     OW33028   0.247   6.673   3.562
10710SOL    HW133029   0.270   6.765   3.593
10710SOL    HW233030   0.331   6.625   3.535
10711SOL     OW33031   2.193   4.778   5.725
10711SOL    HW133032   2.293   4.774   5.722
10711SOL    HW233033   2.158   4.699   5.776
10712SOL     OW33034   3.424   1.395   6.568
10712SOL    HW133035   3.334   1.407   6.609
10712SOL    HW233036   3.438   1.464   6.497
10713SOL     OW33037   2.002   6.778   0.483
10713SOL    HW133038   2.061   6.849   0.523
10713SOL    HW233039   1.944   6.739   0.555
10714SOL     OW33040   5.669   5.746   4.453
10714SOL    HW133041   5.724   5.744   4.536
10714SOL    HW233042   5.715   5.799   4.382
10715SOL     OW33043   5.869   0.449   2.706
10715SOL    HW133044   5.959   0.489   2.689
10715SOL    HW233045   5.809   0.470   2.628
10716SOL     OW33046   0.305   0.836   1.904
10716SOL    HW133047   0.336   0.922   1.863
10716SOL    HW233048   0.266   0.778   1.832
10717SOL     OW33049   0.342   6.463   2.110
10717SOL    HW133050   0.325   6.366   2.123
10717SOL    HW233051   0.440   6.481   2.111
10718SOL     OW33052   1.195   4.185   5.342
10718SOL    HW133053   1.113   4.194   5.285
10718SOL    HW233054   1.183   4.107   5.404
10719SOL     OW33055   3.716   6.038   2.388
10719SOL    HW133056   3.621   6.015   2.410
10719SOL    HW233057   3.721   6.133   2.358
10720SOL     OW33058   0.468   3.187   6.194
10720SOL    HW133059   0.394   3.213   6.132
10720SOL    HW233060   0.467   3.088   6.208
10721SOL     OW33061   5.438   1.734   4.251
10721SOL    HW133062   5.457   1.783   4.336
10721SOL    HW233063   5.485   1.645   4.252
10722SOL     OW33064   0.557   5.302   0.168
10722SOL    HW133065   0.537   5.262   0.258
10722SOL    HW233066   0.505   5.386   0.157
10723SOL     OW33067   6.344   3.987   6.362
10723SOL    HW133068   6.351   3.997   6.262
10723SOL    HW233069   6.416   3.925   6.394
10724SOL     OW33070   3.734   0.011   5.772
10724SOL    HW133071   3.696   0.022   5.680
10724SOL    HW233072   3.708   6.942   5.808
10725SOL     OW33073   0.431   6.400   5.311
10725SOL    HW133074   0.449   6.306   5.340
10725SOL    HW233075   0.367   6.401   5.235
10726SOL     OW33076   6.760   0.372   3.393
10726SOL    HW133077   6.745   0.470   3.383
10726SOL    HW233078   6.821   0.356   3.471
10727SOL     OW33079   4.721   6.625   6.299
10727SOL    HW133080   4.705   6.623   6.397
10727SOL    HW233081   4.714   6.719   6.265
10728SOL     OW33082   6.115   5.562   3.607
10728SOL    HW133083   6.098   5.615   3.690
10728SOL    HW233084   6.028   5.542   3.562
10729SOL     OW33085   6.704   2.989   4.316
10729SOL    HW133086   6.669   3.080   4.339
10729SOL    HW233087   6.784   2.999   4.255
10730SOL     OW33088   1.677   6.442   4.256
10730SOL    HW133089   1.581   6.458   4.233
10730SOL    HW233090   1.699   6.490   4.341
10731SOL     OW33091   4.898   4.985   6.415
10731SOL    HW133092   4.926   4.993   6.319
10731SOL    HW233093   4.910   4.891   6.445
10732SOL     OW33094   6.702   6.096   2.468
10732SOL    HW133095   6.768   6.062   2.535
10732SOL    HW233096   6.613   6.110   2.512
10733SOL     OW33097   0.550   2.037   6.294
10733SOL    HW133098   0.450   2.028   6.292
10733SOL    HW233099   0.587   1.984   6.370
10734SOL     OW33100   0.331   0.872   4.712
10734SOL    HW133101   0.311   0.788   4.660
10734SOL    HW233102   0.406   0.921   4.667
10735SOL     OW33103   0.058   0.550   1.863
10735SOL    HW133104   0.120   0.622   1.832
10735SOL    HW233105   0.065   0.540   1.962
10736SOL     OW33106   6.075   5.690   3.860
10736SOL    HW133107   6.173   5.702   3.846
10736SOL    HW233108   6.056   5.673   3.957
10737SOL     OW33109   0.030   0.949   1.302
10737SOL    HW133110   7.019   0.967   1.395
10737SOL    HW233111   0.003   1.025   1.243
10738SOL     OW33112   1.965   6.842   1.570
10738SOL    HW133113   1.935   6.748   1.584
10738SOL    HW233114   1.961   6.865   1.473
10739SOL     OW33115   5.100   2.880   4.169
10739SOL    HW133116   5.135   2.806   4.111
10739SOL    HW233117   5.104   2.852   4.265
10740SOL     OW33118   2.755   0.490   5.697
10740SOL    HW133119   2.833   0.436   5.665
10740SOL    HW233120   2.674   0.431   5.702
10741SOL     OW33121   1.067   2.846   4.023
10741SOL    HW133122   1.113   2.775   4.076
10741SOL    HW233123   1.076   2.934   4.069
10742SOL     OW33124   0.159   0.006   2.007
10742SOL    HW133125   0.087   0.025   2.074
10742SOL    HW233126   0.242   0.054   2.032
10743SOL     OW33127   3.603   1.917   5.752
10743SOL    HW133128   3.543   1.883   5.824
10743SOL    HW233129   3.694   1.933   5.789
10744SOL     OW33130   2.399   2.013   0.885
10744SOL    HW133131   2.371   2.107   0.864
10744SOL    HW233132   2.317   1.956   0.894
10745SOL     OW33133   2.678   5.544   1.565
10745SOL    HW133134   2.677   5.628   1.620
10745SOL    HW233135   2.585   5.511   1.552
10746SOL     OW33136   2.124   5.399   6.222
10746SOL    HW133137   2.101   5.390   6.125
10746SOL    HW233138   2.042   5.383   6.277
10747SOL     OW33139   0.376   0.414   4.343
10747SOL    HW133140   0.446   0.347   4.318
10747SOL    HW233141   0.310   0.423   4.269
10748SOL     OW33142   3.112   6.582   2.571
10748SOL    HW133143   3.060   6.643   2.629
10748SOL    HW233144   3.080   6.488   2.584
10749SOL     OW33145   5.356   4.226   1.934
10749SOL    HW133146   5.330   4.254   2.026
10749SOL    HW233147   5.358   4.126   1.930
10750SOL     OW33148   3.887   2.169   4.097
10750SOL    HW133149   3.938   2.185   4.013
10750SOL    HW233150   3.793   2.202   4.086
10751SOL     OW33151   6.689   6.300   4.026
10751SOL    HW133152   6.635   6.383   4.035
10751SOL    HW233153   6.710   6.263   4.116
10752SOL     OW33154   0.247   6.391   6.310
10752SOL    HW133155   0.159   6.433   6.328
10752SOL    HW233156   0.304   6.394   6.392
10753SOL     OW33157   5.593   6.679   4.930
10753SOL    HW133158   5.494   6.689   4.933
10753SOL    HW233159   5.635   6.737   5.000
10754SOL     OW33160   0.588   5.644   2.485
10754SOL    HW133161   0.505   5.648   2.430
10754SOL    HW233162   0.659   5.596   2.433
10755SOL     OW33163   0.257   2.176   1.633
10755SOL    HW133164   0.351   2.200   1.610
10755SOL    HW233165   0.254   2.081   1.664
10756SOL     OW33166   1.315   0.015   6.440
10756SOL    HW133167   1.262   6.952   6.422
10756SOL    HW233168   1.389   7.014   6.504
10757SOL     OW33169   6.558   3.050   1.795
10757SOL    HW133170   6.508   2.979   1.746
10757SOL    HW233171   6.525   3.056   1.889
10758SOL     OW33172   1.152   1.662   0.706
10758SOL    HW133173   1.087   1.738   0.704
10758SOL    HW233174   1.199   1.661   0.794
10759SOL     OW33175   3.462   4.102   4.874
10759SOL    HW133176   3.547   4.097   4.926
10759SOL    HW233177   3.386   4.124   4.935
10760SOL     OW33178   0.962   4.968   6.741
10760SOL    HW133179   0.932   4.876   6.713
10760SOL    HW233180   0.883   5.020   6.774
10761SOL     OW33181   1.550   1.215   6.399
10761SOL    HW133182   1.627   1.261   6.443
10761SOL    HW233183   1.583   1.165   6.318
10762SOL     OW33184   1.419   6.603   0.370
10762SOL    HW133185   1.509   6.644   0.379
10762SOL    HW233186   1.389   6.608   0.275
10763SOL     OW33187   4.888   1.337   2.679
10763SOL    HW133188   4.932   1.406   2.736
10763SOL    HW233189   4.861   1.377   2.592
10764SOL     OW33190   5.092   5.962   5.004
10764SOL    HW133191   5.050   5.881   5.044
10764SOL    HW233192   5.140   5.937   4.919
10765SOL     OW33193   0.554   2.280   1.023
10765SOL    HW133194   0.494   2.331   0.961
10765SOL    HW233195   0.635   2.335   1.045
10766SOL     OW33196   2.445   5.101   6.190
10766SOL    HW133197   2.392   5.029   6.146
10766SOL    HW233198   2.423   5.189   6.148
10767SOL     OW33199   1.755   5.382   6.723
10767SOL    HW133200   1.702   5.466   6.736
10767SOL    HW233201   1.852   5.405   6.715
10768SOL     OW33202   5.268   6.365   6.557
10768SOL    HW133203   5.268   6.462   6.582
10768SOL    HW233204   5.296   6.311   6.636
10769SOL     OW33205   2.891   3.674   4.423
10769SOL    HW133206   2.950   3.742   4.380
10769SOL    HW233207   2.867   3.703   4.515
10770SOL     OW33208   4.921   0.156   3.386
10770SOL    HW133209   5.005   0.184   3.434
10770SOL    HW233210   4.912   0.056   3.390
10771SOL     OW33211   4.307   6.098   5.891
10771SOL    HW133212   4.351   6.080   5.803
10771SOL    HW233213   4.377   6.116   5.960
10772SOL     OW33214   4.791   4.452   2.739
10772SOL    HW133215   4.822   4.543   2.711
10772SOL    HW233216   4.715   4.424   2.681
10773SOL     OW33217   0.694   4.104   0.464
10773SOL    HW133218   0.785   4.063   0.465
10773SOL    HW233219   0.699   4.196   0.424
10774SOL     OW33220   0.527   3.148   0.898
10774SOL    HW133221   0.593   3.223   0.897
10774SOL    HW233222   0.490   3.135   0.806
10775SOL     OW33223   2.079   4.492   0.185
10775SOL    HW133224   2.004   4.515   0.247
10775SOL    HW233225   2.166   4.514   0.228
10776SOL     OW33226   0.858   3.339   2.949
10776SOL    HW133227   0.912   3.361   3.030
10776SOL    HW233228   0.905   3.267   2.897
10777SOL     OW33229   1.909   0.118   1.466
10777SOL    HW133230   1.898   0.106   1.368
10777SOL    HW233231   1.833   0.075   1.514
10778SOL     OW33232   4.467   0.365   3.371
10778SOL    HW133233   4.461   0.441   3.306
10778SOL    HW233234   4.559   0.362   3.410
10779SOL     OW33235   5.721   2.708   5.969
10779SOL    HW133236   5.726   2.793   6.020
10779SOL    HW233237   5.626   2.677   5.966
10780SOL     OW33238   1.543   5.066   5.081
10780SOL    HW133239   1.580   5.157   5.066
10780SOL    HW233240   1.555   5.040   5.177
10781SOL     OW33241   5.859   2.074   6.321
10781SOL    HW133242   5.894   2.165   6.298
10781SOL    HW233243   5.796   2.043   6.249
10782SOL     OW33244   0.845   3.302   5.101
10782SOL    HW133245   0.944   3.297   5.115
10782SOL    HW233246   0.804   3.211   5.116
10783SOL     OW33247   1.780   4.114   3.675
10783SOL    HW133248   1.859   4.174   3.663
10783SOL    HW233249   1.705   4.167   3.716
10784SOL     OW33250   4.919   5.389   3.861
10784SOL    HW133251   4.982   5.408   3.936
10784SOL    HW233252   4.826   5.380   3.896
10785SOL     OW33253   1.423   5.124   1.648
10785SOL    HW133254   1.416   5.188   1.572
10785SOL    HW233255   1.486   5.160   1.716
10786SOL     OW33256   5.257   1.297   2.675
10786SOL    HW133257   5.339   1.249   2.705
10786SOL    HW233258   5.231   1.265   2.584
10787SOL     OW33259   3.538   1.801   3.718
10787SOL    HW133260   3.597   1.749   3.655
10787SOL    HW233261   3.564   1.780   3.812
10788SOL     OW33262   1.566   3.289   6.924
10788SOL    HW133263   1.523   3.379   6.917
10788SOL    HW233264   1.505   3.226   6.973
10789SOL     OW33265   6.642   1.771   2.618
10789SOL    HW133266   6.633   1.714   2.537
10789SOL    HW233267   6.557   1.766   2.672
10790SOL     OW33268   6.885   2.084   5.348
10790SOL    HW133269   6.923   2.164   5.396
10790SOL    HW233270   6.893   2.004   5.407
10791SOL     OW33271   1.787   3.169   3.889
10791SOL    HW133272   1.809   3.150   3.794
10791SOL    HW233273   1.802   3.266   3.908
10792SOL     OW33274   3.349   1.115   2.179
10792SOL    HW133275   3.402   1.188   2.135
10792SOL    HW233276   3.382   1.102   2.272
10793SOL     OW33277   3.446   1.857   4.691
10793SOL    HW133278   3.393   1.852   4.775
10793SOL    HW233279   3.406   1.925   4.630
10794SOL     OW33280   4.855   3.030   6.666
10794SOL    HW133281   4.927   3.065   6.606
10794SOL    HW233282   4.839   3.095   6.740
10795SOL     OW33283   6.203   3.237   3.595
10795SOL    HW133284   6.159   3.180   3.526
10795SOL    HW233285   6.206   3.188   3.682
10796SOL     OW33286   0.661   1.350   6.121
10796SOL    HW133287   0.629   1.437   6.159
10796SOL    HW233288   0.683   1.361   6.024
10797SOL     OW33289   5.416   4.852   6.492
10797SOL    HW133290   5.506   4.896   6.489
10797SOL    HW233291   5.427   4.756   6.517
10798SOL     OW33292   1.883   6.091   0.620
10798SOL    HW133293   1.917   6.156   0.552
10798SOL    HW233294   1.833   6.141   0.691
10799SOL     OW33295   2.571   0.794   2.707
10799SOL    HW133296   2.630   0.874   2.694
10799SOL    HW233297   2.516   0.807   2.790
10800SOL     OW33298   1.970   0.177   4.791
10800SOL    HW133299   1.915   0.112   4.842
10800SOL    HW233300   2.063   0.178   4.827
10801SOL     OW33301   2.997   5.966   6.694
10801SOL    HW133302   2.961   5.927   6.610
10801SOL    HW233303   3.072   6.028   6.673
10802SOL     OW33304   0.979   4.799   4.015
10802SOL    HW133305   1.056   4.737   4.002
10802SOL    HW233306   0.894   4.752   3.992
10803SOL     OW33307   6.686   3.937   4.837
10803SOL    HW133308   6.602   3.980   4.802
10803SOL    HW233309   6.755   3.936   4.764
10804SOL     OW33310   3.896   4.484   1.002
10804SOL    HW133311   3.808   4.446   1.030
10804SOL    HW233312   3.970   4.428   1.041
10805SOL     OW33313   4.305   6.275   0.460
10805SOL    HW133314   4.352   6.320   0.536
10805SOL    HW233315   4.360   6.197   0.429
10806SOL     OW33316   5.290   2.827   6.456
10806SOL    HW133317   5.261   2.765   6.382
10806SOL    HW233318   5.232   2.908   6.456
10807SOL     OW33319   5.068   2.321   5.019
10807SOL    HW133320   5.077   2.411   4.977
10807SOL    HW233321   5.119   2.254   4.966
10808SOL     OW33322   0.502   2.121   6.701
10808SOL    HW133323   0.520   2.128   6.799
10808SOL    HW233324   0.546   2.039   6.664
10809SOL     OW33325   1.220   0.936   2.626
10809SOL    HW133326   1.317   0.935   2.602
10809SOL    HW233327   1.168   0.979   2.552
10810SOL     OW33328   1.868   0.943   5.988
10810SOL    HW133329   1.916   0.984   5.910
10810SOL    HW233330   1.929   0.881   6.037
10811SOL     OW33331   4.169   6.131   6.510
10811SOL    HW133332   4.200   6.081   6.429
10811SOL    HW233333   4.073   6.156   6.499
10812SOL     OW33334   6.296   2.876   3.144
10812SOL    HW133335   6.256   2.876   3.053
10812SOL    HW233336   6.394   2.895   3.138
10813SOL     OW33337   3.012   5.982   2.324
10813SOL    HW133338   3.033   5.954   2.231
10813SOL    HW233339   3.074   5.936   2.388
10814SOL     OW33340   1.729   6.474   4.728
10814SOL    HW133341   1.770   6.478   4.819
10814SOL    HW233342   1.753   6.388   4.684
10815SOL     OW33343   5.388   1.294   5.507
10815SOL    HW133344   5.357   1.383   5.540
10815SOL    HW233345   5.344   1.222   5.560
10816SOL     OW33346   2.293   1.697   1.584
10816SOL    HW133347   2.275   1.644   1.667
10816SOL    HW233348   2.371   1.657   1.535
10817SOL     OW33349   3.245   1.826   1.918
10817SOL    HW133350   3.180   1.782   1.856
10817SOL    HW233351   3.206   1.912   1.952
10818SOL     OW33352   4.667   3.623   6.507
10818SOL    HW133353   4.760   3.629   6.471
10818SOL    HW233354   4.656   3.536   6.555
10819SOL     OW33355   1.912   4.286   5.472
10819SOL    HW133356   1.851   4.339   5.413
10819SOL    HW233357   1.971   4.348   5.524
10820SOL     OW33358   1.062   5.885   4.990
10820SOL    HW133359   1.148   5.855   5.032
10820SOL    HW233360   1.077   5.904   4.893
10821SOL     OW33361   0.587   0.521   6.760
10821SOL    HW133362   0.552   0.554   6.672
10821SOL    HW233363   0.626   0.430   6.749
10822SOL     OW33364   0.560   4.324   6.435
10822SOL    HW133365   0.556   4.224   6.427
10822SOL    HW233366   0.496   4.365   6.370
10823SOL     OW33367   2.136   2.274   0.910
10823SOL    HW133368   2.236   2.276   0.911
10823SOL    HW233369   2.101   2.362   0.943
10824SOL     OW33370   5.298   1.037   4.381
10824SOL    HW133371   5.396   1.017   4.382
10824SOL    HW233372   5.269   1.060   4.288
10825SOL     OW33373   3.044   1.368   2.724
10825SOL    HW133374   3.017   1.446   2.780
10825SOL    HW233375   3.119   1.319   2.769
10826SOL     OW33376   6.894   3.740   1.185
10826SOL    HW133377   6.967   3.682   1.147
10826SOL    HW233378   6.808   3.720   1.138
10827SOL     OW33379   0.891   2.640   4.327
10827SOL    HW133380   0.799   2.608   4.347
10827SOL    HW233381   0.958   2.568   4.347
10828SOL     OW33382   2.450   4.741   0.021
10828SOL    HW133383   2.501   4.661   0.052
10828SOL    HW233384   2.388   4.714   6.967
10829SOL     OW33385   2.306   4.278   2.048
10829SOL    HW133386   2.358   4.300   2.130
10829SOL    HW233387   2.364   4.290   1.967
10830SOL     OW33388   6.114   0.757   3.718
10830SOL    HW133389   6.124   0.813   3.801
10830SOL    HW233390   6.189   0.776   3.656
10831SOL     OW33391   5.413   2.446   1.969
10831SOL    HW133392   5.391   2.500   1.888
10831SOL    HW233393   5.442   2.507   2.043
10832SOL     OW33394   0.735   3.224   2.595
10832SOL    HW133395   0.712   3.184   2.506
10832SOL    HW233396   0.816   3.179   2.632
10833SOL     OW33397   3.226   6.809   4.443
10833SOL    HW133398   3.192   6.894   4.484
10833SOL    HW233399   3.197   6.731   4.497
10834SOL     OW33400   0.301   1.695   5.828
10834SOL    HW133401   0.395   1.688   5.795
10834SOL    HW233402   0.294   1.652   5.918
10835SOL     OW33403   0.982   1.882   0.667
10835SOL    HW133404   0.940   1.914   0.582
10835SOL    HW233405   0.951   1.940   0.743
10836SOL     OW33406   1.067   2.605   1.096
10836SOL    HW133407   0.997   2.546   1.057
10836SOL    HW233408   1.128   2.636   1.023
10837SOL     OW33409   0.597   5.674   0.599
10837SOL    HW133410   0.583   5.585   0.641
10837SOL    HW233411   0.608   5.663   0.500
10838SOL     OW33412   6.267   6.351   0.781
10838SOL    HW133413   6.185   6.302   0.752
10838SOL    HW233414   6.249   6.449   0.778
10839SOL     OW33415   2.254   1.980   6.631
10839SOL    HW133416   2.282   2.066   6.588
10839SOL    HW233417   2.333   1.934   6.671
10840SOL     OW33418   2.053   0.291   2.374
10840SOL    HW133419   2.133   0.322   2.323
10840SOL    HW233420   2.038   0.350   2.453
10841SOL     OW33421   4.434   3.800   0.763
10841SOL    HW133422   4.414   3.817   0.860
10841SOL    HW233423   4.412   3.705   0.741
10842SOL     OW33424   6.200   2.092   1.750
10842SOL    HW133425   6.298   2.109   1.743
10842SOL    HW233426   6.164   2.139   1.831
10843SOL     OW33427   0.841   2.505   1.615
10843SOL    HW133428   0.878   2.571   1.549
10843SOL    HW233429   0.897   2.506   1.697
10844SOL     OW33430   5.338   0.094   3.991
10844SOL    HW133431   5.305   0.187   4.009
10844SOL    HW233432   5.342   0.079   3.892
10845SOL     OW33433   2.105   3.166   1.199
10845SOL    HW133434   2.159   3.203   1.274
10845SOL    HW233435   2.009   3.192   1.211
10846SOL     OW33436   3.644   2.820   2.012
10846SOL    HW133437   3.665   2.730   1.975
10846SOL    HW233438   3.709   2.843   2.084
10847SOL     OW33439   4.665   2.225   5.224
10847SOL    HW133440   4.593   2.294   5.222
10847SOL    HW233441   4.703   2.213   5.132
10848SOL     OW33442   1.461   0.870   6.880
10848SOL    HW133443   1.537   0.931   6.856
10848SOL    HW233444   1.377   0.905   6.839
10849SOL     OW33445   1.441   4.946   4.269
10849SOL    HW133446   1.482   5.021   4.217
10849SOL    HW233447   1.513   4.892   4.312
10850SOL     OW33448   5.625   0.710   2.488
10850SOL    HW133449   5.559   0.639   2.512
10850SOL    HW233450   5.702   0.669   2.439
10851SOL     OW33451   4.326   2.799   6.720
10851SOL    HW133452   4.423   2.811   6.704
10851SOL    HW233453   4.311   2.718   6.777
10852SOL     OW33454   5.913   0.676   5.929
10852SOL    HW133455   5.884   0.661   6.023
10852SOL    HW233456   5.969   0.759   5.924
10853SOL     OW33457   3.329   0.736   4.848
10853SOL    HW133458   3.278   0.744   4.762
10853SOL    HW233459   3.278   0.678   4.911
10854SOL     OW33460   6.183   0.138   0.605
10854SOL    HW133461   6.144   0.218   0.650
10854SOL    HW233462   6.269   0.112   0.649
10855SOL     OW33463   0.591   5.676   1.310
10855SOL    HW133464   0.672   5.730   1.335
10855SOL    HW233465   0.604   5.582   1.340
10856SOL     OW33466   5.634   6.383   6.625
10856SOL    HW133467   5.616   6.376   6.723
10856SOL    HW233468   5.592   6.467   6.590
10857SOL     OW33469   6.615   6.834   4.926
10857SOL    HW133470   6.611   6.757   4.863
10857SOL    HW233471   6.566   6.912   4.887
10858SOL     OW33472   1.928   1.982   0.079
10858SOL    HW133473   1.900   2.040   0.003
10858SOL    HW233474   1.847   1.941   0.121
10859SOL     OW33475   2.432   5.506   2.540
10859SOL    HW133476   2.432   5.448   2.622
10859SOL    HW233477   2.344   5.552   2.532
10860SOL     OW33478   6.016   1.728   1.371
10860SOL    HW133479   6.017   1.697   1.276
10860SOL    HW233480   6.050   1.654   1.430
10861SOL     OW33481   1.723   4.328   1.416
10861SOL    HW133482   1.763   4.332   1.325
10861SOL    HW233483   1.760   4.402   1.473
10862SOL     OW33484   3.374   4.137   5.532
10862SOL    HW133485   3.427   4.146   5.448
10862SOL    HW233486   3.331   4.225   5.554
10863SOL     OW33487   1.476   0.331   2.832
10863SOL    HW133488   1.513   0.424   2.843
10863SOL    HW233489   1.524   0.269   2.894
10864SOL     OW33490   2.992   3.920   1.985
10864SOL    HW133491   3.007   4.010   1.944
10864SOL    HW233492   3.004   3.926   2.084
10865SOL     OW33493   2.855   2.119   2.852
10865SOL    HW133494   2.942   2.126   2.803
10865SOL    HW233495   2.839   2.024   2.879
10866SOL     OW33496   1.083   3.306   4.530
10866SOL    HW133497   1.176   3.270   4.539
10866SOL    HW233498   1.018   3.230   4.537
10867SOL     OW33499   4.618   3.249   0.204
10867SOL    HW133500   4.581   3.247   0.111
10867SOL    HW233501   4.571   3.319   0.258
10868SOL     OW33502   1.297   0.053   5.098
10868SOL    HW133503   1.207   0.013   5.079
10868SOL    HW233504   1.368   7.005   5.077
10869NA      NA33505   0.224   0.961   6.529
10870NA      NA33506   4.661   4.835   5.157
10871NA      NA33507   0.678   4.832   3.129
10872NA      NA33508   6.090   3.686   3.541
10873NA      NA33509   3.900   2.579   5.404
10874NA      NA33510   2.222   4.258   6.915
10875NA      NA33511   1.431   5.562   0.435
10876NA      NA33512   4.343   4.944   2.110
10877NA      NA33513   5.310   3.424   1.329
10878NA      NA33514   3.895   1.851   0.526
10879NA      NA33515   5.454   6.509   1.425
10880NA      NA33516   2.995   6.778   4.861
10881NA      NA33517   4.123   5.154   2.786
10882NA      NA33518   4.063   4.919   6.525
   7.01978   7.01978   7.01978
